Membrane in water
40347
    1TMC1    C1    1   3.961   2.559  11.504  0.3354 -0.0006  0.5183
    1TMC1    C2    2   4.035   2.582  11.389 -0.0001 -0.0402 -0.4143
    1TMC1    C3    3   4.023   2.702  11.331 -0.3659 -0.0917  0.1861
    1TMC1    C4    4   3.882   2.654  11.558 -0.1763  0.0908 -0.5050
    1TMC1    C5    5   3.870   2.776  11.488 -0.6449  0.3695 -0.4899
    1TMC1    C6    6   3.936   2.798  11.370 -0.5369  0.7351  0.1564
    1TMC1     C    7   3.982   2.439  11.585 -0.2052 -0.2111  0.4950
    1TMC1     O    8   3.933   2.436  11.700  0.3700 -0.0010  0.2365
    1TMC1     H    9   4.113   2.512  11.364 -1.2070 -1.0047 -1.5124
    1TMC1    H1   10   3.852   2.645  11.661 -0.3581 -0.9942 -0.6534
    1TMC1    H2   11   3.926   2.893  11.318 -0.4254  0.5015 -0.2981
    1TMC1    C7   12   3.854   2.896  11.570 -0.9423  0.4535  1.1858
    1TMC1    C8   13   4.107   2.730  11.217  0.6309 -0.2640  0.1487
    1TMC1    O1   14   3.936   2.984  11.562 -0.4696 -0.2103  0.4764
    1TMC1    O2   15   4.174   2.635  11.178 -0.0097 -0.1496  0.1724
    1TMC1    O3   16   3.786   2.866  11.682  0.0106  0.1801 -0.2509
    1TMC1    H3   17   3.723   2.792  11.674  0.1911 -0.2859  2.6294
    1TMC1    O5   18   4.168   2.835  11.264  0.1050  0.4179  0.3886
    1TMC1    H5   19   4.106   2.908  11.285 -0.6074 -0.1934  0.4045
    2MPD2     C   20   4.236   2.011  11.689  0.4056 -0.2625 -0.0640
    2MPD2    C1   21   4.145   2.088  11.764  0.4739  0.7328  0.2958
    2MPD2    C2   22   4.088   2.196  11.709  0.0493 -0.2095  0.7649
    2MPD2    C3   23   4.110   2.227  11.580  0.4033  0.4899  0.5538
    2MPD2    C4   24   4.189   2.147  11.499 -0.2201  0.7751  0.0716
    2MPD2    C5   25   4.253   2.040  11.563  0.1871 -0.2472 -0.1613
    2MPD2     H   26   4.052   2.271  11.779  1.6782  0.8693  0.4404
    2MPD2    H1   27   4.198   2.172  11.393 -1.4946  1.0273  0.0266
    2MPD2    H2   28   4.282   1.923  11.732 -1.5236  0.0907  2.7080
    2MPD2    H3   29   4.319   1.976  11.505 -0.0083  1.0712 -1.8568
    2MPD2     N   30   4.066   2.346  11.526  0.0950 -0.2216 -0.6689
    2MPD2    H5   31   4.085   2.361  11.427 -0.9752  1.3646 -0.6409
    2MPD2    N1   32   4.097   2.042  11.892  0.3389  0.1120 -0.0984
    2MPD2    H7   33   4.043   2.114  11.939  1.1605  0.9524 -0.4626
    3TMC1    C1   34   3.107   2.679  10.678 -0.3859  1.0941  0.6371
    3TMC1    C2   35   3.091   2.790  10.598 -0.0109  0.6258 -0.7793
    3TMC1    C3   36   3.112   2.781  10.464  0.3017  0.1232 -0.3147
    3TMC1    C4   37   3.125   2.560  10.626 -0.4667 -0.7238 -0.5821
    3TMC1    C5   38   3.148   2.544  10.489 -0.4244 -0.2376 -0.2093
    3TMC1    C6   39   3.134   2.655  10.406  0.2995 -0.5224 -0.3142
    3TMC1     C   40   3.012   2.676  10.799  0.2254 -0.2207 -1.0903
    3TMC1     O   41   2.959   2.565  10.814  0.4060  0.0107 -0.5128
    3TMC1     H   42   3.064   2.887  10.638 -0.3262 -0.7703  2.3865
    3TMC1    H1   43   3.141   2.479  10.696 -1.4387  0.8987  1.5123
    3TMC1    H2   44   3.166   2.643  10.303 -3.0043  3.1443 -1.7604
    3TMC1    C7   45   3.125   2.413  10.426  0.1887 -0.3725 -0.1347
    3TMC1    C8   46   3.119   2.901  10.392  0.0737 -0.1044 -1.1704
    3TMC1    O1   47   3.172   2.384  10.316  0.4391  0.3521 -0.5634
    3TMC1    O2   48   3.076   3.002  10.444 -0.1186 -0.0241 -0.4651
    3TMC1    O3   49   2.996   2.387  10.450  0.7843  0.2053  0.1353
    3TMC1    H3   50   2.971   2.412  10.542 -1.1464 -0.6295 -0.1732
    3TMC1    O5   51   3.141   2.892  10.259  0.1069  0.7804  0.0458
    3TMC1    H5   52   3.169   2.808  10.217  0.1289  0.4228  0.7893
    4MPD2     C   53   2.754   2.871  11.202  0.1457  0.3441  0.5371
    4MPD2    C1   54   2.861   2.950  11.176 -0.4709  0.1863  1.1335
    4MPD2    C2   55   2.945   2.924  11.068 -0.0883  0.2038 -0.1073
    4MPD2    C3   56   2.934   2.813  10.995 -0.0233  0.5546 -0.3430
    4MPD2    C4   57   2.827   2.728  11.025 -0.0469  0.1986 -0.8622
    4MPD2    C5   58   2.748   2.763  11.124  0.0882  0.3378  0.1214
    4MPD2     H   59   3.026   2.993  11.046 -0.2260  1.4300  3.1925
    4MPD2    H1   60   2.798   2.641  10.968 -1.3616 -0.9163  1.4867
    4MPD2    H2   61   2.678   2.894  11.276 -1.3786 -1.0423 -0.6023
    4MPD2    H3   62   2.671   2.692  11.151  1.4880 -1.9484 -1.9068
    4MPD2     N   63   3.018   2.788  10.880 -0.2232  0.3532 -0.1813
    4MPD2    H5   64   3.092   2.854  10.859  0.2329 -1.1302 -3.2121
    4MPD2    N1   65   2.884   3.068  11.250  0.1036 -0.4684  0.1819
    4MPD2    H7   66   2.968   3.118  11.222 -2.4128  3.2933 -0.7346
    5TCq1    O1   67   3.998   0.278  12.209 -0.9511 -0.0342 -0.5097
    5TCq1    C1   68   3.965   0.308  12.077  0.2716 -0.4970  0.0731
    5TCq1    O2   69   4.047   0.367  12.004  0.4521  0.6237  0.2160
    5TCq1    C2   70   3.846   0.231  12.041 -1.0381  0.3107 -0.4539
    5TCq1    C3   71   3.740   0.221  12.130 -0.3035  0.9348  0.2194
    5TCq1    C4   72   3.629   0.155  12.092 -0.7329  0.0265  0.1128
    5TCq1    C5   73   3.617   0.111  11.961 -0.2058 -0.3943 -0.0750
    5TCq1    C6   74   3.721   0.136  11.872 -0.5562 -0.2628 -0.1239
    5TCq1    C7   75   3.832   0.205  11.903  0.5502 -0.7508 -0.8564
    5TCq1    C8   76   3.723   0.099  11.730  0.2581  0.2164 -0.1205
    5TCq1    O4   77   3.820   0.125  11.663  0.2427 -0.0758 -0.2633
    5TCq1    C9   78   3.527   0.127  12.189 -0.0851 -0.2204 -0.0256
    5TCq1    O5   79   3.570   0.083  12.301 -0.0689 -0.0197 -0.7372
    5TCq1    O6   80   3.411   0.107  12.140 -0.8622  0.0023 -0.1799
    5TCq1    H1   81   3.938   0.211  12.250 -0.7592  0.8169  1.1691
    5TCq1    H2   82   3.743   0.264  12.230  2.9537  0.3160  0.3917
    5TCq1    H3   83   3.528   0.055  11.934  0.0842  0.9650 -3.8330
    5TCq1    H4   84   3.912   0.232  11.835  0.9518 -1.0202 -0.4963
    6MPD2     C   85   3.446   4.729  11.525  0.0806  0.2309 -0.0916
    6MPD2    C1   86   3.577   4.732  11.561 -0.5143  0.5889 -0.7661
    6MPD2    C2   87   3.672   4.673  11.482 -0.2271 -0.3214 -0.7812
    6MPD2    C3   88   3.633   4.612  11.365 -0.3622  0.7165  0.3421
    6MPD2    C4   89   3.500   4.628  11.327  0.0977  0.4355  0.0049
    6MPD2    C5   90   3.407   4.690  11.406  0.4951 -0.6845 -0.5853
    6MPD2     H   91   3.777   4.663  11.508 -0.0276 -0.3424 -1.5705
    6MPD2    H1   92   3.454   4.581  11.241  3.3537  0.7321 -1.8937
    6MPD2    H2   93   3.373   0.027  11.599 -1.4534  2.3931 -2.5095
    6MPD2    H3   94   3.301   4.690  11.381 -0.2487  1.2295  2.5164
    6MPD2     N   95   3.720   4.521  11.298 -0.1805  0.4653 -0.9245
    6MPD2    H5   96   3.816   4.509  11.327 -1.0192 -0.8357  1.3534
    6MPD2    N1   97   3.604   0.050  11.690  0.1645 -0.3060 -0.0672
    6MPD2    H7   98   3.522   0.060  11.749  0.4163  0.8693  0.0864
    7TCq1    O1   99   0.907   3.636  12.255  0.6642 -0.3746 -0.2979
    7TCq1    C1  100   0.991   3.539  12.307  0.2966  0.2397 -0.2503
    7TCq1    O2  101   1.113   3.539  12.296  1.1339  0.5149  0.0079
    7TCq1    C2  102   0.920   3.470  12.401  0.5840 -0.2621 -0.6256
    7TCq1    C3  103   0.793   3.434  12.371 -0.0616  0.2818 -0.3024
    7TCq1    C4  104   0.722   3.372  12.470 -0.1020  0.8050 -0.7742
    7TCq1    C5  105   0.778   3.338  12.590 -0.1172  0.3164  0.2972
    7TCq1    C6  106   0.903   3.382  12.613  0.4455 -0.3024  0.3718
    7TCq1    C7  107   0.980   3.448  12.522 -0.3311  0.3151 -0.3549
    7TCq1    C8  108   0.965   3.346  12.735  0.4386 -0.0194  0.4503
    7TCq1    O4  109   0.959   3.227  12.763  0.2236  0.2612 -0.1313
    7TCq1    C9  110   0.582   3.342  12.439  0.0545 -0.0304 -0.4439
    7TCq1    O5  111   0.519   3.264  12.521  0.9155  0.3655 -0.0700
    7TCq1    O6  112   0.527   3.416  12.351  0.3991 -0.3520 -0.3689
    7TCq1    H1  113   0.815   3.634  12.289 -0.1182 -2.7227 -2.6118
    7TCq1    H2  114   0.757   3.439  12.269  0.1720  1.8242 -0.3042
    7TCq1    H3  115   0.728   3.264  12.652  0.6761  0.6304  1.3087
    7TCq1    H4  116   1.081   3.481  12.541 -0.6846  1.0801  0.2090
    8MPD2     C  117   1.239   3.434  13.162 -0.4111 -0.3715  1.1365
    8MPD2    C1  118   1.211   3.315  13.097  0.2986 -0.1661  0.0603
    8MPD2    C2  119   1.146   3.318  12.974  0.3373  0.0100 -0.3590
    8MPD2    C3  120   1.098   3.442  12.925  0.2230 -0.0298  0.6677
    8MPD2    C4  121   1.135   3.561  12.996  0.3506  0.2967 -0.0536
    8MPD2    C5  122   1.209   3.553  13.108 -0.3471  0.0202 -0.1089
    8MPD2     H  123   1.140   3.225  12.919  1.2060 -0.7716  0.8712
    8MPD2    H1  124   1.105   3.648  12.940  0.9830  0.3969 -0.2313
    8MPD2    H2  125   1.290   3.433  13.258  0.3963  1.0787  0.7257
    8MPD2    H3  126   1.241   3.646  13.153 -0.1902 -0.0415 -0.0932
    8MPD2     N  127   1.024   3.454  12.804  0.5735  0.0565  0.1204
    8MPD2    H5  128   1.015   3.549  12.768 -0.2896  0.1668  0.6140
    8MPD2    N1  129   1.272   3.200  13.153  0.2427  0.0459 -0.2841
    8MPD2    H7  130   1.339   3.216  13.227  2.4287  0.4193 -2.3114
    9TMC1    C1  131   3.385   3.551  11.151  0.1156 -0.4817  0.0839
    9TMC1    C2  132   3.383   3.596  11.019 -0.0188 -0.2519  0.4035
    9TMC1    C3  133   3.291   3.690  10.986  0.2009  0.0505  0.0682
    9TMC1    C4  134   3.305   3.613  11.248  0.4506  0.3142  0.1962
    9TMC1    C5  135   3.215   3.713  11.207  0.2918  0.3054 -0.4875
    9TMC1    C6  136   3.204   3.749  11.078 -0.1053 -0.0349 -0.4652
    9TMC1     C  137   3.503   3.470  11.190 -0.2628  0.5127  0.0156
    9TMC1     O  138   3.595   3.455  11.111 -0.3362  0.5501  0.6841
    9TMC1     H  139   3.452   3.556  10.945 -0.9294 -1.1279  0.0231
    9TMC1    H1  140   3.317   3.602  11.355  0.6136  2.4788  0.4009
    9TMC1    H2  141   3.138   3.828  11.044  2.1440  1.7810 -0.5880
    9TMC1    C7  142   3.136   3.775  11.305  0.4704 -0.3294 -0.0827
    9TMC1    C8  143   3.321   3.765  10.863 -0.1263 -0.5872 -0.5613
    9TMC1    O1  144   3.066   3.719  11.388 -0.3175 -0.4084  0.4314
    9TMC1    O2  145   3.296   3.885  10.850  0.3009 -0.0427  0.0812
    9TMC1    O3  146   3.195   3.893  11.332 -0.0838 -0.3330  0.2888
    9TMC1    H3  147   3.266   3.920  11.270  0.6024 -0.5948  0.9674
    9TMC1    O5  148   3.274   3.678  10.768 -0.9798 -0.8971  0.5652
    9TMC1    H5  149   3.283   3.583  10.788  2.6000 -0.6267  0.2548
   10MPD2     C  150   3.728   3.412  11.374  0.2372 -0.4277  0.5497
   10MPD2    C1  151   3.599   3.381  11.402  0.2237 -0.0329 -0.5089
   10MPD2    C2  152   3.577   3.303  11.516 -0.2400 -0.6192  0.1155
   10MPD2    C3  153   3.681   3.254  11.591 -0.8068  0.2183 -0.0891
   10MPD2    C4  154   3.809   3.280  11.558  0.3495  0.2235 -0.4214
   10MPD2    C5  155   3.833   3.356  11.448 -0.0280 -0.3583  0.3072
   10MPD2     H  156   3.473   3.284  11.538 -0.6101  0.6406 -0.5638
   10MPD2    H1  157   3.894   3.244  11.615 -1.3631  0.9052  2.5647
   10MPD2    H2  158   3.754   3.468  11.284 -2.4352 -3.6274 -2.2429
   10MPD2    H3  159   3.937   3.367  11.420  0.3407 -0.9027  1.4310
   10MPD2     N  160   3.660   3.157  11.699 -0.0661 -0.4939  0.4452
   10MPD2    H5  161   3.740   3.129  11.755  2.9063  0.6699 -3.1846
   10MPD2    N1  162   3.490   3.429  11.320 -0.1964 -0.0412  0.2734
   10MPD2    H7  163   3.395   3.413  11.352 -0.0532 -2.6455 -0.6179
   11TCq1    O1  164   0.246   2.867  15.097  0.3578 -0.3732 -0.7652
   11TCq1    C1  165   0.134   2.796  15.105 -0.5326  0.1764 -0.8440
   11TCq1    O2  166   0.033   2.826  15.162 -0.7145  0.2332 -0.1117
   11TCq1    C2  167   0.115   2.709  14.989  0.0326  0.8113 -0.3806
   11TCq1    C3  168   0.196   2.722  14.881 -0.1582  0.0643 -0.4884
   11TCq1    C4  169   0.165   2.652  14.767 -0.1822 -0.3892 -0.3490
   11TCq1    C5  170   0.053   2.568  14.760 -0.0454  0.4749 -0.5360
   11TCq1    C6  171   4.698   2.571  14.868 -0.8384  0.4532 -0.0452
   11TCq1    C7  172   4.732   2.634  14.989  1.1868  0.5818 -0.4836
   11TCq1    C8  173   4.563   2.523  14.854  0.7689  0.2499 -0.6311
   11TCq1    O4  174   4.483   2.576  14.926  0.7734  0.2923 -0.5230
   11TCq1    C9  175   0.258   2.651  14.657  0.5626 -0.0458 -0.1451
   11TCq1    O5  176   0.362   2.720  14.668 -0.4479 -0.3483 -0.0336
   11TCq1    O6  177   0.240   2.569  14.566 -0.6141 -0.0802 -0.4469
   11TCq1    H1  178   0.315   2.802  15.070 -0.6159 -0.9567 -1.8552
   11TCq1    H2  179   0.287   2.780  14.885  0.2858 -0.6881  0.2118
   11TCq1    H3  180   0.042   2.529  14.660 -2.6048  0.4110 -0.2501
   11TCq1    H4  181   4.660   2.636  15.070  1.5478 -1.6947 -0.1184
   12MPD2     C  182   4.310   2.499  14.700 -0.2183  0.2789  0.3000
   12MPD2    C1  183   4.431   2.439  14.664 -0.6646  0.0150  0.1184
   12MPD2    C2  184   4.438   2.378  14.545 -0.1088  0.2106 -0.1461
   12MPD2    C3  185   4.329   2.363  14.460  0.4134  0.8077  0.1917
   12MPD2    C4  186   4.211   2.435  14.489  0.0088  0.1719 -1.0508
   12MPD2    C5  187   4.206   2.504  14.610 -0.0834  0.4989  0.3278
   12MPD2     H  188   4.531   2.329  14.518 -0.0376 -0.5918  1.5724
   12MPD2    H1  189   4.120   2.429  14.430 -1.7707 -0.4389  1.7792
   12MPD2    H2  190   4.293   2.545  14.796 -1.3376  0.3839  0.0444
   12MPD2    H3  191   4.115   2.553  14.643  1.2456  2.3982  1.2112
   12MPD2     N  192   4.341   2.284  14.340  0.0325  0.5094  0.0272
   12MPD2    H5  193   4.273   2.303  14.266  1.5666  1.2452 -1.1891
   12MPD2    N1  194   4.551   2.464  14.731  0.2521 -0.5176  0.0778
   12MPD2    H7  195   4.635   2.433  14.682 -0.0200 -1.3579  0.1508
   13TCq1    O1  196   3.688   3.070  10.123  0.3461 -0.4387  0.4734
   13TCq1    C1  197   3.576   2.988  10.110  0.2700  0.5102  0.5729
   13TCq1    O2  198   3.504   2.987  10.010  0.1886  0.0192 -0.4504
   13TCq1    C2  199   3.515   2.993  10.242 -0.9854  0.7304  0.7380
   13TCq1    C3  200   3.441   3.103  10.258 -0.3945  0.4139  0.1877
   13TCq1    C4  201   3.384   3.128  10.375 -0.0892  0.3560 -0.2209
   13TCq1    C5  202   3.406   3.037  10.477  0.1165  0.9407  0.2134
   13TCq1    C6  203   3.482   2.923  10.459  0.4539 -0.3691 -0.7097
   13TCq1    C7  204   3.551   2.905  10.338 -0.0917 -0.2103  0.7639
   13TCq1    C8  205   3.466   2.824  10.564 -0.3718 -0.3570  0.1436
   13TCq1    O4  206   3.389   2.846  10.659 -0.1754  0.4924 -0.1698
   13TCq1    C9  207   3.314   3.251  10.403  0.3827  0.1783 -0.1357
   13TCq1    O5  208   3.292   3.324  10.304 -0.5692  0.9461 -0.0558
   13TCq1    O6  209   3.287   3.282  10.520  0.1310  0.0879 -0.2416
   13TCq1    H1  210   3.723   3.069  10.215 -1.7972  0.2307  1.2980
   13TCq1    H2  211   3.419   3.154  10.165 -0.6860 -1.4236 -0.7446
   13TCq1    H3  212   3.365   3.073  10.570 -1.1149 -2.5544  1.0140
   13TCq1    H4  213   3.609   2.816  10.316  0.7502  1.2059 -2.8198
   14MPD2     C  214   3.523   2.462  10.501 -0.3257 -0.5043 -0.0441
   14MPD2    C1  215   3.498   2.570  10.575 -0.3443 -0.4493 -0.7261
   14MPD2    C2  216   3.462   2.559  10.712  0.2441  0.4414  0.1731
   14MPD2    C3  217   3.458   2.433  10.773 -0.1608 -0.0525  0.0308
   14MPD2    C4  218   3.491   2.320  10.693 -0.0709 -0.3757 -0.5872
   14MPD2    C5  219   3.527   2.333  10.560 -0.5111 -0.0978  0.2610
   14MPD2     H  220   3.462   2.650  10.770  1.0794  1.0569 -0.7865
   14MPD2    H1  221   3.498   2.223  10.740  0.9269 -0.7947 -1.6058
   14MPD2    H2  222   3.547   2.475  10.396  0.0824  0.1106  0.1264
   14MPD2    H3  223   3.562   2.245  10.507 -0.2387  0.7848 -1.0144
   14MPD2     N  224   3.431   2.433  10.910 -0.6780 -0.1979  0.1584
   14MPD2    H5  225   3.421   2.525  10.951 -2.7789 -0.0439 -0.6771
   14MPD2    N1  226   3.511   2.698  10.510  0.0767  0.4251 -0.1041
   14MPD2    H7  227   3.537   2.700  10.412  1.8528  1.1408  0.3812
   15TCq1    O1  228   1.012   1.830   1.622  0.0260 -0.3799 -0.0538
   15TCq1    C1  229   1.018   1.786   1.496 -0.3769 -0.7643  0.3938
   15TCq1    O2  230   0.930   1.797   1.414 -0.2910 -0.3232 -0.1345
   15TCq1    C2  231   1.152   1.733   1.471 -0.6207  0.3025  0.1101
   15TCq1    C3  232   1.258   1.789   1.538  0.2317 -0.0539 -0.3805
   15TCq1    C4  233   1.379   1.730   1.518 -0.4727  0.5078  0.4066
   15TCq1    C5  234   1.386   1.622   1.437 -0.1338 -1.0904  0.3245
   15TCq1    C6  235   1.278   1.573   1.369 -0.1015 -0.3477  0.7621
   15TCq1    C7  236   1.159   1.632   1.387  0.1669  0.2132  0.5189
   15TCq1    C8  237   1.276   1.432   1.336  0.0469 -0.0858  0.0680
   15TCq1    O4  238   1.373   1.365   1.367 -0.7680  0.1240  0.4169
   15TCq1    C9  239   1.491   1.787   1.581 -0.8286  0.7715 -0.6520
   15TCq1    O5  240   1.477   1.891   1.653 -0.5356 -0.1652 -0.7167
   15TCq1    O6  241   1.597   1.715   1.585  0.3963  0.3277 -0.5247
   15TCq1    H1  242   1.088   1.795   1.674  0.5028  0.3545 -0.2572
   15TCq1    H2  243   1.254   1.876   1.602 -1.9500  0.3876 -1.0999
   15TCq1    H3  244   1.481   1.569   1.436  0.2808 -0.3011 -1.0454
   15TCq1    H4  245   1.063   1.595   1.353 -0.3780 -0.7053  3.0875
   16MPD2     C  246   1.024   1.234   1.161 -0.2082  0.2588  0.5232
   16MPD2    C1  247   1.154   1.266   1.197  0.2962  0.2037 -0.8669
   16MPD2    C2  248   1.251   1.167   1.187 -0.0555 -0.4403  0.0194
   16MPD2    C3  249   1.221   1.037   1.151  0.0803  0.1574 -0.4316
   16MPD2    C4  250   1.090   1.006   1.131 -0.2902  0.8935 -0.2984
   16MPD2    C5  251   0.991   1.098   1.132 -1.1772  0.1155  0.2916
   16MPD2     H  252   1.356   1.192   1.200 -0.4034  1.6778 -1.2131
   16MPD2    H1  253   1.055   0.906   1.110  1.4305  0.2380  0.0055
   16MPD2    H2  254   0.947   1.309   1.166 -0.8450 -0.1724 -2.6138
   16MPD2    H3  255   0.890   1.059   1.130 -0.0622 -2.7315 -0.3968
   16MPD2     N  256   1.331   0.950   1.149  0.4872 -0.7484 -0.5939
   16MPD2    H5  257   1.420   0.992   1.177  0.1399  0.5679 -1.4793
   16MPD2    N1  258   1.170   1.395   1.254 -0.3778 -0.5442  0.1266
   16MPD2    H7  259   1.112   1.472   1.222  1.3871  0.9552  0.5980
   17TMC1    C1  260   3.790   2.101  11.420 -0.1720  0.2321  0.1255
   17TMC1    C2  261   3.888   2.031  11.352 -0.2444  0.1508 -0.2371
   17TMC1    C3  262   3.941   1.922  11.408  0.9485 -0.9177 -0.1557
   17TMC1    C4  263   3.748   2.075  11.545  0.3353  0.3320  0.0486
   17TMC1    C5  264   3.794   1.955  11.599 -0.7471 -0.6093  0.3625
   17TMC1    C6  265   3.887   1.872  11.525 -0.5288 -0.1421  0.7445
   17TMC1     C  266   3.755   2.233  11.374 -0.3482 -0.0540  0.4534
   17TMC1     O  267   3.684   2.300  11.448 -0.1726 -0.0674 -0.2535
   17TMC1     H  268   3.935   2.068  11.261  1.7488 -1.4795  0.1277
   17TMC1    H1  269   3.659   2.123  11.586  0.0482  0.8882 -1.2428
   17TMC1    H2  270   3.925   1.785  11.576  3.1579  1.3291  0.5492
   17TMC1    C7  271   3.760   1.903  11.733  0.2595  0.5245  0.0090
   17TMC1    C8  272   3.996   1.820  11.319  0.9123  0.6421  0.7816
   17TMC1    O1  273   3.769   1.782  11.754 -0.1704 -0.3240 -0.5890
   17TMC1    O2  274   4.065   1.728  11.362 -0.5591  0.0750 -0.4017
   17TMC1    O3  275   3.689   1.995  11.806 -0.5118 -0.1309  0.3126
   17TMC1    H3  276   3.707   2.088  11.780 -1.7322  0.2261  0.7669
   17TMC1    O5  277   3.924   1.814  11.213 -0.0093  0.3259 -0.0029
   17TMC1    H5  278   3.873   1.897  11.201 -0.5574 -0.1034 -0.7400
   18MPD2     C  279   3.754   2.493  11.227 -0.3066  0.1369 -0.0425
   18MPD2    C1  280   3.782   2.373  11.174  0.2595 -0.6098 -0.1759
   18MPD2    C2  281   3.807   2.374  11.040  0.2705 -0.1142  0.2654
   18MPD2    C3  282   3.798   2.484  10.959  0.8943  0.0732  0.6355
   18MPD2    C4  283   3.773   2.604  11.018 -0.0518  0.5006 -0.6934
   18MPD2    C5  284   3.751   2.609  11.152 -0.3024 -0.5290 -0.0482
   18MPD2     H  285   3.835   2.278  10.998 -2.4468 -0.3373 -1.0539
   18MPD2    H1  286   3.778   2.702  10.970  0.0983  1.2482  0.8373
   18MPD2    H2  287   3.739   2.503  11.334  0.1677  1.0852 -0.0594
   18MPD2    H3  288   3.733   2.703  11.202  0.5606  0.7646 -2.1912
   18MPD2     N  289   3.821   2.478  10.819 -0.3581  0.0572 -0.1181
   18MPD2    H5  290   3.833   2.572  10.784 -0.7051  0.8233  1.8312
   18MPD2    N1  291   3.797   2.254  11.248 -0.0580  0.4849 -0.2008
   18MPD2    H7  292   3.816   2.174  11.189 -1.8428 -0.2674  0.2476
   19TMC2    C1  293   1.294   1.968  14.097  0.3636  0.1036  0.1507
   19TMC2    C2  294   1.300   2.068  14.004  0.0635  0.2050 -0.2348
   19TMC2    C3  295   1.173   2.120  13.962 -0.5508 -0.6189  0.2943
   19TMC2    C4  296   1.175   1.921  14.148  0.4371 -0.4194 -0.4676
   19TMC2    C5  297   1.059   1.977  14.107 -0.5305 -0.1797 -0.1145
   19TMC2    C6  298   1.056   2.076  14.009 -0.5768 -0.0675  0.3712
   19TMC2     C  299   1.422   1.919  14.135  0.4225  0.4664 -0.2641
   19TMC2     O  300   1.517   1.940  14.061  0.0564  0.3707 -0.7845
   19TMC2     H  301   1.387   2.075  13.940 -1.4462 -1.2960 -2.4726
   19TMC2    H1  302   1.172   1.846  14.227  2.8496 -0.7032 -0.6238
   19TMC2    H2  303   0.966   2.114  13.963 -0.9380  0.2852  1.3798
   19TMC2    C7  304   0.933   1.936  14.177 -0.0382 -0.9123  0.0238
   19TMC2    C8  305   1.172   2.244  13.874  0.0824 -0.6926  0.3914
   19TMC2    O1  306   0.945   1.833  14.245  0.0190 -1.1074  0.0628
   19TMC2    O2  307   1.073   2.272  13.809 -0.4077 -0.5157 -0.1175
   19TMC2    O5  308   1.280   2.319  13.887  0.6587  0.1912 -0.0411
   19TMC2    H5  309   1.349   2.300  13.954  2.0900  0.8753 -1.3175
   20MPD2     C  310   1.610   1.709  14.239 -0.0335  0.5456  0.0556
   20MPD2    C1  311   1.527   1.780  14.321  0.2586  0.3284 -0.0001
   20MPD2    C2  312   1.537   1.757  14.459  0.2378 -0.9809  0.3869
   20MPD2    C3  313   1.626   1.664  14.509  0.6346 -0.2101 -0.3956
   20MPD2    C4  314   1.702   1.590  14.424 -0.6902 -0.2068 -0.3277
   20MPD2    C5  315   1.688   1.612  14.288 -0.3979 -0.1742  0.2271
   20MPD2     H  316   1.465   1.802  14.526  1.2839  2.0905 -0.5055
   20MPD2    H1  317   1.783   1.525  14.456 -0.6874 -0.4057 -0.7313
   20MPD2    H2  318   1.603   1.729  14.133 -1.6098 -1.4314 -0.2305
   20MPD2    H3  319   1.742   1.556  14.212 -0.8303 -1.1430  0.6350
   20MPD2     N  320   1.652   1.644  14.649 -0.1273  0.3883 -0.1668
   20MPD2    H5  321   1.729   1.580  14.668  0.0266  1.0377  1.4243
   20MPD2    N1  322   1.422   1.862  14.267  0.4359 -0.1293  0.8044
   20MPD2    H7  323   1.340   1.884  14.322  0.4239  0.2765  0.6273
   21TMC2    C1  324   3.358   2.609  15.187 -0.3857  0.0212 -0.1589
   21TMC2    C2  325   3.418   2.550  15.298 -0.1049  1.0223  1.0311
   21TMC2    C3  326   3.342   2.503  15.404 -0.2269  0.1606  0.2048
   21TMC2    C4  327   3.220   2.608  15.178  0.2231  0.2662  0.0518
   21TMC2    C5  328   3.148   2.564  15.288  0.0478 -0.2531 -0.3530
   21TMC2    C6  329   3.208   2.516  15.400 -0.5788 -0.1742 -0.1850
   21TMC2     C  330   3.446   2.616  15.064 -0.1043  0.1979 -0.3638
   21TMC2     O  331   3.564   2.586  15.086 -0.0924 -0.4499 -0.3014
   21TMC2     H  332   3.526   2.551  15.304  0.1539 -1.1600 -3.3914
   21TMC2    H1  333   3.167   2.636  15.088  0.6751  1.5177  0.1774
   21TMC2    H2  334   3.145   2.500  15.487  1.6352 -1.7932  1.1241
   21TMC2    C7  335   3.003   2.552  15.293  0.2706 -0.3680 -0.2683
   21TMC2    C8  336   3.416   2.442  15.510 -0.0725 -0.1836  0.7795
   21TMC2    O1  337   2.959   2.464  15.360  0.4369 -0.1776  0.4462
   21TMC2    O2  338   3.532   2.406  15.500  0.1423 -0.0657  0.6384
   21TMC2    O5  339   3.327   2.389  15.602 -0.2093 -0.2374 -0.1911
   21TMC2    H5  340   3.246   2.441  15.622 -0.6776 -0.5576 -1.2362
   22MPD2     C  341   3.548   2.593  14.572  0.0137 -0.1141 -0.0409
   22MPD2    C1  342   3.599   2.520  14.674  0.5432 -0.4104  0.3573
   22MPD2    C2  343   3.546   2.533  14.801  0.1087 -0.1429 -0.4102
   22MPD2    C3  344   3.443   2.625  14.827 -0.7100 -0.9938  0.7695
   22MPD2    C4  345   3.397   2.695  14.715 -0.2080 -0.2872 -0.4141
   22MPD2    C5  346   3.447   2.683  14.593 -0.4995  0.1171  0.3759
   22MPD2     H  347   3.588   2.475  14.882 -0.2177 -0.6419 -0.5988
   22MPD2    H1  348   3.320   2.769  14.733  0.4133  0.6329 -1.5337
   22MPD2    H2  349   3.576   2.586  14.467  1.3308  0.3424  0.2897
   22MPD2    H3  350   3.395   2.728  14.510  0.0991 -1.2478 -0.7265
   22MPD2     N  351   3.384   2.656  14.950 -0.0890 -0.6941 -0.5624
   22MPD2    H5  352   3.292   2.699  14.951  0.5022  0.4699  2.2609
   22MPD2    N1  353   3.710   2.428  14.659  0.2695  0.0864 -0.0908
   22MPD2    H7  354   3.759   2.396  14.742 -2.5044 -0.5721  1.2909
   23TMC2    C1  355   4.568   3.620  14.861  0.1982  0.5003 -0.0506
   23TMC2    C2  356   4.621   3.659  14.740  0.0940  0.9062  0.0928
   23TMC2    C3  357   4.525   3.692  14.647 -1.0325  0.4758 -0.2213
   23TMC2    C4  358   4.436   3.607  14.896 -0.7430  0.1356  0.0842
   23TMC2    C5  359   4.343   3.647  14.798  0.5278  0.3579 -0.4634
   23TMC2    C6  360   4.394   3.690  14.673  0.0692  0.0233 -0.2705
   23TMC2     C  361   4.645   3.614  14.983  0.5984  0.1550  0.2870
   23TMC2     O  362   4.595   3.561  15.081  0.1277  0.2996  0.2797
   23TMC2     H  363   4.727   3.648  14.724  0.4314  1.1370  2.1481
   23TMC2    H1  364   4.404   3.572  14.993 -2.0461  1.8573  0.2614
   23TMC2    H2  365   4.329   3.711  14.589  1.5089 -0.6733 -1.5495
   23TMC2    C7  366   4.207   3.595  14.816  0.2871 -0.3087 -0.3066
   23TMC2    C8  367   4.554   3.728  14.512  0.3306 -0.7168  0.6335
   23TMC2    O1  368   4.192   3.522  14.916 -0.0727  0.5525 -0.5891
   23TMC2    O2  369   4.469   3.779  14.436  0.4868  0.2101 -0.3418
   23TMC2    O5  370   4.690   3.749  14.497 -0.3287 -0.1078  0.3498
   23TMC2    H5  371   0.019   3.713  14.565  3.2027  3.4190 -0.9931
   24MPD2     C  372   0.289   3.786  15.294  0.8970 -0.2919  0.3348
   24MPD2    C1  373   0.180   3.711  15.323 -0.0139 -0.2465  0.1858
   24MPD2    C2  374   0.098   3.667  15.225 -0.0611  0.4352 -0.1629
   24MPD2    C3  375   0.115   3.708  15.090 -0.1235  0.5990  0.1034
   24MPD2    C4  376   0.233   3.775  15.062 -0.3107 -0.1226 -0.2760
   24MPD2    C5  377   0.323   3.807  15.165  0.0195  0.1563 -0.2042
   24MPD2     H  378   0.016   3.600  15.248 -0.8973  1.4440 -0.2032
   24MPD2    H1  379   0.256   3.799  14.959 -1.4968  0.2619 -0.4508
   24MPD2    H2  380   0.361   3.804  15.374 -0.1488  1.1937  0.9329
   24MPD2    H3  381   0.419   3.847  15.136  0.2894  0.3949  1.0102
   24MPD2     N  382   0.028   3.686  14.976  0.3257 -0.1864  0.5461
   24MPD2    H5  383   0.063   3.719  14.886  1.2321  0.4666  1.1390
   24MPD2    N1  384   0.148   3.671  15.455  1.1244  0.1156 -0.3074
   24MPD2    H7  385   0.071   3.607  15.469  0.0243  1.1276 -1.7307
   25TMC2    C1  386   3.329   1.800  11.561  0.2741 -0.4974 -0.2064
   25TMC2    C2  387   3.346   1.934  11.589 -0.2241  0.1091  0.4543
   25TMC2    C3  388   3.294   1.967  11.709  0.1871 -0.0167  0.7795
   25TMC2    C4  389   3.242   1.719  11.630  0.0955  0.1774  0.6993
   25TMC2    C5  390   3.185   1.762  11.743  0.1902  1.0879  0.7295
   25TMC2    C6  391   3.207   1.889  11.788  0.2657  0.0725  1.0860
   25TMC2     C  392   3.440   1.729  11.491  0.2187  0.0400 -0.1341
   25TMC2     O  393   3.544   1.792  11.478 -0.2183 -0.0513  0.1266
   25TMC2     H  394   3.401   2.004  11.528 -2.2099  2.2595  1.1449
   25TMC2    H1  395   3.234   1.613  11.612  2.8936 -0.0839  0.9882
   25TMC2    H2  396   3.177   1.924  11.886  3.3127 -1.7383  2.6813
   25TMC2    C7  397   3.153   1.671  11.842 -0.1630  0.1040 -1.1483
   25TMC2    C8  398   3.320   2.100  11.756 -0.1797 -0.5212 -0.8436
   25TMC2    O1  399   3.209   1.562  11.830 -0.0361 -0.2410 -0.3065
   25TMC2    O2  400   3.422   2.163  11.737 -0.2312  0.0163  0.3473
   25TMC2    O5  401   3.200   2.143  11.805 -0.8255  0.3059  0.0493
   25TMC2    H5  402   3.128   2.077  11.799 -0.7150  0.2524 -0.7010
   26MPD2     C  403   3.734   1.312  11.438  0.2981 -0.0983 -0.4089
   26MPD2    C1  404   3.603   1.272  11.419  0.3738 -0.0167 -0.2779
   26MPD2    C2  405   3.505   1.369  11.430 -0.5450 -0.1359  0.2132
   26MPD2    C3  406   3.537   1.504  11.453 -0.4701 -0.3208 -0.6647
   26MPD2    C4  407   3.669   1.534  11.469  0.5300  0.0635  0.4837
   26MPD2    C5  408   3.768   1.441  11.465  0.5283 -0.0482  0.2356
   26MPD2     H  409   3.399   1.352  11.416 -0.0672 -0.5322 -2.8229
   26MPD2    H1  410   3.707   1.635  11.475  0.8216  0.0525 -1.0243
   26MPD2    H2  411   3.814   1.240  11.425  1.4535  1.0719  0.2706
   26MPD2    H3  412   3.865   1.487  11.476  0.5551 -0.4351  1.5203
   26MPD2     N  413   3.434   1.595  11.467 -0.1110  0.4180  0.9964
   26MPD2    H5  414   3.345   1.547  11.469  0.0825 -0.0712 -2.8938
   26MPD2    N1  415   3.575   1.132  11.405  0.7502  0.1361  0.0223
   26MPD2    H7  416   3.651   1.066  11.401  0.3434 -0.1760 -2.4121
   27TMC2    C1  417   2.323   3.063  12.156 -0.1000  0.0454  0.1580
   27TMC2    C2  418   2.328   3.184  12.095 -0.0491  0.4888 -0.5680
   27TMC2    C3  419   2.407   3.277  12.149 -0.6444 -0.2574 -0.5596
   27TMC2    C4  420   2.386   3.042  12.277  0.7197 -0.2391  0.0304
   27TMC2    C5  421   2.450   3.138  12.341  0.0632  0.5674  0.8430
   27TMC2    C6  422   2.472   3.257  12.271 -0.3228 -0.0247  0.0475
   27TMC2     C  423   2.220   2.970  12.115  0.4257 -0.6340  0.0007
   27TMC2     O  424   2.172   2.978  12.001 -0.3274  0.3280  0.1625
   27TMC2     H  425   2.287   3.207  11.997 -1.6379 -3.2795 -0.7871
   27TMC2    H1  426   2.386   2.938  12.307  0.2407 -0.5129 -0.9216
   27TMC2    H2  427   2.529   3.343  12.306  2.4617 -2.5391  1.6277
   27TMC2    C7  428   2.459   3.130  12.482  1.0642  0.2050  0.5448
   27TMC2    C8  429   2.391   3.409  12.100  0.2024 -0.4376  0.2299
   27TMC2    O1  430   2.421   3.024  12.530  0.4296  0.0504 -0.0635
   27TMC2    O2  431   2.470   3.501  12.106  0.9032  0.0862  0.1643
   27TMC2    O5  432   2.261   3.422  12.109  0.3523  0.1771  0.0957
   27TMC2    H5  433   2.220   3.346  12.157  1.6063 -0.2019  0.5664
   28MPD2     C  434   1.776   2.777  12.251  0.3284  0.0620  0.5257
   28MPD2    C1  435   1.822   2.861  12.350  0.0514  0.5292 -0.1510
   28MPD2    C2  436   1.955   2.902  12.347 -0.6001  0.0384  0.3206
   28MPD2    C3  437   2.030   2.873  12.231  0.4137 -0.0720 -0.2719
   28MPD2    C4  438   1.972   2.800  12.132 -0.5871 -0.1148  0.2699
   28MPD2    C5  439   1.850   2.744  12.140 -0.9440  0.0287  0.3954
   28MPD2     H  440   1.996   2.972  12.419  1.2408  2.1448 -2.7689
   28MPD2    H1  441   2.027   2.787  12.039  0.8873  3.4955  0.6414
   28MPD2    H2  442   1.681   2.728  12.266  0.4360 -0.2732  0.1315
   28MPD2    H3  443   1.808   2.674  12.069 -1.3244 -0.1173  0.7633
   28MPD2     N  444   2.155   2.930  12.227  0.3862  1.0506  0.5838
   28MPD2    H5  445   2.191   2.964  12.316 -0.7674 -0.8912  1.7908
   28MPD2    N1  446   1.736   2.888  12.456  0.0261  0.9812  0.1732
   28MPD2    H7  447   1.641   2.851  12.456 -0.1288  1.3680  0.2516
   29TMC2    C1  448   2.077   0.944  14.173 -0.5463 -0.1531 -0.8417
   29TMC2    C2  449   2.019   0.945  14.299  0.1851  0.1038  0.0716
   29TMC2    C3  450   2.055   1.033  14.394 -0.2196 -0.2428 -0.9326
   29TMC2    C4  451   2.180   1.033  14.149 -0.3197  0.1585 -0.2033
   29TMC2    C5  452   2.224   1.110  14.253 -0.0985  0.3477 -0.6064
   29TMC2    C6  453   2.162   1.114  14.377 -0.9811  0.1852 -0.1227
   29TMC2     C  454   2.037   0.846  14.072 -0.0716 -0.5826 -0.0250
   29TMC2     O  455   1.987   0.741  14.114 -0.0568 -0.2805 -0.0361
   29TMC2     H  456   1.953   0.866  14.332 -0.9161  0.9765 -0.0675
   29TMC2    H1  457   2.236   1.035  14.056  0.6379 -1.5536  0.3423
   29TMC2    H2  458   2.191   1.190  14.448 -0.9540  0.3513 -0.3113
   29TMC2    C7  459   2.325   1.213  14.225 -0.3858 -0.2767 -0.3078
   29TMC2    C8  460   2.003   1.017  14.524 -0.0233 -0.3145 -0.1463
   29TMC2    O1  461   2.316   1.252  14.111 -0.3353  0.6589  0.5629
   29TMC2    O2  462   2.012   0.909  14.587  0.4480  0.2847 -0.2492
   29TMC2    O5  463   1.964   1.133  14.575  0.5412 -0.4388  0.1656
   29TMC2    H5  464   1.981   1.201  14.506 -4.6208 -0.3349 -1.0113
   30MPD2     C  465   1.965   0.692  13.589  0.3162  0.4335  0.7159
   30MPD2    C1  466   1.975   0.622  13.705  0.1414 -0.3534  0.2725
   30MPD2    C2  467   2.004   0.692  13.822  0.2383  0.4410  0.2374
   30MPD2    C3  468   2.030   0.831  13.825  0.5793  0.1814 -0.5792
   30MPD2    C4  469   2.012   0.903  13.700  0.2133 -0.0111  0.1944
   30MPD2    C5  470   1.985   0.828  13.596 -0.2905 -0.7524  0.6396
   30MPD2     H  471   2.008   0.631  13.911  2.1263  1.7534  1.0395
   30MPD2    H1  472   2.045   1.005  13.685  0.3490  0.0871  1.1564
   30MPD2    H2  473   1.934   0.649  13.494  1.4962  0.9932  0.0716
   30MPD2    H3  474   1.972   0.880  13.502  0.9633 -0.8264  0.4288
   30MPD2     N  475   2.065   0.893  13.946  0.1497 -0.4976  0.2879
   30MPD2    H5  476   2.073   0.994  13.933 -0.6035 -0.3832  0.7504
   30MPD2    N1  477   1.962   0.482  13.714  0.6222 -0.7032 -0.0158
   30MPD2    H7  478   1.981   0.438  13.804 -1.0039 -0.3152  0.5141
   31TMC2    C1  479   4.449   3.876  15.322  0.5245 -0.2575  0.1224
   31TMC2    C2  480   4.311   3.881  15.311  0.4788 -0.2052  0.1002
   31TMC2    C3  481   4.243   3.868  15.427 -0.6910  0.6223 -0.7375
   31TMC2    C4  482   4.506   3.852  15.445 -0.0816  0.1600 -0.0148
   31TMC2    C5  483   4.429   3.862  15.560 -0.0186  0.0058 -0.2536
   31TMC2    C6  484   4.296   3.868  15.554  0.5746  1.0739 -0.2536
   31TMC2     C  485   4.521   3.915  15.201  0.5141  0.2757 -0.0387
   31TMC2     O  486   4.460   3.920  15.095 -0.4243 -0.2467 -0.2564
   31TMC2     H  487   4.259   3.913  15.221  0.9671  0.3548  0.0218
   31TMC2    H1  488   4.613   3.853  15.456 -0.1017  0.2593  0.1610
   31TMC2    H2  489   4.231   3.876  15.641 -0.7387  0.2622 -1.1573
   31TMC2    C7  490   4.491   3.850  15.690  0.0562 -0.7234 -0.1970
   31TMC2    C8  491   4.094   3.886  15.428 -0.1019 -0.2568  0.0303
   31TMC2    O1  492   4.570   3.761  15.720  0.5411 -0.2158 -0.3169
   31TMC2    O2  493   4.026   3.921  15.525 -0.2488 -0.9061 -0.6211
   31TMC2    O5  494   4.038   3.812  15.332 -0.3012  0.2249  0.1072
   31TMC2    H5  495   4.096   3.748  15.286 -0.7639 -0.9516  1.1714
   32MPD2     C  496   0.152   4.202  14.980 -0.1762 -0.5476  0.3208
   32MPD2    C1  497   0.055   4.127  14.919 -0.6181  0.4405 -0.0591
   32MPD2    C2  498   4.710   4.045  14.998 -0.4624  0.0143  0.0117
   32MPD2    C3  499   4.724   4.042  15.139 -0.0790 -0.4215  0.0883
   32MPD2    C4  500   0.090   4.117  15.190 -0.9428  0.4408  0.0112
   32MPD2    C5  501   0.171   4.191  15.113 -0.1254  0.4921  0.4450
   32MPD2     H  502   4.645   3.980  14.939 -0.8973 -0.6173  1.1829
   32MPD2    H1  503   0.107   4.122  15.297 -0.3123  1.4215 -0.1312
   32MPD2    H2  504   0.202   4.278  14.920 -2.4995 -0.2257 -1.1876
   32MPD2    H3  505   0.257   4.239  15.159  0.4221  0.2009 -0.2606
   32MPD2     N  506   4.644   3.973  15.232 -0.9251 -0.5416 -0.1826
   32MPD2    H5  507   4.659   3.994  15.330 -2.2535 -0.4859  0.0111
   32MPD2    N1  508   0.047   4.137  14.777  0.8951  0.2115 -0.2874
   32MPD2    H7  509   0.110   4.207  14.742  0.4996 -0.0225 -1.4796
   33TMC2    C1  510   3.863   3.024   9.819 -1.2384 -0.7698 -0.1357
   33TMC2    C2  511   3.752   3.077   9.764 -0.0541  0.6366  0.3693
   33TMC2    C3  512   3.762   3.198   9.698 -0.4085 -0.6872  0.0790
   33TMC2    C4  513   3.991   3.083   9.804  0.3194  0.1132 -0.0653
   33TMC2    C5  514   3.997   3.193   9.727  0.4982  0.2065 -0.0347
   33TMC2    C6  515   3.888   3.254   9.670 -0.0406  0.0809  0.2282
   33TMC2     C  516   3.860   2.901   9.903  0.1826  0.4412 -0.2821
   33TMC2     O  517   3.940   2.888   9.995  0.0883  0.0274  0.5789
   33TMC2     H  518   3.657   3.034   9.794  1.3926 -2.0133  1.1651
   33TMC2    H1  519   4.073   3.049   9.866 -1.1839 -2.0741  0.7172
   33TMC2    H2  520   3.874   3.353   9.626 -0.7329 -0.5868 -1.0697
   33TMC2    C7  521   4.122   3.255   9.700 -0.1797  0.6938  0.3903
   33TMC2    C8  522   3.643   3.255   9.638 -0.5009 -0.4670 -0.8114
   33TMC2    O1  523   4.218   3.223   9.769 -0.3500 -0.1243 -0.1414
   33TMC2    O2  524   3.634   3.309   9.525 -0.1886 -0.0902 -0.3062
   33TMC2    O5  525   3.550   3.271   9.738 -0.4509  0.4562 -0.3630
   33TMC2    H5  526   3.585   3.244   9.825 -1.5388 -0.6343 -0.2625
   34MPD2     C  527   3.751   2.413   9.963  0.2945  0.7269 -0.2516
   34MPD2    C1  528   3.789   2.502  10.064 -0.6449 -0.0755  0.0085
   34MPD2    C2  529   3.802   2.641  10.029 -0.1957 -0.7772 -0.4585
   34MPD2    C3  530   3.766   2.676   9.900  0.0376  0.1851 -0.5378
   34MPD2    C4  531   3.704   2.590   9.813 -0.0953 -0.0492 -0.4630
   34MPD2    C5  532   3.716   2.456   9.839 -0.3560 -0.0100 -0.6196
   34MPD2     H  533   3.845   2.711  10.099 -1.4024  0.2830 -0.7860
   34MPD2    H1  534   3.669   2.621   9.715 -0.1798 -0.3805 -0.5366
   34MPD2    H2  535   3.741   2.307   9.984  0.4410  0.4904 -1.3367
   34MPD2    H3  536   3.678   2.382   9.769  1.3030 -0.9586 -0.5111
   34MPD2     N  537   3.778   2.807   9.850  0.1050 -0.5744 -0.5164
   34MPD2    H5  538   3.746   2.826   9.756 -1.7109  0.6395  0.3585
   34MPD2    N1  539   3.830   2.456  10.189 -0.5842 -0.6505 -0.1975
   34MPD2    H7  540   3.854   2.358  10.192  2.1967 -0.0053 -1.0435
   35TMC2    C1  541   1.566   3.618  11.763 -0.6348  0.2383  0.1139
   35TMC2    C2  542   1.523   3.718  11.681 -0.0475 -0.2483  0.2546
   35TMC2    C3  543   1.569   3.703  11.549 -0.9582 -0.2894 -0.0877
   35TMC2    C4  544   1.651   3.517  11.722 -0.1870 -0.0927 -0.0403
   35TMC2    C5  545   1.697   3.508  11.595 -0.7390  0.1146  0.3771
   35TMC2    C6  546   1.646   3.602  11.513  0.2114  0.3515 -0.6125
   35TMC2     C  547   1.515   3.626  11.897  0.1530 -1.4292  0.0738
   35TMC2     O  548   1.461   3.731  11.929  0.5567 -0.3758  0.3267
   35TMC2     H  549   1.447   3.791  11.707  0.8192  0.2090  1.5040
   35TMC2    H1  550   1.688   3.446  11.795 -1.0176 -1.0768 -0.5680
   35TMC2    H2  551   1.670   3.598  11.407 -0.8304  2.1826 -0.9276
   35TMC2    C7  552   1.690   3.377  11.546 -0.0270  1.1545 -0.0350
   35TMC2    C8  553   1.540   3.791  11.441  1.2657 -0.1389  0.0770
   35TMC2    O1  554   1.630   3.290  11.608  0.2881  0.2779  0.1263
   35TMC2    O2  555   1.625   3.821  11.356 -0.5589 -0.5091 -0.1461
   35TMC2    O5  556   1.455   3.881  11.488 -0.0292 -1.0616  0.4492
   35TMC2    H5  557   1.373   3.843  11.528  0.5368 -0.1524  2.4679
   36MPD2     C  558   1.480   3.492  12.387  0.1947 -0.0365 -0.3438
   36MPD2    C1  559   1.501   3.377  12.317 -0.0593  0.1137 -0.1252
   36MPD2    C2  560   1.528   3.393  12.183 -0.3058  0.0590 -0.6841
   36MPD2    C3  561   1.535   3.515  12.121 -0.3232  0.6814  0.1736
   36MPD2    C4  562   1.521   3.632  12.195 -0.1109  0.4205 -0.5168
   36MPD2    C5  563   1.496   3.617  12.330  0.5523 -0.0791  0.3383
   36MPD2     H  564   1.533   3.304  12.122  0.4374  1.0406 -2.0817
   36MPD2    H1  565   1.538   3.729  12.150  1.5610  0.4673  0.2128
   36MPD2    H2  566   1.454   3.486  12.492 -0.9465  2.5565 -0.4820
   36MPD2    H3  567   1.494   3.705  12.393  0.2358  0.5081 -0.4957
   36MPD2     N  568   1.545   3.517  11.978 -0.6116  0.3960  0.5722
   36MPD2    H5  569   1.562   3.430  11.928 -2.5344  0.7325 -0.6435
   36MPD2    N1  570   1.442   3.255  12.371  0.7142 -0.0315  0.0517
   36MPD2    H7  571   1.387   3.264  12.456 -1.5472 -0.8784 -1.3333
   37TMC2    C1  572   3.124   3.700  11.907 -0.0520  0.3414 -0.9387
   37TMC2    C2  573   3.006   3.727  11.845  0.1199 -0.4381  0.0448
   37TMC2    C3  574   3.004   3.786  11.719 -0.2626  0.2872  0.0902
   37TMC2    C4  575   3.243   3.715  11.842  0.5918 -0.9059  0.3606
   37TMC2    C5  576   3.239   3.774  11.717  0.0205 -0.2546 -0.6322
   37TMC2    C6  577   3.119   3.815  11.656  0.2072 -0.0045 -0.2645
   37TMC2     C  578   3.116   3.649  12.039 -0.4072  0.0889  0.2135
   37TMC2     O  579   3.007   3.603  12.079 -0.1761  0.4703 -0.7883
   37TMC2     H  580   2.913   3.706  11.896 -0.5965  1.0946 -0.6236
   37TMC2    H1  581   3.330   3.668  11.886  1.4964  0.7199  0.3042
   37TMC2    H2  582   3.120   3.874  11.565 -1.3837  1.2851  0.5459
   37TMC2    C7  583   3.361   3.845  11.672  0.0638  0.0582  0.5677
   37TMC2    C8  584   2.876   3.844  11.681 -0.5508 -0.4443 -0.6440
   37TMC2    O1  585   3.467   3.797  11.707 -0.1874 -0.5315  0.8662
   37TMC2    O2  586   2.782   3.848  11.754 -0.5492 -0.0058 -0.3141
   37TMC2    O5  587   2.868   3.853  11.545 -0.1459  0.3483 -0.1015
   37TMC2    H5  588   2.943   3.804  11.504  0.4830  0.1916  1.2224
   38MPD2     C  589   3.324   3.508  12.502  0.0955  0.7733 -0.5665
   38MPD2    C1  590   3.429   3.542  12.416  0.4526  0.2518 -0.5806
   38MPD2    C2  591   3.397   3.575  12.280 -0.2922  1.1403 -0.3439
   38MPD2    C3  592   3.268   3.585  12.238 -0.3721  0.0662 -0.4020
   38MPD2    C4  593   3.167   3.567  12.330 -0.6674  0.6345  0.2880
   38MPD2    C5  594   3.193   3.528  12.463  0.9644 -0.3460  0.2442
   38MPD2     H  595   3.476   3.607  12.212 -0.0634  0.6097 -0.3226
   38MPD2    H1  596   3.062   3.591  12.315 -0.8349 -0.5770 -0.5130
   38MPD2    H2  597   3.329   3.475  12.606 -1.4203  0.5409 -0.5755
   38MPD2    H3  598   3.117   3.524  12.540 -0.5787  0.2817 -1.2308
   38MPD2     N  599   3.243   3.630  12.102 -0.6250  0.5879  0.0754
   38MPD2    H5  600   3.327   3.658  12.052 -0.7609  1.7800  0.5040
   38MPD2    N1  601   3.563   3.531  12.445  0.2138  0.0753  0.2018
   38MPD2    H7  602   3.623   3.541  12.364 -0.0691  0.4022  0.0330
   39TMC2    C1  603   1.350   0.867   1.483  0.4247 -0.2120 -0.9436
   39TMC2    C2  604   1.251   0.945   1.542 -0.1727  0.0976  1.3412
   39TMC2    C3  605   1.291   1.071   1.567  0.3425 -0.2053  0.2866
   39TMC2    C4  606   1.479   0.915   1.460  0.2605  0.0520 -0.1705
   39TMC2    C5  607   1.509   1.041   1.507  0.1886  0.7955 -0.1889
   39TMC2    C6  608   1.417   1.123   1.561 -0.6459  0.4923  1.3632
   39TMC2     C  609   1.303   0.736   1.433  0.9030  0.3733 -0.3138
   39TMC2     O  610   1.185   0.730   1.426 -0.1743  0.1790 -0.0054
   39TMC2     H  611   1.154   0.900   1.563 -1.3680  1.3167 -1.6069
   39TMC2    H1  612   1.552   0.848   1.416 -0.2165 -1.8533  1.9940
   39TMC2    H2  613   1.418   1.231   1.569  0.8868  0.5668  0.1805
   39TMC2    C7  614   1.626   1.097   1.453 -0.0731  0.5205 -0.2342
   39TMC2    C8  615   1.178   1.164   1.582 -0.2497 -0.4214 -0.3402
   39TMC2    O1  616   1.702   1.024   1.385  0.1144  0.3170  0.3198
   39TMC2    O2  617   1.072   1.153   1.523  0.0289  0.3225  0.1771
   39TMC2    O5  618   1.199   1.243   1.686 -0.0770  0.1194  0.0693
   39TMC2    H5  619   1.267   1.207   1.746  0.3159  1.1602  0.2491
   40MPD2     C  620   1.516   0.448   1.350  0.5340 -0.4565 -0.4580
   40MPD2    C1  621   1.405   0.528   1.336 -0.3677 -0.0147  0.0031
   40MPD2    C2  622   1.288   0.478   1.280 -0.0452 -0.8528 -0.3437
   40MPD2    C3  623   1.298   0.350   1.225 -0.1793 -0.3112  0.6993
   40MPD2    C4  624   1.412   0.278   1.233  0.3944 -0.6015 -0.1148
   40MPD2    C5  625   1.518   0.319   1.303  0.6172  0.6983  0.3085
   40MPD2     H  626   1.200   0.541   1.277 -0.6880 -1.8328 -1.8814
   40MPD2    H1  627   1.415   0.182   1.184 -0.0523 -0.7967  0.2424
   40MPD2    H2  628   1.608   0.489   1.391 -0.1665  1.5128 -0.8590
   40MPD2    H3  629   1.614   0.269   1.304  0.6684  0.7604 -1.4628
   40MPD2     N  630   1.194   0.295   1.155 -0.4337 -0.1939  0.2188
   40MPD2    H5  631   1.209   0.209   1.103  2.2438 -0.0572  0.7988
   40MPD2    N1  632   1.407   0.651   1.400  0.1550 -0.5198 -0.4576
   40MPD2    H7  633   1.499   0.685   1.427  0.6854 -2.0215 -0.3663
   41TMC2    C1  634   0.367   3.271  13.652  0.4263  0.5877  1.6621
   41TMC2    C2  635   0.459   3.372  13.670 -0.7847  0.3225  0.4981
   41TMC2    C3  636   0.425   3.501  13.641 -0.9139  0.3961 -0.4269
   41TMC2    C4  637   0.249   3.288  13.593 -0.1586  0.3311 -0.1720
   41TMC2    C5  638   0.221   3.420  13.564 -0.4614 -0.1748 -0.1210
   41TMC2    C6  639   0.301   3.524  13.592  0.3102 -0.3223  0.7676
   41TMC2     C  640   0.373   3.170  13.742 -0.1071  0.9337 -0.0931
   41TMC2     O  641   0.328   3.060  13.713 -0.0534  0.1145  0.4262
   41TMC2     H  642   0.553   3.341  13.714 -1.2289 -1.3323  0.2986
   41TMC2    H1  643   0.170   3.214  13.595  1.4634 -1.3760  1.4338
   41TMC2    H2  644   0.270   3.624  13.564 -1.5073 -1.3757 -0.9440
   41TMC2    C7  645   0.123   3.445  13.463  0.2415 -0.4142  0.6283
   41TMC2    C8  646   0.516   3.584  13.572 -0.0327 -0.3198  0.2461
   41TMC2    O1  647   0.078   3.557  13.440  0.4178 -0.2445 -0.1058
   41TMC2    O2  648   0.480   3.655  13.480  0.7222 -0.1361  0.0219
   41TMC2    O5  649   0.633   3.519  13.580 -0.0888  0.0768  0.3421
   41TMC2    H5  650   0.653   3.520  13.676 -3.3760  1.9479  1.0250
   42MPD2     C  651   0.462   3.010  13.990 -0.0786  0.0702 -0.4015
   42MPD2    C1  652   0.458   3.146  13.980 -0.5563 -0.0202 -0.1119
   42MPD2    C2  653   0.510   3.223  14.083  0.2069  0.2883  0.0167
   42MPD2    C3  654   0.578   3.160  14.191 -0.6116 -0.4315  0.2151
   42MPD2    C4  655   0.581   3.022  14.196  0.7721 -0.0628 -0.3729
   42MPD2    C5  656   0.524   2.945  14.091 -0.0378  0.1407  0.5544
   42MPD2     H  657   0.511   3.331  14.086  0.8404  0.3009 -0.6374
   42MPD2    H1  658   0.626   2.969  14.279 -0.7831 -2.9836 -1.4007
   42MPD2    H2  659   0.406   2.952  13.917 -0.9799 -2.2549  2.1610
   42MPD2    H3  660   0.527   2.837  14.100  0.2044  0.2277  1.6081
   42MPD2     N  661   0.631   3.226  14.301 -0.0981 -0.1802  0.7344
   42MPD2    H5  662   0.698   3.176  14.359  2.4845  0.3150 -1.8572
   42MPD2    N1  663   0.413   3.223  13.867  0.1943 -0.1575 -0.0577
   42MPD2    H7  664   0.422   3.324  13.873 -0.4753  0.0047 -1.8919
   43TMC2    C1  665   2.062   1.258   0.829  0.0480 -0.1024 -0.3136
   43TMC2    C2  666   1.980   1.365   0.802 -0.3437  0.1028 -0.3495
   43TMC2    C3  667   1.958   1.456   0.902  0.3449 -0.3556  0.5680
   43TMC2    C4  668   2.122   1.237   0.944  0.1560 -0.6462 -0.1934
   43TMC2    C5  669   2.110   1.333   1.041 -0.1534 -0.1051 -0.2929
   43TMC2    C6  670   2.019   1.436   1.022 -0.0895  0.7002 -0.3774
   43TMC2     C  671   2.118   1.203   0.707  0.3663 -0.1259 -0.2110
   43TMC2     O  672   2.138   1.079   0.712 -0.4549 -0.2210  0.1439
   43TMC2     H  673   1.933   1.384   0.706  1.7372 -0.3093 -1.4565
   43TMC2    H1  674   2.208   1.171   0.944  2.6393  2.5850 -1.1808
   43TMC2    H2  675   2.002   1.511   1.098  2.7706 -0.6742  1.6433
   43TMC2    C7  676   2.231   1.361   1.118  0.4526 -0.1090 -0.2362
   43TMC2    C8  677   1.883   1.581   0.884  0.3293 -0.3307 -0.7971
   43TMC2    O1  678   2.313   1.272   1.133 -0.5420  0.0110  0.4017
   43TMC2    O2  679   1.851   1.642   0.981 -0.1009 -0.1563 -0.3112
   43TMC2    O5  680   1.893   1.613   0.754 -0.5280 -0.6174 -0.1893
   43TMC2    H5  681   1.977   1.587   0.710 -2.6214 -1.9004 -3.3543
   44MPD2     C  682   2.295   1.243   0.244 -0.2817 -0.7942  0.4197
   44MPD2    C1  683   2.262   1.132   0.315  0.1991 -0.3471  1.0919
   44MPD2    C2  684   2.200   1.143   0.440  0.6429  0.2349 -0.0381
   44MPD2    C3  685   2.188   1.275   0.483 -0.2594  0.5190  0.5396
   44MPD2    C4  686   2.225   1.386   0.419 -1.1745 -0.2498  0.0629
   44MPD2    C5  687   2.271   1.373   0.291 -0.2625  0.4901  1.0533
   44MPD2     H  688   2.184   1.049   0.492  0.3930 -0.6149 -1.6523
   44MPD2    H1  689   2.209   1.482   0.465 -0.8566 -0.3620  0.4063
   44MPD2    H2  690   2.349   1.233   0.151  2.0993  0.3618  1.6716
   44MPD2    H3  691   2.283   1.462   0.230  0.1668 -0.4183 -0.1994
   44MPD2     N  692   2.139   1.301   0.612 -0.5204  0.6618 -0.2088
   44MPD2    H5  693   2.123   1.399   0.633  0.4731  0.7508  0.1135
   44MPD2    N1  694   2.291   0.998   0.283 -0.1851  0.7245  0.1918
   44MPD2    H7  695   2.250   0.920   0.334  0.9652  0.3602  0.5384
   45TMC2    C1  696   2.628   4.194   9.827 -0.0475 -0.1624  0.1596
   45TMC2    C2  697   2.618   4.228   9.692  0.6768  0.2620 -0.2118
   45TMC2    C3  698   2.671   4.354   9.657 -0.8621 -0.0792 -0.3437
   45TMC2    C4  699   2.702   4.273   9.911  0.1101  0.6995  0.1322
   45TMC2    C5  700   2.743   4.400   9.876  0.2998  0.4468 -0.1120
   45TMC2    C6  701   2.732   4.443   9.743  0.1016  0.7423  1.0685
   45TMC2     C  702   2.625   4.059   9.874  1.0188  0.6138  0.2118
   45TMC2     O  703   2.678   4.027   9.979 -0.4179  0.4309  0.0424
   45TMC2     H  704   2.580   4.157   9.620  0.0652  0.0305  0.3367
   45TMC2    H1  705   2.732   4.241  10.010 -0.7287 -2.0447 -0.4884
   45TMC2    H2  706   2.748   4.546   9.714 -0.9469  0.1692 -1.4604
   45TMC2    C7  707   2.832   4.477   9.962  0.4860 -0.0209  0.5107
   45TMC2    C8  708   2.634   4.388   9.524 -0.4198 -0.2855 -0.4430
   45TMC2    O1  709   2.833   4.441  10.077 -0.1486 -0.2962 -0.4448
   45TMC2    O2  710   2.533   4.345   9.466 -0.3874  0.3947 -1.3005
   45TMC2    O5  711   2.729   4.465   9.469  1.1513  1.0168  0.5071
   45TMC2    H5  712   2.813   4.469   9.519  1.0912 -0.4271  0.7192
   46MPD2     C  713   2.573   3.776   9.922  0.1176  0.1387  0.1374
   46MPD2    C1  714   2.504   3.855   9.827 -0.1393 -0.5023 -0.1194
   46MPD2    C2  715   2.393   3.805   9.759  0.3361 -0.5632  0.7096
   46MPD2    C3  716   2.353   3.679   9.783  0.2698 -0.6663 -0.1732
   46MPD2    C4  717   2.421   3.602   9.880  0.4093  0.1725  0.9212
   46MPD2    C5  718   2.533   3.648   9.942 -0.0456 -0.6540  0.4171
   46MPD2     H  719   2.343   3.870   9.689  2.2076  0.2728  0.1453
   46MPD2    H1  720   2.386   3.501   9.898 -1.0021  0.2398 -1.3663
   46MPD2    H2  721   2.666   3.804   9.968 -0.0591 -0.1481  0.6664
   46MPD2    H3  722   2.584   3.584  10.013  0.4645  0.2807  0.9030
   46MPD2     N  723   2.227   3.638   9.732  0.4259 -0.0674 -0.2542
   46MPD2    H5  724   2.182   3.699   9.665 -0.7228 -0.3077  0.2999
   46MPD2    N1  725   2.536   3.984   9.800  0.3033  0.1639  0.2477
   46MPD2    H7  726   2.494   4.038   9.725 -0.8895 -0.2403  0.6176
   47TMC2    C1  727   0.293   4.376   9.706 -0.1331  0.5587 -0.3077
   47TMC2    C2  728   0.244   4.263   9.638 -0.1061 -0.5699  0.0955
   47TMC2    C3  729   0.112   4.250   9.636  0.3549  0.1494 -0.1452
   47TMC2    C4  730   0.207   4.466   9.763 -0.6441  0.4194  0.6460
   47TMC2    C5  731   0.066   4.452   9.749  0.1485 -1.0526 -0.3898
   47TMC2    C6  732   0.023   4.342   9.678 -0.5300  0.4265  0.3404
   47TMC2     C  733   0.435   4.396   9.720 -0.9732 -0.1822  0.0711
   47TMC2     O  734   0.476   4.469   9.809 -0.5793  0.6409  0.3976
   47TMC2     H  735   0.307   4.183   9.601  0.9461 -0.8451  2.4445
   47TMC2    H1  736   0.245   4.550   9.820 -0.5385  0.4775  0.4899
   47TMC2    H2  737   4.649   4.338   9.660 -0.5921 -0.1071  0.8302
   47TMC2    C7  738   4.709   4.520   9.839 -0.0991  0.1182 -0.4298
   47TMC2    C8  739   0.068   4.114   9.598 -0.2120  0.4137  0.0403
   47TMC2    O1  740   4.619   4.457   9.886  0.3035 -0.4259 -0.4173
   47TMC2    O2  741   0.141   4.041   9.532 -0.2079 -0.1322  0.0785
   47TMC2    O5  742   0.026   4.064   9.720  0.5675  0.3669  0.1698
   47TMC2    H5  743   4.692   4.119   9.765  0.8579  1.1396 -0.3403
   48MPD2     C  744   0.730   4.359   9.751  1.1995 -0.4825 -0.1594
   48MPD2    C1  745   0.652   4.299   9.649 -0.1618 -0.0655  0.2559
   48MPD2    C2  746   0.713   4.215   9.558  0.0497  0.6366 -0.0428
   48MPD2    C3  747   0.844   4.171   9.577  0.0764 -0.0859  0.2825
   48MPD2    C4  748   0.921   4.235   9.673 -0.2658  0.7533 -0.5732
   48MPD2    C5  749   0.860   4.317   9.763  0.6065 -0.4625  0.1061
   48MPD2     H  750   0.661   4.182   9.469  0.4942 -2.6153  0.8828
   48MPD2    H1  751   1.028   4.220   9.685 -0.0438  1.9605 -1.0439
   48MPD2    H2  752   0.700   4.429   9.828  0.6531 -1.2146  0.2924
   48MPD2    H3  753   0.925   4.358   9.840 -3.0100  0.1212  2.8686
   48MPD2     N  754   0.905   4.082   9.485 -0.1297 -0.1137  0.4253
   48MPD2    H5  755   0.847   4.045   9.410 -0.1280  0.4851  0.1256
   48MPD2    N1  756   0.512   4.322   9.637  0.3307  0.1108  0.0071
   48MPD2    H7  757   0.468   4.271   9.561 -0.1238  0.7868 -0.1834
   49TMC2    C1  758   3.406   2.305  10.060 -0.2239 -0.0759 -0.2613
   49TMC2    C2  759   3.399   2.428  10.128 -0.3876  0.2169 -0.0944
   49TMC2    C3  760   3.374   2.535  10.055 -0.3968 -0.1577  0.4183
   49TMC2    C4  761   3.384   2.296   9.924  0.4759  0.0388 -0.3624
   49TMC2    C5  762   3.359   2.412   9.850 -0.2678  0.6182 -0.4454
   49TMC2    C6  763   3.349   2.532   9.916 -0.4047 -0.5095  0.2051
   49TMC2     C  764   3.413   2.183  10.132 -0.4122  1.0817 -0.0212
   49TMC2     O  765   3.474   2.090  10.086 -0.6284 -0.5065 -0.3514
   49TMC2     H  766   3.396   2.438  10.236 -1.3773  0.4897 -0.1427
   49TMC2    H1  767   3.393   2.194   9.887  0.5729  0.6014 -1.8780
   49TMC2    H2  768   3.342   2.622   9.856  1.3880 -0.2526  0.4057
   49TMC2    C7  769   3.302   2.407   9.713  0.1431  0.0388  0.1902
   49TMC2    C8  770   3.357   2.662  10.121  0.0477 -0.3815 -0.3778
   49TMC2    O1  771   3.279   2.508   9.650 -0.0887  0.7093  0.5252
   49TMC2    O2  772   3.411   2.677  10.230 -0.0469 -0.7173  0.0173
   49TMC2    O5  773   3.238   2.719  10.089  0.2063 -0.2613 -0.1950
   49TMC2    H5  774   3.193   2.679  10.011 -0.2317  0.2027 -0.1837
   50MPD2     C  775   3.493   2.029  10.356 -0.6826  0.2559  0.4960
   50MPD2    C1  776   3.383   2.110  10.361  0.0385  0.1398  0.4785
   50MPD2    C2  777   3.296   2.116  10.469  0.0036 -0.2767 -0.3029
   50MPD2    C3  778   3.317   2.024  10.572 -0.6596 -0.4305 -0.2826
   50MPD2    C4  779   3.426   1.941  10.565 -0.3986  0.1557 -0.0011
   50MPD2    C5  780   3.510   1.945  10.460  0.3928  0.0870 -0.0872
   50MPD2     H  781   3.224   2.196  10.483 -0.7734 -1.0593  0.1438
   50MPD2    H1  782   3.435   1.867  10.643  0.8874 -0.6005 -0.8667
   50MPD2    H2  783   3.569   2.035  10.279 -1.4693  1.0924 -0.2112
   50MPD2    H3  784   3.592   1.875  10.458  0.0091 -0.3570 -0.4808
   50MPD2     N  785   3.248   2.025  10.694 -0.1618  0.0536 -0.4065
   50MPD2    H5  786   3.282   1.957  10.760 -0.4897  2.3169  2.0710
   50MPD2    N1  787   3.371   2.204  10.264 -0.2708 -0.2410  0.0804
   50MPD2    H7  788   3.303   2.278  10.278 -0.8677 -0.9573  0.9760
   51TMC2    C1  789   3.805   1.363   1.642  0.0539  0.1455  0.1143
   51TMC2    C2  790   3.707   1.367   1.737  0.6522  0.0753  0.2557
   51TMC2    C3  791   3.696   1.489   1.803 -0.6624 -0.4059 -0.1777
   51TMC2    C4  792   3.896   1.464   1.612 -0.8194  0.3921 -0.7720
   51TMC2    C5  793   3.881   1.575   1.691  0.5043 -0.2029 -0.0734
   51TMC2    C6  794   3.785   1.586   1.783  0.2562 -0.0953  0.2357
   51TMC2     C  795   3.836   1.235   1.572 -0.5695  0.1261  0.3363
   51TMC2     O  796   3.787   1.130   1.616  0.0479  0.5982  0.0578
   51TMC2     H  797   3.631   1.290   1.747  0.7663 -0.1186 -0.3899
   51TMC2    H1  798   3.980   1.453   1.545 -0.2645 -4.0688  0.6647
   51TMC2    H2  799   3.771   1.679   1.838 -0.8595 -0.4188  0.5027
   51TMC2    C7  800   4.008   1.646   1.716  0.2710 -0.2753  0.2594
   51TMC2    C8  801   3.587   1.502   1.900  0.0449  0.3497  0.1381
   51TMC2    O1  802   4.107   1.578   1.719 -0.1758 -0.2831  0.2535
   51TMC2    O2  803   3.550   1.609   1.942 -0.5226 -0.4105  0.3853
   51TMC2    O5  804   3.596   1.386   1.975  0.2827  0.3119  0.5537
   51TMC2    H5  805   3.643   1.320   1.919 -2.4759 -1.0202 -0.2332
   52MPD2     C  806   4.044   0.961   1.197 -0.2805 -0.4593 -0.4010
   52MPD2    C1  807   3.994   0.920   1.319  0.9546 -0.5741  0.2233
   52MPD2    C2  808   3.941   1.019   1.402  0.2178  0.2578 -0.2959
   52MPD2    C3  809   3.952   1.150   1.367  0.4714 -0.2361 -0.7825
   52MPD2    C4  810   4.007   1.193   1.247  0.2930  0.4294 -0.5009
   52MPD2    C5  811   4.053   1.095   1.168 -0.2678  0.4114 -0.6566
   52MPD2     H  812   3.908   0.986   1.500 -1.0740 -0.1402 -0.8668
   52MPD2    H1  813   4.023   1.299   1.235 -1.3053  0.8277  0.9591
   52MPD2    H2  814   4.097   0.895   1.129 -0.6701 -0.9824 -0.1994
   52MPD2    H3  815   4.112   1.119   1.080 -0.5681 -1.2259 -1.3072
   52MPD2     N  816   3.906   1.251   1.457  0.3992 -0.3349 -0.4386
   52MPD2    H5  817   3.925   1.342   1.417  0.4214  0.3101  1.0525
   52MPD2    N1  818   3.988   0.786   1.357  0.5047 -0.2220 -0.2126
   52MPD2    H7  819   3.931   0.761   1.437  2.1529  0.5535  1.2016
   53TMC2    C1  820   3.976   4.216  11.735 -0.4197  0.6842  0.0555
   53TMC2    C2  821   4.102   4.277  11.729 -0.4301 -0.3748  0.2682
   53TMC2    C3  822   4.167   4.310  11.851 -0.5035 -0.4403 -0.0808
   53TMC2    C4  823   3.934   4.159  11.852  0.5686  0.2700  0.0501
   53TMC2    C5  824   3.990   4.206  11.965 -0.2674  1.1876  0.5962
   53TMC2    C6  825   4.105   4.280  11.971  0.0853  0.8219 -0.4833
   53TMC2     C  826   3.887   4.236  11.626  0.3005 -0.5002  0.1963
   53TMC2     O  827   3.901   4.339  11.557  0.2763 -0.0002  0.0021
   53TMC2     H  828   4.148   4.320  11.641 -1.6523 -0.8289 -0.5912
   53TMC2    H1  829   3.839   4.108  11.863 -0.8601  3.4487  2.4729
   53TMC2    H2  830   4.144   4.328  12.060  0.5340 -1.7587  0.7285
   53TMC2    C7  831   3.921   4.159  12.086  0.4955  0.0542  0.1153
   53TMC2    C8  832   4.312   4.335  11.849 -0.0411 -0.6672  0.2990
   53TMC2    O1  833   3.828   4.078  12.071 -0.4337  0.2199  0.1994
   53TMC2    O2  834   4.355   4.397  11.943 -0.0633  0.0655  0.3453
   53TMC2    O5  835   4.369   4.225  11.787 -0.0610  0.0832  0.0236
   53TMC2    H5  836   4.319   4.169  11.724  1.5602  0.7668 -1.8598
   54MPD2     C  837   3.616   4.251  11.509  0.2107  0.0913  0.4596
   54MPD2    C1  838   3.663   4.146  11.582  0.3390 -1.0535  0.1997
   54MPD2    C2  839   3.574   4.047  11.610  0.7383  0.4095  0.8896
   54MPD2    C3  840   3.442   4.058  11.573 -0.7710  0.0016 -0.1906
   54MPD2    C4  841   3.391   4.170  11.508 -0.3016 -0.2855 -0.0552
   54MPD2    C5  842   3.480   4.264  11.473 -0.0136  0.6194  0.6803
   54MPD2     H  843   3.602   3.962  11.671 -0.7187 -0.5328  0.2388
   54MPD2    H1  844   3.287   4.193  11.486 -0.1145  0.7542  0.1313
   54MPD2    H2  845   3.685   4.331  11.484 -0.4790  0.7585  0.6625
   54MPD2    H3  846   3.460   4.357  11.422  1.9426  1.0685  0.7343
   54MPD2     N  847   3.343   3.968  11.616 -0.0241  0.0857  0.0088
   54MPD2    H5  848   3.248   4.006  11.612  0.0753  0.3236 -0.1095
   54MPD2    N1  849   3.791   4.142  11.636 -0.2425 -0.3076 -0.1535
   54MPD2    H7  850   3.820   4.062  11.691  1.4689 -0.3701 -1.1366
   55TMC2    C1  851   0.217   1.033  17.613  0.2019  0.8082 -0.1587
   55TMC2    C2  852   0.280   1.019  17.494 -0.4923 -0.3992  0.8822
   55TMC2    C3  853   0.329   0.893  17.470  0.7591  0.1412 -0.4372
   55TMC2    C4  854   0.190   0.930  17.697 -0.3387 -1.0020 -0.1623
   55TMC2    C5  855   0.236   0.810  17.666 -0.5690 -0.0530 -0.0722
   55TMC2    C6  856   0.304   0.785  17.552 -0.9826 -0.3469  0.1581
   55TMC2     C  857   0.176   1.163  17.669 -0.9238 -0.0383  0.5308
   55TMC2     O  858   0.149   1.174   0.057 -0.2157  0.0809 -0.2478
   55TMC2     H  859   0.305   1.103  17.430 -0.1856 -0.4719  0.9078
   55TMC2    H1  860   0.112   0.942   0.042 -0.1272  1.0762 -0.2819
   55TMC2    H2  861   0.342   0.687  17.526 -3.6363 -1.6776  1.2254
   55TMC2    C7  862   0.215   0.692   0.029 -0.3111 -0.1521  0.1639
   55TMC2    C8  863   0.395   0.864  17.350  0.2192 -0.2666  0.0918
   55TMC2    O1  864   0.269   0.587  17.724  0.5306  0.1368 -0.2542
   55TMC2    O2  865   0.475   0.776  17.322  0.0649  0.1609  0.0173
   55TMC2    O5  866   0.346   0.947  17.257  0.5049 -0.3444  0.4742
   55TMC2    H5  867   0.295   1.025  17.287 -0.1821 -0.6615  0.1275
   56MPD2     C  868   0.147   1.485  17.496 -0.6972 -0.5373 -0.1248
   56MPD2    C1  869   0.128   1.391  17.589 -0.4088  0.0240 -0.1350
   56MPD2    C2  870   0.028   1.423  17.681 -0.3940 -0.1393  0.5494
   56MPD2    C3  871   4.713   1.552  17.697 -0.6845 -0.4587 -0.6152
   56MPD2    C4  872   0.010   1.646  17.607  0.3076 -0.5757  0.2824
   56MPD2    C5  873   0.091   1.612  17.505  0.0029  0.1722 -0.3637
   56MPD2     H  874   0.003   1.346   0.024  1.9123  0.7550  2.3066
   56MPD2    H1  875   4.716   1.749  17.625 -1.5384 -0.6840 -1.9473
   56MPD2    H2  876   0.214   1.472  17.411 -1.3412 -2.4592 -0.3432
   56MPD2    H3  877   0.103   1.682  17.423  2.4386 -0.7239 -0.7856
   56MPD2     N  878   4.633   1.584   0.085 -0.1032 -0.7608 -0.3929
   56MPD2    H5  879   4.612   1.504   0.144  2.0199 -0.2377  1.0745
   56MPD2    N1  880   0.189   1.267  17.581  0.3832 -0.6863 -0.3264
   56MPD2    H7  881   0.244   1.262  17.496 -0.3520 -1.5714 -0.7568
   57TMC2    C1  882   3.561   2.359  13.321 -0.5469  0.6353  0.0228
   57TMC2    C2  883   3.560   2.221  13.288 -0.0492  0.4138 -0.8818
   57TMC2    C3  884   3.662   2.174  13.204  0.3862  0.5134  0.5076
   57TMC2    C4  885   3.659   2.440  13.263 -0.4309  0.2872  0.0261
   57TMC2    C5  886   3.759   2.384  13.184  0.4736 -0.1556  0.1837
   57TMC2    C6  887   3.757   2.252  13.152 -0.3381  0.2315  0.0092
   57TMC2     C  888   3.486   2.416  13.434 -0.0605  0.5593  0.2785
   57TMC2     O  889   3.506   2.533  13.449  0.0799  0.0396  0.5474
   57TMC2     H  890   3.486   2.153  13.327  2.3939 -1.1020  1.1248
   57TMC2    H1  891   3.677   2.544  13.290 -1.9099  0.8194 -1.0552
   57TMC2    H2  892   3.822   2.203  13.081 -1.0399  0.9889 -1.1503
   57TMC2    C7  893   3.886   2.455  13.173  0.7160  0.0410 -0.0320
   57TMC2    C8  894   3.697   2.035  13.186 -0.3094  0.1499 -0.4648
   57TMC2    O1  895   3.882   2.576  13.178 -0.3467  0.0105  0.1519
   57TMC2    O2  896   3.808   2.000  13.218 -0.4929 -0.1288  0.3912
   57TMC2    O5  897   3.588   1.963  13.193 -0.4080  0.1848 -0.8355
   57TMC2    H5  898   3.507   2.012  13.167  0.0461  1.3745 -0.0199
   58MPD2     C  899   3.285   2.314  13.889  0.6199  0.1189 -0.3280
   58MPD2    C1  900   3.372   2.417  13.853  0.0771  0.0787  0.2430
   58MPD2    C2  901   3.408   2.424  13.716 -0.3887  0.6052 -0.4732
   58MPD2    C3  902   3.374   2.326  13.628 -0.2745 -0.5192  0.0913
   58MPD2    C4  903   3.308   2.218  13.676 -0.0985 -0.6032  0.2483
   58MPD2    C5  904   3.264   2.214  13.806 -0.2300  0.2661 -0.6745
   58MPD2     H  905   3.475   2.505  13.691  1.6309 -0.7867  0.4714
   58MPD2    H1  906   3.292   2.135  13.609  0.2998 -0.3665 -0.1413
   58MPD2    H2  907   3.255   2.298  13.992 -2.9547 -1.3670 -1.5969
   58MPD2    H3  908   3.209   2.127  13.842  0.2151 -0.1678 -1.0343
   58MPD2     N  909   3.410   2.324  13.493  0.4608  0.5193 -0.3126
   58MPD2    H5  910   3.386   2.241  13.440 -2.0672 -0.1883  1.9454
   58MPD2    N1  911   3.427   2.492  13.959 -0.0601 -1.0503 -0.6581
   58MPD2    H7  912   3.379   2.490  14.048 -0.6399 -2.3837 -1.0095
   59TMC2    C1  913   1.680   2.306  13.065 -0.0698 -0.0943  0.0550
   59TMC2    C2  914   1.737   2.192  13.107 -0.5404  0.1924 -0.5436
   59TMC2    C3  915   1.722   2.073  13.041 -0.4245  0.0370 -0.5537
   59TMC2    C4  916   1.604   2.312  12.953  0.6462 -0.0340  0.0994
   59TMC2    C5  917   1.581   2.193  12.895  0.3716 -0.4879 -0.1528
   59TMC2    C6  918   1.639   2.075  12.929 -0.1069  0.4201 -0.2722
   59TMC2     C  919   1.709   2.441  13.126 -0.1639 -0.2550 -0.3901
   59TMC2     O  920   1.645   2.538  13.090  0.3372 -0.4213 -0.2330
   59TMC2     H  921   1.808   2.187  13.190 -0.9217 -2.3499 -0.3797
   59TMC2    H1  922   1.548   2.403  12.935  0.4685 -0.1808 -0.0842
   59TMC2    H2  923   1.609   1.978  12.892 -0.9508 -0.4225  2.6435
   59TMC2    C7  924   1.483   2.187  12.794 -0.3513 -0.4668 -0.3231
   59TMC2    C8  925   1.726   1.955  13.117  0.5473  0.2509 -0.0877
   59TMC2    O1  926   1.431   2.078  12.779 -0.7072 -0.6225  0.5780
   59TMC2    O2  927   1.653   1.857  13.093 -0.1007 -0.1909  0.3750
   59TMC2    O5  928   1.847   1.947  13.173  0.1798 -0.1513  0.3053
   59TMC2    H5  929   1.898   2.028  13.152  0.9498 -0.1503  2.1305
   60MPD2     C  930   1.800   2.666  13.291 -0.1536  0.5725 -0.3482
   60MPD2    C1  931   1.843   2.538  13.310 -0.4654 -0.0451  0.8852
   60MPD2    C2  932   1.929   2.517  13.417  0.6721 -0.8627  0.3545
   60MPD2    C3  933   1.967   2.620  13.502 -0.0976 -0.3841 -0.3244
   60MPD2    C4  934   1.919   2.746  13.476  0.3130  0.2957 -0.4534
   60MPD2    C5  935   1.835   2.769  13.374  0.3719  0.1525 -0.1936
   60MPD2     H  936   1.955   2.416  13.445 -1.8378 -1.3755  0.8850
   60MPD2    H1  937   1.954   2.833  13.531 -0.6447  1.1128 -1.1376
   60MPD2    H2  938   1.721   2.691  13.222  0.2797  0.4423 -0.8899
   60MPD2    H3  939   1.792   2.864  13.347  0.1645  0.1607  0.1636
   60MPD2     N  940   2.052   2.610  13.616  0.0184 -0.1544 -0.4564
   60MPD2    H5  941   2.078   2.696  13.662  3.4572 -1.5625  0.2271
   60MPD2    N1  942   1.801   2.432  13.224  0.2764 -0.1097  0.2102
   60MPD2    H7  943   1.844   2.340  13.226  1.6324  0.5190 -0.4198
   61TMC2    C1  944   1.542   3.267  14.496  0.2882 -0.2346  0.2563
   61TMC2    C2  945   1.481   3.146  14.482  0.0739  0.4391 -0.6424
   61TMC2    C3  946   1.371   3.113  14.564 -0.4019 -0.1995  0.3104
   61TMC2    C4  947   1.499   3.355  14.596 -0.9295 -0.7980 -0.0903
   61TMC2    C5  948   1.408   3.312  14.688  0.6521  0.5578  0.8356
   61TMC2    C6  949   1.346   3.190  14.676  0.5868  0.5624  0.0639
   61TMC2     C  950   1.607   3.315  14.373  0.3074 -0.6007 -0.3282
   61TMC2     O  951   1.675   3.238  14.306 -0.2769 -0.4037 -0.4100
   61TMC2     H  952   1.497   3.093  14.388 -0.5679  1.0528 -1.0935
   61TMC2    H1  953   1.545   3.452  14.608 -0.8867 -1.0420  1.7060
   61TMC2    H2  954   1.274   3.153  14.747 -0.6438  0.9216 -1.0090
   61TMC2    C7  955   1.347   3.413  14.770  0.9843 -0.8967 -0.0213
   61TMC2    C8  956   1.312   2.978  14.566 -0.1551  0.5786 -0.3469
   61TMC2    O1  957   1.415   3.518  14.783  0.2556  0.3420 -0.1523
   61TMC2    O2  958   1.265   2.928  14.668  0.1944  0.4730  0.5347
   61TMC2    O5  959   1.272   2.959  14.438 -0.0578  0.3610 -0.1556
   61TMC2    H5  960   1.284   3.046  14.393  0.5429  0.0912 -0.5108
   62MPD2     C  961   1.720   3.481  14.162  0.0609 -0.3758 -0.3445
   62MPD2    C1  962   1.631   3.531  14.255  0.0800  0.1547 -0.6365
   62MPD2    C2  963   1.613   3.667  14.266  0.1052  0.1513 -0.0924
   62MPD2    C3  964   1.676   3.748  14.174  0.1214  0.4574  0.1013
   62MPD2    C4  965   1.748   3.696  14.078 -0.7684 -0.3853 -1.4058
   62MPD2    C5  966   1.774   3.567  14.075  0.1836  0.2580  0.2095
   62MPD2     H  967   1.557   3.720  14.342 -1.3038 -0.2790 -0.8445
   62MPD2    H1  968   1.795   3.754  13.999  0.5386  1.0130  0.3892
   62MPD2    H2  969   1.749   3.378  14.148 -0.2708 -0.6731  1.1806
   62MPD2    H3  970   1.829   3.522  13.993  0.1123 -0.1493  0.3878
   62MPD2     N  971   1.641   3.882  14.174  0.3041 -0.6804 -0.2483
   62MPD2    H5  972   1.555   3.902  14.225  0.3619 -0.6891 -0.1476
   62MPD2    N1  973   1.587   3.452  14.359 -0.0697 -0.3393  0.3528
   62MPD2    H7  974   1.520   3.495  14.423  2.2884  0.4525  2.2790
   63TMC2    C1  975   0.390   4.023  11.224  0.7219 -0.3267 -0.4115
   63TMC2    C2  976   0.508   4.002  11.294 -0.4187  0.1816 -0.5599
   63TMC2    C3  977   0.627   4.044  11.241  0.5255 -0.1410 -0.2923
   63TMC2    C4  978   0.385   4.092  11.103 -0.0356  0.3154  0.2348
   63TMC2    C5  979   0.505   4.118  11.053  0.1668 -0.2607 -0.2733
   63TMC2    C6  980   0.624   4.097  11.116  0.4460  0.2080  0.1819
   63TMC2     C  981   0.283   3.930  11.240 -0.3334 -1.1275 -0.2395
   63TMC2     O  982   0.234   3.922  11.351  0.6580 -0.1450  0.0135
   63TMC2     H  983   0.507   3.932  11.377 -1.9062 -0.0026 -0.7323
   63TMC2    H1  984   0.291   4.119  11.056  0.1924  1.5620  0.5051
   63TMC2    H2  985   0.716   4.145  11.086  0.0601  0.8118 -0.0372
   63TMC2    C7  986   0.504   4.138  10.910 -0.7238 -0.0456 -0.1394
   63TMC2    C8  987   0.751   4.011  11.298  0.3627  0.3170  0.3724
   63TMC2    O1  988   0.391   4.142  10.862 -0.0790 -0.1425 -0.1568
   63TMC2    O2  989   0.850   3.997  11.228  0.0028  0.2273  0.4944
   63TMC2    O5  990   0.733   3.965  11.429 -0.1170 -0.4180 -0.1720
   63TMC2    H5  991   0.661   4.015  11.473 -0.1069  0.2529 -0.9180
   64MPD2     C  992   4.707   3.587  11.023  0.4093 -0.1199  0.4129
   64MPD2    C1  993   0.011   3.683  10.930 -0.1269 -0.4944 -0.6552
   64MPD2    C2  994   0.091   3.790  10.970  0.1888 -0.0565 -0.0917
   64MPD2    C3  995   0.125   3.807  11.100 -0.2054 -0.5246 -0.1574
   64MPD2    C4  996   0.093   3.710  11.193 -0.0940 -0.2263 -0.0447
   64MPD2    C5  997   0.015   3.601  11.155  0.0661  0.3825  0.3258
   64MPD2     H  998   0.134   3.857  10.896 -1.3742  0.6957 -0.3016
   64MPD2    H1  999   0.125   3.724  11.296 -0.2901  2.5734 -0.3876
   64MPD2    H2 1000   4.658   3.493  10.999 -0.3297  0.1623  0.8010
   64MPD2    H3 1001   4.702   3.528  11.221 -0.8812  0.6377 -0.0325
   64MPD2     N 1002   0.234   3.896  11.118  0.3342  0.5095  0.1595
   64MPD2    H5 1003   0.273   3.931  11.031  0.8297  0.0655  0.2068
   64MPD2    N1 1004   4.710   3.676  10.793 -0.5111 -0.0913  0.1182
   64MPD2    H7 1005   0.016   3.744  10.728  0.3698 -2.2280 -1.5921
   65TMC2    C1 1006   1.830   3.433  15.243 -0.0729  0.0616 -0.7284
   65TMC2    C2 1007   1.855   3.397  15.115 -0.8040  0.0513  0.5104
   65TMC2    C3 1008   1.870   3.507  15.030  0.1335 -0.8297 -0.1463
   65TMC2    C4 1009   1.804   3.561  15.289 -0.4513  0.2638 -0.1212
   65TMC2    C5 1010   1.827   3.664  15.201 -0.3629  0.1720  0.3100
   65TMC2    C6 1011   1.864   3.636  15.072 -0.4369 -0.2091 -0.1541
   65TMC2     C 1012   1.828   3.317  15.340 -0.2251  0.0385 -0.4319
   65TMC2     O 1013   1.843   3.203  15.292  0.1988  0.0606  0.1951
   65TMC2     H 1014   1.896   3.299  15.091 -3.0239 -0.3192 -1.7857
   65TMC2    H1 1015   1.761   3.584  15.386 -1.8127 -1.1443 -0.3938
   65TMC2    H2 1016   1.877   3.722  15.007 -1.4798  0.0236 -0.0653
   65TMC2    C7 1017   1.790   3.800  15.237 -0.3006 -0.0047  0.4609
   65TMC2    C8 1018   1.931   3.476  14.898 -0.8597 -0.1106  0.9486
   65TMC2    O1 1019   1.795   3.880  15.146  0.1495 -0.0262  0.2490
   65TMC2    O2 1020   1.994   3.551  14.827  0.5572 -0.9948  0.6185
   65TMC2    O5 1021   1.859   3.375  14.848  0.0495 -0.0922  0.0198
   65TMC2    H5 1022   1.784   3.351  14.907  0.3230  1.0241  0.8372
   66MPD2     C 1023   1.844   3.305  15.718 -0.4356 -0.4638 -0.5853
   66MPD2    C1 1024   1.829   3.260  15.584  1.1437  0.1531  0.0133
   66MPD2    C2 1025   1.815   3.121  15.572 -0.0584 -0.6529 -0.7254
   66MPD2    C3 1026   1.793   3.040  15.685  0.0557 -0.1671 -0.2705
   66MPD2    C4 1027   1.801   3.087  15.811  0.2329 -0.3273 -0.5890
   66MPD2    C5 1028   1.829   3.219  15.831 -0.3747 -0.4794 -0.4537
   66MPD2     H 1029   1.809   3.074  15.474 -1.8428 -1.6574 -0.1279
   66MPD2    H1 1030   1.793   3.026  15.901 -0.3753  1.1367  0.3576
   66MPD2    H2 1031   1.851   3.411  15.738 -0.2786 -0.8841  1.6522
   66MPD2    H3 1032   1.823   3.262  15.930 -2.1143  1.1905 -1.2767
   66MPD2     N 1033   1.774   2.904  15.677  0.5955  0.0279 -0.4105
   66MPD2    H5 1034   1.760   2.851  15.763 -0.1115  0.6182 -0.1554
   66MPD2    N1 1035   1.826   3.353  15.473 -1.1185  0.0616  0.6843
   66MPD2    H7 1036   1.844   3.451  15.489  1.4919  0.0717 -2.3944
   67TMC2    C1 1037   1.651   2.181  14.595 -0.4954  0.1742 -1.0489
   67TMC2    C2 1038   1.699   2.071  14.656 -0.9638  0.7333  0.1746
   67TMC2    C3 1039   1.816   2.090  14.716  0.4120 -0.0939 -0.3994
   67TMC2    C4 1040   1.706   2.310  14.586 -0.1908  0.3403  0.8144
   67TMC2    C5 1041   1.824   2.316  14.646  0.2802 -0.1215  0.7063
   67TMC2    C6 1042   1.878   2.214  14.722 -0.1604 -0.1448 -0.8760
   67TMC2     C 1043   1.512   2.157  14.541 -0.0647 -0.0386  0.3359
   67TMC2     O 1044   1.440   2.081  14.605 -0.7305 -0.0825 -0.3635
   67TMC2     H 1045   1.639   1.980  14.662 -0.1350  0.2146  0.5481
   67TMC2    H1 1046   1.661   2.398  14.543  1.3038  0.8968  0.3690
   67TMC2    H2 1047   1.973   2.222  14.773 -0.8898  0.7991  0.3306
   67TMC2    C7 1048   1.888   2.441  14.618 -0.2048 -0.5299 -0.5840
   67TMC2    C8 1049   1.883   1.990  14.788 -0.0085 -0.4849 -0.1070
   67TMC2    O1 1050   1.895   2.480  14.498  0.1416 -0.1622 -0.2045
   67TMC2    O2 1051   1.930   2.004  14.903 -0.1352 -0.5754  0.2058
   67TMC2    O5 1052   1.866   1.876  14.724  0.4511 -0.0011  0.4559
   67TMC2    H5 1053   1.830   1.897  14.635 -1.7108 -0.4546  1.2141
   68MPD2     C 1054   1.248   2.160  14.402 -0.2746  0.2661  0.3398
   68MPD2    C1 1055   1.339   2.259  14.387  0.3420  0.6646  0.1748
   68MPD2    C2 1056   1.304   2.375  14.315 -0.2797 -0.1642 -0.5455
   68MPD2    C3 1057   1.176   2.391  14.256 -0.0131  0.4625  0.2250
   68MPD2    C4 1058   1.084   2.298  14.290 -0.0480 -0.4062 -0.3140
   68MPD2    C5 1059   1.125   2.182  14.355 -0.3016 -0.6381 -0.2255
   68MPD2     H 1060   1.379   2.452  14.300  0.0293 -0.2817  0.3745
   68MPD2    H1 1061   0.980   2.311  14.262 -0.1225  0.4371  0.3588
   68MPD2    H2 1062   1.270   2.066  14.452  2.2065 -0.4529 -2.0770
   68MPD2    H3 1063   1.040   2.117  14.374  0.9140 -2.9824 -2.8155
   68MPD2     N 1064   1.147   2.518  14.209 -0.5223 -0.3111 -0.7909
   68MPD2    H5 1065   1.218   2.590  14.216  0.3360 -1.0652 -1.8841
   68MPD2    N1 1066   1.468   2.253  14.446  0.2915  0.1192 -0.0605
   68MPD2    H7 1067   1.533   2.325  14.414 -0.7618  0.4356 -1.4514
   69TMC2    C1 1068   3.519   4.332  12.580 -0.2957  0.1727 -0.6310
   69TMC2    C2 1069   3.394   4.322  12.528  0.0755  0.2247  0.3618
   69TMC2    C3 1070   3.374   4.360  12.405 -0.0632  0.1309  0.6265
   69TMC2    C4 1071   3.621   4.394  12.510  0.0496  0.8605  0.6293
   69TMC2    C5 1072   3.594   4.431  12.377  0.4585 -0.1800 -0.2424
   69TMC2    C6 1073   3.469   4.410  12.321  0.0625  0.4462  0.5570
   69TMC2     C 1074   3.558   4.261  12.704  0.1497 -0.2046  0.0704
   69TMC2     O 1075   3.479   4.181  12.751  0.0254  0.0530 -0.0418
   69TMC2     H 1076   3.320   4.270  12.586  0.8628 -1.0946  0.1764
   69TMC2    H1 1077   3.721   4.405  12.551  0.1096 -0.7299  0.9385
   69TMC2    H2 1078   3.449   4.416  12.214  2.8323 -0.2141  0.0020
   69TMC2    C7 1079   3.705   4.487  12.296 -0.3191  0.0275 -0.0592
   69TMC2    C8 1080   3.242   4.358  12.349  0.2665 -0.6162 -0.1901
   69TMC2    O1 1081   3.799   4.527  12.356  0.2616  0.0877  0.4494
   69TMC2    O2 1082   3.159   4.286  12.400  0.0451  0.0187 -0.0972
   69TMC2    O5 1083   3.213   4.474  12.291  0.3706  0.1703  0.8363
   69TMC2    H5 1084   3.289   4.535  12.302  1.3822 -0.7202 -1.2857
   70MPD2     C 1085   3.858   4.298  12.903 -0.7560 -0.3441 -0.4605
   70MPD2    C1 1086   3.740   4.235  12.866  0.2656 -0.1658  0.6358
   70MPD2    C2 1087   3.695   4.117  12.930  0.2699  0.2422 -0.4821
   70MPD2    C3 1088   3.779   4.061  13.020  0.9237 -0.0863  0.5354
   70MPD2    C4 1089   3.891   4.122  13.068  0.3576 -0.3339 -0.4603
   70MPD2    C5 1090   3.930   4.241  13.007 -0.1803  0.5905  0.4119
   70MPD2     H 1091   3.600   4.077  12.897  0.5669 -0.9926  0.1950
   70MPD2    H1 1092   3.963   4.066  13.126  0.7195 -1.6186 -2.1573
   70MPD2    H2 1093   3.881   4.392  12.855 -1.1970  0.5022  0.9908
   70MPD2    H3 1094   4.020   4.285  13.049 -0.2347  1.6884 -0.6071
   70MPD2     N 1095   3.751   3.931  13.073 -0.5809  0.9171  0.6840
   70MPD2    H5 1096   3.823   3.881  13.123  1.2296  1.6124 -1.2217
   70MPD2    N1 1097   3.682   4.292  12.748  0.3652  0.2835  0.0910
   70MPD2    H7 1098   3.728   4.378  12.718  0.6382 -0.4201 -1.5633
   71TMC2    C1 1099   0.570   0.241   1.398  0.4166 -0.6261  0.3545
   71TMC2    C2 1100   0.596   0.248   1.528 -0.1088 -0.6681  0.3373
   71TMC2    C3 1101   0.516   0.331   1.605 -0.2187 -0.0044 -0.0654
   71TMC2    C4 1102   0.464   0.307   1.343  0.0061  0.0649  0.1435
   71TMC2    C5 1103   0.384   0.383   1.421 -0.1930 -0.5192  0.4434
   71TMC2    C6 1104   0.407   0.396   1.555  0.1126 -0.2629 -0.1361
   71TMC2     C 1105   0.638   0.137   1.327 -0.0479 -0.6647 -0.9578
   71TMC2     O 1106   0.754   0.112   1.361 -0.4413 -0.4427 -0.3900
   71TMC2     H 1107   0.681   0.197   1.571  0.7081  1.0358  0.7366
   71TMC2    H1 1108   0.456   0.298   1.235  1.5458 -1.7463  0.1727
   71TMC2    H2 1109   0.323   0.424   1.617  0.4080  1.9868 -0.7515
   71TMC2    C7 1110   0.258   0.439   1.375  1.0445  0.4912 -0.2838
   71TMC2    C8 1111   0.531   0.300   1.746 -0.1729 -0.3057  0.2467
   71TMC2    O1 1112   0.202   0.519   1.447 -1.1663 -0.1891 -0.1404
   71TMC2    O2 1113   0.568   0.188   1.777 -0.5959 -0.3188  0.1058
   71TMC2    O5 1114   0.537   0.411   1.823 -0.1095  0.2092  0.1899
   71TMC2    H5 1115   0.508   0.495   1.780  0.9839  1.1494  1.3065
   72MPD2     C 1116   0.676   4.538   0.938 -0.2027 -0.0081 -0.6139
   72MPD2    C1 1117   0.763   4.571   1.039 -0.0123  0.0910  0.0079
   72MPD2    C2 1118   0.727   4.664   1.139 -0.6426  0.7788  0.2404
   72MPD2    C3 1119   0.604   4.715   1.141 -0.1600 -0.4865  0.0131
   72MPD2    C4 1120   0.514   4.682   1.048  0.4113 -0.5878 -0.0457
   72MPD2    C5 1121   0.550   4.601   0.939  0.0978 -0.5492 -0.1301
   72MPD2     H 1122   0.808   4.693   1.205  1.1575 -0.6057 -1.3135
   72MPD2    H1 1123   0.416   4.729   1.050 -0.1333 -1.7933  1.1622
   72MPD2    H2 1124   0.706   4.475   0.855  2.5918 -0.9335  1.0995
   72MPD2    H3 1125   0.484   4.573   0.858  0.2009  0.3568 -0.5297
   72MPD2     N 1126   0.558   0.074   1.233 -0.0216 -0.4649  0.0216
   72MPD2    H5 1127   0.459   0.096   1.231  0.4248  1.6022  0.3588
   72MPD2    N1 1128   0.893   4.516   1.054  0.1488  0.2252  0.5307
   72MPD2    H7 1129   0.945   4.543   1.137  0.3554  0.2589  0.3922
   73TMC2    C1 1130   0.923   0.886  14.013  0.6287  0.5023 -0.4223
   73TMC2    C2 1131   0.848   0.847  14.124  0.9554  0.6828 -0.7131
   73TMC2    C3 1132   0.929   0.812  14.229 -0.0248  0.3329 -0.6240
   73TMC2    C4 1133   1.059   0.900  14.010  0.5651 -0.9310 -0.4272
   73TMC2    C5 1134   1.131   0.886  14.127 -0.6234 -0.0293  0.1169
   73TMC2    C6 1135   1.068   0.833  14.239  0.0821  0.0056  0.5247
   73TMC2     C 1136   0.866   1.002  13.942  0.4545  0.5160 -0.0862
   73TMC2     O 1137   0.943   1.091  13.916 -0.3996  0.6748 -0.2494
   73TMC2     H 1138   0.751   0.801  14.113  0.4427  1.2033  1.7944
   73TMC2    H1 1139   1.115   0.944  13.929 -1.7753  1.1165 -0.9290
   73TMC2    H2 1140   1.115   0.824  14.336  0.8013 -2.5052 -0.0610
   73TMC2    C7 1141   1.227   0.988  14.159 -0.3227 -0.0954 -0.2941
   73TMC2    C8 1142   0.873   0.741  14.337  0.3287 -0.4843 -0.2045
   73TMC2    O1 1143   1.311   0.988  14.253  0.0780  0.5348 -0.0037
   73TMC2    O2 1144   0.935   0.679  14.422  0.2667 -0.1745  0.1134
   73TMC2    O5 1145   0.756   0.814  14.367  0.4265 -0.0372 -0.3589
   73TMC2    H5 1146   0.729   0.881  14.300  0.6987 -0.6570 -1.0935
   74MPD2     C 1147   0.486   1.307  13.808  0.6633  0.1942 -0.8443
   74MPD2    C1 1148   0.614   1.343  13.847 -0.1183 -0.2279  0.7922
   74MPD2    C2 1149   0.693   1.230  13.881  0.7073 -0.3937  0.5064
   74MPD2    C3 1150   0.646   1.105  13.875 -0.2328  0.8595 -0.1526
   74MPD2    C4 1151   0.515   1.075  13.827 -0.0868  0.1950 -0.3075
   74MPD2    C5 1152   0.433   1.179  13.797 -0.3750  0.9775 -0.1007
   74MPD2     H 1153   0.791   1.248  13.922  0.7800 -0.0193  0.1645
   74MPD2    H1 1154   0.476   0.975  13.814 -1.5849  0.9378 -1.4439
   74MPD2    H2 1155   0.422   1.383  13.764 -3.4235 -2.1725  1.0137
   74MPD2    H3 1156   0.329   1.169  13.771  0.2924  0.7896 -2.7519
   74MPD2     N 1157   0.730   0.994  13.930 -0.3266 -0.8672 -0.0281
   74MPD2    H5 1158   0.692   0.900  13.934 -0.3708 -0.9239 -1.6467
   74MPD2    N1 1159   0.667   1.472  13.831 -0.0795  0.4671  0.0234
   74MPD2    H7 1160   0.620   1.539  13.771  0.6361  0.5902 -0.4043
   75TMC2    C1 1161   1.033   2.680  14.081 -0.6731  0.2847  0.8906
   75TMC2    C2 1162   1.043   2.780  14.181 -0.5485 -0.2801 -0.2761
   75TMC2    C3 1163   0.983   2.896  14.145  0.1034 -0.4107 -0.2668
   75TMC2    C4 1164   0.965   2.692  13.965  0.2666 -0.4080  0.9266
   75TMC2    C5 1165   0.909   2.816  13.937 -0.4072  0.7448 -0.1818
   75TMC2    C6 1166   0.921   2.918  14.024  0.6625  0.0509  0.1129
   75TMC2     C 1167   1.041   2.542  14.122 -0.4124 -0.7336 -0.1661
   75TMC2     O 1168   0.994   2.452  14.058 -0.7994 -0.1815  0.1620
   75TMC2     H 1169   1.069   2.765  14.285 -0.2402 -1.2457 -0.4900
   75TMC2    H1 1170   0.952   2.612  13.894  1.0242 -0.2269  0.5835
   75TMC2    H2 1171   0.884   3.012  13.985 -0.2804  0.1458  1.2133
   75TMC2    C7 1172   0.846   2.819  13.807 -0.2968 -0.0831 -0.4335
   75TMC2    C8 1173   0.952   2.996  14.241 -0.2498  0.3557  0.3599
   75TMC2    O1 1174   0.827   2.712  13.744  0.0847  0.0064  0.1748
   75TMC2    O2 1175   0.975   3.115  14.210 -0.8618  0.7028 -0.2575
   75TMC2    O5 1176   0.928   2.947  14.365  0.6846 -0.3082 -0.2864
   75TMC2    H5 1177   0.906   2.852  14.376  0.4771 -0.2489 -0.1720
   76TMC2    C1 1178   0.043   3.833  11.993  0.3174  0.3261  0.4032
   76TMC2    C2 1179   0.033   3.875  11.868 -0.4466  0.5709  0.0769
   76TMC2    C3 1180   0.023   3.771  11.781  0.7042 -0.6686  0.1884
   76TMC2    C4 1181   0.026   3.705  12.044  0.0157 -0.5631  0.3919
   76TMC2    C5 1182   0.010   3.609  11.948 -0.3599  0.3195 -0.1043
   76TMC2    C6 1183   0.015   3.644  11.816 -0.5504  0.1764 -0.0543
   76TMC2     C 1184   0.048   3.933  12.090 -0.0976  0.6603 -0.8837
   76TMC2     O 1185   0.097   3.906  12.200  0.4420  0.2777  0.3548
   76TMC2     H 1186   0.036   3.979  11.837  0.6135  1.2849  2.5807
   76TMC2    H1 1187   0.019   3.688  12.151 -2.8347 -1.8667 -0.0122
   76TMC2    H2 1188   0.000   3.567  11.741 -0.8156  0.2768 -0.1076
   76TMC2    C7 1189   4.667   3.486  11.989 -0.3260 -0.4252 -0.1382
   76TMC2    C8 1190   4.702   3.784  11.647 -0.7840 -0.4416  0.2467
   76TMC2    O1 1191   4.614   3.414  11.902 -0.4870  0.6820  0.4618
   76TMC2    O2 1192   4.716   3.702  11.559 -0.3292 -0.1419  0.2987
   76TMC2    O5 1193   4.592   3.854  11.658  0.5331 -0.0836 -0.2651
   76TMC2    H5 1194   4.583   3.897  11.746  0.4105  0.2362 -0.4369
   77MPD2     C 1195   0.013   4.417  12.236  0.2961 -0.2079 -0.5129
   77MPD2    C1 1196   4.650   4.395  12.143 -0.4131  0.0082 -0.5567
   77MPD2    C2 1197   4.639   4.271  12.076 -0.3406 -0.3947 -0.2716
   77MPD2    C3 1198   0.003   4.172  12.104 -0.0464 -0.1645  0.3130
   77MPD2    C4 1199   0.107   4.195  12.188 -0.2292 -0.4022  0.6174
   77MPD2    C5 1200   0.106   4.320  12.248  0.7498  0.3043  0.3739
   77MPD2     H 1201   4.564   4.258  11.999  0.0038  1.0028 -0.8371
   77MPD2    H1 1202   0.184   4.122  12.210 -0.4363 -0.7613  0.1785
   77MPD2    H2 1203   0.018   4.510  12.291  0.3402 -1.4483  1.5886
   77MPD2    H3 1204   0.194   4.337  12.310  1.7124  1.2815 -1.2823
   77MPD2     N 1205   4.720   4.045  12.046 -0.7340  0.3451  0.0126
   77MPD2    H5 1206   4.654   4.029  11.970  0.7451 -0.0287 -1.1742
   77MPD2    N1 1207   4.565   4.496  12.088 -0.0822  0.7969  0.4720
   77MPD2    H7 1208   4.500   4.470  12.015 -0.9534 -1.7410  2.1510
   78TMC2    C1 1209   1.213   0.540   1.761  0.0245 -0.4145  0.3139
   78TMC2    C2 1210   1.090   0.555   1.710 -0.0231 -0.9184 -0.0263
   78TMC2    C3 1211   1.060   0.475   1.606 -0.2007 -0.4903 -0.1584
   78TMC2    C4 1212   1.298   0.440   1.724 -0.6901  0.7578  0.2237
   78TMC2    C5 1213   1.251   0.358   1.623 -0.2503 -0.0774 -0.4062
   78TMC2    C6 1214   1.138   0.373   1.550 -0.0262 -0.3294 -0.2461
   78TMC2     C 1215   1.287   0.660   1.798  0.3063 -0.2852  0.2314
   78TMC2     O 1216   1.404   0.682   1.771  0.0957  0.2513 -0.1457
   78TMC2     H 1217   1.021   0.633   1.740  0.5129 -0.1719 -0.7495
   78TMC2    H1 1218   1.388   0.428   1.782  0.8209 -0.5436 -2.4010
   78TMC2    H2 1219   1.114   0.328   1.454  3.5957 -0.9099 -0.8946
   78TMC2    C7 1220   1.333   0.248   1.590 -0.3382  0.5326  0.1645
   78TMC2    C8 1221   0.920   0.490   1.566 -0.0812  0.2878 -0.6070
   78TMC2    O1 1222   1.445   0.259   1.638  0.4564  0.3977  0.4600
   78TMC2    O2 1223   0.839   0.574   1.605 -0.5733 -0.2220  0.5543
   78TMC2    O5 1224   0.879   0.370   1.524  0.0302  0.0135 -0.2527
   78TMC2    H5 1225   0.948   0.300   1.515  2.2265  2.0192  0.9654
   79MPD1     C 1226   1.259   1.145   2.002  0.9654 -0.1177  0.0073
   79MPD1    C1 1227   1.358   1.096   1.927  0.3371  0.0237  0.0072
   79MPD1    C2 1228   1.340   0.961   1.876 -0.3487 -0.6331 -0.1720
   79MPD1    C3 1229   1.237   0.880   1.920 -0.4839 -0.7389 -0.1373
   79MPD1    C4 1230   1.145   0.940   2.004  0.2508 -0.4538 -0.4387
   79MPD1    C5 1231   1.152   1.070   2.037  0.1649 -0.3514  0.6352
   79MPD1     H 1232   1.402   0.922   1.796  0.0031  0.7558 -0.5761
   79MPD1    H1 1233   1.052   0.890   2.025  0.1083 -0.6256 -1.4855
   79MPD1    H2 1234   1.262   1.247   2.039 -0.7219  0.3412 -1.1137
   79MPD1    H3 1235   1.070   1.113   2.094  1.0168  1.0445  0.8221
   79MPD1     N 1236   1.209   0.745   1.877 -0.2667  0.1418  0.1352
   79MPD1    H5 1237   1.123   0.700   1.907 -0.3996 -1.0816 -2.0871
   79MPD1    N1 1238   1.454   1.181   1.867  0.6455  0.9946 -0.3557
   79MPD1    H6 1239   1.472   1.261   1.927 -2.1215  1.0855  0.3346
   79MPD1    H7 1240   1.542   1.137   1.841  0.3338  1.8423 -2.8247
   80TMC2    C1 1241   3.139   3.056  11.998 -0.1639  0.1273 -0.2048
   80TMC2    C2 1242   3.104   3.079  11.868  0.1191  0.6120 -0.8005
   80TMC2    C3 1243   3.013   2.992  11.807  0.0657  0.2395 -0.0519
   80TMC2    C4 1244   3.099   2.942  12.062  0.0895  0.2270  0.2433
   80TMC2    C5 1245   3.015   2.854  11.987  0.5149 -0.3485  0.1205
   80TMC2    C6 1246   2.977   2.879  11.862 -0.5952  0.6151 -1.1629
   80TMC2     C 1247   3.243   3.136  12.061 -0.0967 -0.3954 -0.1269
   80TMC2     O 1248   3.272   3.094  12.173  0.7677 -0.0677 -0.2055
   80TMC2     H 1249   3.148   3.157  11.807  1.4734 -0.5621 -1.3301
   80TMC2    H1 1250   3.162   2.905  12.141 -2.0042 -1.8778  0.9387
   80TMC2    H2 1251   2.914   2.810  11.809  0.1589 -1.5453  0.7392
   80TMC2    C7 1252   3.010   2.712  12.021 -0.1846  0.4887 -0.4400
   80TMC2    C8 1253   2.935   3.044  11.700 -0.6588  0.3694  0.6212
   80TMC2    O1 1254   2.981   2.632  11.935  0.4270  0.1616  0.2620
   80TMC2    O2 1255   2.864   2.973  11.629 -0.0552 -0.2311  0.8213
   80TMC2    O5 1256   2.905   3.171  11.736  0.1711  0.0471  0.1838
   80TMC2    H5 1257   2.967   3.214  11.799  2.1324 -1.4413 -0.7330
   81MPD2     C 1258   3.426   3.403  11.898 -0.0785  0.8898 -0.2073
   81MPD2    C1 1259   3.409   3.317  12.004 -0.5856  0.1983 -0.2512
   81MPD2    C2 1260   3.503   3.290  12.098 -0.1155  0.0636  0.5540
   81MPD2    C3 1261   3.623   3.359  12.092 -0.3843 -0.2588 -0.2762
   81MPD2    C4 1262   3.639   3.450  11.983  0.3622  0.3209 -0.3076
   81MPD2    C5 1263   3.536   3.482  11.894  0.3143  0.2037  0.4404
   81MPD2     H 1264   3.491   3.210  12.170 -0.5123  0.4170  0.8711
   81MPD2    H1 1265   3.727   3.513  11.982  2.3855 -2.4221  2.0261
   81MPD2    H2 1266   3.351   3.420  11.822 -2.4759  1.7663  2.3706
   81MPD2    H3 1267   3.549   3.563  11.824 -2.7989  0.7384  0.4954
   81MPD2     N 1268   3.728   3.345  12.187 -0.0037  0.2207  0.0476
   81MPD2    H5 1269   3.792   3.424  12.194  0.9658 -0.7833  2.1967
   81MPD2    N1 1270   3.284   3.245  11.985 -0.6512 -0.2064 -0.5247
   81MPD2    H7 1271   3.224   3.274  11.909 -0.7559  1.5326  0.2181
   82TMC2    C1 1272   1.874   2.370  11.158 -0.0653  0.5252  0.6517
   82TMC2    C2 1273   1.959   2.371  11.264  0.1417  0.3202  0.5659
   82TMC2    C3 1274   1.934   2.263  11.356  0.2196  0.1162 -0.2543
   82TMC2    C4 1275   1.782   2.273  11.130 -0.0750 -0.2853 -0.5561
   82TMC2    C5 1276   1.772   2.171  11.222 -0.3338 -0.6992  0.6928
   82TMC2    C6 1277   1.832   2.175  11.344 -0.0662  0.0242 -0.1736
   82TMC2     C 1278   1.845   2.499  11.097  0.7993  0.5273 -0.2537
   82TMC2     O 1279   1.732   2.512  11.048 -0.0914  0.9131 -0.3246
   82TMC2     H 1280   2.021   2.452  11.299  1.1824 -0.9236  1.6175
   82TMC2    H1 1281   1.718   2.283  11.043 -0.1101  1.6012 -0.3001
   82TMC2    H2 1282   1.839   2.088  11.409  1.3373  0.2442 -0.0219
   82TMC2    C7 1283   1.651   2.088  11.212 -0.9107 -0.7896 -0.4571
   82TMC2    C8 1284   1.991   2.272  11.487  0.0121  0.4199  0.0438
   82TMC2    O1 1285   1.595   2.058  11.318  0.4201 -0.3183  0.1191
   82TMC2    O2 1286   1.935   2.244  11.591  0.1888  0.1698 -0.0337
   82TMC2    O5 1287   2.127   2.286  11.477  0.2845  0.4560  0.0798
   82TMC2    H5 1288   2.155   2.272  11.384 -0.0530  0.5382 -0.0358
   83MPD2     C 1289   1.955   2.931  10.850 -0.4693 -0.2296  0.4214
   83MPD2    C1 1290   1.833   2.863  10.862 -0.2695 -0.6897 -0.0965
   83MPD2    C2 1291   1.828   2.755  10.946 -0.1683  0.1618  0.0540
   83MPD2    C3 1292   1.943   2.711  11.021  0.3824 -0.4475  0.2053
   83MPD2    C4 1293   2.059   2.784  11.011 -0.8325  0.0161 -0.5080
   83MPD2    C5 1294   2.067   2.889  10.927  0.5411 -0.0058  0.4045
   83MPD2     H 1295   1.744   2.687  10.940  1.4507 -1.9388  1.2487
   83MPD2    H1 1296   2.151   2.755  11.061 -0.9953  1.2298  0.4844
   83MPD2    H2 1297   1.976   3.023  10.797  0.0048  0.0334  1.0657
   83MPD2    H3 1298   2.166   2.927  10.909  0.6105 -1.5717 -2.5245
   83MPD2     N 1299   1.943   2.590  11.095 -0.7295 -0.0234  0.1597
   83MPD2    H5 1300   2.031   2.563  11.139 -1.3542  0.1340  1.5230
   83MPD2    N1 1301   1.718   2.913  10.787  0.3245 -0.5514  0.6929
   83MPD2    H7 1302   1.735   2.984  10.717  0.0025  0.7103  1.9069
   84TMC2    C1 1303   2.937   2.168  11.039 -0.1069 -0.9364 -0.0325
   84TMC2    C2 1304   2.983   2.071  11.124  0.5862 -0.3048 -0.6243
   84TMC2    C3 1305   3.092   2.000  11.089  0.5050  0.1307  0.0466
   84TMC2    C4 1306   2.984   2.183  10.914 -0.5299 -1.1219 -0.1908
   84TMC2    C5 1307   3.099   2.103  10.878 -0.2587  0.4504 -0.0229
   84TMC2    C6 1308   3.163   2.024  10.973 -0.3267  0.2130 -0.1627
   84TMC2     C 1309   2.840   2.254  11.093  1.0354 -0.7834  0.3715
   84TMC2     O 1310   2.809   2.262  11.211 -0.6515 -0.5204 -0.3926
   84TMC2     H 1311   2.942   2.073  11.225  0.1493 -0.5813 -0.7968
   84TMC2    H1 1312   2.943   2.256  10.846 -1.2806 -1.9568 -0.6197
   84TMC2    H2 1313   3.255   1.970  10.956  1.5968  2.3575  3.4697
   84TMC2    C7 1314   3.150   2.118  10.740  0.5941 -0.6388  0.3377
   84TMC2    C8 1315   3.160   1.905  11.180  0.0744  0.0772 -0.5881
   84TMC2    O1 1316   3.095   2.204  10.669  0.3993  1.0359 -0.5405
   84TMC2    O2 1317   3.274   1.872  11.162  0.1191 -0.0924 -0.2241
   84TMC2    O5 1318   3.066   1.833  11.244  0.7438 -0.4384  0.0916
   84TMC2    H5 1319   2.980   1.879  11.261  1.4509  0.9787 -0.1676
   85TMC2    C1 1320   4.094   4.497  15.829 -0.4681  0.0777  0.3215
   85TMC2    C2 1321   3.965   4.524  15.788 -0.3485  0.2254 -0.0390
   85TMC2    C3 1322   3.950   4.585  15.670 -0.1129 -0.5289 -0.1231
   85TMC2    C4 1323   4.201   4.532  15.759  0.0773  0.1539 -0.4897
   85TMC2    C5 1324   4.179   4.619  15.651 -0.4504  0.0689 -0.8270
   85TMC2    C6 1325   4.057   4.645  15.603  0.1264 -0.2562  0.2627
   85TMC2     C 1326   4.107   4.455  15.967 -0.0649 -0.2627  0.1619
   85TMC2     O 1327   4.200   4.508  16.023  0.1824 -0.5607  0.3111
   85TMC2     H 1328   3.888   4.518  15.864 -0.3735  0.3080 -0.0576
   85TMC2    H1 1329   4.302   4.510  15.793 -0.3074 -3.8055 -1.8703
   85TMC2    H2 1330   4.033   4.692  15.508 -0.7325 -0.0641  0.5796
   85TMC2    C7 1331   4.303   4.651  15.574  0.2744 -0.3779  0.1175
   85TMC2    C8 1332   3.820   4.603  15.607 -0.1558 -0.0943  0.4932
   85TMC2    O1 1333   4.413   4.621  15.625 -0.4915  0.0684 -0.1555
   85TMC2    O2 1334   3.804   4.674  15.509 -0.0880  0.3594  0.0844
   85TMC2    O5 1335   3.743   4.499  15.641  0.8798  0.3878  0.5098
   85TMC2    H5 1336   3.786   4.447  15.713  2.2518  0.0290 -0.5822
   86MPD2     C 1337   4.027   4.120  16.349  0.1290  0.2791 -0.4862
   86MPD2    C1 1338   3.935   4.096  16.242 -0.0221 -0.2940 -0.3769
   86MPD2    C2 1339   3.928   4.182  16.133  0.4087  0.5693  0.0837
   86MPD2    C3 1340   4.023   4.285  16.121  0.3008  0.2996 -0.7579
   86MPD2    C4 1341   4.121   4.297  16.216 -0.0764 -0.0028  0.4352
   86MPD2    C5 1342   4.114   4.225  16.331  0.5163  0.8845 -0.0102
   86MPD2     H 1343   3.852   4.171  16.057  0.2042  1.0922  0.2156
   86MPD2    H1 1344   4.188   4.382  16.207  0.0726 -0.2833 -1.0830
   86MPD2    H2 1345   4.028   4.078  16.449 -2.0520  1.0280 -0.1648
   86MPD2    H3 1346   4.193   4.228  16.405  0.1718 -0.5347  0.4257
   86MPD2     N 1347   4.015   4.367  16.004  0.0230  0.3033 -0.3843
   86MPD2    H5 1348   3.951   4.330  15.934  0.1382 -0.4913 -0.0683
   86MPD2    N1 1349   3.837   3.992  16.240  0.3612  0.2321  0.1471
   86MPD2    H7 1350   3.780   3.988  16.156  0.0580 -1.6781  0.4457
   87TMC2    C1 1351   1.689   2.967   0.780 -0.0974 -0.0969 -0.5106
   87TMC2    C2 1352   1.766   3.072   0.825 -0.6889 -0.0568  0.9880
   87TMC2    C3 1353   1.711   3.184   0.884  0.7141  0.1016 -0.1730
   87TMC2    C4 1354   1.557   2.978   0.785  0.2778  0.4524  0.4486
   87TMC2    C5 1355   1.502   3.087   0.840 -0.1185  0.2400 -0.8014
   87TMC2    C6 1356   1.573   3.193   0.889  0.3791 -0.1182 -1.1029
   87TMC2     C 1357   1.751   2.836   0.753 -0.3441 -0.5899  0.5824
   87TMC2     O 1358   1.676   2.739   0.750  0.1575 -0.0623  0.7395
   87TMC2     H 1359   1.874   3.068   0.815 -0.6534 -0.3751  1.4959
   87TMC2    H1 1360   1.500   2.889   0.762  0.9204  0.9187 -2.9577
   87TMC2    H2 1361   1.523   3.276   0.938 -0.7464 -1.5335  0.1242
   87TMC2    C7 1362   1.359   3.102   0.852 -0.6206  0.1358  0.1733
   87TMC2    C8 1363   1.797   3.302   0.927 -0.6571 -0.0172 -0.5889
   87TMC2    O1 1364   1.310   3.212   0.884  0.3637  0.6183 -0.7940
   87TMC2    O2 1365   1.910   3.289   0.964 -0.0507 -0.8519  0.0724
   87TMC2    O5 1366   1.724   3.420   0.928  0.5434 -0.1505  0.2842
   87TMC2    H5 1367   1.632   3.405   0.896  1.0031 -0.9487 -0.6790
   88MPD2     C 1368   1.115   2.833   0.801 -0.0473 -0.6319 -0.4380
   88MPD2    C1 1369   1.155   2.964   0.818 -0.1702 -0.3763 -0.3191
   88MPD2    C2 1370   1.077   3.074   0.773 -0.2320  0.2058  0.9673
   88MPD2    C3 1371   0.954   3.045   0.715 -0.4010  0.1513  0.1777
   88MPD2    C4 1372   0.910   2.916   0.717  0.3332 -0.0338  0.3797
   88MPD2    C5 1373   0.989   2.808   0.759  0.8056 -0.0685 -0.4452
   88MPD2     H 1374   1.124   3.171   0.759  0.7221  0.2065  4.0038
   88MPD2    H1 1375   0.809   2.895   0.686  0.6194  0.6266 -0.9632
   88MPD2    H2 1376   1.173   2.743   0.819  0.8816  0.0728  0.0994
   88MPD2    H3 1377   0.956   2.706   0.744  1.8729 -0.1691 -2.1253
   88MPD2     N 1378   0.868   3.142   0.648 -0.1879  0.3590  0.1114
   88MPD2    H5 1379   0.784   3.104   0.607 -0.1215  0.3298  0.0023
   88MPD2    N1 1380   1.290   2.985   0.843  0.6928  0.0346  0.0290
   88MPD2    H7 1381   1.346   2.900   0.845 -1.7924 -1.6410 -1.2958
   89TMC2    C1 1382   1.917   1.861   1.630  0.8744  0.2101  0.1591
   89TMC2    C2 1383   1.822   1.854   1.720 -0.6918  0.0309  0.4599
   89TMC2    C3 1384   1.823   1.961   1.810 -0.3359 -0.5981 -0.2804
   89TMC2    C4 1385   2.024   1.948   1.638  0.2631 -0.4503  0.2449
   89TMC2    C5 1386   2.018   2.051   1.727 -0.0539 -0.2077  0.5784
   89TMC2    C6 1387   1.919   2.060   1.820  0.0294 -0.1490  0.6626
   89TMC2     C 1388   1.941   1.746   1.549 -0.2136  0.2809  0.0108
   89TMC2     O 1389   2.048   1.736   1.482 -0.3778  0.5646 -0.3111
   89TMC2     H 1390   1.755   1.771   1.739 -2.3017  1.1818 -0.1743
   89TMC2    H1 1391   2.096   1.942   1.557  0.0079  2.5927 -0.1954
   89TMC2    H2 1392   1.908   2.142   1.889  0.6679  0.6679 -0.1939
   89TMC2    C7 1393   2.119   2.152   1.740 -0.4273 -0.3733 -0.2330
   89TMC2    C8 1394   1.749   1.930   1.934  0.2818  0.2965  0.2840
   89TMC2    O1 1395   2.096   2.261   1.794  0.7550 -0.3704 -0.4011
   89TMC2    O2 1396   1.768   1.994   2.038  0.8502 -0.5672  0.2276
   89TMC2    O5 1397   1.623   1.896   1.903 -0.6932 -0.1481  0.2765
   89TMC2    H5 1398   1.602   1.880   1.809 -0.6888 -1.2844  0.4715
   90MPD2     C 1399   1.875   1.266   1.418 -0.4412  0.4022 -0.8217
   90MPD2    C1 1400   1.757   1.304   1.472  0.4304 -0.1845  0.6638
   90MPD2    C2 1401   1.758   1.436   1.504  0.0749 -0.0439 -0.1839
   90MPD2    C3 1402   1.862   1.523   1.486  0.1669  0.1534  0.5541
   90MPD2    C4 1403   1.977   1.476   1.426 -0.2778 -0.0293  0.3551
   90MPD2    C5 1404   1.982   1.349   1.390 -0.0317  0.1461  0.8123
   90MPD2     H 1405   1.666   1.467   1.553  0.9078  1.2616  0.5391
   90MPD2    H1 1406   2.071   1.524   1.403  1.5457 -2.6704  2.2537
   90MPD2    H2 1407   1.884   1.162   1.388  0.0441 -0.1020  1.0950
   90MPD2    H3 1408   2.070   1.308   1.340 -1.9683 -0.4657 -2.0903
   90MPD2     N 1409   1.845   1.652   1.545 -0.2522  0.3356  0.4703
   90MPD2    H5 1410   1.753   1.676   1.581  0.1997  1.6048  0.7459
   90MPD2    N1 1411   1.639   1.226   1.492 -0.5025 -0.0132 -0.0474
   90MPD2    H7 1412   1.561   1.278   1.530  0.3665  0.4584  1.1016
   91TMC2    C1 1413   3.831   0.730  16.294 -0.2263 -0.0954  0.4388
   91TMC2    C2 1414   3.842   0.753  16.432  0.2474  0.6810  0.2227
   91TMC2    C3 1415   3.785   0.657  16.511  0.2344  0.1707 -0.5967
   91TMC2    C4 1416   3.763   0.624  16.240  0.1689  0.5012  0.0730
   91TMC2    C5 1417   3.690   0.546  16.333 -0.4694 -0.3969 -0.8119
   91TMC2    C6 1418   3.703   0.563  16.465 -0.2969 -1.0491 -0.6097
   91TMC2     C 1419   3.895   0.826  16.198 -0.1322  0.6680  0.0910
   91TMC2     O 1420   3.856   0.807  16.082 -0.2361 -0.1230  0.0624
   91TMC2     H 1421   3.893   0.842  16.467  0.4465  0.1536  1.2726
   91TMC2    H1 1422   3.774   0.598  16.135 -0.2092 -0.6885  0.3286
   91TMC2    H2 1423   3.660   0.487  16.529  0.0740  0.5681  1.5415
   91TMC2    C7 1424   3.630   0.419  16.288 -0.0698  0.5106  0.6943
   91TMC2    C8 1425   3.753   0.704  16.645  0.1713  0.0239 -0.5461
   91TMC2    O1 1426   3.634   0.323  16.365  0.1433 -0.7246  0.1245
   91TMC2    O2 1427   3.644   0.694  16.705 -0.2204 -0.2237 -0.0311
   91TMC2    O5 1428   3.868   0.748  16.707  0.3358  0.5646 -0.1395
   91TMC2    H5 1429   3.948   0.727  16.654  2.1564 -2.1033  3.7058
   92MPD2     C 1430   3.998   1.051  16.044  0.0900  0.0632 -0.8417
   92MPD2    C1 1431   4.031   1.029  16.177  0.6413  0.3549 -0.3289
   92MPD2    C2 1432   4.112   1.122  16.232  0.0850 -0.3478 -0.9982
   92MPD2    C3 1433   4.162   1.242  16.166  0.2396 -0.1347  0.8851
   92MPD2    C4 1434   4.115   1.267  16.039  0.2925  0.0312 -0.0313
   92MPD2    C5 1435   4.037   1.170  15.978 -0.2429  0.3440 -0.0920
   92MPD2     H 1436   4.154   1.108  16.332  1.8934  1.1445 -1.5378
   92MPD2    H1 1437   4.138   1.352  15.976 -0.4988  0.5673  0.4124
   92MPD2    H2 1438   3.928   0.990  15.987 -1.2304 -0.6097  1.4730
   92MPD2    H3 1439   3.994   1.187  15.881 -0.6301  0.9994  0.1925
   92MPD2     N 1440   4.259   1.323  16.234 -0.3972 -0.4312  0.2020
   92MPD2    H5 1441   4.297   1.287  16.321 -0.8579  2.0758  1.4310
   92MPD2    N1 1442   3.975   0.927  16.251 -0.9139 -0.2108 -0.8587
   92MPD2    H7 1443   3.990   0.931  16.351  1.0806  0.8567 -1.2042
   93TMC2    C1 1444   1.342   1.131  13.693  0.7408 -0.2806 -0.0456
   93TMC2    C2 1445   1.275   1.226  13.619  0.1821 -0.4569 -0.1381
   93TMC2    C3 1446   1.320   1.354  13.643  0.0503  0.6316 -0.0503
   93TMC2    C4 1447   1.440   1.156  13.783  0.0968 -0.5811  0.6501
   93TMC2    C5 1448   1.485   1.278  13.796  0.2559 -0.1647  0.9843
   93TMC2    C6 1449   1.421   1.381  13.729 -0.6065 -0.2394 -0.0595
   93TMC2     C 1450   1.280   1.004  13.711 -0.8740 -0.3525 -0.0961
   93TMC2     O 1451   1.331   0.913  13.776 -0.1361 -1.1035  0.7772
   93TMC2     H 1452   1.200   1.209  13.542  0.4713  0.7815 -0.7070
   93TMC2    H1 1453   1.488   1.079  13.842  0.1926 -0.0840  1.2213
   93TMC2    H2 1454   1.462   1.481  13.730 -1.2491  0.0527 -2.2910
   93TMC2    C7 1455   1.624   1.292  13.828  0.4980 -0.3351  1.0001
   93TMC2    C8 1456   1.262   1.460  13.571  0.9488 -0.5854  0.6360
   93TMC2    O1 1457   1.704   1.196  13.815  0.0644 -0.3060  0.0015
   93TMC2    O2 1458   1.309   1.571  13.543 -0.1222  0.4350 -0.6876
   93TMC2    O5 1459   1.127   1.453  13.572  0.0893 -0.1999  0.6546
   93TMC2    H5 1460   1.093   1.371  13.614 -0.8212 -1.7337 -3.0519
   94MPD2     C 1461   1.111   0.767  13.649  0.2117  0.4071 -0.5269
   94MPD2    C1 1462   1.063   0.897  13.648 -0.3449 -0.1169  0.1125
   94MPD2    C2 1463   0.934   0.920  13.612 -0.1952 -0.1872 -0.1519
   94MPD2    C3 1464   0.853   0.813  13.581  0.8776  0.2663 -0.0700
   94MPD2    C4 1465   0.898   0.684  13.578  0.0274  0.3906  0.3380
   94MPD2    C5 1466   1.026   0.666  13.612  0.2511  0.8361 -0.6186
   94MPD2     H 1467   0.905   1.022  13.589  0.6354  0.3976  1.4283
   94MPD2    H1 1468   0.844   0.597  13.546  1.0196 -0.4814  1.0225
   94MPD2    H2 1469   1.214   0.747  13.674  0.0613 -1.6080 -1.4607
   94MPD2    H3 1470   1.060   0.564  13.614 -1.7383  0.1355 -1.5439
   94MPD2     N 1471   0.716   0.828  13.533  0.7815 -1.1066  0.2713
   94MPD2    H5 1472   0.657   0.745  13.534 -0.1632 -0.4397 -0.9441
   94MPD2    N1 1473   1.153   1.004  13.653 -0.0327 -0.4711  0.1249
   94MPD2    H7 1474   1.121   1.097  13.625 -0.5970 -0.5630  0.4534
   95TMC2    C1 1475   1.340   2.425  16.471 -0.6142  0.2952  0.2495
   95TMC2    C2 1476   1.288   2.320  16.549  0.1055 -0.1212 -0.6329
   95TMC2    C3 1477   1.248   2.342  16.680 -0.6303  0.1415  0.8803
   95TMC2    C4 1478   1.360   2.547  16.531 -0.5046  0.2614  0.4872
   95TMC2    C5 1479   1.336   2.552  16.673 -0.6855 -0.9104 -0.5425
   95TMC2    C6 1480   1.277   2.452  16.745  0.1793  0.1587  0.7197
   95TMC2     C 1481   1.366   2.415  16.327  0.0631  0.6289  0.0542
   95TMC2     O 1482   1.433   2.507  16.284  0.0433  0.0793 -0.3452
   95TMC2     H 1483   1.276   2.221  16.505 -0.9207 -0.1113 -0.3668
   95TMC2    H1 1484   1.395   2.628  16.468  2.9898 -0.3624  1.5925
   95TMC2    H2 1485   1.239   2.468  16.845 -1.2497 -1.2172  0.3976
   95TMC2    C7 1486   1.363   2.675  16.749  0.3156  0.1923  0.1006
   95TMC2    C8 1487   1.163   2.242  16.744  0.2676  0.2074 -0.1466
   95TMC2    O1 1488   1.377   2.669  16.872 -0.8435  0.3739 -0.2498
   95TMC2    O2 1489   1.160   2.243  16.865  0.0884  0.1424 -0.0320
   95TMC2    O5 1490   1.056   2.228  16.666  0.4546 -0.6283  0.2092
   95TMC2    H5 1491   1.068   2.263  16.575 -1.7564 -0.5361 -0.0668
   96MPD2     C 1492   1.311   2.211  15.861 -0.6839 -0.1869  0.3261
   96MPD2    C1 1493   1.392   2.312  15.906 -0.8560  0.4291  0.2731
   96MPD2    C2 1494   1.383   2.354  16.040  0.2902 -0.5836  0.6478
   96MPD2    C3 1495   1.301   2.284  16.129  0.6573 -0.2477 -0.2615
   96MPD2    C4 1496   1.228   2.182  16.082 -0.3611 -0.0629 -0.1344
   96MPD2    C5 1497   1.236   2.142  15.952  0.1093  0.1603 -0.0990
   96MPD2     H 1498   1.453   2.430  16.071  0.2169 -0.6644  1.0086
   96MPD2    H1 1499   1.175   2.116  16.149  0.3514  1.0343  1.5147
   96MPD2    H2 1500   1.316   2.176  15.759  0.4502  0.4223  0.1667
   96MPD2    H3 1501   1.177   2.056  15.923 -1.6432  0.6459  1.9819
   96MPD2     N 1502   1.304   2.311  16.267  0.0445  0.2696  0.1416
   96MPD2    H5 1503   1.237   2.264  16.327 -1.5573  1.7263 -0.4938
   96MPD2    N1 1504   1.465   2.380  15.804 -0.4074  0.2025  0.2303
   96MPD2    H7 1505   1.457   2.337  15.713  0.5471 -2.0521  1.2097
   97TMC2    C1 1506   3.709   0.001   0.210  0.5178  0.1362 -0.3710
   97TMC2    C2 1507   3.729   4.684   0.086  0.3656  0.0487  0.0440
   97TMC2    C3 1508   3.697   0.041  17.716 -0.4748 -0.5594 -0.0816
   97TMC2    C4 1509   3.675   0.132   0.237 -0.0765  0.4558  0.2871
   97TMC2    C5 1510   3.638   0.214   0.134  0.7636  0.0211  0.7032
   97TMC2    C6 1511   3.649   0.167   0.006  0.2188 -0.1647  0.1682
   97TMC2     C 1512   3.719   4.642   0.326 -0.0398  0.3853  0.4034
   97TMC2     O 1513   3.707   4.703   0.430 -0.2349  0.5924 -0.3658
   97TMC2     H 1514   3.762   4.582   0.067 -0.9208 -0.5866  1.1945
   97TMC2    H1 1515   3.670   0.173   0.337 -1.0000  2.0404 -0.4070
   97TMC2    H2 1516   3.629   0.230  17.649 -0.4976  0.9940  1.1713
   97TMC2    C7 1517   3.589   0.347   0.169  0.3382  0.4514  0.2086
   97TMC2    C8 1518   3.704   4.716  17.584 -0.2018 -0.0129  0.4232
   97TMC2    O1 1519   3.579   0.371   0.287 -0.6134 -0.4102 -0.1321
   97TMC2    O2 1520   3.708   4.596  17.560 -0.0077 -0.5736  0.6221
   97TMC2    O5 1521   3.783   0.070  17.527 -0.3836 -0.5420 -0.5571
   97TMC2    H5 1522   3.791   0.153  17.580 -0.8803 -0.5683 -0.4404
   98MPD2     C 1523   3.545   4.216   0.549 -0.2750 -0.4928 -0.0353
   98MPD2    C1 1524   3.583   4.333   0.598 -0.5910  0.1955 -0.5097
   98MPD2    C2 1525   3.641   4.433   0.521 -1.0375  0.2743 -0.1783
   98MPD2    C3 1526   3.682   4.408   0.397 -0.6649 -0.2902  0.7015
   98MPD2    C4 1527   3.638   4.290   0.338 -0.4285 -0.2035  0.6325
   98MPD2    C5 1528   3.572   4.199   0.421 -0.9651  0.3466 -0.4368
   98MPD2     H 1529   3.639   4.535   0.557 -1.4644 -0.5950  2.2119
   98MPD2    H1 1530   3.651   4.264   0.233  0.3310  0.3101  0.5942
   98MPD2    H2 1531   3.482   4.143   0.598 -1.5335  0.0876 -0.7971
   98MPD2    H3 1532   3.543   4.108   0.371  1.1510  0.1772 -1.3351
   98MPD2     N 1533   3.718   4.512   0.307  0.3704  0.6183  0.5521
   98MPD2    H5 1534   3.703   4.474   0.214 -1.2189  2.6035 -0.0061
   98MPD2    N1 1535   3.542   4.361   0.728 -0.3323  0.1078 -0.7478
   98MPD2    H7 1536   3.477   4.294   0.768  1.5845 -1.3588 -0.0912
   99TMC2    C1 1537   2.604   2.103   1.292 -0.5043  0.1451 -0.2557
   99TMC2    C2 1538   2.712   2.193   1.273 -0.6719  0.1411  0.4561
   99TMC2    C3 1539   2.682   2.327   1.300  0.2998  0.3351 -0.2069
   99TMC2    C4 1540   2.480   2.143   1.321 -0.1975 -0.1875  0.3255
   99TMC2    C5 1541   2.456   2.279   1.309  0.5595  0.0715  0.5439
   99TMC2    C6 1542   2.560   2.376   1.305 -0.4131  0.8447 -0.1395
   99TMC2     C 1543   2.635   1.958   1.273  0.0160 -0.4131 -0.5054
   99TMC2     O 1544   2.748   1.930   1.298 -0.0952  0.1341 -0.0283
   99TMC2     H 1545   2.816   2.162   1.265 -1.0190 -0.6552 -0.9601
   99TMC2    H1 1546   2.402   2.076   1.356 -1.5138  0.4340 -1.4397
   99TMC2    H2 1547   2.538   2.481   1.322  1.9126  1.1360  1.0459
   99TMC2    C7 1548   2.330   2.329   1.358 -0.0997  0.3568 -0.1662
   99TMC2    C8 1549   2.779   2.430   1.283  0.0877  0.3881 -0.1615
   99TMC2    O1 1550   2.328   2.437   1.415  0.1848 -0.5749 -0.0494
   99TMC2    O2 1551   2.751   2.541   1.235  0.3621 -0.1798 -0.1194
   99TMC2    O5 1552   2.885   2.398   1.367 -0.2090 -0.2003 -0.5538
   99TMC2    H5 1553   2.862   2.313   1.411 -4.2231 -0.1588 -2.5472
  100MPD2     C 1554   2.639   1.661   1.261  0.1271  0.0146  0.1345
  100MPD2    C1 1555   2.530   1.741   1.228 -0.1367  0.4795  0.7117
  100MPD2    C2 1556   2.410   1.683   1.183  0.0422 -0.1605 -0.3211
  100MPD2    C3 1557   2.387   1.547   1.175  0.6015 -0.5491 -0.4484
  100MPD2    C4 1558   2.496   1.474   1.216  0.7681  0.8146 -0.0461
  100MPD2    C5 1559   2.616   1.524   1.260  0.0301  0.2506  0.3358
  100MPD2     H 1560   2.330   1.744   1.141  0.7540  0.4143 -0.8425
  100MPD2    H1 1561   2.496   1.368   1.236 -2.1376  1.1451  1.6118
  100MPD2    H2 1562   2.730   1.701   1.303 -0.0250 -0.1531  0.6261
  100MPD2    H3 1563   2.693   1.457   1.297  0.9045  0.3663 -1.3314
  100MPD2     N 1564   2.259   1.494   1.140  0.8902  0.5283  0.1647
  100MPD2    H5 1565   2.193   1.563   1.104 -0.9337 -0.4855  1.5625
  100MPD2    N1 1566   2.528   1.882   1.250  0.3545 -0.2142  0.3715
  100MPD2    H7 1567   2.445   1.936   1.227  0.1850 -1.0658 -1.0001
  101TMC2    C1 1568   2.780   3.190  13.413 -0.8162 -0.6799 -0.0572
  101TMC2    C2 1569   2.689   3.279  13.456 -0.0304 -0.2483  0.6853
  101TMC2    C3 1570   2.692   3.395  13.393  0.4785 -0.6033  0.9329
  101TMC2    C4 1571   2.875   3.212  13.314  0.2989  0.0367  0.1072
  101TMC2    C5 1572   2.870   3.333  13.250  0.0498 -0.5129 -0.0778
  101TMC2    C6 1573   2.777   3.429  13.294  0.3805 -0.5414  0.6160
  101TMC2     C 1574   2.725   3.059  13.439  0.4055 -0.0632  0.1858
  101TMC2     O 1575   2.627   3.059  13.510  0.6925 -0.3428  0.3207
  101TMC2     H 1576   2.634   3.265  13.548  0.2278  1.3094  1.0832
  101TMC2    H1 1577   2.952   3.143  13.281  0.4717 -1.0275  2.6618
  101TMC2    H2 1578   2.766   3.528  13.250  2.5324  0.1493  1.6319
  101TMC2    C7 1579   2.967   3.377  13.152  0.3773 -0.2045  0.1839
  101TMC2    C8 1580   2.571   3.467  13.391  0.5347 -0.2731 -0.0126
  101TMC2    O1 1581   2.924   3.468  13.088  0.1997 -0.2145 -0.2549
  101TMC2    O2 1582   2.551   3.531  13.288 -0.0512 -0.3857 -0.1789
  101TMC2    O5 1583   2.497   3.458  13.504  0.0537  0.1959 -0.0827
  101TMC2    H5 1584   2.547   3.412  13.575  0.1919 -0.8570 -0.8562
  102MPD2     C 1585   2.817   2.738  13.287  0.2076 -0.3217 -0.5856
  102MPD2    C1 1586   2.795   2.821  13.396 -0.7608  0.4698 -0.8148
  102MPD2    C2 1587   2.742   2.778  13.515  0.3732 -0.1211 -0.0139
  102MPD2    C3 1588   2.696   2.649  13.520 -0.0336 -0.0400 -0.2998
  102MPD2    C4 1589   2.735   2.560  13.418  0.2811  0.7868 -0.1298
  102MPD2    C5 1590   2.799   2.607  13.304  0.6139 -0.5702 -0.1819
  102MPD2     H 1591   2.719   2.853  13.590  2.9624  1.0389 -0.3851
  102MPD2    H1 1592   2.696   2.459  13.412  0.5018  0.7921 -1.7433
  102MPD2    H2 1593   2.855   2.781  13.195  1.2485  1.2711  0.5738
  102MPD2    H3 1594   2.823   2.553  13.214 -1.8864 -0.8497 -0.6548
  102MPD2     N 1595   2.613   2.609  13.629  0.3750 -0.3167  0.2663
  102MPD2    H5 1596   2.584   2.685  13.690 -0.9559 -0.2796 -0.4085
  102MPD2    N1 1597   2.789   2.959  13.374  0.6906  0.2536 -0.1303
  102MPD2    H7 1598   2.846   2.986  13.294  2.8258  1.1214  1.7095
  103TMC2    C1 1599   0.219   3.044  12.561 -0.6122 -0.1581 -0.5771
  103TMC2    C2 1600   0.350   3.010  12.559 -0.3303 -0.0791  0.2917
  103TMC2    C3 1601   0.411   2.978  12.672 -0.3885 -0.0196  0.9878
  103TMC2    C4 1602   0.143   3.048  12.671 -0.2841 -0.5732  0.5305
  103TMC2    C5 1603   0.211   3.027  12.791 -0.6528 -0.5689 -0.0242
  103TMC2    C6 1604   0.336   2.971  12.789  0.1677 -0.0219  0.3731
  103TMC2     C 1605   0.168   3.122  12.452  0.6297  0.0351 -0.2711
  103TMC2     O 1606   0.251   3.180  12.384  0.1451  0.2184 -0.1569
  103TMC2     H 1607   0.396   3.001  12.461 -0.6314  1.6014  0.0031
  103TMC2    H1 1608   0.047   3.098  12.669 -0.4289 -0.7501  2.3971
  103TMC2    H2 1609   0.387   2.952  12.882 -1.5457 -0.7184  1.1697
  103TMC2    C7 1610   0.172   3.091  12.921 -0.3392 -0.4740 -0.7704
  103TMC2    C8 1611   0.546   2.938  12.667  0.5221 -0.5780 -0.6479
  103TMC2    O1 1612   0.226   3.047  13.021  0.1192 -0.2546 -0.0601
  103TMC2    O2 1613   0.600   2.876  12.761 -0.1582  1.0211  0.0387
  103TMC2    O5 1614   0.615   3.036  12.609 -0.3822 -0.1020 -0.0089
  103TMC2    H5 1615   0.563   3.114  12.580 -0.4616 -0.1129  0.1028
  104MPD2     C 1616   4.565   3.107  12.307  0.4323  0.1724 -0.8599
  104MPD2    C1 1617   4.692   3.160  12.332 -0.2826 -0.7189  0.2891
  104MPD2    C2 1618   4.731   3.276  12.265  0.1753 -0.0319  0.9476
  104MPD2    C3 1619   4.661   3.329  12.166 -0.3675  0.1112  0.6353
  104MPD2    C4 1620   4.543   3.268  12.128 -0.4386 -0.3412  0.0116
  104MPD2    C5 1621   4.494   3.166  12.202 -0.2840  0.2881 -0.0284
  104MPD2     H 1622   0.089   3.322  12.303  0.6784  0.4621 -0.8756
  104MPD2    H1 1623   4.485   3.329  12.060 -1.4969 -1.6056 -0.2212
  104MPD2    H2 1624   4.527   3.041  12.384 -0.8847  0.5742 -1.1614
  104MPD2    H3 1625   4.387   3.147  12.197 -0.3390  0.0897  1.7075
  104MPD2     N 1626   4.700   3.452  12.110 -0.4655  0.1953 -0.5977
  104MPD2    H5 1627   0.055   3.491  12.144 -1.1470  0.6483  0.6456
  104MPD2    N1 1628   0.035   3.097  12.429 -0.2581 -0.3516  0.5669
  104MPD2    H7 1629   4.725   3.009  12.459 -0.8157 -0.8342 -1.6132
  105TMC2    C1 1630   2.027   1.988   0.589  0.4833  0.4667  0.5700
  105TMC2    C2 1631   1.920   1.919   0.638 -0.4002 -0.0113 -0.0293
  105TMC2    C3 1632   1.810   1.986   0.670  0.2358 -0.4523  0.0050
  105TMC2    C4 1633   2.032   2.131   0.589 -0.5727  0.2421 -0.1647
  105TMC2    C5 1634   1.912   2.188   0.634  0.5159 -0.7364  0.0378
  105TMC2    C6 1635   1.800   2.121   0.681  0.5434  0.1197  0.5333
  105TMC2     C 1636   2.125   1.909   0.526 -0.3736  0.4875 -0.2994
  105TMC2     O 1637   2.118   1.787   0.525 -0.2774  0.2451 -0.8126
  105TMC2     H 1638   1.917   1.811   0.625  2.0201  0.2411 -2.5974
  105TMC2    H1 1639   2.120   2.183   0.553 -1.5573 -0.1032 -3.0849
  105TMC2    H2 1640   1.707   2.177   0.688  0.1969 -0.1436 -2.0367
  105TMC2    C7 1641   1.912   2.329   0.662  0.2115 -0.4312 -0.9779
  105TMC2    C8 1642   1.679   1.919   0.674  0.4842  0.3963 -0.3578
  105TMC2    O1 1643   1.826   2.368   0.738 -0.5470  0.2995  0.0627
  105TMC2    O2 1644   1.585   1.973   0.730 -0.0133  0.7369  0.1147
  105TMC2    O5 1645   1.668   1.809   0.598  0.0610  0.6548 -0.1793
  105TMC2    H5 1646   1.744   1.784   0.541 -0.3913  0.4137 -0.6682
  106MPD2     C 1647   2.508   1.879   0.195  0.1482  0.9161 -0.3558
  106MPD2    C1 1648   2.454   2.001   0.182  0.2926 -0.4057 -0.6163
  106MPD2    C2 1649   2.348   2.032   0.265  0.0077 -0.7110  0.3512
  106MPD2    C3 1650   2.293   1.937   0.353  0.0318  0.2986  0.2663
  106MPD2    C4 1651   2.334   1.804   0.342 -0.3844 -0.3021 -0.3675
  106MPD2    C5 1652   2.446   1.779   0.263  1.4095  0.3287 -0.6113
  106MPD2     H 1653   2.311   2.133   0.271 -1.5493 -1.2644  0.1868
  106MPD2    H1 1654   2.291   1.723   0.400 -0.1208 -0.2588 -0.1108
  106MPD2    H2 1655   2.587   1.845   0.128 -0.5025  0.9532 -1.1415
  106MPD2    H3 1656   2.489   1.680   0.277 -0.6989 -0.1857  2.2946
  106MPD2     N 1657   2.195   1.983   0.433 -0.8507 -0.6341  0.3069
  106MPD2    H5 1658   2.180   2.083   0.437  0.9564 -0.3686  0.7310
  106MPD2    N1 1659   2.495   2.096   0.078 -0.2944 -0.5928  0.6856
  106MPD2    H7 1660   2.450   2.186   0.065 -3.5993 -1.9258  2.9629
  107TMC2    C1 1661   2.108   2.684  11.605  0.0042 -0.0031 -0.3032
  107TMC2    C2 1662   2.212   2.700  11.693 -0.0626  0.2313 -0.6993
  107TMC2    C3 1663   2.342   2.680  11.655  0.1224  0.6302 -0.5897
  107TMC2    C4 1664   2.136   2.657  11.471 -0.8964 -0.0000 -0.0592
  107TMC2    C5 1665   2.271   2.649  11.435  0.2860 -0.2628  0.1436
  107TMC2    C6 1666   2.372   2.661  11.524 -0.8221 -0.1900  0.2540
  107TMC2     C 1667   1.987   2.631  11.660 -0.0017  0.4583 -0.4336
  107TMC2     O 1668   1.991   2.611  11.780  0.1434 -0.1919  0.0461
  107TMC2     H 1669   2.192   2.721  11.797 -1.9778  1.8028 -1.3663
  107TMC2    H1 1670   2.056   2.632  11.403 -0.4463 -0.6349 -0.3523
  107TMC2    H2 1671   2.475   2.674  11.494 -0.3680  0.0439  1.9409
  107TMC2    C7 1672   2.294   2.600  11.296 -0.1222 -0.2738 -0.8055
  107TMC2    C8 1673   2.434   2.643  11.754  0.8388 -0.5033 -0.5798
  107TMC2    O1 1674   2.196   2.559  11.237 -0.2071  0.3628 -0.3087
  107TMC2    O2 1675   2.442   2.704  11.860  0.1141  0.3432 -0.4883
  107TMC2    O5 1676   2.525   2.551  11.709 -0.4086 -0.6364  0.1320
  107TMC2    H5 1677   2.500   2.499  11.630  1.2607 -1.1164 -0.0773
  108MPD2     C 1678   1.707   2.488  11.466  0.5113  0.5224 -0.2363
  108MPD2    C1 1679   1.769   2.530  11.579  0.0144 -0.7698  0.4524
  108MPD2    C2 1680   1.723   2.485  11.699  0.3755 -0.4509  0.3944
  108MPD2    C3 1681   1.606   2.410  11.712  0.3052 -0.9651 -0.3807
  108MPD2    C4 1682   1.542   2.383  11.594  0.2266 -0.4956 -0.0491
  108MPD2    C5 1683   1.605   2.401  11.475 -0.5088 -0.7422  0.5538
  108MPD2     H 1684   1.775   2.507  11.792  1.0932  1.2075 -0.3913
  108MPD2    H1 1685   1.444   2.336  11.584 -0.1599 -0.0196  1.6482
  108MPD2    H2 1686   1.729   2.526  11.367 -1.0531  1.3601 -0.2614
  108MPD2    H3 1687   1.551   2.361  11.390 -0.1981 -1.3064  0.6187
  108MPD2     N 1688   1.541   2.375  11.835 -0.3950  0.2303 -0.3458
  108MPD2    H5 1689   1.456   2.322  11.822 -1.0115  0.7056  1.6925
  108MPD2    N1 1690   1.890   2.601  11.566  0.5802 -0.6738 -0.3626
  108MPD2    H7 1691   1.906   2.640  11.474  0.7955 -1.4449 -0.6520
  109TMC2    C1 1692   2.843   0.139   1.952  0.3345  0.1552 -0.0921
  109TMC2    C2 1693   2.928   0.131   2.065  0.0332 -0.5328 -0.3957
  109TMC2    C3 1694   3.063   0.114   2.048 -0.0906  0.1246  0.4498
  109TMC2    C4 1695   2.895   0.148   1.826 -0.2096  0.5705  0.5202
  109TMC2    C5 1696   3.030   0.164   1.818 -0.2908 -0.2065  0.5581
  109TMC2    C6 1697   3.114   0.137   1.923  0.7662  0.2247 -0.1141
  109TMC2     C 1698   2.710   0.188   1.967  0.4204  0.2036 -0.6444
  109TMC2     O 1699   2.683   0.246   2.072 -0.2207  0.0281  0.3597
  109TMC2     H 1700   2.884   0.143   2.164 -0.9281 -0.0388 -0.8770
  109TMC2    H1 1701   2.836   0.172   1.738 -2.3609 -0.9789  1.5398
  109TMC2    H2 1702   3.214   0.102   1.902  0.4425 -0.5366 -0.3847
  109TMC2    C7 1703   3.085   0.162   1.692 -0.9884  0.3936  0.1652
  109TMC2    C8 1704   3.141   0.157   2.155 -0.2159  0.0981  0.7937
  109TMC2    O1 1705   3.025   0.086   1.619  0.0646 -0.0277 -0.3237
  109TMC2    O2 1706   3.229   0.245   2.144  0.1612 -0.3764  0.0650
  109TMC2    O5 1707   3.106   0.091   2.269  0.7490 -0.1391  0.3588
  109TMC2    H5 1708   3.038   0.020   2.268  0.7895 -0.1536 -1.0532
  110MPD2     C 1709   2.227   0.245   1.807  0.4256 -0.5622 -0.4837
  110MPD2    C1 1710   2.285   0.137   1.746  0.3482 -0.0576 -0.3916
  110MPD2    C2 1711   2.412   0.098   1.775 -0.0934  0.0908  0.2566
  110MPD2    C3 1712   2.492   0.185   1.850  0.3461  0.1201  0.0528
  110MPD2    C4 1713   2.438   0.299   1.904  0.5675  0.2434  0.1824
  110MPD2    C5 1714   2.311   0.328   1.886  0.7455  0.0573  0.2614
  110MPD2     H 1715   2.462   0.015   1.726  2.6238  1.9769 -0.1628
  110MPD2    H1 1716   2.502   0.368   1.959 -0.3497  3.6922 -3.0705
  110MPD2    H2 1717   2.123   0.273   1.806  0.3563 -0.8103  0.8015
  110MPD2    H3 1718   2.271   0.417   1.933 -0.3725 -0.5092  0.3829
  110MPD2     N 1719   2.625   0.142   1.869 -0.8015 -0.3126  0.2386
  110MPD2    H5 1720   2.663   0.064   1.816 -1.8220 -1.6331  1.4389
  110MPD2    N1 1721   2.198   0.055   1.674 -0.2434  0.2507  0.3184
  110MPD2    H7 1722   2.108   0.095   1.650 -0.9178 -0.9855  0.7814
  111TMC2    C1 1723   2.406   3.990  11.938  0.3024 -0.1954 -0.6169
  111TMC2    C2 1724   2.314   4.028  12.028  0.1316 -0.8368 -0.8320
  111TMC2    C3 1725   2.360   4.047  12.158  0.1720 -0.6302 -0.5512
  111TMC2    C4 1726   2.539   3.977  11.980  0.3006  0.4275  0.1209
  111TMC2    C5 1727   2.571   3.991  12.114  0.1623  0.4828  0.3994
  111TMC2    C6 1728   2.485   4.034  12.208  0.0848 -0.0931 -0.4654
  111TMC2     C 1729   2.387   4.028  11.798 -0.1286  0.4639 -0.4996
  111TMC2     O 1730   2.290   4.100  11.770  0.4463 -0.3852 -0.4082
  111TMC2     H 1731   2.209   4.050  12.009  0.3825 -0.0275 -1.3057
  111TMC2    H1 1732   2.620   3.961  11.909 -0.0331  2.8360 -0.8008
  111TMC2    H2 1733   2.516   4.051  12.310  2.3807  1.6026 -1.4567
  111TMC2    C7 1734   2.708   3.969  12.160 -0.5573 -0.6580 -0.9119
  111TMC2    C8 1735   2.264   4.125  12.235 -0.0676  0.1375  0.3995
  111TMC2    O1 1736   2.728   3.938  12.280  0.3066  0.9953  0.3130
  111TMC2    O2 1737   2.157   4.167  12.186  0.3002  0.0492  0.6128
  111TMC2    O5 1738   2.268   4.083  12.367 -0.0195  0.0478  0.5688
  111TMC2    H5 1739   2.347   4.034  12.399 -0.6135 -0.4868  1.2132
  112MPD2     C 1740   2.594   4.125  11.331 -0.2054  0.5082 -0.7644
  112MPD2    C1 1741   2.503   4.201  11.409  0.0627 -0.8490 -0.7081
  112MPD2    C2 1742   2.449   4.143  11.528  0.1854  0.3589  0.1941
  112MPD2    C3 1743   2.503   4.024  11.577 -0.0915  0.0511  0.3434
  112MPD2    C4 1744   2.589   3.950  11.500 -0.1691 -0.2650  0.3000
  112MPD2    C5 1745   2.628   4.001  11.381  0.4945 -0.3894 -0.0184
  112MPD2     H 1746   2.379   4.195  11.592 -0.0413  3.0018 -2.1999
  112MPD2    H1 1747   2.628   3.856  11.536  0.2996 -0.6104 -1.0840
  112MPD2    H2 1748   2.628   4.148  11.231  2.2589  0.6118  0.1095
  112MPD2    H3 1749   2.676   3.938  11.307 -0.6000  0.2735 -1.3093
  112MPD2     N 1750   2.485   3.982  11.715  0.0666  0.4263  0.5965
  112MPD2    H5 1751   2.536   3.899  11.742 -0.8074 -0.2392  0.2112
  112MPD2    N1 1752   2.459   4.331  11.366 -0.1356 -0.0339 -0.0461
  112MPD2    H7 1753   2.387   4.380  11.418  0.8383 -0.1532  1.4148
  113TMC2    C1 1754   0.649   1.927   0.654 -0.4298 -0.1911 -0.6176
  113TMC2    C2 1755   0.698   1.824   0.581  0.3806 -0.1454  0.1364
  113TMC2    C3 1756   0.613   1.743   0.518  0.4331  0.5670 -0.9882
  113TMC2    C4 1757   0.511   1.946   0.664 -0.9622  0.1154 -0.1474
  113TMC2    C5 1758   0.427   1.855   0.603  0.1093  1.1277  0.7564
  113TMC2    C6 1759   0.478   1.755   0.526  0.8540 -0.3256 -0.2035
  113TMC2     C 1760   0.731   2.025   0.717  0.0841 -0.2562 -0.3530
  113TMC2     O 1761   0.672   2.126   0.759 -0.0376  0.5006 -0.5560
  113TMC2     H 1762   0.802   1.805   0.557  0.1696  0.4572 -1.2151
  113TMC2    H1 1763   0.464   2.032   0.710 -2.5711 -0.5883 -0.4828
  113TMC2    H2 1764   0.414   1.699   0.459  0.8518 -0.2694 -0.2478
  113TMC2    C7 1765   0.307   1.834   0.687 -0.5060 -0.3937  0.0123
  113TMC2    C8 1766   0.665   1.624   0.442  0.1288  1.0479  0.5092
  113TMC2    O1 1767   0.270   1.929   0.754  0.4183  0.2747 -1.0006
  113TMC2    O2 1768   0.605   1.590   0.341 -0.0643  0.1139  0.1649
  113TMC2    O5 1769   0.780   1.593   0.497  0.0262  0.0269  0.3752
  113TMC2    H5 1770   0.790   1.617   0.592 -1.9973  0.5385  0.4582
  114MPD2     C 1771   1.153   2.201   0.933 -0.2319  0.1957  0.1026
  114MPD2    C1 1772   1.032   2.266   0.931 -0.6813 -0.4034 -0.3221
  114MPD2    C2 1773   0.934   2.202   0.855 -0.3568 -0.1319 -0.2661
  114MPD2    C3 1774   0.956   2.078   0.798  0.2963  0.7072 -0.9659
  114MPD2    C4 1775   1.075   2.010   0.817 -0.3163 -0.1700 -0.4045
  114MPD2    C5 1776   1.173   2.078   0.879 -0.0448  0.1253  0.0326
  114MPD2     H 1777   0.834   2.242   0.846 -0.1337  0.3577 -0.5692
  114MPD2    H1 1778   1.100   1.920   0.762 -0.8549 -1.0117  0.7304
  114MPD2    H2 1779   1.237   2.244   0.985 -0.2613  0.0107  0.3025
  114MPD2    H3 1780   1.269   2.028   0.882 -0.7747 -1.2397  0.2192
  114MPD2     N 1781   0.866   2.000   0.720 -0.1538 -0.2175 -0.2471
  114MPD2    H5 1782   0.899   1.919   0.668 -0.7378 -0.0173 -0.9355
  114MPD2    N1 1783   1.012   2.393   0.983 -0.0899 -0.0052 -0.8065
  114MPD2    H7 1784   0.936   2.450   0.947 -0.9379 -0.2072  0.6606
  115TMC2    C1 1785   1.677   4.168  17.587 -0.0398 -0.3935  0.3921
  115TMC2    C2 1786   1.799   4.130  17.638  0.2416 -0.0833 -0.2763
  115TMC2    C3 1787   1.886   4.225  17.690  0.3364  0.1227 -0.3742
  115TMC2    C4 1788   1.656   4.302  17.572 -0.3609 -0.2059 -0.0781
  115TMC2    C5 1789   1.743   4.395  17.628  0.0297 -0.2460  0.1854
  115TMC2    C6 1790   1.854   4.360  17.696 -0.7723 -0.2312 -0.3490
  115TMC2     C 1791   1.624   4.079  17.485  0.5871 -0.5114  0.1939
  115TMC2     O 1792   1.707   4.004  17.437 -0.5199 -0.1852 -1.0283
  115TMC2     H 1793   1.823   4.025  17.638  1.1669  0.1510  3.7892
  115TMC2    H1 1794   1.571   4.328  17.511 -0.4821 -1.4174 -0.4189
  115TMC2    H2 1795   1.927   4.425   0.013 -0.1137 -0.6045 -0.8463
  115TMC2    C7 1796   1.704   4.533  17.644  0.2831 -0.2486 -0.1261
  115TMC2    C8 1797   1.992   4.165   0.034  0.0462  0.2831 -0.3667
  115TMC2    O1 1798   1.587   4.561  17.611  0.3731  0.2349  0.2075
  115TMC2    O2 1799   2.051   4.074  17.715  0.2308  0.0118 -0.2467
  115TMC2    O5 1800   2.044   4.247   0.131 -0.7765  0.4272 -0.2750
  115TMC2    H5 1801   1.970   4.296   0.172 -0.1772 -0.3348  1.6899
  116MPD2     C 1802   1.272   3.906  17.152 -0.2549  0.0154 -0.1852
  116MPD2    C1 1803   1.395   3.854  17.183  0.2661  0.9344  0.0187
  116MPD2    C2 1804   1.475   3.913  17.285  0.0294  0.4217 -0.2140
  116MPD2    C3 1805   1.419   4.012  17.365  0.9481 -0.0155 -0.1481
  116MPD2    C4 1806   1.288   4.053  17.351 -0.0488 -0.3353 -0.2804
  116MPD2    C5 1807   1.217   3.997  17.244  0.0539  1.0716  0.0630
  116MPD2     H 1808   1.578   3.882  17.296 -0.0975  0.3171  0.6529
  116MPD2    H1 1809   1.248   4.127  17.419  0.0900 -0.0756 -0.4813
  116MPD2    H2 1810   1.206   3.867  17.075 -1.1480 -0.2834  0.7426
  116MPD2    H3 1811   1.116   4.032  17.232 -0.2424  0.2536  0.2067
  116MPD2     N 1812   1.492   4.094  17.454 -0.3026  0.2145 -0.1271
  116MPD2    H5 1813   1.434   4.154  17.513 -2.1980  1.3946 -3.1595
  116MPD2    N1 1814   1.435   3.752  17.094  0.3113  0.1873  0.4130
  116MPD2    H7 1815   1.369   3.731  17.020 -0.5017 -1.0802  1.4904
  117TMC2    C1 1816   0.312   1.309  14.158  0.1664 -0.3774  0.0495
  117TMC2    C2 1817   0.366   1.193  14.200  0.0844  1.0016  1.0753
  117TMC2    C3 1818   0.500   1.199  14.223  0.6216  0.1517  0.0182
  117TMC2    C4 1819   0.388   1.426  14.141  0.7346  0.1595  0.6309
  117TMC2    C5 1820   0.511   1.433  14.190 -0.8628  0.0890 -0.1969
  117TMC2    C6 1821   0.572   1.317  14.216 -0.3729 -0.1367  0.8330
  117TMC2     C 1822   0.187   1.299  14.085 -0.7346 -0.0167  0.5331
  117TMC2     O 1823   0.150   1.187  14.056  0.5985  0.1266 -0.6604
  117TMC2     H 1824   0.299   1.108  14.210  0.4247  0.6027 -0.0878
  117TMC2    H1 1825   0.344   1.509  14.088 -0.8674 -1.4002 -0.4642
  117TMC2    H2 1826   0.676   1.313  14.247  0.0021 -0.9865 -0.5587
  117TMC2    C7 1827   0.565   1.556  14.238  0.3152  0.2587 -0.1752
  117TMC2    C8 1828   0.589   1.086  14.245  1.4948  0.1354  0.1182
  117TMC2    O1 1829   0.681   1.552  14.278 -0.1739  0.5130  0.6758
  117TMC2    O2 1830   0.705   1.094  14.282  0.0796 -0.0034  0.2541
  117TMC2    O5 1831   0.541   0.974  14.185  0.4003 -0.0680  0.1023
  117TMC2    H5 1832   0.447   0.974  14.158  0.3357 -0.5873  0.3060
  118MPD2     C 1833   0.427   1.902  14.233 -0.0716  0.4082  0.4534
  118MPD2    C1 1834   0.520   1.797  14.229 -0.6896  0.2445 -0.5465
  118MPD2    C2 1835   0.650   1.837  14.202 -0.3362 -0.3350 -0.1217
  118MPD2    C3 1836   0.691   1.972  14.185 -0.5331  0.2664 -1.3582
  118MPD2    C4 1837   0.589   2.071  14.184 -0.3414  0.8304  0.4307
  118MPD2    C5 1838   0.460   2.037  14.221 -0.0413 -0.3530 -0.0270
  118MPD2     H 1839   0.718   1.752  14.200 -1.1892 -1.0210  0.4141
  118MPD2    H1 1840   0.611   2.174  14.159  1.8721  0.0850 -0.7370
  118MPD2    H2 1841   0.325   1.867  14.243 -0.6693  1.9974 -0.2478
  118MPD2    H3 1842   0.386   2.115  14.209  2.2680  1.6191 -1.5490
  118MPD2     N 1843   0.823   2.011  14.150 -0.2030 -0.3138  0.2805
  118MPD2    H5 1844   0.833   2.101  14.105 -1.0996  0.0097  0.7212
  118MPD2    N1 1845   0.475   1.663  14.233 -0.4245 -0.1938 -0.5222
  118MPD2    H7 1846   0.378   1.634  14.229  0.9254 -4.7260 -0.9501
  119TMC2    C1 1847   3.218   2.702  13.636 -0.4758 -0.3237  0.1727
  119TMC2    C2 1848   3.242   2.691  13.500  0.0058 -0.3435 -0.7721
  119TMC2    C3 1849   3.162   2.605  13.433 -0.3251  0.1954  0.8774
  119TMC2    C4 1850   3.124   2.630  13.699 -0.0408  0.2923  0.1979
  119TMC2    C5 1851   3.044   2.552  13.621 -0.2268  0.2221 -0.0189
  119TMC2    C6 1852   3.072   2.519  13.494  0.3134  0.0899  0.4865
  119TMC2     C 1853   3.301   2.798  13.719 -0.0757  0.2641 -0.1541
  119TMC2     O 1854   3.278   2.794  13.840  0.5026  0.4249 -0.4353
  119TMC2     H 1855   3.330   2.737  13.457  0.4689 -1.1163 -0.6530
  119TMC2    H1 1856   3.107   2.662  13.802 -1.0908 -1.6404  0.6137
  119TMC2    H2 1857   2.993   2.471  13.437  1.3789 -3.0365  1.6860
  119TMC2    C7 1858   2.962   2.458  13.692  0.6651  0.4376  1.3589
  119TMC2    C8 1859   3.180   2.597  13.285  0.8976  0.9618  0.0742
  119TMC2    O1 1860   2.918   2.364  13.630 -0.0172  0.3850 -0.0068
  119TMC2    O2 1861   3.102   2.558  13.205  0.1028  0.3357  0.1999
  119TMC2    O5 1862   3.312   2.630  13.259 -0.8343  0.1951 -0.2585
  119TMC2    H5 1863   3.373   2.634  13.336  0.7618 -1.5686 -1.4433
  120MPD2     C 1864   3.666   3.149  13.771 -0.8557 -0.1848  0.0049
  120MPD2    C1 1865   3.598   3.077  13.865 -0.9005 -0.7717 -0.5650
  120MPD2    C2 1866   3.498   2.991  13.818 -0.0463 -0.4275 -0.1862
  120MPD2    C3 1867   3.476   2.970  13.683 -0.3160 -0.0184 -0.0145
  120MPD2    C4 1868   3.541   3.054  13.598  0.4453  0.2746 -0.2861
  120MPD2    C5 1869   3.632   3.146  13.636  0.2730  0.4082  0.5952
  120MPD2     H 1870   3.442   2.937  13.893  1.6199 -1.5212  0.2834
  120MPD2    H1 1871   3.528   3.043  13.491 -2.2969 -0.1077  0.0853
  120MPD2    H2 1872   3.745   3.219  13.797  1.0784 -2.0168 -0.9222
  120MPD2    H3 1873   3.667   3.215  13.560  1.0469 -2.2468 -1.4236
  120MPD2     N 1874   3.376   2.881  13.638 -0.3592  0.5245  0.5525
  120MPD2    H5 1875   3.367   2.865  13.538 -2.5253 -1.2052  1.0326
  120MPD2    N1 1876   3.645   3.089  13.992  0.3431 -0.1894  0.7923
  120MPD2    H7 1877   3.689   3.177  14.014  0.0876 -0.0892  0.8978
  121TMC2    C1 1878   0.178   4.279  13.808 -0.5909  0.3104  0.9009
  121TMC2    C2 1879   0.284   4.203  13.759  0.3049  0.6223 -0.3014
  121TMC2    C3 1880   0.258   4.070  13.766 -0.0633 -0.0767  0.7817
  121TMC2    C4 1881   0.059   4.227  13.848 -0.2533 -0.1567 -0.0707
  121TMC2    C5 1882   0.042   4.096  13.830  0.5482  0.4821 -0.3168
  121TMC2    C6 1883   0.143   4.012  13.812 -0.7310 -0.1672  0.4116
  121TMC2     C 1884   0.217   4.408  13.851  0.4860  0.7289  0.0605
  121TMC2     O 1885   0.162   4.443  13.955 -0.8198 -0.5186 -0.2233
  121TMC2     H 1886   0.375   4.248  13.721  0.8884  0.7623  1.2398
  121TMC2    H1 1887   4.711   4.293  13.879 -0.7833 -0.9526  0.2557
  121TMC2    H2 1888   0.121   3.906  13.811  0.2699 -0.3777 -0.7714
  121TMC2    C7 1889   4.675   4.039  13.917  0.2005 -0.0372 -0.1332
  121TMC2    C8 1890   0.372   3.984  13.729  0.2401 -0.0397  0.2211
  121TMC2    O1 1891   4.720   3.948  13.991  0.1782  0.6496  0.2572
  121TMC2    O2 1892   0.475   4.013  13.782  0.6028  0.3676  0.3241
  121TMC2    O5 1893   0.325   3.858  13.717 -0.5745 -0.5060  0.5999
  121TMC2    H5 1894   0.239   3.854  13.670  0.9571 -0.9722 -2.1653
  122MPD2     C 1895   0.327   4.686  13.896 -0.4886 -0.5940  0.4057
  122MPD2    C1 1896   0.338   4.614  13.783 -0.5889 -0.1569 -0.1493
  122MPD2    C2 1897   0.402   4.673  13.673  1.0067  0.5509 -0.7278
  122MPD2    C3 1898   0.421   0.078  13.661 -0.0681  0.2782  0.4367
  122MPD2    C4 1899   0.402   0.154  13.776  0.7964  0.1749  0.1995
  122MPD2    C5 1900   0.363   0.087  13.892  0.0595  0.4582 -0.4570
  122MPD2     H 1901   0.409   4.613  13.583 -2.0517  0.2267 -0.7412
  122MPD2    H1 1902   0.434   0.257  13.791 -2.0464  1.3380 -1.5713
  122MPD2    H2 1903   0.287   4.641  13.986 -1.0800 -2.1903 -0.6467
  122MPD2    H3 1904   0.341   0.145  13.980  1.8237 -2.7372  2.0834
  122MPD2     N 1905   0.464   0.138  13.541 -0.0810 -0.1025 -0.2297
  122MPD2    H5 1906   0.469   0.239  13.544 -0.0148 -0.0656 -1.5780
  122MPD2    N1 1907   0.293   4.481  13.764  0.4236  0.6236  0.3789
  122MPD2    H7 1908   0.313   4.442  13.672  0.3366  1.1141  0.1520
  123TMC2    C1 1909   2.851   3.364  10.642 -0.0112  0.2857 -0.6974
  123TMC2    C2 1910   2.826   3.443  10.750 -0.0449  0.1705 -0.8319
  123TMC2    C3 1911   2.892   3.563  10.751 -0.0760  0.1790 -0.6582
  123TMC2    C4 1912   2.931   3.399  10.531 -0.5745  0.1003  0.2479
  123TMC2    C5 1913   2.997   3.515  10.540  0.1303  0.3006  0.0128
  123TMC2    C6 1914   2.981   3.600  10.651 -0.1592 -0.0194  0.4383
  123TMC2     C 1915   2.785   3.237  10.653  0.2662  0.6608  0.2856
  123TMC2     O 1916   2.799   3.187  10.764 -0.2567  0.6259  0.4852
  123TMC2     H 1917   2.761   3.418  10.833  0.8208 -0.0572 -0.2180
  123TMC2    H1 1918   2.964   3.333  10.451  1.0920  1.6907 -0.3925
  123TMC2    H2 1919   3.032   3.696  10.647  0.6228 -0.5418 -2.4315
  123TMC2    C7 1920   3.069   3.551  10.420  0.2878 -0.0782  0.2303
  123TMC2    C8 1921   2.890   3.634  10.877  0.5551 -1.0799 -1.0211
  123TMC2    O1 1922   3.044   3.487  10.316  0.3666  0.1625  0.1096
  123TMC2    O2 1923   2.885   3.573  10.982  0.3943 -0.1666  0.3619
  123TMC2    O5 1924   2.942   3.758  10.861  0.3232 -0.1871 -0.3765
  123TMC2    H5 1925   2.925   3.805  10.777 -2.0178 -1.3860 -0.5799
  124MPD2     C 1926   2.736   2.760  10.445 -0.0254  0.4946  0.1866
  124MPD2    C1 1927   2.754   2.864  10.354 -0.0107 -0.3044 -0.6994
  124MPD2    C2 1928   2.761   2.997  10.383  0.7032 -0.2586  0.0299
  124MPD2    C3 1929   2.762   3.038  10.512 -0.0870  0.1150  0.2853
  124MPD2    C4 1930   2.742   2.937  10.606 -0.2256  0.9149  0.5013
  124MPD2    C5 1931   2.746   2.801  10.573 -0.0319  0.6000  0.6178
  124MPD2     H 1932   2.769   3.072  10.305  1.4780  0.3913  0.7327
  124MPD2    H1 1933   2.730   2.956  10.712  0.3569 -0.5768  0.8405
  124MPD2    H2 1934   2.747   2.655  10.417 -0.9886  0.5126 -0.2330
  124MPD2    H3 1935   2.733   2.738  10.660  1.3428  0.2476  0.5671
  124MPD2     N 1936   2.775   3.173  10.531 -0.9314  0.1506  0.3352
  124MPD2    H5 1937   2.801   3.235  10.455 -0.5044 -0.1455  0.2386
  124MPD2    N1 1938   2.762   2.813  10.222  0.1279  1.0161  0.3638
  124MPD2    H7 1939   2.735   2.717  10.203  0.6337  0.3366  3.0025
  125TMC2    C1 1940   4.149   4.729  10.602  0.5000 -0.1521 -1.5991
  125TMC2    C2 1941   4.178   4.600  10.630  0.3709  0.4214 -0.2561
  125TMC2    C3 1942   4.271   4.539  10.552  0.6930 -0.4972 -0.0313
  125TMC2    C4 1943   4.222   0.062  10.503  0.0662  0.2645 -0.0383
  125TMC2    C5 1944   4.305   4.727  10.417  0.3651 -0.0198  0.8633
  125TMC2    C6 1945   4.326   4.591  10.438 -0.0040  0.0152  1.0873
  125TMC2     C 1946   4.097   0.078  10.706  0.0682  0.1652 -0.5368
  125TMC2     O 1947   3.976   0.082  10.717  0.2553  0.4300  0.1167
  125TMC2     H 1948   4.135   4.552  10.718 -1.4225  2.5463  0.0225
  125TMC2    H1 1949   4.211   0.169  10.492  1.7033  0.4533  0.2677
  125TMC2    H2 1950   4.378   4.520  10.375 -0.9832 -1.8734  2.4174
  125TMC2    C7 1951   4.390   0.076  10.335  0.0395  0.4108 -0.4955
  125TMC2    C8 1952   4.286   4.394  10.573 -0.2246 -0.1370 -0.3345
  125TMC2    O1 1953   4.375   0.197  10.347 -0.1616 -0.6555  0.1702
  125TMC2    O2 1954   4.273   4.301  10.490 -0.8488  0.2447 -0.2293
  125TMC2    O5 1955   4.358   4.379  10.686  0.3206 -0.1255  0.0103
  125TMC2    H5 1956   4.390   4.468  10.711  1.4125  0.1981 -2.5681
  126MPD1     C 1957   4.161   0.438  11.066  0.2773  0.2077 -0.3655
  126MPD1    C1 1958   4.252   0.458  10.968  0.0757  0.0180  0.3813
  126MPD1    C2 1959   4.257   0.369  10.866  0.1661  0.1517  0.8241
  126MPD1    C3 1960   4.167   0.263  10.850 -0.4713 -0.5310  0.2454
  126MPD1    C4 1961   4.066   0.251  10.942  0.0197  1.2258  0.0608
  126MPD1    C5 1962   4.064   0.344  11.045  0.3966  0.4626 -0.6045
  126MPD1     H 1963   4.335   0.384  10.793  1.1948 -0.4610  1.8042
  126MPD1    H1 1964   3.991   0.173  10.935 -0.6074  1.7416  0.9883
  126MPD1    H2 1965   4.160   0.499  11.155 -1.9703  1.5279 -1.2917
  126MPD1    H3 1966   3.984   0.332  11.118 -0.1656  1.9355 -0.9925
  126MPD1     N 1967   4.187   0.172  10.744  0.1072 -0.0990  0.1877
  126MPD1    H5 1968   4.274   0.174  10.692 -1.6533  0.1889 -2.7689
  126MPD1    N1 1969   4.360   0.546  10.990  0.7124 -0.0782  0.1290
  126MPD1    H6 1970   4.390   0.582  10.900  2.1586 -0.3908  0.4929
  126MPD1    H7 1971   4.333   0.621  11.053 -2.0613 -0.4783 -0.5737
  127TMC2    C1 1972   0.291   3.493   9.662  0.3098  0.1547  0.2007
  127TMC2    C2 1973   0.270   3.503   9.798  0.1737 -0.5573  1.0882
  127TMC2    C3 1974   0.146   3.517   9.846 -0.9166 -0.0432 -0.5368
  127TMC2    C4 1975   0.189   3.524   9.572 -0.8396 -0.5031  0.4861
  127TMC2    C5 1976   0.067   3.543   9.627  0.2297 -0.6171  0.7229
  127TMC2    C6 1977   0.042   3.527   9.761 -0.8036  0.0032 -0.2907
  127TMC2     C 1978   0.425   3.484   9.610  0.1137 -0.8828 -0.9940
  127TMC2     O 1979   0.518   3.501   9.684  0.2191  0.8786 -0.3137
  127TMC2     H 1980   0.352   3.476   9.864  0.2376 -0.1362  1.1809
  127TMC2    H1 1981   0.205   3.529   9.465  2.0230 -2.4531  0.8009
  127TMC2    H2 1982   4.677   3.544   9.805 -0.7605 -1.0167  0.2076
  127TMC2    C7 1983   4.687   3.537   9.539  0.1450 -0.1436  0.0557
  127TMC2    C8 1984   0.120   3.511   9.984 -0.1147  0.4360  0.1186
  127TMC2    O1 1985   4.716   3.536   9.420 -0.5041 -1.2921 -0.0733
  127TMC2    O2 1986   0.189   3.436  10.052 -0.1117 -0.1566  0.3371
  127TMC2    O5 1987   0.057   3.630  10.014  0.1184 -0.7417  0.7135
  127TMC2    H5 1988   0.027   3.671   9.930 -0.3992  1.0161  1.7540
  128MPD2     C 1989   0.513   3.370   9.281  0.4500  0.3504 -0.0753
  128MPD2    C1 1990   0.542   3.434   9.400  0.3904  0.2302 -0.1272
  128MPD2    C2 1991   0.651   3.520   9.413 -0.2737  0.7447  0.8289
  128MPD2    C3 1992   0.739   3.534   9.310 -0.1168  0.2797  0.6095
  128MPD2    C4 1993   0.702   3.467   9.198  0.5652 -0.2085  0.2643
  128MPD2    C5 1994   0.605   3.373   9.185 -0.4121  0.5547  0.2018
  128MPD2     H 1995   0.658   3.580   9.503 -1.8352  0.8620  0.8641
  128MPD2    H1 1996   0.761   3.478   9.108  1.0107  0.0032  0.5886
  128MPD2    H2 1997   0.426   3.307   9.271  2.6295 -2.5278 -0.9180
  128MPD2    H3 1998   0.595   3.318   9.092  0.1125 -1.8272  1.5648
  128MPD2     N 1999   0.845   3.622   9.319  0.3407  0.2089  0.0136
  128MPD2    H5 2000   0.841   3.686   9.398 -1.0302 -0.1735  0.2579
  128MPD2    N1 2001   0.429   3.431   9.485  0.7170  0.4687  0.0249
  128MPD2    H7 2002   0.345   3.387   9.449  0.3244  2.0604 -1.0303
  129TMC2    C1 2003   3.301   4.442   1.575  0.3336 -0.2981 -0.1146
  129TMC2    C2 2004   3.311   4.463   1.434 -0.3373 -0.4411  0.1275
  129TMC2    C3 2005   3.231   4.380   1.362  0.1297 -0.4163  0.7155
  129TMC2    C4 2006   3.225   4.343   1.631 -0.0328 -0.6027  0.2723
  129TMC2    C5 2007   3.141   4.275   1.548 -0.0259  0.2623  0.1607
  129TMC2    C6 2008   3.137   4.298   1.415  0.4214  0.1723  0.1776
  129TMC2     C 2009   3.363   4.534   1.665  0.6690  0.1284 -0.3064
  129TMC2     O 2010   3.294   4.565   1.762  0.0242 -0.0303 -0.1177
  129TMC2     H 2011   3.380   4.536   1.394 -0.7501  0.1328  0.4573
  129TMC2    H1 2012   3.217   4.336   1.739 -0.7283 -2.5141  0.0915
  129TMC2    H2 2013   3.083   4.229   1.350 -0.4812 -1.1908  2.3672
  129TMC2    C7 2014   3.088   4.140   1.588 -0.1722  0.5604  0.6351
  129TMC2    C8 2015   3.263   4.356   1.223 -0.5355  0.6734  0.1888
  129TMC2    O1 2016   2.976   4.104   1.555  0.0826  0.1777  0.6726
  129TMC2    O2 2017   3.194   4.296   1.147  0.0713 -0.0636 -0.0737
  129TMC2    O5 2018   3.400   4.352   1.217 -0.1616  0.1056 -0.0206
  129TMC2    H5 2019   3.435   4.368   1.308 -0.4356 -2.8033  0.6043
  130MPD2     C 2020   3.476   0.060   1.766 -0.3114 -0.0691 -0.4042
  130MPD2    C1 2021   3.530   4.722   1.655  0.9863  0.4705 -0.4426
  130MPD2    C2 2022   3.639   0.043   1.587  0.4054 -0.6061 -0.5549
  130MPD2    C3 2023   3.693   0.164   1.628 -0.1466 -0.1688 -0.5099
  130MPD2    C4 2024   3.642   0.227   1.741 -0.7130  0.4485 -0.2690
  130MPD2    C5 2025   3.534   0.172   1.805  0.8385 -0.0563  0.7380
  130MPD2     H 2026   3.691   4.721   1.510  2.3874 -0.1849  0.4974
  130MPD2    H1 2027   3.674   0.325   1.773  1.2476 -0.1348 -0.4607
  130MPD2    H2 2028   3.383   0.042   1.819  0.7527 -0.2536  1.4062
  130MPD2    H3 2029   3.488   0.233   1.882 -1.5586  0.6180 -1.2630
  130MPD2     N 2030   3.788   0.223   1.541 -0.1242 -0.5687  0.3845
  130MPD2    H5 2031   3.814   0.183   1.451  2.2238  0.3703  0.6474
  130MPD2    N1 2032   3.470   4.598   1.610  0.8271 -0.0489  0.5705
  130MPD2    H7 2033   3.508   4.545   1.532 -1.4803 -0.4640 -0.2513
  131TMC2    C1 2034   2.939   3.686  10.013  1.0363  0.4072  0.5280
  131TMC2    C2 2035   2.886   3.692  10.141  0.4629  0.1342 -0.1074
  131TMC2    C3 2036   2.877   3.817  10.203 -0.2322 -0.4084  0.3036
  131TMC2    C4 2037   2.971   3.801   9.942 -0.5261  0.6287  0.1384
  131TMC2    C5 2038   2.962   3.923  10.009 -0.4093 -0.9394 -0.6897
  131TMC2    C6 2039   2.915   3.929  10.136 -0.3824 -0.2853 -0.8631
  131TMC2     C 2040   2.937   3.555   9.952  0.4395 -0.2970  0.6936
  131TMC2     O 2041   2.967   3.459  10.024 -0.2281  0.2478 -0.1533
  131TMC2     H 2042   2.878   3.603  10.202 -1.5167  0.4286  0.0605
  131TMC2    H1 2043   3.002   3.800   9.839 -3.2327  3.0560 -0.6964
  131TMC2    H2 2044   2.925   4.015  10.202  0.2163 -1.2184  0.2652
  131TMC2    C7 2045   3.031   4.037   9.955 -0.5263 -1.0950  0.1094
  131TMC2    C8 2046   2.868   3.828  10.347 -1.1351  0.1872 -0.2715
  131TMC2    O1 2047   3.074   4.030   9.838 -0.1844 -0.0837  0.0253
  131TMC2    O2 2048   2.917   3.919  10.409  0.5026  0.4142  0.2441
  131TMC2    O5 2049   2.797   3.724  10.397 -0.4188  0.0582 -0.3539
  131TMC2    H5 2050   2.738   3.676  10.334 -0.4034 -0.7082  0.2141
  132MPD2     C 2051   2.872   3.497   9.589 -0.8619  0.0859 -0.1298
  132MPD2    C1 2052   2.904   3.461   9.718 -0.4566  0.6979 -0.3794
  132MPD2    C2 2053   2.909   3.328   9.755 -0.1623 -0.1400 -0.4871
  132MPD2    C3 2054   2.878   3.230   9.664  1.1011  0.3639  0.2261
  132MPD2    C4 2055   2.842   3.261   9.536 -0.6224 -0.6305  0.5804
  132MPD2    C5 2056   2.848   3.393   9.496 -1.1022  0.4465 -0.2836
  132MPD2     H 2057   2.919   3.297   9.858  0.1421  0.1658 -0.4252
  132MPD2    H1 2058   2.840   3.179   9.466 -1.9125  1.0856 -1.3685
  132MPD2    H2 2059   2.878   3.601   9.562  1.5486  0.0648  0.2910
  132MPD2    H3 2060   2.837   3.399   9.388  3.4294 -2.5684 -0.9148
  132MPD2     N 2061   2.863   3.100   9.720  0.5940 -0.2803  0.1391
  132MPD2    H5 2062   2.892   3.083   9.816  0.4081  0.4149  0.3145
  132MPD2    N1 2063   2.920   3.567   9.816  0.5386 -0.3965 -0.0369
  132MPD2    H7 2064   2.901   3.660   9.779  2.5478  0.7559  1.8202
  133TMC2    C1 2065   1.738   2.569   9.570  0.5082  0.4095  0.1719
  133TMC2    C2 2066   1.733   2.511   9.449 -0.1249 -0.4961 -0.1034
  133TMC2    C3 2067   1.740   2.376   9.440  0.0885  0.1747 -0.3197
  133TMC2    C4 2068   1.740   2.491   9.688  0.6166  0.1439  0.0667
  133TMC2    C5 2069   1.756   2.351   9.676 -0.6840  0.4467 -0.2551
  133TMC2    C6 2070   1.752   2.297   9.551  0.4115 -0.1272  0.1805
  133TMC2     C 2071   1.717   2.708   9.586  0.6181  0.2494 -0.1661
  133TMC2     O 2072   1.752   2.753   9.694 -0.4482 -0.3860 -0.1821
  133TMC2     H 2073   1.733   2.567   9.356  2.4074 -0.7834 -0.2676
  133TMC2    H1 2074   1.774   2.532   9.782 -0.3650  0.9998  0.0365
  133TMC2    H2 2075   1.781   2.192   9.552  0.5597 -0.0959 -2.2509
  133TMC2    C7 2076   1.724   2.280   9.794  0.3479 -0.7866 -0.1575
  133TMC2    C8 2077   1.756   2.329   9.306  0.2969 -0.3728  0.2768
  133TMC2    O1 2078   1.747   2.343   9.895 -0.1792 -0.3594 -0.6017
  133TMC2    O2 2079   1.760   2.405   9.212 -0.2964  0.1511  0.4311
  133TMC2    O5 2080   1.698   2.211   9.311 -0.2125 -0.2043 -0.1250
  133TMC2    H5 2081   1.672   2.180   9.400 -1.2954  1.9194  0.2857
  134MPD2     C 2082   1.478   2.940   9.409  0.7529 -0.4842 -0.0621
  134MPD2    C1 2083   1.588   2.904   9.490  0.0253  0.0350  0.3784
  134MPD2    C2 2084   1.654   3.000   9.566  0.3572  0.0869 -0.3749
  134MPD2    C3 2085   1.614   3.135   9.560  0.6494 -0.0534 -0.9629
  134MPD2    C4 2086   1.514   3.165   9.474  0.4115  0.1345 -0.2705
  134MPD2    C5 2087   1.443   3.071   9.403  0.6699 -0.1846 -0.6459
  134MPD2     H 2088   1.739   2.977   9.630  1.9810 -0.1357 -2.6045
  134MPD2    H1 2089   1.482   3.268   9.477 -1.9914 -0.6144 -0.2621
  134MPD2    H2 2090   1.417   2.866   9.359  0.2399 -0.4471  0.5075
  134MPD2    H3 2091   1.356   3.098   9.344 -0.7669 -0.2096  1.4408
  134MPD2     N 2092   1.678   3.236   9.628 -0.5765  0.3865 -0.3009
  134MPD2    H5 2093   1.649   3.330   9.605  1.4168  0.9315 -0.5117
  134MPD2    N1 2094   1.631   2.763   9.490  0.3956  0.6309 -0.5338
  134MPD2    H7 2095   1.585   2.694   9.432 -0.4677  0.2598  0.5891
  135TMC2    C1 2096   0.072   0.267  10.384 -0.6169  0.1137 -0.0957
  135TMC2    C2 2097   4.715   0.327  10.468  1.0003 -0.4027 -0.1587
  135TMC2    C3 2098   4.660   0.236  10.562 -0.5243 -0.0527 -0.0163
  135TMC2    C4 2099   0.114   0.136  10.394 -0.2823  0.1806  0.0026
  135TMC2    C5 2100   0.052   0.061  10.485 -0.4943 -0.0171  0.2759
  135TMC2    C6 2101   4.697   0.109  10.587  0.1739 -0.5702 -0.3144
  135TMC2     C 2102   0.136   0.357  10.287 -0.0412 -0.9663  0.7896
  135TMC2     O 2103   0.103   0.477  10.298 -0.0179  0.0058  0.0088
  135TMC2     H 2104   4.679   0.429  10.459 -0.3010 -0.7428  1.2437
  135TMC2    H1 2105   0.180   0.099  10.317  0.0078 -0.1224  0.4003
  135TMC2    H2 2106   4.658   0.049  10.668  0.8538 -0.2184  0.2618
  135TMC2    C7 2107   0.099   4.663  10.504  0.0376 -0.1501  0.6100
  135TMC2    C8 2108   4.532   0.281  10.618  0.0031  0.3945 -0.4772
  135TMC2    O1 2109   0.212   4.649  10.470 -0.1327  0.6720  0.1284
  135TMC2    O2 2110   4.481   0.388  10.583  0.1580 -0.4432  0.4565
  135TMC2    O5 2111   4.470   0.200  10.703 -0.7286  0.1342  0.0899
  135TMC2    H5 2112   4.530   0.142  10.756 -0.8414 -0.1421 -0.0833
  136MPD2     C 2113   0.234   0.499  10.047 -0.0250 -0.5348  0.2326
  136MPD2    C1 2114   0.216   0.362  10.051  0.5268  0.6210  0.0258
  136MPD2    C2 2115   0.247   0.286   9.940 -0.3968 -0.4772  0.3118
  136MPD2    C3 2116   0.275   0.348   9.824 -0.0354 -0.4825  0.7408
  136MPD2    C4 2117   0.282   0.480   9.810 -0.4560  0.2440 -0.2985
  136MPD2    C5 2118   0.272   0.556   9.929  0.4767  0.2831  0.6005
  136MPD2     H 2119   0.247   0.178   9.937 -2.6962 -0.5374  2.2863
  136MPD2    H1 2120   0.303   0.532   9.717  0.7208  0.8324  0.2995
  136MPD2    H2 2121   0.232   0.566  10.131 -0.2551  1.0880 -1.0760
  136MPD2    H3 2122   0.274   0.664   9.935 -1.9430  0.4315 -1.4689
  136MPD2     N 2123   0.296   0.270   9.706 -0.2097  0.8030 -0.4136
  136MPD2    H5 2124   0.337   0.321   9.628 -1.4660 -0.6747 -2.0421
  136MPD2    N1 2125   0.182   0.289  10.173 -0.3328 -0.4840  0.0976
  136MPD2    H7 2126   0.188   0.188  10.167 -1.0665 -0.4843 -0.7028
  137TMC2    C1 2127   4.355   4.659   9.771 -0.0280 -0.1916  0.5375
  137TMC2    C2 2128   4.423   4.717   9.667 -0.4851 -0.2522 -0.0436
  137TMC2    C3 2129   4.440   0.125   9.676  0.7948  0.1730 -0.4470
  137TMC2    C4 2130   4.292   4.720   9.876 -0.0715  0.5158 -0.5943
  137TMC2    C5 2131   4.302   0.121   9.866 -0.3484 -0.9315 -0.2514
  137TMC2    C6 2132   4.376   0.198   9.774  0.2424  0.1015 -0.3875
  137TMC2     C 2133   4.311   4.523   9.758  0.2900  0.3908  0.5568
  137TMC2     O 2134   4.310   4.450   9.856  0.0672  0.4179 -0.0404
  137TMC2     H 2135   4.474   4.646   9.602  1.3134  0.0544  1.0416
  137TMC2    H1 2136   4.218   4.672   9.939 -0.9487 -1.3461 -3.0388
  137TMC2    H2 2137   4.385   0.303   9.752  2.2134  0.5360  2.5115
  137TMC2    C7 2138   4.235   0.211   9.960  0.2377  0.9148  0.2071
  137TMC2    C8 2139   4.511   0.197   9.572  0.0923  0.2821  0.3067
  137TMC2    O1 2140   4.230   0.333   9.935 -0.6488  0.9007  0.0753
  137TMC2    O2 2141   4.613   0.157   9.515  0.3032 -0.0269 -0.8397
  137TMC2    O5 2142   4.433   0.295   9.526  0.3273 -0.4016 -0.3007
  137TMC2    H5 2143   4.343   0.305   9.564  0.9709 -0.1131  1.1647
  138MPD2     C 2144   4.154   4.371   9.462 -0.1172  0.2971 -0.3954
  138MPD2    C1 2145   4.224   4.370   9.581 -0.8319  0.5888  0.3504
  138MPD2    C2 2146   4.248   4.254   9.648 -0.7366 -0.2758 -0.2065
  138MPD2    C3 2147   4.187   4.137   9.609  0.6803 -0.0016 -0.2690
  138MPD2    C4 2148   4.107   4.134   9.491 -0.2727 -0.1133  0.9870
  138MPD2    C5 2149   4.101   4.250   9.422 -0.0836  0.2834  0.4148
  138MPD2     H 2150   4.302   4.258   9.742  1.3505  0.3844 -1.4254
  138MPD2    H1 2151   4.056   4.046   9.453 -1.0264  1.8319 -2.4310
  138MPD2    H2 2152   4.143   4.459   9.401  0.6949  0.2267 -0.6354
  138MPD2    H3 2153   4.056   4.236   9.324 -1.5988 -0.8682  1.2843
  138MPD2     N 2154   4.215   4.019   9.682 -0.4575 -0.2981  0.4453
  138MPD2    H5 2155   4.265   4.042   9.767 -1.6068  0.0173  1.0264
  138MPD2    N1 2156   4.274   4.494   9.631  0.3076  0.1896 -0.1898
  138MPD2    H7 2157   4.248   4.571   9.570 -0.4086  0.5648  0.5751
  139TMC2    C1 2158   4.207   2.487  13.813  1.4420 -0.6575  0.4889
  139TMC2    C2 2159   4.169   2.501  13.688 -0.6191 -0.2257  0.6252
  139TMC2    C3 2160   4.049   2.547  13.663  0.2760 -0.1560  0.5520
  139TMC2    C4 2161   4.139   2.538  13.920  0.4634 -0.2468 -0.1269
  139TMC2    C5 2162   4.023   2.600  13.881 -0.7653  0.1852  0.1880
  139TMC2    C6 2163   3.972   2.606  13.749  0.2581 -0.1301  0.3358
  139TMC2     C 2164   4.343   2.439  13.833 -0.4806 -0.5919  0.1139
  139TMC2     O 2165   4.386   2.360  13.746 -0.0770 -0.4204  0.2360
  139TMC2     H 2166   4.221   2.457  13.604 -1.2597  2.2627 -1.0646
  139TMC2    H1 2167   4.167   2.524  14.024 -2.1501  0.8125  0.7156
  139TMC2    H2 2168   3.885   2.665  13.723 -0.0750 -1.5155 -1.7178
  139TMC2    C7 2169   3.968   2.695  13.982  0.3164  0.4333  0.6500
  139TMC2    C8 2170   3.988   2.513  13.536  1.2346  0.6777 -0.5115
  139TMC2    O1 2171   3.922   2.802  13.940  0.0662 -0.2936  0.4255
  139TMC2    O2 2172   4.043   2.485  13.427  0.1278  0.1150  0.8875
  139TMC2    O5 2173   3.860   2.484  13.577  0.1595 -0.1434 -0.7709
  139TMC2    H5 2174   3.855   2.488  13.674  0.5196  0.4225 -0.7765
  140MPD2     C 2175   4.560   2.469  14.134  0.0306 -0.6651 -0.2740
  140MPD2    C1 2176   4.525   2.435  14.004 -0.9479  0.2135  0.4151
  140MPD2    C2 2177   4.614   2.346  13.939 -0.3836  0.7460  0.2515
  140MPD2    C3 2178   0.003   2.307  13.993  0.0812 -0.1793  0.2091
  140MPD2    C4 2179   0.035   2.350  14.116 -0.0263 -0.8339  0.2032
  140MPD2    C5 2180   4.677   2.430  14.186 -0.1167  0.7808 -0.0264
  140MPD2     H 2181   4.596   2.309  13.839  0.6568  0.6784  0.0945
  140MPD2    H1 2182   0.131   2.329  14.163  0.9857 -0.2627 -1.6034
  140MPD2    H2 2183   4.492   2.529  14.195  1.2311  2.0409 -1.6268
  140MPD2    H3 2184   4.711   2.465  14.283 -0.0813 -0.4145  0.3983
  140MPD2     N 2185   0.082   2.214  13.921 -0.2517 -0.1223  0.4992
  140MPD2    H5 2186   0.051   2.188  13.828  0.7001  0.4915  0.0075
  140MPD2    N1 2187   4.400   2.477  13.953  0.0622 -0.0039  0.1196
  140MPD2    H7 2188   4.347   2.535  14.016 -0.4928 -0.9105  0.4853
  141TMC2    C1 2189   0.709   3.413  14.412 -0.4167  0.4672 -0.0969
  141TMC2    C2 2190   0.820   3.340  14.432  0.3416 -0.6643  0.4790
  141TMC2    C3 2191   0.930   3.405  14.482 -0.2675  0.0814 -0.3274
  141TMC2    C4 2192   0.708   3.549  14.441  0.2646  0.0046  0.0596
  141TMC2    C5 2193   0.818   3.613  14.478  0.4517 -0.2379  0.2824
  141TMC2    C6 2194   0.933   3.543  14.495  0.1196 -0.6100 -0.7836
  141TMC2     C 2195   0.606   3.354  14.327 -0.4484  1.0139 -0.2911
  141TMC2     O 2196   0.521   3.426  14.287  0.2663 -0.7828  0.0674
  141TMC2     H 2197   0.839   3.244  14.386  1.9066 -0.2695  0.3144
  141TMC2    H1 2198   0.613   3.600  14.432  0.1904 -0.1727 -0.1704
  141TMC2    H2 2199   1.021   3.587  14.540 -0.4248 -0.8284  0.5124
  141TMC2    C7 2200   0.809   3.761  14.453 -0.6356  0.4437 -0.2627
  141TMC2    C8 2201   1.060   3.334  14.475 -0.5585  0.2688 -0.3727
  141TMC2    O1 2202   0.692   3.801  14.453  1.1919  0.4342  0.0419
  141TMC2    O2 2203   1.159   3.400  14.463 -0.3731 -0.2383 -0.1264
  141TMC2    O5 2204   1.038   3.218  14.546  0.2715  0.6797 -0.1657
  141TMC2    H5 2205   0.946   3.191  14.564  0.9515 -0.8547  1.0720
  142TMC2    C1 2206   3.273   3.420   9.595 -0.5714  0.0525  0.1838
  142TMC2    C2 2207   3.374   3.489   9.529 -0.7152  0.4759  0.1919
  142TMC2    C3 2208   3.450   3.566   9.611  0.6928 -0.4645  0.1067
  142TMC2    C4 2209   3.254   3.434   9.730  0.1328  0.0797 -0.1758
  142TMC2    C5 2210   3.323   3.530   9.795 -0.1911 -0.0943 -1.0158
  142TMC2    C6 2211   3.423   3.590   9.739 -0.2994 -0.4742 -0.6026
  142TMC2     C 2212   3.237   3.292   9.538  0.2619 -0.1917 -0.2531
  142TMC2     O 2213   3.219   3.204   9.621  0.0919 -0.3140 -0.0683
  142TMC2     H 2214   3.407   3.476   9.426  0.1448 -0.5153  0.5898
  142TMC2    H1 2215   3.168   3.376   9.761  1.4180 -1.4795  0.4980
  142TMC2    H2 2216   3.474   3.674   9.786 -0.3725 -0.8260  0.1132
  142TMC2    C7 2217   3.299   3.548   9.934  1.1541  0.2285 -0.1958
  142TMC2    C8 2218   3.531   3.668   9.542 -0.1184  0.4516 -0.4215
  142TMC2    O1 2219   3.276   3.454  10.008  0.0468 -0.5600 -0.4349
  142TMC2    O2 2220   3.506   3.715   9.432 -0.6130  0.4040  0.6123
  142TMC2    O5 2221   3.651   3.673   9.603  0.1492 -0.4710 -0.2766
  142TMC2    H5 2222   3.654   3.620   9.686 -0.2785  0.8595  0.5854
  143MPD2     C 2223   3.032   3.004   9.166  0.4959 -0.8897 -0.1445
  143MPD2    C1 2224   3.059   2.973   9.301 -0.1808 -0.1149  0.0004
  143MPD2    C2 2225   3.121   3.070   9.383  0.1714  0.3652  0.0182
  143MPD2    C3 2226   3.150   3.199   9.327 -0.6768  1.0622 -0.4495
  143MPD2    C4 2227   3.129   3.220   9.196  0.4310  0.0625  0.7621
  143MPD2    C5 2228   3.075   3.126   9.115  0.2401  0.0701  0.0737
  143MPD2     H 2229   3.148   3.048   9.486  2.7816  0.1625 -0.7120
  143MPD2    H1 2230   3.153   3.320   9.162  2.6248 -1.4432 -2.1519
  143MPD2    H2 2231   2.977   2.935   9.104  0.7669 -1.6015  0.4121
  143MPD2    H3 2232   3.064   3.150   9.010  2.3360  0.0877 -0.1345
  143MPD2     N 2233   3.209   3.301   9.403  0.2671  0.4779 -0.3537
  143MPD2    H5 2234   3.229   3.389   9.357  1.1411  0.9887  1.0061
  143MPD2    N1 2235   3.019   2.847   9.352 -0.2204 -0.4447  0.4248
  143MPD2    H7 2236   2.960   2.795   9.288  1.0193 -1.7567  0.3649
  144TMC2    C1 2237   1.067   0.926   0.768 -0.7756  0.0527 -1.1886
  144TMC2    C2 2238   1.086   0.810   0.696 -0.3041  0.4821 -0.0652
  144TMC2    C3 2239   1.208   0.771   0.658 -0.0543  0.3357 -0.4530
  144TMC2    C4 2240   1.174   0.999   0.813 -0.1912 -0.0492 -0.2927
  144TMC2    C5 2241   1.299   0.953   0.780 -0.3394  0.3845 -0.2862
  144TMC2    C6 2242   1.320   0.833   0.714  0.2725 -0.4233  0.6850
  144TMC2     C 2243   0.945   0.997   0.744  0.1475 -0.4895  0.0897
  144TMC2     O 2244   0.870   0.951   0.659  0.3700  0.2078  0.0546
  144TMC2     H 2245   0.999   0.757   0.658  0.6299 -0.1045 -1.3803
  144TMC2    H1 2246   1.161   1.086   0.877 -1.1651  0.6682 -1.4616
  144TMC2    H2 2247   1.419   0.802   0.681 -0.5138  0.6287 -2.6179
  144TMC2    C7 2248   1.422   1.023   0.827 -0.3659 -0.2241  0.2420
  144TMC2    C8 2249   1.239   0.648   0.599 -0.5151 -0.7515  0.5112
  144TMC2    O1 2250   1.526   0.963   0.803 -0.0351 -0.7160 -0.2241
  144TMC2    O2 2251   1.338   0.624   0.533  0.0732  0.3820  0.0331
  144TMC2    O5 2252   1.177   0.558   0.669 -0.2081  0.2536  0.2880
  144TMC2    H5 2253   1.132   0.597   0.747  0.1567 -0.7928  1.0278
  145MPD2     C 2254   0.627   1.389   0.776  0.3050 -0.1864  0.1067
  145MPD2    C1 2255   0.633   1.289   0.681  0.4405  0.0275 -0.0156
  145MPD2    C2 2256   0.739   1.206   0.674  0.1733  0.2097  0.7147
  145MPD2    C3 2257   0.834   1.215   0.775 -0.1852  0.2656 -0.3043
  145MPD2    C4 2258   0.827   1.319   0.868 -0.3134 -0.8174 -0.4274
  145MPD2    C5 2259   0.722   1.406   0.864 -0.3438  0.1900 -0.6571
  145MPD2     H 2260   0.744   1.127   0.601 -0.3970  1.3447 -0.5506
  145MPD2    H1 2261   0.896   1.324   0.951  0.0712 -1.5640 -0.7012
  145MPD2    H2 2262   0.543   1.458   0.786  0.9473  0.7965 -1.3383
  145MPD2    H3 2263   0.722   1.487   0.936 -0.1542  0.6667 -1.1898
  145MPD2     N 2264   0.945   1.131   0.796  0.2298  0.4601  0.9275
  145MPD2    H5 2265   1.016   1.161   0.861  1.2045  0.2413 -0.0317
  145MPD2    N1 2266   0.535   1.261   0.588  0.0643  0.1328  0.2225
  145MPD2    H7 2267   0.537   1.175   0.534  0.3059  1.1160 -1.3328
  146TMC2    C1 2268   2.161   4.708  12.441 -0.1174 -0.7234 -0.1374
  146TMC2    C2 2269   2.057   0.004  12.365 -0.6808 -0.4183 -0.4435
  146TMC2    C3 2270   2.062   4.687  12.237  0.6187 -0.1447  0.6677
  146TMC2    C4 2271   2.260   4.623  12.397 -0.6167 -0.3640  0.3368
  146TMC2    C5 2272   2.249   4.565  12.273  0.2401  0.0047  0.2597
  146TMC2    C6 2273   2.146   4.595  12.190 -0.2218  0.2936 -0.1785
  146TMC2     C 2274   2.175   0.051  12.560  0.5641 -0.0133  0.3983
  146TMC2     O 2275   2.094   0.139  12.569  0.1291  0.0653 -0.2066
  146TMC2     H 2276   1.978   0.072  12.396 -0.4380 -0.1704 -0.3641
  146TMC2    H1 2277   2.356   4.616  12.447 -0.2282 -2.7935 -0.7394
  146TMC2    H2 2278   2.128   4.546  12.095 -0.3111 -1.4238  0.7165
  146TMC2    C7 2279   2.361   4.493  12.220  0.2810 -0.7556 -0.2647
  146TMC2    C8 2280   1.939   4.714  12.166 -0.5619  0.0094  0.2928
  146TMC2    O1 2281   2.371   4.489  12.098 -0.4668  0.1750 -0.2122
  146TMC2    O2 2282   1.844   0.030  12.226 -0.1788 -0.1308  0.1310
  146TMC2    O5 2283   1.992   0.038  12.054  0.2379  0.2479 -0.0979
  146TMC2    H5 2284   2.089   0.046  12.056  0.2390  0.0066  0.9417
  147MPD2     C 2285   2.829   4.265  12.249  0.1919  0.7410  0.3457
  147MPD2    C1 2286   2.764   4.243  12.367  0.1676  0.0682 -0.9911
  147MPD2    C2 2287   2.632   4.292  12.378  0.0559  0.2770 -0.0740
  147MPD2    C3 2288   2.562   4.360  12.275 -0.3374 -0.3273 -0.0714
  147MPD2    C4 2289   2.623   4.361  12.156 -0.2365  0.3780  1.1784
  147MPD2    C5 2290   2.754   4.316  12.148  0.5056  0.2592  0.0044
  147MPD2     H 2291   2.575   4.279  12.469 -1.3996 -0.0501 -1.0427
  147MPD2    H1 2292   2.593   4.417  12.068  0.7990  1.1633  1.3249
  147MPD2    H2 2293   2.926   4.224  12.224 -0.0773 -0.3489  1.0853
  147MPD2    H3 2294   2.798   4.303  12.050 -0.2028  0.9129 -0.4008
  147MPD2     N 2295   2.444   4.426  12.309  0.1933 -0.8226  0.0247
  147MPD2    H5 2296   2.416   4.423  12.406  0.2984 -1.0147  0.0485
  147MPD2    N1 2297   2.833   4.183  12.472 -0.3092 -0.4280 -0.3217
  147MPD2    H7 2298   2.933   4.168  12.465 -0.3894 -0.8074 -0.6753
  148TMC2    C1 2299   2.454   3.677  10.926 -0.1807  0.8388 -0.3854
  148TMC2    C2 2300   2.508   3.679  11.049  0.1565  0.6129 -0.0929
  148TMC2    C3 2301   2.552   3.565  11.098 -0.6005  0.4776 -0.0493
  148TMC2    C4 2302   2.448   3.561  10.854 -0.2649 -0.3278 -0.3089
  148TMC2    C5 2303   2.490   3.443  10.911 -0.5064 -0.0625  0.0606
  148TMC2    C6 2304   2.543   3.449  11.037 -0.5050 -0.7854 -1.2069
  148TMC2     C 2305   2.412   3.806  10.867 -0.2360  0.1732 -0.8078
  148TMC2     O 2306   2.457   3.907  10.923  0.2953 -0.4721 -0.0239
  148TMC2     H 2307   2.503   3.773  11.103  1.1510  1.0950 -0.8526
  148TMC2    H1 2308   2.415   3.559  10.751  3.4413 -1.8594 -1.4767
  148TMC2    H2 2309   2.576   3.364  11.095  0.1749  0.5105  0.3166
  148TMC2    C7 2310   2.475   3.317  10.840 -0.0500  0.1979  0.5776
  148TMC2    C8 2311   2.577   3.558  11.235  0.1102  0.7799 -0.5737
  148TMC2    O1 2312   2.459   3.333  10.720 -0.3584 -0.0752  0.2878
  148TMC2    O2 2313   2.550   3.458  11.296  1.0661 -0.0444  0.2985
  148TMC2    O5 2314   2.697   3.621  11.246  0.5145 -0.1210  0.0379
  148TMC2    H5 2315   2.710   3.700  11.190  1.3604 -1.3717 -1.5218
  149MPD2     C 2316   2.341   4.011  10.665  0.0731 -0.5055  0.7621
  149MPD2    C1 2317   2.285   3.886  10.672 -0.2736 -0.5150  0.0003
  149MPD2    C2 2318   2.178   3.854  10.585  0.8471  0.7407  0.8751
  149MPD2    C3 2319   2.131   3.939  10.489 -0.3473 -0.1197  0.0441
  149MPD2    C4 2320   2.198   4.061  10.477 -0.4145 -0.3123  0.0785
  149MPD2    C5 2321   2.291   4.101  10.569  0.3937 -0.8361  0.2601
  149MPD2     H 2322   2.125   3.761  10.599 -0.0502  1.0698 -0.3391
  149MPD2    H1 2323   2.174   4.121  10.390  0.2089 -1.1349 -0.6502
  149MPD2    H2 2324   2.428   4.038  10.723 -1.8373  2.8218  2.0851
  149MPD2    H3 2325   2.339   4.198  10.565  0.5035 -0.8659  0.8249
  149MPD2     N 2326   2.026   3.903  10.397  0.7447  0.7327  0.1352
  149MPD2    H5 2327   1.980   3.967  10.333 -0.4050  0.4253  0.6506
  149MPD2    N1 2328   2.320   3.790  10.769  0.0206 -0.0743  0.0771
  149MPD2    H7 2329   2.274   3.702  10.747 -0.3735 -0.6622  3.3447
  150TMC2    C1 2330   4.573   2.831  12.116  0.6117  0.6667  0.5393
  150TMC2    C2 2331   4.533   2.854  11.985  0.0937 -0.7502  0.4722
  150TMC2    C3 2332   4.631   2.900  11.896  0.9161  0.4870 -0.1305
  150TMC2    C4 2333   4.703   2.837  12.155 -0.4913 -0.0885 -0.4529
  150TMC2    C5 2334   0.061   2.879  12.059 -0.4142  0.1109 -0.3750
  150TMC2    C6 2335   0.026   2.915  11.935 -0.7368 -0.2465  0.5558
  150TMC2     C 2336   4.473   2.802  12.219 -0.5591 -0.1558 -0.0033
  150TMC2     O 2337   4.510   2.771  12.330  0.0564  0.1894  0.1359
  150TMC2     H 2338   4.432   2.835  11.949  0.3037 -1.0138  0.0258
  150TMC2    H1 2339   0.003   2.830  12.258 -0.4983 -0.0570 -0.4486
  150TMC2    H2 2340   0.103   2.946  11.865 -0.6446  0.1114  0.8184
  150TMC2    C7 2341   0.200   2.900  12.099  0.4890  0.0049 -0.3765
  150TMC2    C8 2342   4.586   2.945  11.763 -0.3833 -0.2046  0.9257
  150TMC2    O1 2343   0.262   2.987  12.041 -0.3686  0.5307 -0.0116
  150TMC2    O2 2344   4.502   3.032  11.733 -0.1360  0.0989 -0.2885
  150TMC2    O5 2345   4.598   2.831  11.691  0.0415  0.1964 -0.1963
  150TMC2    H5 2346   4.637   2.753  11.736 -2.4637 -0.6637  0.4800
  151MPD2     C 2347   3.989   2.820  12.404 -0.6617  0.1392 -0.2747
  151MPD2    C1 2348   3.989   2.871  12.270 -0.0687  0.1559  0.5130
  151MPD2    C2 2349   4.113   2.888  12.211  0.0725  0.3701  0.5713
  151MPD2    C3 2350   4.232   2.847  12.267 -0.4015  0.4390  0.2568
  151MPD2    C4 2351   4.232   2.794  12.391  0.4291  0.7009  0.0170
  151MPD2    C5 2352   4.108   2.787  12.459 -0.3687 -0.3986  0.0000
  151MPD2     H 2353   4.112   2.924  12.108 -1.0122  1.8277  1.0862
  151MPD2    H1 2354   4.323   2.772  12.446  0.6231  0.9934 -0.1891
  151MPD2    H2 2355   3.894   2.801  12.453 -1.2368  2.8680 -0.3213
  151MPD2    H3 2356   4.097   2.744  12.558 -0.7838  3.7874  1.7572
  151MPD2     N 2357   4.348   2.854  12.185  0.1981 -0.1643  0.7418
  151MPD2    H5 2358   4.336   2.905  12.098  0.2954 -0.2284  0.6892
  151MPD2    N1 2359   3.868   2.898  12.197  0.5442  0.3793 -0.3352
  151MPD2    H7 2360   3.783   2.882  12.250  0.6991  0.5237 -0.0432
  152TMC2    C1 2361   4.118   2.315  12.710 -0.3695 -0.0613  0.2167
  152TMC2    C2 2362   4.190   2.222  12.655 -0.5215 -0.3460  0.4553
  152TMC2    C3 2363   4.324   2.253  12.637 -0.4693  0.8966  0.1588
  152TMC2    C4 2364   4.166   2.435  12.746  0.6732  0.2047 -0.7000
  152TMC2    C5 2365   4.294   2.467  12.724 -0.9431  0.1384 -0.8526
  152TMC2    C6 2366   4.380   2.373  12.668 -0.4606 -0.6237  0.0898
  152TMC2     C 2367   3.974   2.297  12.736 -0.3166 -0.2040 -0.7518
  152TMC2     O 2368   3.904   2.395  12.717  0.8322 -0.2927  0.0373
  152TMC2     H 2369   4.149   2.138  12.601  1.9661 -1.1254 -0.2509
  152TMC2    H1 2370   4.106   2.512  12.792 -0.6512 -1.2219 -0.0342
  152TMC2    H2 2371   4.476   2.407  12.630 -1.7638  1.5437 -1.1916
  152TMC2    C7 2372   4.341   2.603  12.763  0.8993 -0.1380 -0.2837
  152TMC2    C8 2373   4.422   2.152  12.595 -0.3044 -0.3135 -0.1676
  152TMC2    O1 2374   4.266   2.692  12.787  0.3966  0.2158 -0.1375
  152TMC2    O2 2375   4.515   2.174  12.518 -0.3444  0.0514  0.1377
  152TMC2    O5 2376   4.394   2.036  12.654  0.0167  0.4499  0.0510
  152TMC2    H5 2377   4.313   2.036  12.709  0.1326  1.5064  0.2221
  153MPD2     C 2378   3.788   1.973  12.790  0.1083 -0.4757 -0.0947
  153MPD2    C1 2379   3.814   2.110  12.795  0.2933  0.3556 -0.3064
  153MPD2    C2 2380   3.710   2.192  12.826  0.1716  0.3072 -0.5961
  153MPD2    C3 2381   3.582   2.137  12.844  0.2248 -0.0724  0.1305
  153MPD2    C4 2382   3.558   2.006  12.838  0.1951  0.0247 -0.5747
  153MPD2    C5 2383   3.664   1.923  12.813 -0.1872 -0.4624  0.3297
  153MPD2     H 2384   3.729   2.298  12.842  1.2749 -0.0550  0.5111
  153MPD2    H1 2385   3.464   1.956  12.856  0.9564 -0.9822  0.6495
  153MPD2    H2 2386   3.868   1.910  12.754  0.3652 -0.7785  0.9906
  153MPD2    H3 2387   3.651   1.816  12.801 -2.9504  0.0403 -1.0731
  153MPD2     N 2388   3.480   2.229  12.887 -0.2689 -0.1137  0.3065
  153MPD2    H5 2389   3.510   2.323  12.909  0.5496 -0.0927 -0.9356
  153MPD2    N1 2390   3.945   2.162  12.771 -0.0500 -0.5761  0.0665
  153MPD2    H7 2391   4.022   2.096  12.768  0.6105  0.1385  1.1730
  154TMC2    C1 2392   1.125   2.240   0.506 -0.4169  0.4238 -0.0337
  154TMC2    C2 2393   1.158   2.342   0.589  0.3465  0.6188 -0.2909
  154TMC2    C3 2394   1.283   2.347   0.628  0.1983  0.4832 -0.0579
  154TMC2    C4 2395   1.221   2.151   0.457 -0.0289  0.2924  0.0329
  154TMC2    C5 2396   1.352   2.174   0.497  0.2882  0.2982 -0.5442
  154TMC2    C6 2397   1.389   2.273   0.585  0.7319  0.6295 -0.3035
  154TMC2     C 2398   0.993   2.234   0.445  0.3978  0.9215 -0.0631
  154TMC2     O 2399   0.929   2.339   0.440  0.0188  0.2992  0.6180
  154TMC2     H 2400   1.083   2.415   0.618  0.0945  0.5435 -0.7566
  154TMC2    H1 2401   1.202   2.081   0.376 -1.0140 -1.0860  1.4391
  154TMC2    H2 2402   1.490   2.300   0.615  0.2941  2.3196 -0.3683
  154TMC2    C7 2403   1.454   2.099   0.437  0.6737  0.2323 -0.2862
  154TMC2    C8 2404   1.318   2.469   0.703 -0.2932  0.5035  0.0118
  154TMC2    O1 2405   1.420   1.996   0.381 -0.0863  0.6971 -0.3926
  154TMC2    O2 2406   1.260   2.579   0.680  0.2997  0.9478  0.5589
  154TMC2    O5 2407   1.380   2.429   0.815 -0.3875 -0.4677 -0.4728
  154TMC2    H5 2408   1.425   2.342   0.810 -0.1323 -0.4148  0.8179
  155MPD2     C 2409   0.805   1.952   0.283 -0.0570  0.3795 -0.1977
  155MPD2    C1 2410   0.828   2.078   0.341 -0.3658 -0.3665  0.1243
  155MPD2    C2 2411   0.718   2.154   0.362 -0.5696  0.2710 -0.1407
  155MPD2    C3 2412   0.586   2.115   0.334 -0.5900  0.3261  0.1456
  155MPD2    C4 2413   0.564   1.994   0.277  0.4498 -0.0134 -0.9896
  155MPD2    C5 2414   0.679   1.912   0.251 -0.2129 -0.0860 -0.7512
  155MPD2     H 2415   0.727   2.249   0.414 -0.6449 -0.7826  1.7894
  155MPD2    H1 2416   0.465   1.954   0.256 -0.7017  1.0861  2.4016
  155MPD2    H2 2417   0.881   1.877   0.266 -0.3720 -0.1971  0.9502
  155MPD2    H3 2418   0.676   1.811   0.214  0.2001 -0.4881  0.3038
  155MPD2     N 2419   0.478   2.200   0.362 -0.0092 -0.0732 -0.0605
  155MPD2    H5 2420   0.503   2.294   0.391  0.4669 -0.5346  1.0477
  155MPD2    N1 2421   0.963   2.115   0.379 -0.1450  0.2347 -0.2255
  155MPD2    H7 2422   1.031   2.039   0.379 -0.1306  0.2555 -1.9784
  156TMC2    C1 2423   0.119   0.431  11.322  0.6336  0.2510 -0.3577
  156TMC2    C2 2424   0.240   0.396  11.263 -0.6674  0.4222  0.4559
  156TMC2    C3 2425   0.274   0.463  11.148  0.3238  0.0158 -0.0083
  156TMC2    C4 2426   0.046   0.532  11.271  0.1454  0.3790 -0.2351
  156TMC2    C5 2427   0.079   0.584  11.152  0.4152  0.1097 -0.5312
  156TMC2    C6 2428   0.191   0.556  11.090 -0.7965  0.6236  0.0537
  156TMC2     C 2429   0.110   0.420  11.466  0.6335  0.6569  0.0117
  156TMC2     O 2430   0.031   0.494  11.524  0.2038  0.5691  0.1297
  156TMC2     H 2431   0.312   0.332  11.313 -0.2540  0.2676 -0.3310
  156TMC2    H1 2432   4.704   0.577  11.336  0.3337  1.3430 -0.6822
  156TMC2    H2 2433   0.202   0.583  10.986  0.2400  1.7584  0.4596
  156TMC2    C7 2434   4.727   0.687  11.098 -0.0161 -0.5934 -0.2118
  156TMC2    C8 2435   0.373   0.398  11.063 -0.2133 -0.1466 -0.1029
  156TMC2    O1 2436   0.024   0.737  10.990 -0.3225  0.2111 -0.4900
  156TMC2    O2 2437   0.404   0.279  11.080 -0.2568  0.1493  0.1868
  156TMC2    O5 2438   0.442   0.496  11.005 -0.5044  0.4083  0.3295
  156TMC2    H5 2439   0.423   0.584  11.043  0.2565  0.3841  0.7664
  157MPD2     C 2440   0.266   0.166  11.692  0.5594 -0.1107 -0.3632
  157MPD2    C1 2441   0.199   0.283  11.655  0.2864  0.6024 -0.7958
  157MPD2    C2 2442   0.154   0.365  11.752  0.6878  0.1566  0.0981
  157MPD2    C3 2443   0.147   0.327  11.880 -0.2862  0.2843  0.3203
  157MPD2    C4 2444   0.189   0.200  11.915  0.0153  0.2772 -0.3157
  157MPD2    C5 2445   0.247   0.128  11.821  0.5218  0.2237 -1.0221
  157MPD2     H 2446   0.112   0.464  11.737 -1.3011 -0.9662 -1.8261
  157MPD2    H1 2447   0.185   0.159  12.015  0.3685  1.1742  0.0670
  157MPD2    H2 2448   0.305   0.093  11.622  0.8952  0.8457 -1.1780
  157MPD2    H3 2449   0.269   0.027  11.852 -2.3697 -0.2032 -0.3923
  157MPD2     N 2450   0.083   0.414  11.969  0.0065 -0.5386 -0.0929
  157MPD2    H5 2451   0.048   0.504  11.940 -3.2071 -2.0275 -0.8353
  157MPD2    N1 2452   0.190   0.321  11.525 -0.3716  0.0236  0.2634
  157MPD2    H7 2453   0.248   0.272  11.457 -0.2534 -0.4114  0.6869
  158TMC2    C1 2454   4.318   3.303  13.223  0.2715  0.6796  0.1227
  158TMC2    C2 2455   4.344   3.347  13.102  0.0873  0.4800 -0.5021
  158TMC2    C3 2456   4.275   3.460  13.061 -0.5338  1.1597  0.1352
  158TMC2    C4 2457   4.240   3.362  13.308 -0.1365  0.3891 -0.5046
  158TMC2    C5 2458   4.183   3.480  13.278  0.1137 -0.1471 -0.7380
  158TMC2    C6 2459   4.198   3.531  13.149 -0.5011  0.0775 -0.7857
  158TMC2     C 2460   4.386   3.176  13.261 -0.9627 -0.4171 -0.1845
  158TMC2     O 2461   4.380   3.088  13.177  0.1489 -0.8390  0.4441
  158TMC2     H 2462   4.403   3.289  13.032  2.2977  2.6832 -0.4788
  158TMC2    H1 2463   4.222   3.308  13.400  1.4079  2.1567  0.8304
  158TMC2    H2 2464   4.144   3.619  13.118 -2.6236 -0.6604  0.8119
  158TMC2    C7 2465   4.090   3.535  13.366  0.8560  0.8207  0.1882
  158TMC2    C8 2466   4.291   3.506  12.924 -0.1744  0.2645  0.1662
  158TMC2    O1 2467   4.015   3.621  13.316  0.3324  0.4589  0.0439
  158TMC2    O2 2468   4.392   3.476  12.870  0.4398 -0.3081  0.6527
  158TMC2    O5 2469   4.199   3.598  12.878  0.2165  0.8858  0.2398
  158TMC2    H5 2470   4.116   3.593  12.930 -0.9850  0.8165 -1.7289
  159MPD2     C 2471   4.726   2.935  13.550  0.2840 -0.4755 -0.1902
  159MPD2    C1 2472   4.691   3.048  13.625  0.2822  0.2916 -0.3531
  159MPD2    C2 2473   4.593   3.126  13.570  0.8288  0.1422 -0.4195
  159MPD2    C3 2474   4.524   3.096  13.451  0.0658 -0.0858  0.1757
  159MPD2    C4 2475   4.561   2.980  13.386 -0.1935  0.3270  0.5855
  159MPD2    C5 2476   4.670   2.905  13.425 -0.0470 -0.9471  0.1958
  159MPD2     H 2477   4.560   3.220  13.613  2.0863  0.0310  0.8175
  159MPD2    H1 2478   4.519   2.948  13.291  2.4605 -3.4205  0.6491
  159MPD2    H2 2479   0.060   2.865  13.598  1.9902  1.1088 -0.2809
  159MPD2    H3 2480   4.707   2.826  13.361  0.2152 -0.6347 -0.0426
  159MPD2     N 2481   4.446   3.194  13.388 -0.1230  0.3074 -0.2105
  159MPD2    H5 2482   4.443   3.282  13.438 -0.0132  1.2858 -1.9254
  159MPD2    N1 2483   0.007   3.066  13.756 -0.4126  0.9522 -0.4343
  159MPD2    H7 2484   0.080   3.002  13.784 -0.3622  0.7290 -1.0624
  160TMC2    C1 2485   4.378   1.949   1.396 -0.3974 -0.0548 -0.0488
  160TMC2    C2 2486   4.270   1.875   1.408 -0.2252 -0.4223 -0.6877
  160TMC2    C3 2487   4.288   1.743   1.389 -0.7737  0.0569  0.1844
  160TMC2    C4 2488   4.505   1.898   1.363  0.1033  0.5992  0.8937
  160TMC2    C5 2489   4.516   1.765   1.342 -0.6116 -0.3273  0.1086
  160TMC2    C6 2490   4.408   1.683   1.355 -0.2830 -0.5972 -0.6253
  160TMC2     C 2491   4.366   2.091   1.403 -0.2207  0.1661 -0.2997
  160TMC2     O 2492   4.474   2.148   1.433  0.0149  0.3879  0.6131
  160TMC2     H 2493   4.178   1.921   1.442 -0.6095 -0.3061 -1.8636
  160TMC2    H1 2494   4.589   1.964   1.343 -2.0345  3.0522  0.1027
  160TMC2    H2 2495   4.421   1.576   1.339 -2.8957 -1.1234  0.6298
  160TMC2    C7 2496   4.628   1.708   1.277  0.4458  0.4163  0.1651
  160TMC2    C8 2497   4.169   1.669   1.350 -0.7254 -0.4615 -0.1064
  160TMC2    O1 2498   4.633   1.586   1.272 -0.3931 -0.0184 -0.1635
  160TMC2    O2 2499   4.061   1.723   1.335  0.0255 -0.5922 -0.1426
  160TMC2    O5 2500   4.183   1.538   1.397  0.2188 -0.1304  0.2368
  160TMC2    H5 2501   4.265   1.513   1.444  1.5018  2.0959 -0.8800
  161MPD2     C 2502   4.280   2.368   1.403 -0.5597  0.5424  0.3395
  161MPD2    C1 2503   4.198   2.268   1.361 -0.1454 -0.2186  0.7917
  161MPD2    C2 2504   4.075   2.307   1.321  0.3715  0.1458  0.7594
  161MPD2    C3 2505   4.039   2.439   1.316 -0.4646 -0.0489 -0.2873
  161MPD2    C4 2506   4.130   2.534   1.354  0.4022  1.0329  0.3169
  161MPD2    C5 2507   4.252   2.498   1.397  0.3258  0.6604  0.5286
  161MPD2     H 2508   4.015   2.223   1.287 -1.6364  1.2034  1.7447
  161MPD2    H1 2509   4.107   2.639   1.338 -1.4421  0.6005  0.1189
  161MPD2    H2 2510   4.385   2.350   1.424 -0.2493  0.6858 -1.1340
  161MPD2    H3 2511   4.327   2.573   1.416 -1.2296  2.1000  0.9804
  161MPD2     N 2512   3.907   2.482   1.279  0.4373  0.3286  0.4787
  161MPD2    H5 2513   3.882   2.576   1.306  0.5812  0.8785 -1.3302
  161MPD2    N1 2514   4.245   2.138   1.351  0.4142  0.2516 -0.0262
  161MPD2    H7 2515   4.181   2.075   1.303  1.2948  0.8354 -1.9747
  162TMC2    C1 2516   2.042   4.072   1.051 -0.2707 -0.6779 -0.6397
  162TMC2    C2 2517   1.960   4.180   1.052 -0.1890  1.0054  0.2915
  162TMC2    C3 2518   1.882   4.205   1.163  0.3652  0.4253 -0.1469
  162TMC2    C4 2519   2.046   3.982   1.154 -0.1289 -1.1173  0.3048
  162TMC2    C5 2520   1.960   4.007   1.257 -0.6566 -0.0151 -0.0072
  162TMC2    C6 2521   1.870   4.114   1.264 -0.4028 -0.3353 -0.5948
  162TMC2     C 2522   2.094   4.016   0.928  0.5774 -0.3400 -0.1058
  162TMC2     O 2523   2.167   3.916   0.918  0.1592 -0.1849  0.8340
  162TMC2     H 2524   1.962   4.261   0.980 -0.1115  0.8417  0.1097
  162TMC2    H1 2525   2.099   3.888   1.142 -0.0431 -0.7543 -2.3446
  162TMC2    H2 2526   1.788   4.115   1.335  0.3716  1.3508  0.2564
  162TMC2    C7 2527   1.962   3.927   1.373 -1.0371  0.4681 -0.4877
  162TMC2    C8 2528   1.777   4.301   1.162 -0.2020 -0.0003  0.2050
  162TMC2    O1 2529   1.873   3.951   1.453 -0.5208  0.0003 -0.0244
  162TMC2    O2 2530   1.733   4.366   1.066  0.1657 -0.2142  0.5319
  162TMC2    O5 2531   1.752   4.330   1.296 -0.1911  0.2868  0.1252
  162TMC2    H5 2532   1.818   4.287   1.355 -0.4356  1.0746  0.9920
  163MPD2     C 2533   2.105   4.039   0.411 -0.9485  0.5033 -0.6431
  163MPD2    C1 2534   2.155   3.939   0.491 -0.0539  0.2975  0.0511
  163MPD2    C2 2535   2.159   3.968   0.629 -0.8530  0.3298 -0.0293
  163MPD2    C3 2536   2.077   4.071   0.680  0.4371  0.1450  0.5986
  163MPD2    C4 2537   2.014   4.159   0.589 -0.1984 -0.0346 -0.0035
  163MPD2    C5 2538   2.034   4.147   0.457 -0.0243  0.9417 -0.0453
  163MPD2     H 2539   2.193   3.896   0.702 -0.0884  1.8687  1.1353
  163MPD2    H1 2540   1.948   4.238   0.625 -0.5992 -1.1366  1.6775
  163MPD2    H2 2541   2.106   4.026   0.303  0.6300 -1.9669 -0.3147
  163MPD2    H3 2542   1.993   4.216   0.385 -2.6270  0.0646  0.5738
  163MPD2     N 2543   2.054   4.095   0.820 -0.2344  0.9933 -0.7389
  163MPD2    H5 2544   1.989   4.169   0.840 -3.2307 -1.3223 -1.8634
  163MPD2    N1 2545   2.222   3.835   0.424  0.8329  0.5947  0.1636
  163MPD2    H7 2546   2.248   3.839   0.326  0.3090  2.5119  0.1082
  164TMC2    C1 2547   2.855   3.253  11.394 -0.2624  0.5257  0.1806
  164TMC2    C2 2548   2.988   3.272  11.408  0.0392  0.2445  0.3243
  164TMC2    C3 2549   3.023   3.381  11.488 -0.1678  0.7100  0.1351
  164TMC2    C4 2550   2.766   3.335  11.457  0.2470 -0.3190 -0.2440
  164TMC2    C5 2551   2.813   3.437  11.540  0.0661 -0.2630  0.5955
  164TMC2    C6 2552   2.939   3.451  11.569  0.2359 -0.2563  0.4910
  164TMC2     C 2553   2.805   3.120  11.352 -0.0990 -0.2150 -0.1704
  164TMC2     O 2554   2.688   3.092  11.384 -0.0275 -0.4577 -0.2031
  164TMC2     H 2555   3.068   3.218  11.358  0.1465  0.3843  0.3438
  164TMC2    H1 2556   2.667   3.292  11.470  0.2210  0.2761  1.5077
  164TMC2    H2 2557   2.965   3.533  11.634  0.4565  0.7170 -0.8250
  164TMC2    C7 2558   2.722   3.499  11.628 -0.4483 -0.5465  1.1679
  164TMC2    C8 2559   3.161   3.419  11.507  0.2409  0.2298  0.5364
  164TMC2    O1 2560   2.752   3.510  11.750  0.3560  0.1271 -0.0677
  164TMC2    O2 2561   3.209   3.448  11.618 -1.1546  0.0763  0.2931
  164TMC2    O5 2562   3.220   3.387  11.395 -0.3645  0.0677  0.3990
  164TMC2    H5 2563   3.166   3.374  11.314  0.8069  2.6445 -0.7575
  165TMC2    C1 2564   4.671   1.734   1.757 -0.2476  0.1744 -0.0390
  165TMC2    C2 2565   0.015   1.845   1.729  0.0364  0.1853 -1.3745
  165TMC2    C3 2566   0.131   1.823   1.666 -0.1293  0.0339 -0.5158
  165TMC2    C4 2567   4.716   1.610   1.739  0.0429 -0.6046 -0.0400
  165TMC2    C5 2568   0.102   1.593   1.677 -0.0179 -0.3014  0.0930
  165TMC2    C6 2569   0.176   1.698   1.631  0.8329 -0.2570 -0.4226
  165TMC2     C 2570   4.525   1.749   1.760  0.5999 -0.2294 -0.3176
  165TMC2     O 2571   4.469   1.649   1.724  0.5002 -0.1902 -0.4722
  165TMC2     H 2572   4.703   1.943   1.735 -1.4364 -0.5524 -0.1979
  165TMC2    H1 2573   4.644   1.530   1.755 -0.9926  0.1934 -0.6900
  165TMC2    H2 2574   0.262   1.686   1.565 -0.1409  0.1322 -1.7666
  165TMC2    C7 2575   0.123   1.465   1.611  0.4023 -0.2625  1.2682
  165TMC2    C8 2576   0.176   1.932   1.583 -0.0149 -0.7852 -0.3921
  165TMC2    O1 2577   0.196   1.470   1.513  0.5803 -0.1477 -0.6089
  165TMC2    O2 2578   0.102   2.010   1.524 -0.9377 -0.8909 -0.5892
  165TMC2    O5 2579   0.294   1.904   1.538 -0.2672 -0.2235  0.1856
  165TMC2    H5 2580   0.357   1.873   1.606 -1.1118  1.7886  1.8851
  166MPD2     C 2581   4.081   2.010   1.706 -0.3946  0.2133 -0.4758
  166MPD2    C1 2582   4.114   1.875   1.712 -0.3236 -0.2962 -0.0345
  166MPD2    C2 2583   4.241   1.831   1.721 -0.0755 -0.2533 -0.1792
  166MPD2    C3 2584   4.341   1.921   1.744  0.0693  0.5279 -0.0879
  166MPD2    C4 2585   4.310   2.058   1.741  0.9932  0.4589  0.6640
  166MPD2    C5 2586   4.179   2.103   1.721 -0.1302 -0.1696 -0.3499
  166MPD2     H 2587   4.263   1.724   1.724 -0.9667 -0.3728  2.1511
  166MPD2    H1 2588   4.392   2.125   1.762  1.3944 -0.0096  0.5982
  166MPD2    H2 2589   3.976   2.040   1.708  0.1702  2.1655 -0.0638
  166MPD2    H3 2590   4.155   2.208   1.708  0.2603 -0.0009  0.3060
  166MPD2     N 2591   4.482   1.881   1.751 -0.0918  0.2849  0.0032
  166MPD2    H5 2592   4.555   1.951   1.761  0.6568 -0.6219  1.0012
  166MPD2    N1 2593   4.002   1.784   1.720 -0.3442 -0.5316 -0.5079
  166MPD2    H7 2594   3.911   1.830   1.712  0.1743  0.3954 -1.0804
  167TMC2    C1 2595   2.469   2.983  13.174  0.2803 -0.6395  0.9459
  167TMC2    C2 2596   2.416   2.982  13.299  0.0500  0.0998  0.0856
  167TMC2    C3 2597   2.391   2.864  13.350  0.1808  0.5883 -0.7769
  167TMC2    C4 2598   2.501   2.866  13.103  0.4380 -0.3573 -0.6865
  167TMC2    C5 2599   2.466   2.748  13.161  0.5720  0.5369 -0.4622
  167TMC2    C6 2600   2.410   2.744  13.286 -0.4117  0.0963  0.5992
  167TMC2     C 2601   2.510   3.107  13.115  0.4140 -0.0497 -0.8191
  167TMC2     O 2602   2.538   3.197  13.193  0.2925 -0.5094  0.0315
  167TMC2     H 2603   2.412   3.067  13.366  0.1283  0.1528  0.0224
  167TMC2    H1 2604   2.551   2.872  13.007 -0.1114  2.3110 -0.8001
  167TMC2    H2 2605   2.378   2.649  13.329 -1.4963 -1.0774 -2.8265
  167TMC2    C7 2606   2.492   2.621  13.090  0.1168  0.2936 -0.0592
  167TMC2    C8 2607   2.315   2.863  13.472 -0.0964  0.1537  0.0341
  167TMC2    O1 2608   2.448   2.527  13.152 -0.4737  0.1415  0.4881
  167TMC2    O2 2609   2.311   2.766  13.545 -0.0899 -0.0308 -0.1432
  167TMC2    O5 2610   2.218   2.960  13.462  0.6362 -0.2666 -0.0083
  167TMC2    H5 2611   2.233   3.026  13.391 -1.2099 -0.3979 -0.5261
  168MPD2     C 2612   2.609   3.319  12.927 -0.6499 -0.7755 -0.3889
  168MPD2    C1 2613   2.540   3.209  12.891  0.2466  0.9318  0.2203
  168MPD2    C2 2614   2.510   3.183  12.761 -0.6093  0.7505 -0.9774
  168MPD2    C3 2615   2.534   3.279  12.659  1.1810  0.1782  1.1949
  168MPD2    C4 2616   2.595   3.397  12.703 -0.7271  0.3000  0.2448
  168MPD2    C5 2617   2.630   3.413  12.835  0.0660 -0.1376 -0.0369
  168MPD2     H 2618   2.454   3.093  12.741  0.0459  1.1082 -4.4835
  168MPD2    H1 2619   2.621   3.479  12.638 -0.3992  0.7102  0.8880
  168MPD2    H2 2620   2.640   3.338  13.029  0.2582 -2.7614 -0.2948
  168MPD2    H3 2621   2.689   3.497  12.868  1.6233 -0.6048 -1.6182
  168MPD2     N 2622   2.516   3.248  12.524 -0.4914 -0.5144 -0.6050
  168MPD2    H5 2623   2.546   3.317  12.456 -3.7102  0.3475 -1.1672
  168MPD2    N1 2624   2.512   3.105  12.981  0.6909  0.1897  0.3697
  168MPD2    H7 2625   2.466   3.022  12.944  0.3614 -0.1888  1.6545
  169MPD1     C 2626   4.117   3.434   8.804 -0.3953  0.3776 -0.1744
  169MPD1    C1 2627   4.218   3.491   8.877  0.2408  0.7312  0.0971
  169MPD1    C2 2628   4.270   3.416   8.982  0.7702  0.4511 -0.1289
  169MPD1    C3 2629   4.222   3.298   9.027 -0.3040  0.0130  0.3140
  169MPD1    C4 2630   4.107   3.244   8.961  0.3864 -0.0373 -0.2281
  169MPD1    C5 2631   4.060   3.318   8.858  0.1592  0.5265 -0.2731
  169MPD1     H 2632   4.362   3.456   9.022  0.5134 -0.2870  1.2149
  169MPD1    H1 2633   4.053   3.154   8.990  0.8952 -1.5358 -3.9652
  169MPD1    H2 2634   4.075   3.485   8.718 -1.4448  0.5083  0.4106
  169MPD1    H3 2635   3.974   3.282   8.801  0.2087 -0.5712  0.3347
  169MPD1     N 2636   4.281   3.244   9.147 -0.3066  0.3317  0.5036
  169MPD1    H5 2637   4.358   3.286   9.199  0.7273  1.7881 -2.2513
  169MPD1    N1 2638   4.293   3.604   8.840 -0.6481  0.2834 -0.2233
  169MPD1    H6 2639   4.327   3.660   8.917 -0.6132  0.9049 -0.6928
  169MPD1    H7 2640   4.235   3.658   8.776  0.0568 -0.3755 -1.4153
  170MPD1     C 2641   3.753   0.717  12.724  0.2168 -0.4449  0.7517
  170MPD1    C1 2642   3.802   0.655  12.839  0.4100 -0.2916  0.6130
  170MPD1    C2 2643   3.777   0.709  12.961  0.1333  0.8198  0.3108
  170MPD1    C3 2644   3.684   0.815  12.970 -0.2876  0.7590 -1.0971
  170MPD1    C4 2645   3.621   0.852  12.855  0.1732  0.2313  0.1760
  170MPD1    C5 2646   3.652   0.803  12.735  0.1797 -0.4763  1.0390
  170MPD1     H 2647   3.818   0.660  13.048  0.6197  1.1865  0.2893
  170MPD1    H1 2648   3.540   0.924  12.860 -1.2496 -1.4566  1.0636
  170MPD1    H2 2649   3.766   0.682  12.623 -2.1113 -1.5561  0.8382
  170MPD1    H3 2650   3.596   0.836  12.648  1.9008  2.3349  0.9728
  170MPD1     N 2651   3.647   0.874  13.089 -0.1522  0.4865 -0.0428
  170MPD1    H5 2652   3.573   0.943  13.084 -0.8171 -0.0023  3.1099
  170MPD1    N1 2653   3.906   0.562  12.828 -0.1805  0.2343 -0.7731
  170MPD1    H6 2654   3.887   0.494  12.755 -2.1738  0.0862 -0.1323
  170MPD1    H7 2655   3.915   0.512  12.917  2.4690  0.0149 -1.1597
  171MPD1     C 2656   2.681   1.585  15.200 -0.1467  0.3627  0.1519
  171MPD1    C1 2657   2.675   1.599  15.337  0.4936 -0.9553 -0.5435
  171MPD1    C2 2658   2.596   1.511  15.411  0.3082 -0.1521  0.4218
  171MPD1    C3 2659   2.548   1.392  15.353 -0.3272  0.2678  0.3545
  171MPD1    C4 2660   2.583   1.368  15.226  0.6765 -0.4867  0.1599
  171MPD1    C5 2661   2.645   1.464  15.146 -0.2627  0.5592  0.9257
  171MPD1     H 2662   2.577   1.530  15.516  3.5061  1.8817  0.6297
  171MPD1    H1 2663   2.546   1.280  15.173  0.3548  1.0556 -2.1590
  171MPD1    H2 2664   2.727   1.663  15.142  1.9283  0.5519  2.0563
  171MPD1    H3 2665   2.652   1.452  15.038  3.9009  1.3502  1.0905
  171MPD1     N 2666   2.464   1.297  15.411 -0.4445  0.0655  0.2587
  171MPD1    H5 2667   2.446   1.216  15.353 -1.4912 -0.2522  1.0221
  171MPD1    N1 2668   2.712   1.728  15.397 -0.7098  0.1166  0.7189
  171MPD1    H6 2669   2.764   1.728  15.484  1.3558  1.2606 -0.4980
  171MPD1    H7 2670   2.770   1.787  15.338 -0.7657  0.3086  0.8570
  172MPD1     C 2671   1.215   0.734  17.497  0.2762  0.5354 -0.1957
  172MPD1    C1 2672   1.227   0.867  17.497  0.3078  0.2038  0.4426
  172MPD1    C2 2673   1.155   0.938  17.585  0.8140  0.6938 -0.2202
  172MPD1    C3 2674   1.072   0.881  17.682 -0.4369 -0.2317  0.2641
  172MPD1    C4 2675   1.057   0.742  17.679  1.4916 -0.7846  0.1211
  172MPD1    C5 2676   1.124   0.678  17.578 -0.2585 -0.1349  0.0773
  172MPD1     H 2677   1.163   1.046  17.585  2.3056  0.5810 -1.2050
  172MPD1    H1 2678   0.985   0.690   0.011 -0.4181  1.4357 -0.2222
  172MPD1    H2 2679   1.266   0.672  17.424  0.3469  0.6287 -0.2247
  172MPD1    H3 2680   1.105   0.572  17.567  0.4634 -0.3599  0.9663
  172MPD1     N 2681   0.995   0.959   0.042 -0.3801 -0.0585  0.3265
  172MPD1    H5 2682   0.949   0.907   0.116 -0.9652 -0.9889 -0.6864
  172MPD1    N1 2683   1.312   0.922  17.402 -0.0039 -0.3347 -0.0573
  172MPD1    H6 2684   1.379   0.854  17.365  0.0160 -1.3372  1.8468
  172MPD1    H7 2685   1.347   1.015  17.424 -1.3974  0.2250 -0.2531
  173MPD1     C 2686   2.802   1.568  13.146 -0.3264  0.2418  0.3015
  173MPD1    C1 2687   2.775   1.452  13.089  0.3372  0.0429  0.5171
  173MPD1    C2 2688   2.769   1.346  13.179  0.1384  0.7264 -0.3005
  173MPD1    C3 2689   2.781   1.357  13.321  0.3137 -0.1381  0.6145
  173MPD1    C4 2690   2.813   1.482  13.368 -0.7300  0.1786 -0.4021
  173MPD1    C5 2691   2.822   1.582  13.281 -0.1560 -0.1029  0.5008
  173MPD1     H 2692   2.752   1.250  13.132  0.0331 -0.2183  1.6947
  173MPD1    H1 2693   2.831   1.503  13.473 -1.1968  0.4395 -0.3728
  173MPD1    H2 2694   2.822   1.655  13.083  0.7821 -0.3909 -0.2189
  173MPD1    H3 2695   2.856   1.677  13.322  1.1562 -0.4356  0.1813
  173MPD1     N 2696   2.768   1.242  13.406 -0.1850 -0.1435 -0.7240
  173MPD1    H5 2697   2.738   1.158  13.357 -1.7374 -0.8645  1.4718
  173MPD1    N1 2698   2.780   1.428  12.952 -0.1802  0.1146  0.3705
  173MPD1    H6 2699   2.732   1.340  12.936 -0.9040  0.7771 -1.1295
  173MPD1    H7 2700   2.731   1.503  12.904  1.9713 -0.3580 -2.4957
  174MPD1     C 2701   2.530   0.470  13.155  0.8139  0.6798 -0.5142
  174MPD1    C1 2702   2.613   0.433  13.258 -0.1194  0.4154  0.0288
  174MPD1    C2 2703   2.646   0.521  13.363 -0.0608  0.8234 -0.2624
  174MPD1    C3 2704   2.599   0.651  13.350 -0.0729 -0.2832 -0.1075
  174MPD1    C4 2705   2.522   0.694  13.244 -0.7301 -0.0207  0.5450
  174MPD1    C5 2706   2.486   0.599  13.152  0.4603  0.4525 -0.5944
  174MPD1     H 2707   2.707   0.500  13.450  2.6305  0.5738 -2.2359
  174MPD1    H1 2708   2.499   0.798  13.223  4.8762  0.9251 -0.8715
  174MPD1    H2 2709   2.495   0.400  13.081  1.3974  0.7197 -0.8286
  174MPD1    H3 2710   2.423   0.642  13.076 -0.9999 -1.8949 -0.7216
  174MPD1     N 2711   2.644   0.754  13.440  0.3657 -0.4644 -0.0166
  174MPD1    H5 2712   2.611   0.845  13.407 -0.4687 -0.4846  0.7636
  174MPD1    N1 2713   2.668   0.309  13.254 -0.4628 -0.2849  0.6136
  174MPD1    H6 2714   2.699   0.277  13.346 -1.7965  0.3525  1.3034
  174MPD1    H7 2715   2.616   0.236  13.207  0.2247 -1.8931  2.3660
  175MPD1     C 2716   0.824   1.620  15.216 -0.3022  0.4851 -0.2175
  175MPD1    C1 2717   0.889   1.543  15.307 -0.5376  0.2073  0.2555
  175MPD1    C2 2718   0.918   1.592  15.430 -0.9878 -0.7953 -0.7848
  175MPD1    C3 2719   0.880   1.726  15.457 -0.0547 -0.0719 -0.2611
  175MPD1    C4 2720   0.821   1.801  15.364 -0.0235 -0.0385  0.1656
  175MPD1    C5 2721   0.785   1.751  15.243  0.7813 -0.4863 -0.4925
  175MPD1     H 2722   0.973   1.526  15.496 -0.4254  1.1696  0.7234
  175MPD1    H1 2723   0.778   1.896  15.393 -0.4603  0.5555 -2.4229
  175MPD1    H2 2724   0.800   1.582  15.117  0.3619 -0.4750 -0.0095
  175MPD1    H3 2725   0.741   1.816  15.169 -0.8714  0.5796  1.4105
  175MPD1     N 2726   0.905   1.785  15.579 -0.2342  0.0793  0.1206
  175MPD1    H5 2727   0.878   1.883  15.587  0.4307  0.4906 -2.9901
  175MPD1    N1 2728   0.942   1.413  15.273  0.2454 -0.2483  0.7524
  175MPD1    H6 2729   0.885   1.369  15.201  1.2720  1.8520 -1.3625
  175MPD1    H7 2730   0.961   1.358  15.356 -1.3244  1.9192  2.5507
  176MPD1     C 2731   2.044   3.775  16.656 -0.1449  0.8730 -0.4434
  176MPD1    C1 2732   2.018   3.889  16.734  0.3089  0.2624  0.0415
  176MPD1    C2 2733   2.008   3.875  16.872 -0.5023  0.5430 -0.1518
  176MPD1    C3 2734   2.035   3.749  16.931 -0.4986  0.2248  0.0425
  176MPD1    C4 2735   2.050   3.641  16.856 -0.1140 -0.2984 -0.2674
  176MPD1    C5 2736   2.051   3.650  16.717  0.3041  0.0583 -0.3437
  176MPD1     H 2737   1.980   3.959  16.934  0.3799  1.3637 -0.8675
  176MPD1    H1 2738   2.061   3.546  16.907 -1.8073  0.0049  0.6535
  176MPD1    H2 2739   2.062   3.783  16.549  0.8859 -0.3693 -0.3642
  176MPD1    H3 2740   2.074   3.557  16.667  1.4595 -0.1838  0.6222
  176MPD1     N 2741   2.024   3.748  17.080 -0.0793 -0.2334 -0.1183
  176MPD1    H5 2742   2.004   3.839  17.119 -0.5002 -0.7186  0.7896
  176MPD1    N1 2743   2.025   4.022  16.685 -0.1388 -0.3370  0.0819
  176MPD1    H6 2744   2.007   4.024  16.585  0.9490 -0.6194 -0.1114
  176MPD1    H7 2745   1.953   4.080  16.728 -0.9594 -2.1780  1.2051
  177MPD1     C 2746   1.859   3.875   9.332  0.2708  0.1463  0.4122
  177MPD1    C1 2747   1.792   3.899   9.449 -0.4206  0.7384 -0.5936
  177MPD1    C2 2748   1.654   3.882   9.450  0.0725  0.3390  0.5986
  177MPD1    C3 2749   1.589   3.846   9.328 -0.2863  0.4103 -0.4786
  177MPD1    C4 2750   1.667   3.801   9.224 -0.2567  0.2643 -0.2447
  177MPD1    C5 2751   1.798   3.819   9.220  0.3451 -0.1440 -0.3995
  177MPD1     H 2752   1.594   3.897   9.539 -1.3720 -1.9948  0.0272
  177MPD1    H1 2753   1.636   3.777   9.123  1.8242  1.3557 -1.1544
  177MPD1    H2 2754   1.967   3.867   9.325  0.2884  2.3933 -2.0514
  177MPD1    H3 2755   1.858   3.793   9.133  0.0844  0.6186 -0.8006
  177MPD1     N 2756   1.454   3.853   9.321 -0.5192  0.0423  0.5794
  177MPD1    H5 2757   1.404   3.872   9.407  0.3222  2.5702  0.5316
  177MPD1    N1 2758   1.864   3.955   9.558 -0.1354  0.3643 -0.6967
  177MPD1    H6 2759   1.962   3.927   9.558 -0.6587 -1.5068 -1.4054
  177MPD1    H7 2760   1.821   3.946   9.650 -0.1489  3.4328 -0.4235
  178MPD1     C 2761   3.275   4.608   0.192  0.3274  0.0759  0.0489
  178MPD1    C1 2762   3.299   4.726   0.126 -0.6672 -0.4073 -0.3243
  178MPD1    C2 2763   3.333   4.719  17.723  0.8566  0.3144 -0.0430
  178MPD1    C3 2764   3.327   4.599  17.655 -0.6074  0.5516  0.2556
  178MPD1    C4 2765   3.308   4.487  17.727  0.3760 -0.7341  0.3244
  178MPD1    C5 2766   3.281   4.493   0.132  0.1907  0.3520 -0.1822
  178MPD1     H 2767   3.330   0.075  17.662  0.1495  0.6164  0.4254
  178MPD1    H1 2768   3.296   4.391  17.678 -1.1372 -0.0950 -0.5657
  178MPD1    H2 2769   3.263   4.615   0.300 -0.4271  0.3455 -0.0504
  178MPD1    H3 2770   3.270   4.407   0.197  1.8896  0.0093 -0.3459
  178MPD1     N 2771   3.342   4.580  17.513 -0.4226 -0.3620  0.1625
  178MPD1    H5 2772   3.318   4.487  17.478 -2.7731 -0.3247  1.6902
  178MPD1    N1 2773   3.272   0.120   0.188 -0.2842  0.7735 -0.6091
  178MPD1    H6 2774   3.299   0.193   0.124  0.4466 -0.1167 -1.3030
  178MPD1    H7 2775   3.309   0.133   0.282 -1.2823  0.4279 -0.1617
  179MPD1     C 2776   3.132   2.724  15.980  0.8407 -0.1358 -0.3765
  179MPD1    C1 2777   3.164   2.607  16.045  0.1862  0.0315 -0.2286
  179MPD1    C2 2778   3.099   2.576  16.160  0.4575  0.2109  0.0180
  179MPD1    C3 2779   3.010   2.662  16.221 -0.4424  0.3442 -0.5719
  179MPD1    C4 2780   2.983   2.782  16.156  0.8896 -0.4550 -0.3010
  179MPD1    C5 2781   3.042   2.809  16.035 -0.1221 -0.3058  0.8571
  179MPD1     H 2782   3.107   2.474  16.196  1.0286  0.1179 -0.3769
  179MPD1    H1 2783   2.915   2.853  16.201  1.6789 -0.2043  0.4961
  179MPD1    H2 2784   3.180   2.756  15.888  0.6242 -1.1360 -0.8458
  179MPD1    H3 2785   3.029   2.907  15.990 -0.6304 -0.2183  1.1912
  179MPD1     N 2786   2.951   2.638  16.345 -0.1963 -0.6029 -0.2772
  179MPD1    H5 2787   2.889   2.712  16.376 -0.9415 -2.5261  2.7503
  179MPD1    N1 2788   3.250   2.517  15.987  0.2853 -0.1354 -0.3901
  179MPD1    H6 2789   3.325   2.583  15.967  0.6936 -0.7780 -1.0345
  179MPD1    H7 2790   3.291   2.455  16.056  0.6810 -1.2708 -1.6328
  180MPD1     C 2791   3.389   4.060  15.031 -0.8725  0.1918 -0.2353
  180MPD1    C1 2792   3.261   4.004  15.027 -0.1984 -0.4703  0.0401
  180MPD1    C2 2793   3.169   4.049  14.935 -0.6497 -0.0302 -0.1067
  180MPD1    C3 2794   3.198   4.165  14.873  0.3670  0.4062  0.6511
  180MPD1    C4 2795   3.320   4.217  14.880 -0.1185 -0.3279  1.6633
  180MPD1    C5 2796   3.418   4.168  14.954  0.1189  0.8871  0.4762
  180MPD1     H 2797   3.076   3.994  14.937 -1.5103  1.4655  0.3758
  180MPD1    H1 2798   3.350   4.303  14.821  0.1069 -0.5685  1.4311
  180MPD1    H2 2799   3.471   4.014  15.083 -1.0282  0.6489  0.4067
  180MPD1    H3 2800   3.518   4.209  14.952  0.5320 -0.1077  0.7746
  180MPD1     N 2801   3.096   4.216  14.785 -0.9368  0.5959  0.4806
  180MPD1    H5 2802   3.020   4.152  14.764  0.2175 -0.5660 -0.1703
  180MPD1    N1 2803   3.241   3.878  15.091  0.6910  0.0875 -0.2294
  180MPD1    H6 2804   3.296   3.855  15.174 -0.2502  2.1507  0.9850
  180MPD1    H7 2805   3.144   3.874  15.121  1.4504 -1.3221  2.0362
  181MPD1     C 2806   4.646   1.256  10.055  0.3216 -0.0495  0.0079
  181MPD1    C1 2807   4.703   1.327  10.158  0.0548 -0.2501 -0.4492
  181MPD1    C2 2808   0.042   1.444  10.128 -0.3198 -0.1100 -0.2709
  181MPD1    C3 2809   0.065   1.489   9.997  0.7439 -0.2492  0.1224
  181MPD1    C4 2810   0.003   1.412   9.898  0.6861  0.3039 -0.1055
  181MPD1    C5 2811   4.657   1.300   9.925  0.4485 -0.4009 -0.0042
  181MPD1     H 2812   0.074   1.507  10.210 -0.3318  1.4609 -1.4736
  181MPD1    H1 2813   0.010   1.437   9.792  4.2551 -1.0634 -0.1645
  181MPD1    H2 2814   4.576   1.177  10.079  0.2950 -0.8924 -2.9320
  181MPD1    H3 2815   4.614   1.243   9.844 -0.6102  1.4219 -0.7442
  181MPD1     N 2816   0.151   1.599   9.961 -0.5271 -0.5514  0.1282
  181MPD1    H5 2817   0.176   1.609   9.863 -0.9882 -0.2868  0.0381
  181MPD1    N1 2818   4.668   1.284  10.291  0.0844  0.1928 -0.2946
  181MPD1    H6 2819   0.012   1.308  10.354  0.9789 -1.3461 -0.7994
  181MPD1    H7 2820   4.653   1.184  10.283  0.3659  0.1363 -0.1202
  182MPD1     C 2821   0.808   0.545   0.667 -0.1825 -0.5187 -0.0339
  182MPD1    C1 2822   0.699   0.577   0.594  0.5776 -0.3455  0.6638
  182MPD1    C2 2823   0.654   0.491   0.499  0.4321 -0.3875 -0.0839
  182MPD1    C3 2824   0.711   0.369   0.490  0.3002 -0.0606 -0.5859
  182MPD1    C4 2825   0.815   0.333   0.573 -0.3721  0.0810  0.8360
  182MPD1    C5 2826   0.862   0.415   0.668 -1.0338 -0.2831 -0.2142
  182MPD1     H 2827   0.572   0.519   0.435 -1.1417 -2.2881  1.1226
  182MPD1    H1 2828   0.862   0.235   0.577 -0.9670 -0.1738  1.4129
  182MPD1    H2 2829   0.853   0.620   0.731 -0.2849  0.5961 -1.2682
  182MPD1    H3 2830   0.937   0.393   0.744 -0.4727 -0.7289 -0.9059
  182MPD1     N 2831   0.663   0.264   0.402 -0.1548  0.0111 -0.4921
  182MPD1    H5 2832   0.697   0.170   0.422 -1.9317 -0.8372 -1.4784
  182MPD1    N1 2833   0.669   0.713   0.587  0.0085  0.2918  0.9001
  182MPD1    H6 2834   0.668   0.751   0.681  0.1824  3.3504 -0.3347
  182MPD1    H7 2835   0.572   0.713   0.558  0.2206 -1.5302  0.1314
  183MPD1     C 2836   0.705   0.623   8.660  0.2547  0.0706  0.3539
  183MPD1    C1 2837   0.676   0.748   8.636  0.2886 -0.7995 -0.0671
  183MPD1    C2 2838   0.735   0.843   8.707  0.3171 -0.2391  0.0962
  183MPD1    C3 2839   0.829   0.819   8.807  0.5314 -0.0998  0.4373
  183MPD1    C4 2840   0.856   0.690   8.838 -0.2335  0.0533  0.6045
  183MPD1    C5 2841   0.795   0.594   8.762  0.3056 -0.5507 -0.6061
  183MPD1     H 2842   0.709   0.946   8.682 -1.8636 -0.8241 -0.0397
  183MPD1    H1 2843   0.918   0.664   8.923  0.8047 -3.1081 -1.1352
  183MPD1    H2 2844   0.651   0.548   8.604  0.8618  0.7143 -1.0930
  183MPD1    H3 2845   0.816   0.489   8.779 -0.5740 -0.8326 -1.2906
  183MPD1     N 2846   0.896   0.933   8.860  0.6640  0.3817 -0.2361
  183MPD1    H5 2847   0.880   1.023   8.816  2.5885  0.1335 -1.4492
  183MPD1    N1 2848   0.601   0.776   8.520  0.3500  0.7292 -0.4723
  183MPD1    H6 2849   0.550   0.863   8.520 -1.4738 -0.3456 -0.3824
  183MPD1    H7 2850   0.544   0.697   8.489  0.6259  0.8674 -1.3346
  184MPD1     C 2851   0.282   3.864  10.384  0.0338  0.4507 -0.2121
  184MPD1    C1 2852   0.184   3.873  10.289  0.8008 -0.1903  0.1796
  184MPD1    C2 2853   0.211   3.864  10.152 -0.4216  0.0588 -0.4034
  184MPD1    C3 2854   0.345   3.834  10.116  0.4427 -0.5140  0.1684
  184MPD1    C4 2855   0.439   3.807  10.213  0.8969  0.3396  0.1594
  184MPD1    C5 2856   0.405   3.824  10.345  0.0230 -0.2400 -0.1978
  184MPD1     H 2857   0.133   3.891  10.081  0.5500 -0.1920 -1.5686
  184MPD1    H1 2858   0.543   3.779  10.202  0.6154 -0.7612  0.2748
  184MPD1    H2 2859   0.262   3.876  10.490 -0.5346 -4.0995  0.2247
  184MPD1    H3 2860   0.473   3.824  10.430 -1.2933 -4.2378  0.8298
  184MPD1     N 2861   0.395   3.819   9.982  0.3435  0.0977 -0.2785
  184MPD1    H5 2862   0.492   3.789   9.977  0.7826  1.2391  1.4310
  184MPD1    N1 2863   0.058   3.908  10.337  0.3194 -0.5301  0.0126
  184MPD1    H6 2864   0.048   3.904  10.438  1.0110 -0.4582  0.0786
  184MPD1    H7 2865   0.036   4.005  10.318  1.2021 -0.4610 -0.6555
  185MPD1     C 2866   0.016   3.657   9.086 -0.4379  0.2945  0.3151
  185MPD1    C1 2867   0.140   3.617   9.098  0.3320  0.6608  0.4896
  185MPD1    C2 2868   0.228   3.678   9.183  0.3376  1.0387 -0.5070
  185MPD1    C3 2869   0.182   3.760   9.286  0.0961 -0.1476  0.2739
  185MPD1    C4 2870   0.054   3.804   9.273  0.7257  0.9522  0.4314
  185MPD1    C5 2871   4.706   3.763   9.169  0.3505 -0.4115  0.5043
  185MPD1     H 2872   0.331   3.645   9.181  0.2269  0.7086 -0.6264
  185MPD1    H1 2873   0.017   3.880   9.342  0.0586  1.0105  0.0098
  185MPD1    H2 2874   4.674   3.629   9.013 -1.8015 -1.2231  2.2764
  185MPD1    H3 2875   4.609   3.805   9.147  0.7632  0.6449  0.6623
  185MPD1     N 2876   0.271   3.821   9.383 -0.0160 -0.4240  0.5728
  185MPD1    H5 2877   0.224   3.892   9.438 -0.8641 -0.0428 -0.6403
  185MPD1    N1 2878   0.184   3.534   8.994  0.3601 -0.1249  0.4411
  185MPD1    H6 2879   0.276   3.497   9.020  1.2726  1.0918 -1.0276
  185MPD1    H7 2880   0.115   3.461   8.977  0.6676 -0.2837 -0.1212
  186MPD1     C 2881   3.077   3.155  15.867 -0.3208 -0.3478 -0.2479
  186MPD1    C1 2882   3.201   3.100  15.845 -0.3634  0.1359 -0.3020
  186MPD1    C2 2883   3.285   3.075  15.958 -0.5409 -0.4405 -0.2322
  186MPD1    C3 2884   3.250   3.105  16.090 -0.4727  0.1814  0.3940
  186MPD1    C4 2885   3.127   3.160  16.103  1.0650  0.1805  0.0961
  186MPD1    C5 2886   3.046   3.190  15.990  0.1951  0.3818  0.0408
  186MPD1     H 2887   3.384   3.032  15.946  0.0538  1.4373 -2.1454
  186MPD1    H1 2888   3.085   3.186  16.200 -2.1362 -0.6462 -1.0444
  186MPD1    H2 2889   3.010   3.167  15.782 -0.0020 -1.7731 -0.7046
  186MPD1    H3 2890   2.949   3.237  16.000 -0.1582 -0.3939  0.2258
  186MPD1     N 2891   3.321   3.060  16.210  0.4823 -0.9036  0.1883
  186MPD1    H5 2892   3.276   3.081  16.299  0.8900  1.2934 -0.1240
  186MPD1    N1 2893   3.237   3.031  15.724  0.2047 -0.5872  0.3205
  186MPD1    H6 2894   3.338   3.035  15.721  0.1066  1.7873  0.6167
  186MPD1    H7 2895   3.209   3.088  15.645  1.9248  0.9324  0.8198
  187MPD1     C 2896   2.752   4.181   0.304 -0.3927  0.2728  0.6742
  187MPD1    C1 2897   2.652   4.275   0.296  1.1553  0.6213  0.2895
  187MPD1    C2 2898   2.633   4.353   0.181 -0.4508  0.0474  0.0077
  187MPD1    C3 2899   2.736   4.356   0.079 -0.2613  0.1175  0.1153
  187MPD1    C4 2900   2.850   4.276   0.102 -0.9746  0.7197  0.2496
  187MPD1    C5 2901   2.850   4.199   0.210 -0.0325  0.2096 -0.4737
  187MPD1     H 2902   2.553   4.426   0.193  2.5363  3.4474 -0.7180
  187MPD1    H1 2903   2.933   4.278   0.032 -1.9001 -0.6085 -0.8863
  187MPD1    H2 2904   2.748   4.098   0.373  0.3047  0.5749  1.0729
  187MPD1    H3 2905   2.933   4.131   0.220  0.6878  0.8701 -1.9647
  187MPD1     N 2906   2.736   4.442  17.699  0.5135 -0.1267  0.3805
  187MPD1    H5 2907   2.817   4.436  17.640  1.6897  3.1641  1.6111
  187MPD1    N1 2908   2.538   4.275   0.385 -0.4478 -0.3425 -0.0284
  187MPD1    H6 2909   2.552   4.229   0.475  0.5243  1.1160  0.5776
  187MPD1    H7 2910   2.481   4.359   0.382  0.7344  0.4456 -0.3268
  188MPD1     C 2911   3.360   0.532  10.356  0.0377 -0.6066  0.3765
  188MPD1    C1 2912   3.325   0.479  10.238 -0.3044  0.3807  0.0522
  188MPD1    C2 2913   3.217   0.398  10.247  0.1579  0.2802 -0.4631
  188MPD1    C3 2914   3.152   0.354  10.359 -0.2511  0.2353 -0.5116
  188MPD1    C4 2915   3.208   0.390  10.480  0.6290  0.7562 -0.4151
  188MPD1    C5 2916   3.305   0.486  10.477  0.4191  0.6422  0.1046
  188MPD1     H 2917   3.187   0.348  10.155 -0.1437  0.1631 -0.3007
  188MPD1    H1 2918   3.171   0.355  10.576  2.2064 -1.8703 -0.7628
  188MPD1    H2 2919   3.440   0.605  10.357 -0.6801  0.1934 -0.9467
  188MPD1    H3 2920   3.344   0.526  10.570 -0.1029 -0.0565  0.6213
  188MPD1     N 2921   3.042   0.267  10.356  0.4398  0.0794 -0.3274
  188MPD1    H5 2922   3.010   0.220  10.440 -2.5055  1.5924 -0.5660
  188MPD1    N1 2923   3.364   0.541  10.117 -0.3397  1.0751 -0.4820
  188MPD1    H6 2924   3.455   0.586  10.118  1.4851 -2.6868  0.5698
  188MPD1    H7 2925   3.361   0.470  10.045  0.2393  0.0626  0.4931
  189MPD1     C 2926   3.549   1.203   1.317  0.0474 -0.0411 -1.4076
  189MPD1    C1 2927   3.491   1.282   1.229 -0.3954 -1.0983 -0.1240
  189MPD1    C2 2928   3.503   1.253   1.093  0.9936  0.4308  0.8193
  189MPD1    C3 2929   3.580   1.146   1.055 -0.2655 -0.3001  0.5078
  189MPD1    C4 2930   3.649   1.074   1.149  0.2354 -0.1504 -0.4941
  189MPD1    C5 2931   3.625   1.094   1.285  0.4411  0.3590 -0.0876
  189MPD1     H 2932   3.447   1.317   1.026 -2.0029 -1.2627  1.7077
  189MPD1    H1 2933   3.707   0.988   1.118 -0.7606  0.2793 -3.5345
  189MPD1    H2 2934   3.554   1.224   1.423 -2.0472  1.4203 -1.5898
  189MPD1    H3 2935   3.667   1.027   1.359  1.4203 -0.9693 -1.8313
  189MPD1     N 2936   3.594   1.119   0.921 -0.9466 -0.4624  0.2425
  189MPD1    H5 2937   3.565   1.191   0.857  1.4836 -0.4025 -0.7982
  189MPD1    N1 2938   3.391   1.372   1.282 -0.3704 -0.3403  0.1942
  189MPD1    H6 2939   3.428   1.419   1.364  0.8860 -1.1161  0.0818
  189MPD1    H7 2940   3.377   1.443   1.211  0.9358  0.6166  0.9112
  190MPD1     C 2941   2.878   3.888  15.270 -0.1426 -0.2057 -0.0624
  190MPD1    C1 2942   2.972   3.788  15.245  0.6171 -0.4916  0.0561
  190MPD1    C2 2943   3.069   3.759  15.337  0.5836  0.1171 -0.9147
  190MPD1    C3 2944   3.060   3.815  15.465 -0.0585  0.1898  0.3688
  190MPD1    C4 2945   2.948   3.899  15.492  0.1953 -0.6863 -0.5241
  190MPD1    C5 2946   2.865   3.936  15.391  0.7473 -0.7352 -0.0548
  190MPD1     H 2947   3.153   3.692  15.325  0.7720  0.2604 -0.3787
  190MPD1    H1 2948   2.931   3.940  15.591 -1.9279  2.2493 -2.1013
  190MPD1    H2 2949   2.798   3.915  15.202  0.3567 -1.3367 -1.0985
  190MPD1    H3 2950   2.787   4.006  15.417 -1.4877 -4.0101  1.9563
  190MPD1     N 2951   3.165   3.793  15.552  0.2989  0.0596  0.2823
  190MPD1    H5 2952   3.247   3.753  15.509 -1.7279 -1.2527 -2.3617
  190MPD1    N1 2953   2.982   3.733  15.112  0.6327 -0.1347 -0.2858
  190MPD1    H6 2954   2.894   3.732  15.060  0.6864  1.9011 -0.4074
  190MPD1    H7 2955   3.018   3.638  15.110 -0.9570 -0.7921  2.3438
  191MPD1     C 2956   2.652   0.993  12.936  0.5890 -0.5598 -0.7009
  191MPD1    C1 2957   2.702   1.097  12.862  0.1044  0.0682  0.0150
  191MPD1    C2 2958   2.614   1.186  12.804  0.8862 -0.2979  0.1434
  191MPD1    C3 2959   2.483   1.164  12.813  0.1320 -0.4489  0.0053
  191MPD1    C4 2960   2.423   1.058  12.876 -0.1973  0.6481  0.0997
  191MPD1    C5 2961   2.514   0.972  12.937  0.3390 -0.2554 -0.3623
  191MPD1     H 2962   2.651   1.271  12.747  0.1703  0.3802  0.6868
  191MPD1    H1 2963   2.316   1.041  12.877 -0.0669 -0.0967  3.0012
  191MPD1    H2 2964   2.704   0.912  12.984 -1.1134  0.1656  2.3837
  191MPD1    H3 2965   2.472   0.891  12.996 -0.6411 -0.2090 -1.0059
  191MPD1     N 2966   2.409   1.255  12.733  0.5779 -0.4856  0.1200
  191MPD1    H5 2967   2.464   1.319  12.675  0.3370  1.7365  2.3578
  191MPD1    N1 2968   2.836   1.132  12.886 -0.9289  0.1364  0.5921
  191MPD1    H6 2969   2.885   1.170  12.805 -0.5632  0.7341  1.0857
  191MPD1    H7 2970   2.890   1.049  12.910 -0.6360  0.3370  0.6399
  192MPD1     C 2971   1.432   1.355  12.640  0.0992  0.2505 -0.1527
  192MPD1    C1 2972   1.472   1.443  12.545  0.6469 -0.0688 -0.2154
  192MPD1    C2 2973   1.607   1.460  12.529 -0.0263  0.8077 -0.1680
  192MPD1    C3 2974   1.696   1.398  12.614  0.0294 -0.5657 -0.1369
  192MPD1    C4 2975   1.653   1.323  12.721  0.6224  0.2380 -0.2493
  192MPD1    C5 2976   1.522   1.312  12.740 -0.4748  0.2097  0.2804
  192MPD1     H 2977   1.640   1.525  12.449 -0.3994  2.2138  0.8132
  192MPD1    H1 2978   1.723   1.280  12.792 -0.7027  1.3229  1.7145
  192MPD1    H2 2979   1.328   1.332  12.656  0.4742 -1.0225  0.4751
  192MPD1    H3 2980   1.482   1.258  12.825 -0.5600  2.6156  1.7436
  192MPD1     N 2981   1.831   1.422  12.618  0.2526 -0.6255 -0.3166
  192MPD1    H5 2982   1.886   1.376  12.690 -0.6322 -0.0384  0.7330
  192MPD1    N1 2983   1.379   1.479  12.454  0.2603 -0.0989 -0.7305
  192MPD1    H6 2984   1.286   1.481  12.495 -0.7127 -1.5432 -2.8067
  192MPD1    H7 2985   1.393   1.565  12.402 -0.0227  0.5702  0.3048
  193MPD1     C 2986   1.898   1.429  16.573  0.1639  0.9396 -0.6690
  193MPD1    C1 2987   1.994   1.335  16.535  0.4304 -0.5694 -0.4589
  193MPD1    C2 2988   2.074   1.286  16.635  0.3452 -0.2649 -0.3627
  193MPD1    C3 2989   2.083   1.345  16.760  0.7398 -0.5117  0.4031
  193MPD1    C4 2990   1.995   1.444  16.795 -0.3748  0.0640  0.1075
  193MPD1    C5 2991   1.904   1.482  16.701  0.5291  0.5800 -0.4624
  193MPD1     H 2992   2.139   1.203  16.609  1.6090  0.8723 -0.8067
  193MPD1    H1 2993   1.991   1.491  16.893 -1.2680 -1.8102  0.9587
  193MPD1    H2 2994   1.817   1.460  16.509  1.2479 -0.1868 -2.5680
  193MPD1    H3 2995   1.831   1.555  16.733  0.0675 -0.0886  0.0146
  193MPD1     N 2996   2.185   1.303  16.854  0.0802  0.0015 -0.5612
  193MPD1    H5 2997   2.173   1.335  16.950 -2.0871  1.0984 -1.2081
  193MPD1    N1 2998   1.970   1.252  16.428 -0.0478 -0.3346  0.3832
  193MPD1    H6 2999   2.058   1.212  16.394  0.4828 -0.1369  1.5208
  193MPD1    H7 3000   1.937   1.308  16.350  0.5551 -0.2227  0.2039
  194MPD1     C 3001   4.285   3.566  17.468 -0.0460 -0.9466 -0.3912
  194MPD1    C1 3002   4.270   3.565  17.331 -0.3002 -0.1315  0.2140
  194MPD1    C2 3003   4.262   3.435  17.279 -0.5077 -0.3472  0.2082
  194MPD1    C3 3004   4.261   3.321  17.356  0.4202 -0.3803 -0.4589
  194MPD1    C4 3005   4.271   3.332  17.491 -0.1087 -0.1656 -0.1058
  194MPD1    C5 3006   4.285   3.454  17.548 -0.3489  0.1762 -0.3560
  194MPD1     H 3007   4.236   3.428  17.174  1.4003 -0.9801 -0.2334
  194MPD1    H1 3008   4.271   3.234  17.538  1.6508 -0.5089 -0.8279
  194MPD1    H2 3009   4.297   3.663  17.516  0.2374 -0.9489 -0.4617
  194MPD1    H3 3010   4.297   3.474  17.654  1.3845 -1.0906 -0.3141
  194MPD1     N 3011   4.266   3.188  17.306  0.1384  0.2150 -0.4224
  194MPD1    H5 3012   4.292   3.123  17.380 -1.5665  0.6532  0.5677
  194MPD1    N1 3013   4.287   3.686  17.252  0.0309  0.5111 -0.0907
  194MPD1    H6 3014   4.262   3.668  17.155 -0.5142 -2.8734  0.6704
  194MPD1    H7 3015   4.222   3.763  17.267 -1.5564 -1.0162  0.8555
  195MPD1     C 3016   2.340   0.799  17.499  0.4679  0.0043 -0.1187
  195MPD1    C1 3017   2.233   0.771  17.580 -0.6293  0.0170  0.2224
  195MPD1    C2 3018   2.219   0.638  17.619 -0.9499  0.3217 -0.0873
  195MPD1    C3 3019   2.317   0.545  17.599 -0.0976 -0.6535  0.0094
  195MPD1    C4 3020   2.425   0.581  17.525 -0.0188 -0.7405 -0.8445
  195MPD1    C5 3021   2.437   0.706  17.467  0.1293  0.1546 -0.3421
  195MPD1     H 3022   2.127   0.602  17.662 -0.9306 -0.9565 -1.1063
  195MPD1    H1 3023   2.510   0.519  17.502 -0.6812 -2.0645  0.3167
  195MPD1    H2 3024   2.346   0.896  17.449 -0.1519 -1.0727 -2.2676
  195MPD1    H3 3025   2.527   0.729  17.411  0.4829  1.1358  0.6360
  195MPD1     N 3026   2.319   0.409  17.649  0.4112 -0.2696 -0.2332
  195MPD1    H5 3027   2.394   0.349  17.616  1.2690  2.5938 -3.4343
  195MPD1    N1 3028   2.127   0.864  17.583 -0.0989  0.6677 -0.2120
  195MPD1    H6 3029   2.060   0.865  17.659 -0.0509  1.7084 -0.1876
  195MPD1    H7 3030   2.170   0.955  17.596 -1.1574  1.1124  0.1139
  196MPD1     C 3031   1.388   3.752   0.631 -0.0239  0.0802  0.5890
  196MPD1    C1 3032   1.483   3.804   0.720 -0.1867 -0.1045  0.4098
  196MPD1    C2 3033   1.448   3.930   0.777 -0.7040 -0.2103 -0.7923
  196MPD1    C3 3034   1.342   4.009   0.735 -0.2754  0.4205  0.6668
  196MPD1    C4 3035   1.254   3.945   0.644  0.3245  0.2385 -0.0029
  196MPD1    C5 3036   1.278   3.824   0.597  0.0303 -0.4500 -0.2657
  196MPD1     H 3037   1.516   3.973   0.850 -0.9600  0.1913 -0.7946
  196MPD1    H1 3038   1.160   3.985   0.610  0.6117  2.1626  1.5024
  196MPD1    H2 3039   1.403   3.652   0.592 -0.1389  0.9634 -1.6791
  196MPD1    H3 3040   1.214   3.777   0.523  0.8141 -1.4657 -0.3077
  196MPD1     N 3041   1.316   4.135   0.791  1.1178  0.3356 -0.0114
  196MPD1    H5 3042   1.223   4.166   0.764  0.5426 -0.4430  1.1050
  196MPD1    N1 3043   1.573   3.722   0.785  0.2046 -0.2608  0.4948
  196MPD1    H6 3044   1.607   3.647   0.726 -0.2433 -0.2487  0.2240
  196MPD1    H7 3045   1.641   3.770   0.844 -0.3861 -0.0210  0.9812
  197MPD1     C 3046   0.838   1.583  17.357 -0.4215 -0.2438  0.1111
  197MPD1    C1 3047   0.952   1.593  17.428 -0.6101  0.1117  0.9286
  197MPD1    C2 3048   1.033   1.706  17.412 -0.2682  0.3508 -0.2794
  197MPD1    C3 3049   1.011   1.796  17.308 -0.7921 -0.2242  0.1041
  197MPD1    C4 3050   0.896   1.782  17.229 -0.1054  0.0048  0.4375
  197MPD1    C5 3051   0.811   1.677  17.261 -0.2279 -0.8903  0.0016
  197MPD1     H 3052   1.122   1.715  17.473  0.4960  0.7151 -1.4414
  197MPD1    H1 3053   0.875   1.861  17.158 -0.8837  1.1877  1.9987
  197MPD1    H2 3054   0.772   1.497  17.367 -1.1997  0.3340 -0.0956
  197MPD1    H3 3055   0.720   1.657  17.205 -0.7654 -0.5360  0.7499
  197MPD1     N 3056   1.102   1.900  17.280  0.0725  0.4635  0.6634
  197MPD1    H5 3057   1.092   1.959  17.197  0.4230 -1.1947 -0.5588
  197MPD1    N1 3058   0.967   1.517  17.541  0.7512 -0.0806 -0.5601
  197MPD1    H6 3059   1.065   1.503  17.564  0.3824 -0.6420  0.6964
  197MPD1    H7 3060   0.930   1.423  17.526 -0.2110  0.4109 -1.2423
  198MPD1     C 3061   2.272   0.254  15.565  0.3166 -0.1465  0.1000
  198MPD1    C1 3062   2.336   0.295  15.677 -0.6815  0.4525  0.4888
  198MPD1    C2 3063   2.470   0.314  15.674 -0.2504  0.1111 -0.0796
  198MPD1    C3 3064   2.542   0.287  15.559  0.4161 -0.0400 -0.3532
  198MPD1    C4 3065   2.477   0.231  15.448 -0.0297  0.8075 -0.0883
  198MPD1    C5 3066   2.344   0.229  15.452  0.1331  0.4097 -1.5157
  198MPD1     H 3067   2.526   0.350  15.760  0.4797  2.1369 -1.4043
  198MPD1    H1 3068   2.531   0.199  15.359 -1.8389  0.1393 -0.9454
  198MPD1    H2 3069   2.164   0.250  15.559  0.4391  0.6504 -2.6920
  198MPD1    H3 3070   2.276   0.214  15.369  0.9556  0.2752 -2.1503
  198MPD1     N 3071   2.684   0.304  15.565 -0.0934  0.4407 -0.3474
  198MPD1    H5 3072   2.730   0.348  15.645 -1.5668 -0.9379  1.2514
  198MPD1    N1 3073   2.263   0.336  15.797  0.2368 -0.5049  0.5123
  198MPD1    H6 3074   2.171   0.293  15.799 -0.4143  0.8237 -0.2360
  198MPD1    H7 3075   2.314   0.318  15.883  1.5498 -1.7615 -0.5191
  199MPD1     C 3076   0.792   2.653  10.081 -0.1405 -0.4660 -0.3451
  199MPD1    C1 3077   0.707   2.681  10.189  0.1073 -0.8335 -0.0125
  199MPD1    C2 3078   0.583   2.623  10.197 -0.2724 -0.8997 -0.1273
  199MPD1    C3 3079   0.536   2.551  10.089  0.3060 -0.3551  0.2389
  199MPD1    C4 3080   0.618   2.533   9.979  0.3835 -0.7215 -0.2574
  199MPD1    C5 3081   0.746   2.575   9.982  0.0853  0.1842  0.3733
  199MPD1     H 3082   0.518   2.649  10.280 -0.3556 -1.3721 -0.0465
  199MPD1    H1 3083   0.589   2.468   9.897  0.3579 -0.7644 -0.2138
  199MPD1    H2 3084   0.897   2.681  10.080 -0.2297 -0.1288 -0.0038
  199MPD1    H3 3085   0.806   2.551   9.895 -1.6598 -2.0224 -0.2388
  199MPD1     N 3086   0.408   2.496  10.091  0.0289  0.1046 -0.1720
  199MPD1    H5 3087   0.385   2.429  10.019  0.1446  0.4017 -0.4898
  199MPD1    N1 3088   0.761   2.743  10.295 -0.2152  0.3982 -0.2318
  199MPD1    H6 3089   0.836   2.803  10.263 -1.8105  2.3887 -0.2305
  199MPD1    H7 3090   0.697   2.795  10.354 -0.5077  1.1067 -1.1788
  200MPD1     C 3091   3.438   1.306  14.421  0.4631  1.1596 -0.1238
  200MPD1    C1 3092   3.529   1.320  14.315 -1.0685 -1.1998 -0.0591
  200MPD1    C2 3093   3.662   1.304  14.344  0.4597 -0.0261  0.1724
  200MPD1    C3 3094   3.709   1.251  14.461 -0.4937 -0.1890 -0.8598
  200MPD1    C4 3095   3.618   1.223  14.562 -0.1637  0.2052  0.0204
  200MPD1    C5 3096   3.486   1.253  14.543 -0.0793 -0.0518 -0.9373
  200MPD1     H 3097   3.734   1.330  14.267 -1.0330 -0.9978 -1.5412
  200MPD1    H1 3098   3.637   1.197  14.665 -0.3517  1.6638  0.4270
  200MPD1    H2 3099   3.332   1.324  14.408  0.3244  0.3587 -0.1277
  200MPD1    H3 3100   3.413   1.228  14.619  0.8603  0.6153  0.1763
  200MPD1     N 3101   3.845   1.230  14.477 -0.0863 -0.0386  0.5122
  200MPD1    H5 3102   3.905   1.267  14.405  0.2143 -0.8590  0.3474
  200MPD1    N1 3103   3.497   1.394  14.204 -0.2174  0.1580 -0.1475
  200MPD1    H6 3104   3.402   1.370  14.175  0.9799 -0.8662 -3.2818
  200MPD1    H7 3105   3.561   1.376  14.127  0.4285  0.3221  0.3531
  201MPD1     C 3106   1.811   0.647  12.391  0.3298 -0.1527  0.0380
  201MPD1    C1 3107   1.694   0.642  12.469  0.4629  0.3163 -0.1530
  201MPD1    C2 3108   1.705   0.594  12.597 -0.2387 -0.3550 -0.7998
  201MPD1    C3 3109   1.830   0.579  12.653 -0.6018 -1.0056  1.2712
  201MPD1    C4 3110   1.942   0.588  12.582  0.1685 -0.1098  0.5168
  201MPD1    C5 3111   1.932   0.616  12.448  0.1395  0.8106  0.5125
  201MPD1     H 3112   1.621   0.578  12.663  0.6469 -1.8508 -0.0419
  201MPD1    H1 3113   2.036   0.603  12.634  0.2197 -1.7557  0.9260
  201MPD1    H2 3114   1.803   0.671  12.285 -1.7071 -0.4074  0.1375
  201MPD1    H3 3115   2.024   0.636  12.393  0.5142 -0.4331  0.6850
  201MPD1     N 3116   1.828   0.539  12.789 -0.2507  0.4090  0.0996
  201MPD1    H5 3117   1.740   0.536  12.840 -1.7057 -0.3021 -2.4219
  201MPD1    N1 3118   1.564   0.661  12.416  0.1124  0.2353  0.4650
  201MPD1    H6 3119   1.502   0.693  12.490  2.3017  0.6177  2.1487
  201MPD1    H7 3120   1.567   0.739  12.350  1.9759 -0.7967 -0.6961
  202MPD1     C 3121   1.191   0.184   9.011  0.5943  0.0320  0.1175
  202MPD1    C1 3122   1.198   0.134   9.142 -0.1961  0.0870 -0.0394
  202MPD1    C2 3123   1.325   0.158   9.203 -0.6279  0.6774  0.2543
  202MPD1    C3 3124   1.396   0.279   9.177  0.5046 -0.4893  0.2436
  202MPD1    C4 3125   1.364   0.347   9.060 -0.0924  0.1214  0.3972
  202MPD1    C5 3126   1.270   0.294   8.980  0.1785  0.1275 -0.2680
  202MPD1     H 3127   1.348   0.089   9.283  1.6337  0.0733 -0.9055
  202MPD1    H1 3128   1.409   0.440   9.024  0.9582 -0.1820  0.9166
  202MPD1    H2 3129   1.118   0.152   8.937 -1.4126  0.8793  1.7370
  202MPD1    H3 3130   1.274   0.335   8.880  0.8896  1.7050  0.3935
  202MPD1     N 3131   1.500   0.328   9.258 -0.7621  0.0917 -0.9134
  202MPD1    H5 3132   1.532   0.420   9.229 -1.9948  1.2492  1.3397
  202MPD1    N1 3133   1.137   0.004   9.174 -0.4295 -0.0626 -0.0037
  202MPD1    H6 3134   1.137   4.718   9.274 -1.1136  1.9128  0.3659
  202MPD1    H7 3135   1.041   4.728   9.140  0.0767  3.1779 -2.2746
  203MPD1     C 3136   0.474   1.652  12.548  0.1343 -0.4084  0.4108
  203MPD1    C1 3137   0.527   1.543  12.483  0.1791  0.2044  0.0468
  203MPD1    C2 3138   0.466   1.423  12.490 -0.1919  0.2145  0.4637
  203MPD1    C3 3139   0.351   1.411  12.566 -0.6040 -0.1444 -0.6588
  203MPD1    C4 3140   0.290   1.526  12.620 -0.6387 -0.1696  0.0440
  203MPD1    C5 3141   0.355   1.646  12.609 -0.7435  0.3096  0.1953
  203MPD1     H 3142   0.502   1.332  12.442 -3.0451 -1.0549  0.7091
  203MPD1    H1 3143   0.198   1.517  12.676 -0.0344 -2.3336  0.6746
  203MPD1    H2 3144   0.533   1.742  12.564 -0.7181 -0.0121  1.3530
  203MPD1    H3 3145   0.317   1.729  12.667 -0.4902  1.1122 -0.7912
  203MPD1     N 3146   0.299   1.285  12.587 -0.0375 -0.1995  0.3580
  203MPD1    H5 3147   0.349   1.213  12.537 -1.3575 -0.0932 -1.0979
  203MPD1    N1 3148   0.658   1.550  12.441  0.0028  0.1822 -0.2141
  203MPD1    H6 3149   0.688   1.474  12.381  0.0682  1.2884 -1.5856
  203MPD1    H7 3150   0.694   1.640  12.410 -0.4064  0.8902  1.3274
  204MPD1     C 3151   3.821   1.686  17.616  0.2597  0.2367  0.6738
  204MPD1    C1 3152   3.941   1.699  17.678 -0.5174  0.0318 -0.7001
  204MPD1    C2 3153   4.054   1.688  17.598 -0.5189 -0.3493 -0.7946
  204MPD1    C3 3154   4.048   1.671  17.465 -0.1638 -0.9858  0.3578
  204MPD1    C4 3155   3.932   1.703  17.402  0.4955 -0.4096 -0.7531
  204MPD1    C5 3156   3.813   1.705  17.483 -0.7121  0.2123  0.3155
  204MPD1     H 3157   4.153   1.685  17.642 -0.2162  0.5025 -1.4245
  204MPD1    H1 3158   3.918   1.715  17.296  0.3580  0.4032 -0.6445
  204MPD1    H2 3159   3.735   1.680  17.683  0.6261  0.7298  1.1913
  204MPD1    H3 3160   3.713   1.717  17.445 -1.3437 -0.0924  1.8828
  204MPD1     N 3161   4.169   1.640  17.394 -0.2272 -0.0729 -0.4296
  204MPD1    H5 3162   4.258   1.634  17.442  0.5543  0.6470 -1.8249
  204MPD1    N1 3163   3.952   1.694   0.086 -0.4636 -0.4631  0.2727
  204MPD1    H6 3164   3.867   1.727   0.131  0.0150  0.3477  0.5675
  204MPD1    H7 3165   4.036   1.744   0.114  0.3665 -1.0753 -1.1200
  205MPD1     C 3166   0.369   0.601  16.362 -0.3326  0.3240 -0.7309
  205MPD1    C1 3167   0.325   0.714  16.425 -0.5041 -0.7660 -0.3205
  205MPD1    C2 3168   0.288   0.710  16.559  0.1237 -0.1105  0.0426
  205MPD1    C3 3169   0.296   0.591  16.630 -0.7970  0.8808  0.2829
  205MPD1    C4 3170   0.350   0.483  16.569  0.3306  0.4160  0.7309
  205MPD1    C5 3171   0.390   0.489  16.435  0.6918  0.5075  0.0405
  205MPD1     H 3172   0.250   0.799  16.608 -1.0038 -1.1749  1.0900
  205MPD1    H1 3173   0.357   0.384  16.613  2.9341  0.3364  0.1231
  205MPD1    H2 3174   0.399   0.606  16.258  0.2693 -2.6113 -0.7083
  205MPD1    H3 3175   0.427   0.402  16.383  2.2333  1.7931 -0.9841
  205MPD1     N 3176   0.246   0.583  16.767 -0.5073  0.5577  0.3571
  205MPD1    H5 3177   0.262   0.496  16.816  2.2138  1.4877  1.1065
  205MPD1    N1 3178   0.311   0.829  16.349 -0.3740 -0.5073  0.0712
  205MPD1    H6 3179   0.389   0.836  16.284  0.2598  1.3087  1.0252
  205MPD1    H7 3180   0.325   0.913  16.404  0.2842  0.5832 -1.7481
  206MPD1     C 3181   4.620   3.236  17.186  0.2063 -0.4799 -0.4817
  206MPD1    C1 3182   4.611   3.373  17.168  0.3902  0.0628 -0.6982
  206MPD1    C2 3183   4.608   3.414  17.031  0.3662  0.2863  0.0697
  206MPD1    C3 3184   4.627   3.321  16.927  0.1113  0.0843  0.5555
  206MPD1    C4 3185   4.660   3.191  16.956 -0.0630 -0.3977 -0.3058
  206MPD1    C5 3186   4.667   3.153  17.082 -0.3218 -0.2160 -0.2112
  206MPD1     H 3187   4.594   3.519  17.011  1.1115 -0.0229 -2.1260
  206MPD1    H1 3188   4.690   3.119  16.881  2.7968  1.0488 -0.5253
  206MPD1    H2 3189   4.607   3.198  17.286 -0.1369  0.6836 -0.0808
  206MPD1    H3 3190   4.695   3.051  17.106 -2.4197 -0.1516  2.5651
  206MPD1     N 3191   4.606   3.358  16.794 -0.7859 -0.2232  0.5137
  206MPD1    H5 3192   4.630   3.289  16.724  0.0732 -0.5113  1.0801
  206MPD1    N1 3193   4.584   3.460  17.277  0.6396  0.0267  0.2253
  206MPD1    H6 3194   4.589   3.424  17.372  1.4102 -2.8102 -0.9058
  206MPD1    H7 3195   4.488   3.490  17.259  0.0427 -2.0052  0.0735
  207MPD1     C 3196   2.133   2.399   9.255  0.4374  0.4065  0.0347
  207MPD1    C1 3197   2.184   2.527   9.237 -0.8351  0.2193 -0.1473
  207MPD1    C2 3198   2.306   2.554   9.290 -0.2584  0.8110  0.4763
  207MPD1    C3 3199   2.386   2.454   9.349 -0.1062  0.8999 -0.5756
  207MPD1    C4 3200   2.332   2.328   9.370  0.1529  0.4366 -0.5291
  207MPD1    C5 3201   2.203   2.309   9.325 -0.0953 -0.5284  0.1364
  207MPD1     H 3202   2.341   2.656   9.279  2.0663 -0.1940 -1.4062
  207MPD1    H1 3203   2.375   2.239   9.416  1.7963  0.4398 -2.0393
  207MPD1    H2 3204   2.036   2.368   9.219  0.8939  0.9247 -1.6362
  207MPD1    H3 3205   2.169   2.206   9.336 -1.3281 -0.0825  0.4222
  207MPD1     N 3206   2.521   2.474   9.391  0.5382  0.4246 -0.8702
  207MPD1    H5 3207   2.561   2.395   9.441 -2.5123  0.2678  1.3587
  207MPD1    N1 3208   2.116   2.618   9.162  0.1813 -0.1279  0.1631
  207MPD1    H6 3209   2.032   2.586   9.114  0.6552 -0.5195 -0.4097
  207MPD1    H7 3210   2.175   2.656   9.088 -0.0071 -1.6141 -0.7657
  208MPD1     C 3211   1.153   0.959  17.001  1.1508  0.5899 -0.1451
  208MPD1    C1 3212   1.068   0.870  16.931 -0.3366  0.1063  0.1513
  208MPD1    C2 3213   1.062   0.739  16.962  0.6819 -0.0719 -0.2515
  208MPD1    C3 3214   1.156   0.687  17.052 -0.8034  0.0267  0.5246
  208MPD1    C4 3215   1.253   0.769  17.106  0.1135 -0.1562  0.0844
  208MPD1    C5 3216   1.252   0.905  17.085  0.4685 -0.2813  0.3152
  208MPD1     H 3217   0.986   0.677  16.916 -1.1038  1.4288  0.6945
  208MPD1    H1 3218   1.323   0.740  17.183  0.5891 -1.9068 -1.0103
  208MPD1    H2 3219   1.153   1.066  16.984 -1.9553  0.6829  0.4873
  208MPD1    H3 3220   1.330   0.971  17.121  0.1004  1.3498 -1.8632
  208MPD1     N 3221   1.147   0.551  17.089  0.2081  0.2822  0.8209
  208MPD1    H5 3222   1.071   0.495  17.052  0.2513 -1.1008  2.8259
  208MPD1    N1 3223   0.958   0.923  16.856 -0.0356 -0.2058 -0.4885
  208MPD1    H6 3224   0.999   0.990  16.791  0.1389  1.0652  0.9442
  208MPD1    H7 3225   0.934   0.846  16.793 -0.8184 -0.3410 -0.0309
  209MPD1     C 3226   3.705   1.473  10.476 -0.6369  0.1923 -0.0851
  209MPD1    C1 3227   3.629   1.491  10.587 -0.2457  0.0632  0.4697
  209MPD1    C2 3228   3.500   1.542  10.566 -0.1651 -0.5723  0.3823
  209MPD1    C3 3229   3.454   1.583  10.443 -0.1569  0.1868 -0.7384
  209MPD1    C4 3230   3.546   1.573  10.336 -0.3540  0.7175 -0.1071
  209MPD1    C5 3231   3.667   1.511  10.350 -0.7855 -0.4910  0.2167
  209MPD1     H 3232   3.434   1.559  10.650 -1.5091  0.7630 -0.9398
  209MPD1    H1 3233   3.523   1.603  10.234  0.6034 -2.2055 -1.1638
  209MPD1    H2 3234   3.800   1.421  10.488 -0.6045 -0.2554 -2.2840
  209MPD1    H3 3235   3.726   1.491  10.261 -0.6117 -2.6774  0.8091
  209MPD1     N 3236   3.326   1.652  10.423  0.2336 -0.2202  0.0015
  209MPD1    H5 3237   3.278   1.681  10.508  0.7088  1.6828 -0.3805
  209MPD1    N1 3238   3.672   1.425  10.706 -0.0524  0.5703  0.2322
  209MPD1    H6 3239   3.773   1.412  10.713 -0.1341 -0.5257 -0.7323
  209MPD1    H7 3240   3.623   1.453  10.791  1.0997 -1.5568  1.5979
  210MPD1     C 3241   2.527   2.062  10.846  0.0191  0.7466 -0.1652
  210MPD1    C1 3242   2.613   1.959  10.881 -0.0816  0.1602  0.0550
  210MPD1    C2 3243   2.712   1.932  10.795  0.2740  0.2227 -0.6197
  210MPD1    C3 3244   2.705   1.985  10.665  0.1941  0.1889  0.5968
  210MPD1    C4 3245   2.612   2.077  10.627 -0.2011  0.3946  0.2396
  210MPD1    C5 3246   2.533   2.124  10.729 -0.2839  0.9026 -0.3551
  210MPD1     H 3247   2.797   1.870  10.820  1.6666  2.6471  0.6791
  210MPD1    H1 3248   2.602   2.122  10.529 -2.3558 -2.8803 -1.0494
  210MPD1    H2 3249   2.460   2.100  10.923 -1.2804  1.0074 -1.4315
  210MPD1    H3 3250   2.457   2.200  10.720 -0.2679  0.9945  0.3376
  210MPD1     N 3251   2.797   1.954  10.564 -0.0979  0.1842 -0.3148
  210MPD1    H5 3252   2.784   1.982  10.467 -0.6524 -4.1925 -1.5258
  210MPD1    N1 3253   2.619   1.916  11.014  0.1197  0.1287 -0.1198
  210MPD1    H6 3254   2.527   1.911  11.057 -0.4506  2.4717 -1.0617
  210MPD1    H7 3255   2.670   1.828  11.015  0.2029  0.1872  0.5925
  211MPD1     C 3256   0.531   1.472  16.395  0.4175  0.1332 -0.5840
  211MPD1    C1 3257   0.446   1.465  16.505  0.0909  0.2941  0.1547
  211MPD1    C2 3258   0.306   1.474  16.482  0.3414 -0.1351 -0.5906
  211MPD1    C3 3259   0.260   1.513  16.361 -0.1260  0.1455  0.4789
  211MPD1    C4 3260   0.347   1.515  16.254  0.1166  0.0460 -0.1069
  211MPD1    C5 3261   0.481   1.490  16.271 -0.5372 -0.4253 -0.2848
  211MPD1     H 3262   0.245   1.475  16.572 -0.1149 -1.9327 -0.8874
  211MPD1    H1 3263   0.304   1.540  16.158 -2.1191 -2.3370  0.2779
  211MPD1    H2 3264   0.638   1.461  16.407  0.3404 -0.4655 -0.4439
  211MPD1    H3 3265   0.561   1.495  16.199 -1.6318 -0.8965 -1.5410
  211MPD1     N 3266   0.114   1.538  16.349  0.2120 -0.0816 -0.1816
  211MPD1    H5 3267   0.067   1.532  16.439  0.4082  0.5916 -0.0304
  211MPD1    N1 3268   0.500   1.412  16.625  0.2815 -0.0354 -0.1238
  211MPD1    H6 3269   0.593   1.452  16.637 -0.2060 -0.1213  3.9108
  211MPD1    H7 3270   0.435   1.433  16.700  1.7686  1.6329  0.6793
  212MPD1     C 3271   4.263   3.775  16.739  0.1897 -0.1690 -0.3663
  212MPD1    C1 3272   4.216   3.829  16.855 -0.3113  0.2742 -0.2883
  212MPD1    C2 3273   4.142   3.751  16.947  0.0333 -0.4083 -0.5914
  212MPD1    C3 3274   4.104   3.616  16.921 -0.3757  0.2230  0.0369
  212MPD1    C4 3275   4.146   3.566  16.799 -0.7557 -0.3802  0.4878
  212MPD1    C5 3276   4.223   3.641  16.715 -0.0978  0.7209  1.0415
  212MPD1     H 3277   4.100   3.808  17.028  2.0890 -0.0873  0.2182
  212MPD1    H1 3278   4.119   3.468  16.761 -0.0222 -0.6048  0.5566
  212MPD1    H2 3279   4.321   3.822  16.659  0.0191  0.6625  0.0010
  212MPD1    H3 3280   4.263   3.587  16.629 -1.5993 -0.7557  1.2719
  212MPD1     N 3281   4.031   3.527  17.010  0.8522 -0.2428  0.3620
  212MPD1    H5 3282   4.033   3.430  16.979  1.0562 -0.1905  0.2110
  212MPD1    N1 3283   4.269   3.956  16.885 -0.4155 -0.2551  0.8576
  212MPD1    H6 3284   4.307   4.019  16.816 -1.0060  0.1024  0.8655
  212MPD1    H7 3285   4.210   4.025  16.932 -2.0017 -0.5170 -0.7590
  213MPD1     C 3286   2.449   4.354  15.126 -0.9567  0.1936 -0.4346
  213MPD1    C1 3287   2.493   4.457  15.043 -0.2311 -0.3534 -0.2263
  213MPD1    C2 3288   2.395   4.512  14.957  0.7949 -0.1574 -0.0955
  213MPD1    C3 3289   2.274   4.447  14.928  0.1915 -0.3864 -0.4452
  213MPD1    C4 3290   2.252   4.326  14.995 -0.5668 -0.6731  0.8379
  213MPD1    C5 3291   2.337   4.290  15.097  0.1199 -0.3240 -0.8413
  213MPD1     H 3292   2.416   4.613  14.925  0.7150  0.1364  0.7618
  213MPD1    H1 3293   2.165   4.264  14.978 -1.0403  0.0097  0.7269
  213MPD1    H2 3294   2.520   4.313  15.198  0.6423  3.0266 -0.4284
  213MPD1    H3 3295   2.311   4.195  15.143 -1.6526 -0.2209 -1.6149
  213MPD1     N 3296   2.200   4.502  14.824  0.1415 -0.5619  0.1130
  213MPD1    H5 3297   2.228   4.589  14.780 -0.7228 -0.3032  0.0619
  213MPD1    N1 3298   2.581   4.547  15.096 -0.3390 -0.2187 -0.3693
  213MPD1    H6 3299   2.616   4.613  15.027 -0.2026  1.6879  1.5171
  213MPD1    H7 3300   2.659   4.492  15.133  0.7027  2.2363  1.1143
  214MPD1     C 3301   1.282   4.209  14.618  0.2024 -0.8103  0.0866
  214MPD1    C1 3302   1.300   4.297  14.515 -0.1218  0.3510  0.6202
  214MPD1    C2 3303   1.429   4.358  14.500 -0.7886 -0.0399  0.7179
  214MPD1    C3 3304   1.541   4.298  14.564  0.0107 -0.0642 -0.7056
  214MPD1    C4 3305   1.513   4.214  14.664 -0.4661 -0.3532 -0.1577
  214MPD1    C5 3306   1.394   4.168  14.682  0.1345  0.6227 -0.6746
  214MPD1     H 3307   1.438   4.438  14.427 -1.2589 -0.6490 -0.0167
  214MPD1    H1 3308   1.595   4.173  14.722  0.7204  0.2046 -1.4392
  214MPD1    H2 3309   1.180   4.185  14.647  0.5595 -2.8747 -0.3251
  214MPD1    H3 3310   1.385   4.095  14.762  1.2585 -0.9627 -1.9985
  214MPD1     N 3311   1.680   4.340  14.547 -0.0788 -0.0590  0.3835
  214MPD1    H5 3312   1.747   4.304  14.614 -0.3246  0.1606  0.7462
  214MPD1    N1 3313   1.190   4.351  14.446 -0.2923  0.0634  0.1439
  214MPD1    H6 3314   1.202   4.395  14.355  0.4372 -1.8618 -0.6808
  214MPD1    H7 3315   1.121   4.279  14.431  0.0487 -0.9705  3.4284
  215MPD1     C 3316   2.948   0.702  10.504 -0.0542  0.2715 -0.8324
  215MPD1    C1 3317   2.844   0.784  10.475 -0.1240 -0.6399 -0.2384
  215MPD1    C2 3318   2.832   0.897  10.552  0.6701 -0.2630 -0.1010
  215MPD1    C3 3319   2.908   0.916  10.671 -0.2343 -0.0482  0.5524
  215MPD1    C4 3320   3.001   0.819  10.699  0.3511  0.5476 -0.0345
  215MPD1    C5 3321   3.024   0.716  10.618 -0.7471 -1.3007  0.0373
  215MPD1     H 3322   2.762   0.974  10.523 -0.0232 -0.3088  1.4806
  215MPD1    H1 3323   3.051   0.820  10.795  2.5364  1.2084 -1.1807
  215MPD1    H2 3324   2.964   0.618  10.437 -2.0363 -0.9841  0.2445
  215MPD1    H3 3325   3.101   0.644  10.645  1.8157  1.7880  1.0236
  215MPD1     N 3326   2.890   1.037  10.745  0.3704  0.6619 -0.7622
  215MPD1    H5 3327   2.823   1.098  10.701 -0.9813  0.4365  0.9574
  215MPD1    N1 3328   2.785   0.773  10.348 -0.0308 -0.3505 -0.2140
  215MPD1    H6 3329   2.700   0.824  10.326  0.6646  0.7438 -0.3200
  215MPD1    H7 3330   2.769   0.675  10.325 -2.9291  0.0070  0.2544
  216MPD1     C 3331   4.107   4.027  17.397 -0.5857  0.0391  0.8528
  216MPD1    C1 3332   4.005   3.941  17.359  0.5506  0.7654  0.5948
  216MPD1    C2 3333   3.952   3.860  17.459 -0.4069  0.1789  0.1430
  216MPD1    C3 3334   4.003   3.845  17.587 -0.5980  0.0273  0.1117
  216MPD1    C4 3335   4.110   3.935  17.623  0.2852  0.6076  0.2496
  216MPD1    C5 3336   4.153   4.022  17.525  0.3388 -0.2225 -0.0356
  216MPD1     H 3337   3.864   3.801  17.438 -0.7967  1.0057 -0.5077
  216MPD1    H1 3338   4.153   3.941  17.722 -1.8516  1.8730  1.1045
  216MPD1    H2 3339   4.154   4.101  17.333  0.0379 -2.3313 -1.4485
  216MPD1    H3 3340   4.223   4.101  17.551 -1.4333  1.6344 -0.8179
  216MPD1     N 3341   3.970   3.738  17.674 -0.6646  0.0943 -0.0994
  216MPD1    H5 3342   3.900   3.673  17.641 -1.9936  0.4125  2.0871
  216MPD1    N1 3343   3.948   3.966  17.235 -0.5270  0.0529  0.0578
  216MPD1    H6 3344   4.015   3.998  17.165 -0.6194 -0.1632 -0.1310
  216MPD1    H7 3345   3.901   3.885  17.195 -1.1392  0.9727 -1.0936
  217MPD1     C 3346   4.500   4.344   9.298 -0.2104  0.7091  0.5145
  217MPD1    C1 3347   4.626   4.294   9.268  0.0306  0.0735 -0.2622
  217MPD1    C2 3348   0.005   4.367   9.289 -0.5828 -0.0676  0.1878
  217MPD1    C3 3349   0.002   4.500   9.324 -0.4857  0.0477  0.2461
  217MPD1    C4 3350   4.608   4.560   9.342  0.0870  1.3014 -0.1808
  217MPD1    C5 3351   4.492   4.481   9.328 -0.3791 -0.0766  0.0713
  217MPD1     H 3352   0.103   4.327   9.269 -0.2957 -0.1584  1.7463
  217MPD1    H1 3353   4.592   4.664   9.370 -1.1423  1.2435 -0.6862
  217MPD1    H2 3354   4.411   4.284   9.312  0.2736  0.0559  0.7588
  217MPD1    H3 3355   4.399   4.535   9.338  0.3230  1.2568 -0.5932
  217MPD1     N 3356   0.118   4.583   9.340  0.5930 -0.6640  0.2453
  217MPD1    H5 3357   0.096   4.679   9.362 -2.6413 -0.8832 -1.9333
  217MPD1    N1 3358   4.632   4.155   9.254 -0.2698 -0.0767  0.3968
  217MPD1    H6 3359   4.544   4.129   9.212 -0.7808 -1.7953  2.4813
  217MPD1    H7 3360   4.705   4.132   9.187 -2.0081  2.2515 -2.2391
  218MPD1     C 3361   1.557   0.772  13.069  0.0751  0.1516  0.7925
  218MPD1    C1 3362   1.692   0.779  13.068  0.3418  0.1113 -0.2939
  218MPD1    C2 3363   1.753   0.859  12.971  0.8363 -0.3080 -0.4775
  218MPD1    C3 3364   1.688   0.912  12.861  0.4788  0.4060 -0.5385
  218MPD1    C4 3365   1.549   0.903  12.859  0.4648 -0.3111  0.4506
  218MPD1    C5 3366   1.493   0.839  12.969  0.5926 -0.2466 -0.2090
  218MPD1     H 3367   1.858   0.885  12.983  1.1055 -1.6062 -0.0777
  218MPD1    H1 3368   1.479   0.946  12.788 -0.8153  1.2241  2.6459
  218MPD1    H2 3369   1.499   0.720  13.145 -0.7482 -1.4085 -0.9108
  218MPD1    H3 3370   1.386   0.836  12.986  0.6306 -1.4279 -0.1823
  218MPD1     N 3371   1.769   0.966  12.760 -0.1151  0.0271  0.3852
  218MPD1    H5 3372   1.868   0.983  12.775 -0.2111  1.8474 -1.0131
  218MPD1    N1 3373   1.774   0.745  13.178  0.0384 -0.2980  0.7371
  218MPD1    H6 3374   1.748   0.676  13.249 -0.2407 -0.9424  0.0135
  218MPD1    H7 3375   1.868   0.721  13.147 -0.8935 -0.2158 -2.2092
  219MPD1     C 3376   2.067   1.709  12.060  0.0035  0.1915  0.5157
  219MPD1    C1 3377   1.944   1.697  12.123 -0.0691  0.5558 -0.0194
  219MPD1    C2 3378   1.915   1.573  12.176  0.1863  0.4855 -0.4529
  219MPD1    C3 3379   2.008   1.471  12.176  0.1229  0.7622 -1.3389
  219MPD1    C4 3380   2.131   1.492  12.118  0.2081 -1.1257 -0.4646
  219MPD1    C5 3381   2.166   1.616  12.065 -0.1409 -0.6691  0.3225
  219MPD1     H 3382   1.819   1.553  12.221  0.7626 -2.7282 -0.7002
  219MPD1    H1 3383   2.197   1.407  12.111 -0.7721 -1.7654 -1.9396
  219MPD1    H2 3384   2.091   1.799  12.003  1.5389  0.3526  1.4363
  219MPD1    H3 3385   2.264   1.630  12.023  0.5033 -0.4973  1.8835
  219MPD1     N 3386   1.994   1.341  12.243 -0.0635 -0.5348 -0.2670
  219MPD1    H5 3387   2.079   1.286  12.249 -1.4446 -2.6014  0.5752
  219MPD1    N1 3388   1.832   1.777  12.088 -0.2837  0.4141  0.0813
  219MPD1    H6 3389   1.857   1.875  12.074 -1.0308  0.4563 -0.8898
  219MPD1    H7 3390   1.770   1.766  12.168 -1.7608 -1.9210 -1.3900
  220MPD1     C 3391   2.135   0.941  11.253 -0.0468  0.1759 -0.7698
  220MPD1    C1 3392   2.196   1.056  11.220  0.0253 -0.0607  0.2813
  220MPD1    C2 3393   2.147   1.129  11.114 -0.3765  0.1332  0.4276
  220MPD1    C3 3394   2.033   1.092  11.053  0.4052 -0.1739  0.0169
  220MPD1    C4 3395   1.964   0.983  11.095 -0.2044  0.1125 -0.1192
  220MPD1    C5 3396   2.018   0.910  11.194  0.6908  0.3194  0.1630
  220MPD1     H 3397   2.202   1.214  11.076 -1.2165  0.8334  0.8058
  220MPD1    H1 3398   1.880   0.945  11.037  1.0670  0.1679 -1.9872
  220MPD1    H2 3399   2.174   0.867  11.323  2.1177  2.0233 -0.0467
  220MPD1    H3 3400   1.970   0.815  11.216 -0.7887  0.5404 -2.0575
  220MPD1     N 3401   2.006   1.162  10.931  0.2534 -0.3125 -0.1014
  220MPD1    H5 3402   2.067   1.238  10.899  0.9978 -0.6901  0.4108
  220MPD1    N1 3403   2.325   1.089  11.261 -0.2268  0.8275 -0.0983
  220MPD1    H6 3404   2.352   1.045  11.349  0.9978  0.3719 -0.6992
  220MPD1    H7 3405   2.357   1.185  11.254  0.6229  0.4717 -0.9839
  221MPD1     C 3406   0.961   4.552  17.030  1.0948  0.0880  0.3236
  221MPD1    C1 3407   0.835   4.559  17.058  0.2572 -0.3997  0.2362
  221MPD1    C2 3408   0.741   4.573  16.955 -0.6160  0.2095  0.9418
  221MPD1    C3 3409   0.778   4.574  16.823  0.2141 -0.3263  1.0162
  221MPD1    C4 3410   0.909   4.547  16.794  1.2613  0.5947  0.3308
  221MPD1    C5 3411   0.995   4.549  16.898 -1.2006 -0.6411 -0.1590
  221MPD1     H 3412   0.637   4.592  16.982 -0.6702  0.6909  0.3708
  221MPD1    H1 3413   0.944   4.545  16.691 -0.1709  0.8092 -0.1611
  221MPD1    H2 3414   1.043   4.543  17.101 -0.0948 -1.8174  1.4665
  221MPD1    H3 3415   1.099   4.534  16.870 -1.2039 -0.3578 -0.3232
  221MPD1     N 3416   0.686   4.610  16.720 -0.8601  0.2918  0.2449
  221MPD1    H5 3417   0.726   4.629  16.628  2.3824 -1.8250  1.2121
  221MPD1    N1 3418   0.797   4.544  17.195  0.3102 -0.9465 -0.6372
  221MPD1    H6 3419   0.702   4.564  17.223  0.7466 -1.1386  0.9379
  221MPD1    H7 3420   0.862   4.586  17.261 -0.6497  0.9574 -0.9022
  222MPD1     C 3421   3.165   3.204   0.028  0.0008  1.4880  0.1765
  222MPD1    C1 3422   3.269   3.256  17.688  0.3246 -0.0183 -0.3792
  222MPD1    C2 3423   3.336   3.360   0.010 -0.1290 -0.1628 -0.1414
  222MPD1    C3 3424   3.308   3.422   0.135 -0.0845  0.0291  0.4643
  222MPD1    C4 3425   3.206   3.361   0.204 -0.0214 -0.9034  0.2263
  222MPD1    C5 3426   3.133   3.259   0.153  0.4466  0.3879  0.5745
  222MPD1     H 3427   3.430   3.379  17.690 -1.7070  1.0693 -2.7367
  222MPD1    H1 3428   3.180   3.388   0.306 -0.9666 -1.7955  0.2198
  222MPD1    H2 3429   3.107   3.127  17.710  2.2823  1.3305 -2.3829
  222MPD1    H3 3430   3.051   3.218   0.212  0.2829 -0.0812  0.0265
  222MPD1     N 3431   3.383   3.521   0.211  0.2610  0.4509 -0.1290
  222MPD1    H5 3432   3.358   3.546   0.305 -2.0371 -1.9043 -0.1116
  222MPD1    N1 3433   3.326   3.187  17.584 -0.0693  0.3724  0.0792
  222MPD1    H6 3434   3.268   3.123  17.530  0.0771  0.6185 -0.3788
  222MPD1    H7 3435   3.401   3.236  17.534  0.4136  0.8154  1.2513
  223MPD1     C 3436   3.395   3.799   1.011 -0.1082 -0.3841 -0.4306
  223MPD1    C1 3437   3.297   3.772   0.921 -0.1737 -0.5785  0.0105
  223MPD1    C2 3438   3.330   3.760   0.791  0.0102 -1.0339 -0.6175
  223MPD1    C3 3439   3.457   3.791   0.749  0.0085 -0.7155 -0.2623
  223MPD1    C4 3440   3.557   3.816   0.838 -0.4369 -0.3386  0.2464
  223MPD1    C5 3441   3.518   3.819   0.970 -0.5486 -0.3390 -0.4965
  223MPD1     H 3442   3.254   3.730   0.720  0.2101 -0.1886 -1.1843
  223MPD1    H1 3443   3.664   3.818   0.821 -0.3378 -0.8887  0.7694
  223MPD1    H2 3444   3.379   3.800   1.118  0.5864  2.4612 -0.3761
  223MPD1    H3 3445   3.600   3.836   1.038 -1.1617  1.3370 -0.1798
  223MPD1     N 3446   3.491   3.777   0.609  0.1243  0.8971  0.6636
  223MPD1    H5 3447   3.420   3.740   0.547  2.0132  0.9666 -1.5380
  223MPD1    N1 3448   3.170   3.734   0.965  0.6050 -0.4743  0.1407
  223MPD1    H6 3449   3.105   3.770   0.896 -0.0255  0.4089  1.1864
  223MPD1    H7 3450   3.148   3.770   1.058 -0.6902 -1.8330  0.3662
  224MPD1     C 3451   0.513   0.588   9.000  0.4958  0.8499  0.2440
  224MPD1    C1 3452   0.496   0.724   8.973 -0.1907  0.5281  0.2590
  224MPD1    C2 3453   0.568   0.810   9.053  0.0820  0.2797 -0.0731
  224MPD1    C3 3454   0.666   0.767   9.145  0.4561  1.1369 -0.0393
  224MPD1    C4 3455   0.687   0.633   9.152  0.1721  0.4935  0.8804
  224MPD1    C5 3456   0.606   0.543   9.089  0.2531  0.0465  0.1920
  224MPD1     H 3457   0.557   0.917   9.040 -2.1629  0.0011 -0.4387
  224MPD1    H1 3458   0.772   0.598   9.209  0.9100 -0.7008 -0.9563
  224MPD1    H2 3459   0.460   0.517   8.938 -0.3135 -0.0676  2.0073
  224MPD1    H3 3460   0.625   0.437   9.101 -0.0048 -0.1490 -1.0638
  224MPD1     N 3461   0.763   0.847   9.220  0.3419  0.2976 -0.0442
  224MPD1    H5 3462   0.843   0.801   9.263  0.0682  0.7362  0.9260
  224MPD1    N1 3463   0.396   0.771   8.896  0.2407 -0.3725  0.5365
  224MPD1    H6 3464   0.416   0.869   8.878 -0.7671 -0.3445 -0.4013
  224MPD1    H7 3465   0.377   0.713   8.814  2.1240 -1.0562  0.5898
  225MPD1     C 3466   1.634   2.031  11.905  0.3966  0.3495 -0.1245
  225MPD1    C1 3467   1.545   1.967  11.818  0.6511 -0.3046 -0.0212
  225MPD1    C2 3468   1.433   1.906  11.868  0.0935  0.4450  0.3368
  225MPD1    C3 3469   1.423   1.882  11.999 -0.3568  0.3896  0.0666
  225MPD1    C4 3470   1.513   1.932  12.081  0.0550  0.5267  0.3823
  225MPD1    C5 3471   1.618   2.005  12.038  0.0782  0.2700  0.5515
  225MPD1     H 3472   1.357   1.878  11.797  0.3801 -0.5087  0.4128
  225MPD1    H1 3473   1.494   1.920  12.187 -0.3925 -0.0020  0.2406
  225MPD1    H2 3474   1.720   2.094  11.884  0.9745 -0.0822  0.9975
  225MPD1    H3 3475   1.698   2.036  12.104  2.0477 -3.0731 -0.2747
  225MPD1     N 3476   1.320   1.795  12.047  0.4594 -0.3164  0.2811
  225MPD1    H5 3477   1.320   1.776  12.147 -0.3698 -1.7312 -0.0004
  225MPD1    N1 3478   1.549   2.007  11.685 -0.3210 -0.3042  0.0206
  225MPD1    H6 3479   1.642   2.026  11.648 -0.8582  1.6543 -0.3042
  225MPD1    H7 3480   1.503   1.942  11.621 -0.0139 -0.2488 -0.2557
  226MPD1     C 3481   4.558   2.316   9.737 -0.7984  0.4237 -0.1239
  226MPD1    C1 3482   4.692   2.353   9.714 -0.3742  0.7008 -1.2997
  226MPD1    C2 3483   0.052   2.269   9.650 -0.9946 -0.6217 -0.2425
  226MPD1    C3 3484   0.019   2.141   9.634 -0.0957 -0.4288  0.4443
  226MPD1    C4 3485   4.630   2.101   9.667  0.2466  0.9892 -0.5302
  226MPD1    C5 3486   4.534   2.183   9.717  0.6458 -0.0439 -0.0287
  226MPD1     H 3487   0.140   2.318   9.609 -1.0695 -1.3149 -1.2321
  226MPD1    H1 3488   4.613   1.995   9.653  1.4442  0.3225  3.0013
  226MPD1    H2 3489   4.488   2.384   9.785  2.2950  3.5538 -0.0058
  226MPD1    H3 3490   4.441   2.136   9.748  0.0129  1.5845  0.5434
  226MPD1     N 3491   0.101   2.048   9.567 -0.3719  0.2631  0.4455
  226MPD1    H5 3492   0.062   1.956   9.551  1.0909 -0.2555 -0.1827
  226MPD1    N1 3493   4.726   2.488   9.721  0.3158 -0.3455 -0.2063
  226MPD1    H6 3494   0.092   2.504   9.739 -0.0188  2.0819 -0.5836
  226MPD1    H7 3495   4.674   2.532   9.797  0.5767  0.3728 -0.4433
  227MPD1     C 3496   0.317   1.094   9.531 -0.8277 -0.1986 -0.3569
  227MPD1    C1 3497   0.388   1.137   9.420  0.3134  0.3735  0.0786
  227MPD1    C2 3498   0.395   1.275   9.397 -0.6107 -0.1576 -0.6342
  227MPD1    C3 3499   0.360   1.364   9.496  0.6470  0.6003  0.0687
  227MPD1    C4 3500   0.305   1.321   9.605 -0.0001 -1.0629 -0.8976
  227MPD1    C5 3501   0.287   1.187   9.625  0.1129  0.0806 -0.3400
  227MPD1     H 3502   0.433   1.298   9.298  1.9100  1.1431  0.6527
  227MPD1    H1 3503   0.276   1.387   9.686 -0.1671 -2.6546  0.3262
  227MPD1    H2 3504   0.306   0.989   9.556  1.1707 -0.8917 -2.4275
  227MPD1    H3 3505   0.242   1.157   9.718 -2.7476  0.8388 -1.4935
  227MPD1     N 3506   0.378   1.503   9.480  0.4926  0.6397 -0.0567
  227MPD1    H5 3507   0.437   1.539   9.405 -1.1224 -0.0619 -1.6814
  227MPD1    N1 3508   0.408   1.052   9.307  0.2088  0.1517  0.2027
  227MPD1    H6 3509   0.406   0.952   9.325 -0.0466  0.1527  0.1874
  227MPD1    H7 3510   0.498   1.068   9.262  0.2393 -1.1768 -0.1981
  228MPD1     C 3511   3.571   4.550  13.050 -0.5224 -0.1823  0.0818
  228MPD1    C1 3512   3.537   4.437  13.129 -0.2196 -0.0797 -0.1073
  228MPD1    C2 3513   3.432   4.359  13.080 -0.3203 -0.1310  0.3466
  228MPD1    C3 3514   3.348   4.401  12.973 -0.2070  0.3287  0.0843
  228MPD1    C4 3515   3.382   4.516  12.905  0.2757 -0.8577 -0.1951
  228MPD1    C5 3516   3.494   4.583  12.942  0.5896 -0.0426 -0.2521
  228MPD1     H 3517   3.404   4.265  13.125 -1.4861 -0.4824 -1.1133
  228MPD1    H1 3518   3.333   4.549  12.815 -0.6754 -1.3973  0.1315
  228MPD1    H2 3519   3.656   4.610  13.080 -0.2391  0.4481 -2.0022
  228MPD1    H3 3520   3.526   4.661  12.874 -0.9701  0.1504 -0.7674
  228MPD1     N 3521   3.245   4.312  12.923  0.1534  0.6709  0.1822
  228MPD1    H5 3522   3.240   4.224  12.973 -1.3608  1.8851  2.1532
  228MPD1    N1 3523   3.625   4.396  13.237  0.2197 -0.1934 -0.2228
  228MPD1    H6 3524   3.688   4.472  13.262  0.0047  0.4591 -1.6485
  228MPD1    H7 3525   3.685   4.326  13.193 -0.8304 -0.8316 -0.6608
  229MPD1     C 3526   3.418   3.104  14.529  0.1472  0.2604  0.1403
  229MPD1    C1 3527   3.341   3.113  14.641 -0.4969  0.2219  0.5527
  229MPD1    C2 3528   3.391   3.076  14.766  0.0796  0.2118 -0.5697
  229MPD1    C3 3529   3.519   3.020  14.773  0.4860 -0.3238  0.5423
  229MPD1    C4 3530   3.596   3.020  14.661  0.7584 -0.5165  0.2271
  229MPD1    C5 3531   3.548   3.055  14.546 -0.5063 -0.8756  0.1516
  229MPD1     H 3532   3.334   3.080  14.858  0.6091  1.4973 -0.2983
  229MPD1    H1 3533   3.697   2.982  14.665  0.5341 -0.9483  1.5287
  229MPD1    H2 3534   3.382   3.136  14.432  0.0883 -0.0056  0.0747
  229MPD1    H3 3535   3.608   3.057  14.456 -0.3577  1.0506  0.2832
  229MPD1     N 3536   3.574   2.969  14.890  1.0229  0.1996  0.1685
  229MPD1    H5 3537   3.671   2.941  14.886  0.9749  0.2276 -1.0767
  229MPD1    N1 3538   3.211   3.178  14.636  0.2764 -0.0454  0.1631
  229MPD1    H6 3539   3.154   3.147  14.558 -0.7335 -1.9103  1.6695
  229MPD1    H7 3540   3.146   3.163  14.712  0.4676  0.0426  0.3457
  230MPD1     C 3541   3.555   2.662  15.962 -0.3217 -0.4541  0.4004
  230MPD1    C1 3542   3.643   2.589  15.893 -0.1313 -0.4817 -0.6712
  230MPD1    C2 3543   3.640   2.610  15.753 -0.2419  0.3909  0.2826
  230MPD1    C3 3544   3.568   2.709  15.692  0.6241 -0.8465  0.8141
  230MPD1    C4 3545   3.483   2.786  15.774  0.1133  0.2030 -0.3773
  230MPD1    C5 3546   3.474   2.754  15.908 -0.7810 -0.3257 -0.0934
  230MPD1     H 3547   3.700   2.539  15.696 -0.7519 -0.8224  1.2428
  230MPD1    H1 3548   3.421   2.862  15.728 -1.8244 -1.7500 -1.0012
  230MPD1    H2 3549   3.545   2.654  16.070 -1.0572  0.5074  0.4050
  230MPD1    H3 3550   3.410   2.812  15.974 -1.8515 -0.8484 -0.6768
  230MPD1     N 3551   3.609   2.740  15.561 -0.2637 -0.3860 -0.1316
  230MPD1    H5 3552   3.691   2.691  15.527 -0.1495 -0.2134 -0.1016
  230MPD1    N1 3553   3.707   2.476  15.948  0.1852 -0.2736  0.4633
  230MPD1    H6 3554   3.791   2.455  15.895 -0.6620 -1.5165 -0.3825
  230MPD1    H7 3555   3.745   2.492  16.041  0.6284 -2.2001  0.6178
  231MPD1     C 3556   1.669   4.674  14.780  0.4738  0.8193 -0.1720
  231MPD1    C1 3557   1.609   4.716  14.662 -0.0018  0.1003  0.3160
  231MPD1    C2 3558   1.673   0.081  14.596 -0.2811 -0.4550  0.3825
  231MPD1    C3 3559   1.795   0.135  14.640 -0.1648 -0.3911 -0.3970
  231MPD1    C4 3560   1.852   0.092  14.757 -0.1175 -0.4202 -0.0238
  231MPD1    C5 3561   1.789   4.729  14.829 -0.0186 -0.0013 -0.1772
  231MPD1     H 3562   1.612   0.127  14.519  1.2534 -2.1722 -1.8469
  231MPD1    H1 3563   1.939   0.144  14.795  0.2419 -0.3468 -0.9399
  231MPD1    H2 3564   1.627   4.598  14.845 -1.7978  0.9930 -1.4337
  231MPD1    H3 3565   1.828   4.692  14.923 -1.0703  0.0051  0.2567
  231MPD1     N 3566   1.841   0.236  14.555  1.1261  0.2619  0.9922
  231MPD1    H5 3567   1.784   0.257  14.474  3.1490 -0.9526 -0.7311
  231MPD1    N1 3568   1.479   4.669  14.622  0.2655 -0.0658  0.0772
  231MPD1    H6 3569   1.461   4.578  14.663 -1.1677 -0.0750 -0.5977
  231MPD1    H7 3570   1.458   4.652  14.524  1.9913 -0.8298 -0.1546
  232MPD1     C 3571   3.969   2.846   1.016  0.5746  0.5654  0.2251
  232MPD1    C1 3572   4.025   2.722   1.002 -0.1066 -0.3826 -0.1714
  232MPD1    C2 3573   3.956   2.622   0.947 -0.1937  0.1688 -0.3347
  232MPD1    C3 3574   3.824   2.636   0.904 -0.5754 -0.3895  0.4306
  232MPD1    C4 3575   3.768   2.763   0.919 -0.1147 -0.4419  0.2809
  232MPD1    C5 3576   3.845   2.867   0.967 -0.1949  0.6012  0.2733
  232MPD1     H 3577   4.009   2.530   0.923  1.6618  0.9034  0.9346
  232MPD1    H1 3578   3.667   2.787   0.887  0.0904  0.3320  0.2085
  232MPD1    H2 3579   4.035   2.918   1.063  0.2810  1.1322 -0.2357
  232MPD1    H3 3580   3.811   2.969   0.964  0.5894  0.8100 -1.8339
  232MPD1     N 3581   3.758   2.521   0.855  0.2561 -0.4591 -0.0684
  232MPD1    H5 3582   3.814   2.437   0.854  1.1858  0.1730 -2.5828
  232MPD1    N1 3583   4.163   2.708   1.040  0.3359 -0.8693 -0.2231
  232MPD1    H6 3584   4.184   2.730   1.136 -1.0195  1.7487 -0.5355
  232MPD1    H7 3585   4.191   2.610   1.032  0.0697 -1.0168  0.7203
  233MPD1     C 3586   3.623   0.099  16.935  0.5142 -0.0250  0.3176
  233MPD1    C1 3587   3.730   0.016  16.903  0.8587 -0.0674 -0.4150
  233MPD1    C2 3588   3.847   0.028  16.979  0.1836 -0.6102  0.2988
  233MPD1    C3 3589   3.850   0.100  17.093 -0.4885 -0.0041  0.1239
  233MPD1    C4 3590   3.734   0.174  17.133  0.5810  0.1533  0.2026
  233MPD1    C5 3591   3.617   0.169  17.051 -0.0937 -0.4850  0.4860
  233MPD1     H 3592   3.933   4.703  16.947  0.2999 -0.9568  1.2359
  233MPD1    H1 3593   3.715   0.239  17.218  1.9994  1.4224 -0.4627
  233MPD1    H2 3594   3.543   0.108  16.862 -0.8034 -0.8440  1.6592
  233MPD1    H3 3595   3.521   0.212  17.076 -0.1772 -0.2676 -0.1927
  233MPD1     N 3596   3.958   0.121  17.179  0.0463 -0.1820  0.2554
  233MPD1    H5 3597   3.924   0.172  17.260  3.3452 -0.0242  1.5256
  233MPD1    N1 3598   3.733   4.673  16.784 -0.4537  0.0903  0.4330
  233MPD1    H6 3599   3.797   4.594  16.792 -0.8427 -0.2863 -0.2778
  233MPD1    H7 3600   3.644   4.632  16.759  1.2031 -2.4083 -1.3628
  234MPD1     C 3601   1.889   4.301   9.611 -0.0763 -0.0855  0.0263
  234MPD1    C1 3602   1.767   4.309   9.554 -0.2263 -0.0733  0.3364
  234MPD1    C2 3603   1.692   4.420   9.574  0.4764  0.5851  0.1408
  234MPD1    C3 3604   1.725   4.514   9.661  0.0100 -0.3109 -0.2955
  234MPD1    C4 3605   1.845   4.497   9.732 -0.4923 -0.4560 -0.2669
  234MPD1    C5 3606   1.926   4.399   9.703  0.1392 -0.2251 -0.4681
  234MPD1     H 3607   1.600   4.421   9.517  0.9413 -0.8383 -0.6133
  234MPD1    H1 3608   1.868   4.577   9.802 -1.9668  0.4348 -0.8124
  234MPD1    H2 3609   1.961   4.223   9.589 -0.9095 -1.4666  2.1767
  234MPD1    H3 3610   2.025   4.404   9.747 -0.6057  0.7280  1.0929
  234MPD1     N 3611   1.624   4.613   9.683  0.9247  0.4083  0.2498
  234MPD1    H5 3612   1.551   4.628   9.614 -0.0187 -0.1553  1.1135
  234MPD1    N1 3613   1.750   4.236   9.435  0.5734 -0.5407 -0.2801
  234MPD1    H6 3614   1.778   4.142   9.462  1.3715 -0.3685 -0.5012
  234MPD1    H7 3615   1.649   4.230   9.422  0.3522  1.1275  0.6286
  235MPD1     C 3616   2.480   2.110   9.815 -0.0331 -0.3258  0.9776
  235MPD1    C1 3617   2.566   2.149   9.915 -0.4952  0.2759  0.0956
  235MPD1    C2 3618   2.597   2.282   9.931  0.1816  0.3897  0.3589
  235MPD1    C3 3619   2.534   2.378   9.852 -0.3504 -0.6028 -0.0912
  235MPD1    C4 3620   2.444   2.341   9.759 -0.5427 -0.1024  0.4066
  235MPD1    C5 3621   2.423   2.203   9.733  0.0296  0.9002 -0.1759
  235MPD1     H 3622   2.668   2.317  10.006  1.1034  1.4770 -1.0270
  235MPD1    H1 3623   2.385   2.409   9.700 -1.2624  0.0217  1.2690
  235MPD1    H2 3624   2.456   2.005   9.800  1.2846 -0.8766  2.7152
  235MPD1    H3 3625   2.338   2.176   9.670 -1.1037  0.8746  1.3745
  235MPD1     N 3626   2.564   2.517   9.883  0.5801 -0.0279  0.8792
  235MPD1    H5 3627   2.632   2.542   9.955  0.6046  1.1614  0.4518
  235MPD1    N1 3628   2.623   2.048   9.996 -0.1931 -0.1770 -0.0912
  235MPD1    H6 3629   2.724   2.057   9.984 -0.5306  1.6899 -1.5438
  235MPD1    H7 3630   2.600   1.950   9.980  2.4820 -0.6579 -0.9201
  236MPD1     C 3631   1.178   4.253  10.033 -0.0334 -1.2475  0.2173
  236MPD1    C1 3632   1.261   4.270  10.141 -0.0435  0.4209  0.3464
  236MPD1    C2 3633   1.359   4.178  10.165 -0.8269 -0.0837  0.0076
  236MPD1    C3 3634   1.373   4.062  10.099  0.6010  0.2190 -0.4194
  236MPD1    C4 3635   1.285   4.042   9.996  0.3227  0.0846  0.0986
  236MPD1    C5 3636   1.194   4.137   9.961  0.2850 -0.6843 -0.2596
  236MPD1     H 3637   1.425   4.201  10.247 -1.2203  0.2750  0.2201
  236MPD1    H1 3638   1.289   3.964   9.921  0.6172  1.3625 -1.2312
  236MPD1    H2 3639   1.111   4.335  10.006  0.8921  0.3301  2.6919
  236MPD1    H3 3640   1.129   4.118   9.877  1.8729 -2.9330 -1.0201
  236MPD1     N 3641   1.475   3.971  10.128  0.0938  0.5494  0.3430
  236MPD1    H5 3642   1.462   3.886  10.075  0.7142  0.2952  0.6031
  236MPD1    N1 3643   1.263   4.394  10.210 -0.1875 -0.2215  0.0879
  236MPD1    H6 3644   1.317   4.382  10.295 -1.1725 -2.7261  0.3536
  236MPD1    H7 3645   1.167   4.424  10.227  0.1386  0.3135  0.9687
  237MPD1     C 3646   2.081   4.667  15.148 -0.0516 -0.7891  0.5619
  237MPD1    C1 3647   2.028   4.700  15.263  0.1506 -0.0202  0.1187
  237MPD1    C2 3648   2.011   0.100  15.294 -0.1233  0.4183  0.7304
  237MPD1    C3 3649   2.052   0.195  15.202 -0.1486 -1.1149  0.0143
  237MPD1    C4 3650   2.096   0.161  15.074  0.0567  0.2248  0.3028
  237MPD1    C5 3651   2.109   0.026  15.054  0.2396  0.2556 -0.0481
  237MPD1     H 3652   1.990   0.133  15.395  2.4209 -0.7800  1.6768
  237MPD1    H1 3653   2.128   0.229  14.996 -0.0130  0.4967  0.5131
  237MPD1    H2 3654   2.086   4.563  15.116  0.7833 -0.6746  0.3213
  237MPD1    H3 3655   2.144   4.722  14.958  0.1081  0.4324 -0.1628
  237MPD1     N 3656   2.045   0.342  15.215 -0.6084 -0.1415  0.0861
  237MPD1    H5 3657   2.086   0.385  15.133 -1.1260 -1.0607 -0.6451
  237MPD1    N1 3658   1.987   4.599  15.353 -0.8589  0.2397 -0.3261
  237MPD1    H6 3659   2.031   4.510  15.331 -1.1367  0.5060 -1.9939
  237MPD1    H7 3660   2.030   4.621  15.443  1.7334 -0.1653 -1.4558
  238MPD1     C 3661   3.749   4.392  14.999 -0.1361  0.3918 -0.3319
  238MPD1    C1 3662   3.653   4.431  15.098 -0.1803 -0.4152 -0.2000
  238MPD1    C2 3663   3.548   4.518  15.052  0.0760 -1.0019  0.8809
  238MPD1    C3 3664   3.520   4.531  14.917 -0.3203  0.3140 -0.0697
  238MPD1    C4 3665   3.611   4.492  14.826 -0.1400 -0.0388  0.4685
  238MPD1    C5 3666   3.718   4.410  14.865 -0.0549  0.4582  0.4787
  238MPD1     H 3667   3.475   4.549  15.126  0.4489  1.3304  0.2545
  238MPD1    H1 3668   3.588   4.511  14.722 -0.1454 -0.1945  0.4412
  238MPD1    H2 3669   3.839   4.339  15.027 -0.6730 -0.4989 -0.3077
  238MPD1    H3 3670   3.798   4.382  14.797  1.2744  2.0907  1.3455
  238MPD1     N 3671   3.397   4.584  14.870 -0.1928 -0.5473  0.2694
  238MPD1    H5 3672   3.379   4.601  14.772  0.7776  0.8629  0.3481
  238MPD1    N1 3673   3.681   4.411  15.236  0.0167 -0.3625  0.0581
  238MPD1    H6 3674   3.742   4.331  15.256  1.0645  0.1743 -0.9576
  238MPD1    H7 3675   3.599   4.415  15.295 -0.8034  0.7728 -1.1507
  239MPD1     C 3676   4.009   0.494  14.776  0.0850 -0.0715  0.3396
  239MPD1    C1 3677   3.878   0.531  14.783  0.0597 -0.1119  0.4418
  239MPD1    C2 3678   3.831   0.628  14.701  0.1501  0.8033  0.5268
  239MPD1    C3 3679   3.913   0.674  14.603 -0.0722  0.1654  0.3366
  239MPD1    C4 3680   4.037   0.627  14.588  0.3760  0.4003 -0.0028
  239MPD1    C5 3681   4.091   0.544  14.684  0.0072  0.8566 -0.3756
  239MPD1     H 3682   3.727   0.660  14.708  0.3343  1.4711  0.1885
  239MPD1    H1 3683   4.104   0.668  14.513  0.1174  1.2799  0.2430
  239MPD1    H2 3684   4.050   0.430  14.853 -1.9370 -0.1133  1.3945
  239MPD1    H3 3685   4.185   0.492  14.674  1.0367  1.8923  3.9627
  239MPD1     N 3686   3.874   0.760  14.496  0.3546  0.2573 -0.0045
  239MPD1    H5 3687   3.938   0.775  14.419  1.5893 -2.5969  0.4688
  239MPD1    N1 3688   3.786   0.472  14.871 -0.1013 -0.3712 -0.5537
  239MPD1    H6 3689   3.695   0.489  14.828  0.4436  0.2064 -1.4838
  239MPD1    H7 3690   3.803   0.372  14.867  1.7856  0.0084 -2.1245
  240MPD1     C 3691   3.245   0.614  13.747 -0.5567 -0.3936 -0.5589
  240MPD1    C1 3692   3.110   0.634  13.728 -0.4226  0.0328  0.0918
  240MPD1    C2 3693   3.024   0.611  13.838  0.1737  0.3680 -0.1187
  240MPD1    C3 3694   3.072   0.550  13.952 -0.3818 -0.4688  0.6229
  240MPD1    C4 3695   3.204   0.512  13.954 -0.1191  0.0576 -0.3905
  240MPD1    C5 3696   3.285   0.536  13.851 -0.5010 -0.3657 -0.1664
  240MPD1     H 3697   2.922   0.639  13.814 -1.1107 -2.2267  2.4350
  240MPD1    H1 3698   3.246   0.482  14.050 -0.2088 -1.6464 -0.8989
  240MPD1    H2 3699   3.311   0.655  13.672 -1.0235  1.5976  0.1100
  240MPD1    H3 3700   3.390   0.517  13.871 -0.4775  0.8927  0.8625
  240MPD1     N 3701   2.981   0.513  14.050 -0.6393 -0.1832  0.2859
  240MPD1    H5 3702   2.882   0.512  14.031 -0.9496  3.8326  1.6605
  240MPD1    N1 3703   3.057   0.711  13.621  0.3104 -0.6275  0.1729
  240MPD1    H6 3704   3.116   0.711  13.538 -2.1952  0.4385 -1.6086
  240MPD1    H7 3705   2.962   0.685  13.595  0.7212 -0.7904 -1.1437
  241MPD1     C 3706   2.801   0.397  15.024  0.1128  0.0801 -0.0193
  241MPD1    C1 3707   2.808   0.270  14.980 -0.0372  0.2214  0.1986
  241MPD1    C2 3708   2.843   0.248  14.849 -0.5967 -0.1566 -0.0643
  241MPD1    C3 3709   2.873   0.349  14.760 -0.4986  0.2101 -0.3658
  241MPD1    C4 3710   2.889   0.480  14.814 -0.1228 -0.3148 -0.0870
  241MPD1    C5 3711   2.843   0.502  14.943 -0.8007  0.0768  0.0587
  241MPD1     H 3712   2.840   0.146  14.811 -1.0084 -0.0770 -0.2402
  241MPD1    H1 3713   2.919   0.561  14.749 -0.0683 -0.9381 -0.8506
  241MPD1    H2 3714   2.777   0.416  15.128  0.9707  2.3682 -0.2451
  241MPD1    H3 3715   2.835   0.604  14.976 -0.1545  0.2938 -0.4632
  241MPD1     N 3716   2.901   0.342  14.625  0.1128  0.7553 -0.0912
  241MPD1    H5 3717   2.937   0.420  14.570  1.1522 -0.0192 -0.5060
  241MPD1    N1 3718   2.760   0.159  15.054  0.2511 -0.0207  0.3165
  241MPD1    H6 3719   2.813   0.073  15.042 -0.8283 -0.2486 -2.7620
  241MPD1    H7 3720   2.755   0.180  15.154  1.4831  0.8419  0.1979
  242MPD1     C 3721   2.365   4.180  16.095 -0.4612  0.3182  0.1077
  242MPD1    C1 3722   2.298   4.142  15.985 -0.4361  1.1612  0.1694
  242MPD1    C2 3723   2.369   4.072  15.881 -0.8193 -0.2831  0.1999
  242MPD1    C3 3724   2.492   4.012  15.905 -0.1551  0.4471  0.4240
  242MPD1    C4 3725   2.552   4.040  16.022  0.1668 -0.5577  0.2149
  242MPD1    C5 3726   2.493   4.123  16.113 -0.2368  0.0485 -0.9602
  242MPD1     H 3727   2.316   4.045  15.790  1.5551 -0.8860 -0.9953
  242MPD1    H1 3728   2.647   3.994  16.049 -0.8422 -2.3783  0.6834
  242MPD1    H2 3729   2.324   4.244  16.172  1.6269 -1.4754  2.6953
  242MPD1    H3 3730   2.543   4.146  16.206  0.8859  2.3006 -2.1131
  242MPD1     N 3731   2.557   3.922  15.818  0.5548 -0.1351  0.2957
  242MPD1    H5 3732   2.644   3.881  15.852 -0.3930  1.4817  4.6550
  242MPD1    N1 3733   2.175   4.204  15.956 -0.0649  0.0901 -0.0049
  242MPD1    H6 3734   2.122   4.213  16.043 -0.6051  2.6207 -0.5861
  242MPD1    H7 3735   2.124   4.157  15.883  0.5006  0.3609 -0.5756
  243MPD1     C 3736   4.097   2.751   0.661 -0.8446  0.5345  0.5346
  243MPD1    C1 3737   4.026   2.777   0.544 -0.4173 -0.6675  0.7574
  243MPD1    C2 3738   4.025   2.688   0.441  0.2917 -0.2397 -0.0178
  243MPD1    C3 3739   4.086   2.570   0.458 -0.2571  0.5339  0.3153
  243MPD1    C4 3740   4.162   2.547   0.573  0.2882 -0.1542  0.2702
  243MPD1    C5 3741   4.168   2.637   0.673 -0.5824 -1.0681  0.2940
  243MPD1     H 3742   3.964   2.698   0.353 -1.0119  1.1611  1.0275
  243MPD1    H1 3743   4.209   2.450   0.586 -1.1251 -0.5484  2.5195
  243MPD1    H2 3744   4.105   2.828   0.736 -0.5908 -0.5582  1.6246
  243MPD1    H3 3745   4.230   2.614   0.759  0.9069 -0.5671 -0.6525
  243MPD1     N 3746   4.063   2.464   0.361  0.2977 -0.2570  0.1485
  243MPD1    H5 3747   3.998   2.479   0.284  0.3223  1.3580  0.4552
  243MPD1    N1 3748   3.933   2.876   0.546  0.4965 -0.2082 -0.0732
  243MPD1    H6 3749   3.902   2.904   0.452 -2.4585  3.3108  1.9174
  243MPD1    H7 3750   3.961   2.952   0.608 -1.0806  1.3690 -1.2585
  244MPD1     C 3751   3.322   1.884   0.005  0.1929  0.4637 -0.6203
  244MPD1    C1 3752   3.408   1.883  17.629 -0.0999 -0.6315  0.1896
  244MPD1    C2 3753   3.538   1.913  17.657  0.4477 -0.5957  0.3439
  244MPD1    C3 3754   3.581   1.950   0.055 -0.2318 -0.2664  0.2103
  244MPD1    C4 3755   3.492   1.953   0.157 -0.1962 -0.2300  0.1128
  244MPD1    C5 3756   3.365   1.914   0.132 -1.0052 -0.2223 -0.0660
  244MPD1     H 3757   3.614   1.926  17.581 -0.9444  1.3850 -0.7068
  244MPD1    H1 3758   3.515   1.973   0.261 -2.1252  1.2165  0.2453
  244MPD1    H2 3759   3.216   1.862  17.726 -0.1740  1.5306  1.3818
  244MPD1    H3 3760   3.292   1.915   0.212 -0.4860 -0.1714  0.4087
  244MPD1     N 3761   3.718   1.995   0.077  0.8652  0.5903  0.0312
  244MPD1    H5 3762   3.788   1.992   0.004  0.5661  0.6683 -0.2586
  244MPD1    N1 3763   3.359   1.827  17.507 -0.9081  0.0335 -0.3638
  244MPD1    H6 3764   3.258   1.839  17.498 -0.8736  0.6013 -0.0234
  244MPD1    H7 3765   3.412   1.873  17.434 -0.2588 -0.3819 -0.1491
  245MPD1     C 3766   1.344   2.093  13.236 -0.6522  0.8626 -0.3814
  245MPD1    C1 3767   1.455   2.136  13.308 -0.2830  0.4078  0.2135
  245MPD1    C2 3768   1.477   2.274  13.320 -0.4349  0.0477 -0.1456
  245MPD1    C3 3769   1.385   2.362  13.259  0.3421  1.1076  0.7806
  245MPD1    C4 3770   1.275   2.312  13.186 -0.4804 -0.0074 -0.5166
  245MPD1    C5 3771   1.261   2.179  13.173  0.0506  1.0038  0.4136
  245MPD1     H 3772   1.548   2.310  13.393 -0.4622  2.0196 -1.0917
  245MPD1    H1 3773   1.209   2.375  13.127 -1.3128  0.7092  1.1972
  245MPD1    H2 3774   1.318   1.988  13.229  2.3031  0.0934  0.0684
  245MPD1    H3 3775   1.175   2.140  13.118  1.7368 -0.6300 -1.0861
  245MPD1     N 3776   1.406   2.506  13.264 -0.2939 -0.2019  0.1548
  245MPD1    H5 3777   1.489   2.536  13.313 -0.5253  2.2649 -0.9599
  245MPD1    N1 3778   1.531   2.049  13.386 -0.4707  0.4965 -0.1356
  245MPD1    H6 3779   1.624   2.090  13.385 -0.4265  0.4004  0.2403
  245MPD1    H7 3780   1.518   1.956  13.347  0.9640 -0.1917  1.0096
  246MPD1     C 3781   1.573   1.871  10.078 -0.2887 -0.0781 -0.3322
  246MPD1    C1 3782   1.593   1.827   9.947 -0.3224  0.5629 -0.1204
  246MPD1    C2 3783   1.636   1.924   9.853 -0.3989 -0.5955  0.1407
  246MPD1    C3 3784   1.664   2.054   9.882  0.0884 -0.0295 -0.0951
  246MPD1    C4 3785   1.655   2.086  10.019  0.8155  0.0276 -0.0059
  246MPD1    C5 3786   1.596   2.002  10.108 -0.1184  0.4366 -0.1379
  246MPD1     H 3787   1.658   1.888   9.753 -0.1416  0.1999 -0.0924
  246MPD1    H1 3788   1.648   2.187  10.057 -0.7887  0.1730 -0.6949
  246MPD1    H2 3789   1.534   1.805  10.154 -1.1940  2.5069  1.4132
  246MPD1    H3 3790   1.572   2.023  10.211  0.3150 -0.3611  0.1204
  246MPD1     N 3791   1.694   2.148   9.776  0.0150 -0.6688 -0.1481
  246MPD1    H5 3792   1.697   2.113   9.680  0.1437 -1.0566 -0.0010
  246MPD1    N1 3793   1.546   1.706   9.906 -0.1176  0.4814  0.0253
  246MPD1    H6 3794   1.602   1.675   9.827  0.2217 -0.9558  0.8285
  246MPD1    H7 3795   1.554   1.639   9.982 -0.2683  1.8105  1.2012
  247MPD1     C 3796   1.345   3.181  16.765 -0.2147 -0.0751  0.2863
  247MPD1    C1 3797   1.431   3.096  16.826  0.8812 -0.0850 -0.3536
  247MPD1    C2 3798   1.411   2.961  16.804  0.5036 -0.1285  0.4842
  247MPD1    C3 3799   1.328   2.917  16.703 -0.3633 -0.8413 -1.1658
  247MPD1    C4 3800   1.247   3.007  16.635 -0.1664  1.0208  0.1464
  247MPD1    C5 3801   1.247   3.136  16.675  0.5562 -0.6691 -0.0397
  247MPD1     H 3802   1.469   2.889  16.860  1.3067  0.7040  0.7220
  247MPD1    H1 3803   1.184   2.968  16.556  0.3474  0.6238 -0.0713
  247MPD1    H2 3804   1.330   3.279  16.808 -1.4488 -0.0703 -0.1589
  247MPD1    H3 3805   1.160   3.196  16.652 -0.4071 -2.3852 -0.8224
  247MPD1     N 3806   1.313   2.780  16.673  0.4652 -0.3618  0.3664
  247MPD1    H5 3807   1.248   2.758  16.598  1.3574 -0.8588 -0.2538
  247MPD1    N1 3808   1.513   3.136  16.931 -0.0095  0.4772 -0.2096
  247MPD1    H6 3809   1.552   3.230  16.931  2.3198 -0.5039  0.1870
  247MPD1    H7 3810   1.588   3.069  16.943 -0.6756  0.1380  1.9976
  248MPD1     C 3811   1.937   2.080   0.256 -0.2470  0.1519  0.3693
  248MPD1    C1 3812   1.907   2.208   0.295  0.1819  0.8580  0.3635
  248MPD1    C2 3813   1.788   2.230   0.358  0.2994 -0.0203 -0.2735
  248MPD1    C3 3814   1.686   2.136   0.365 -0.2825 -0.5506 -0.3842
  248MPD1    C4 3815   1.717   2.010   0.321 -0.5923  0.4682 -0.1516
  248MPD1    C5 3816   1.841   1.982   0.272 -0.1124 -0.0379 -0.1958
  248MPD1     H 3817   1.780   2.329   0.401 -3.6118 -0.0638 -0.8658
  248MPD1    H1 3818   1.649   1.926   0.322  3.7968 -3.0645  0.0627
  248MPD1    H2 3819   2.034   2.045   0.222  1.1357  2.8535  1.4918
  248MPD1    H3 3820   1.861   1.878   0.249 -2.0136 -0.4720  0.0980
  248MPD1     N 3821   1.566   2.177   0.429  0.3156  0.3780  0.8339
  248MPD1    H5 3822   1.561   2.270   0.468  0.8097  0.5596  0.4652
  248MPD1    N1 3823   2.007   2.303   0.297  0.1851 -0.0199 -0.0560
  248MPD1    H6 3824   2.081   2.303   0.227 -0.6091  0.6836 -0.8978
  248MPD1    H7 3825   1.965   2.396   0.297 -4.5702 -2.1406  2.6540
  249MPD1     C 3826   3.103   2.174   9.304  0.4037 -0.3066 -0.4023
  249MPD1    C1 3827   3.167   2.083   9.384  0.4004  0.3398 -0.4357
  249MPD1    C2 3828   3.223   2.119   9.500 -0.5725 -0.3196 -0.4352
  249MPD1    C3 3829   3.227   2.252   9.541  0.8237 -0.3607  0.2267
  249MPD1    C4 3830   3.170   2.344   9.452 -0.0438 -0.4864 -0.1145
  249MPD1    C5 3831   3.102   2.305   9.340  0.3516  0.4278 -0.2461
  249MPD1     H 3832   3.263   2.048   9.571 -0.5397 -1.3102 -1.4387
  249MPD1    H1 3833   3.164   2.450   9.471  3.1868 -0.0248 -1.6155
  249MPD1    H2 3834   3.059   2.147   9.209  1.4196  1.1080 -1.2675
  249MPD1    H3 3835   3.059   2.383   9.278  0.4127 -1.0572 -2.1360
  249MPD1     N 3836   3.290   2.280   9.667  0.2120  0.3234 -0.1619
  249MPD1    H5 3837   3.342   2.212   9.721 -0.8342 -1.7606 -1.8069
  249MPD1    N1 3838   3.166   1.954   9.333  0.5550 -0.5589  0.4892
  249MPD1    H6 3839   3.070   1.932   9.305  0.2499  0.4991  0.6922
  249MPD1    H7 3840   3.180   1.885   9.407 -2.2873 -1.3607  0.2883
  250MPD2     C 3841   4.293   1.527  13.237 -0.2362 -0.0658  0.4777
  250MPD2    C1 3842   4.333   1.542  13.105  0.5805 -0.2545  0.3501
  250MPD2    C2 3843   4.288   1.447  13.017 -0.0914  0.9447 -0.5813
  250MPD2    C3 3844   4.204   1.343  13.057  0.3123  0.2127  0.1034
  250MPD2    C4 3845   4.169   1.329  13.192  0.1772  0.1759  0.0871
  250MPD2    C5 3846   4.216   1.422  13.276 -0.1741 -0.4249 -0.4571
  250MPD2     H 3847   4.321   1.459  12.914 -1.6323 -1.2401 -1.3460
  250MPD2    H1 3848   4.103   1.252  13.229  1.6080 -1.6587 -1.1784
  250MPD2    H2 3849   4.323   1.600  13.311  1.4797 -2.0266  1.7439
  250MPD2    H3 3850   4.198   1.418  13.383  1.9327  0.5973 -0.0813
  250MPD2     N 3851   4.144   1.250  12.974 -0.4918 -0.1132  0.0576
  250MPD2    H5 3852   4.108   1.163  13.011 -2.6434  0.2241 -1.2113
  250MPD2    N1 3853   4.408   1.655  13.066  0.7894  0.2584  0.1825
  250MPD2    H7 3854   4.420   1.732  13.131  2.4556  1.0549 -1.0644
  251TMC3    C1 3855   4.551   1.792  12.927  0.1930  0.3825  0.5881
  251TMC3    C2 3856   4.470   1.893  12.920  0.0298  0.3978 -0.5651
  251TMC3    C3 3857   4.515   2.012  12.952 -0.5453 -0.2352 -0.1429
  251TMC3    C4 3858   4.687   1.807  12.960 -0.6523  0.1094 -0.2382
  251TMC3    C5 3859   4.728   1.930  12.984 -0.3021 -0.3865 -0.8958
  251TMC3    C6 3860   4.646   2.034  12.994  0.9408  0.5098 -0.7878
  251TMC3     C 3861   4.485   1.665  12.952  0.5111  0.6045  0.4509
  251TMC3     O 3862   4.524   1.572  12.889 -0.6372 -0.3180  0.7134
  251TMC3     H 3863   4.363   1.875  12.923  0.0177  0.3455 -1.3722
  251TMC3    H1 3864   0.017   1.720  12.974 -2.0157 -1.0213 -1.1482
  251TMC3    H2 3865   4.680   2.136  13.010 -0.2288  0.6878  0.5860
  251TMC3    C7 3866   0.121   1.947  13.055 -0.0779 -0.8200  0.3945
  251TMC3    C8 3867   4.410   2.105  12.971 -0.6321 -0.3096 -0.4500
  251TMC3    O1 3868   0.146   1.858  13.134 -0.1357  0.1108 -0.3401
  251TMC3    O2 3869   4.302   2.079  12.919 -0.2784 -0.4091  0.3987
  252TMC3    C1 3870   4.283   3.107   9.346  0.0983 -1.1337  0.7643
  252TMC3    C2 3871   4.399   3.162   9.398  0.1108 -0.5120 -0.1728
  252TMC3    C3 3872   4.451   3.116   9.512 -0.4313  0.7689  0.2788
  252TMC3    C4 3873   4.217   3.006   9.413 -0.5516 -0.1286  0.1688
  252TMC3    C5 3874   4.292   2.948   9.520  0.4770 -0.5477  0.5561
  252TMC3    C6 3875   4.390   3.017   9.586  0.2587 -0.5326  0.2891
  252TMC3     C 3876   4.225   3.136   9.213 -0.7421  0.2139  0.3557
  252TMC3     O 3877   4.146   3.046   9.177  0.3347 -0.5455  0.2511
  252TMC3     H 3878   4.456   3.239   9.347 -1.9823  0.0070 -1.7301
  252TMC3    H1 3879   4.122   2.962   9.386 -0.5613 -1.0687  1.7555
  252TMC3    H2 3880   4.452   2.976   9.665  0.4226 -1.6448 -0.4185
  252TMC3    C7 3881   4.227   2.847   9.598  0.0501 -0.3704  0.5769
  252TMC3    C8 3882   4.592   3.144   9.527  0.1178  1.5455 -0.2613
  252TMC3    O1 3883   4.112   2.817   9.570 -0.2767  0.1292  0.0385
  252TMC3    O2 3884   4.652   3.172   9.425 -0.1798 -0.1576 -0.3912
  253MPD2     C 3885   1.319   0.989  15.229 -0.1624 -0.1242  0.4504
  253MPD2    C1 3886   1.185   1.030  15.231 -0.7138  0.7079  0.3259
  253MPD2    C2 3887   1.143   1.099  15.339 -0.5632  0.6331 -0.0797
  253MPD2    C3 3888   1.224   1.134  15.444 -0.4366  0.0439 -0.1515
  253MPD2    C4 3889   1.351   1.086  15.442  0.2646  0.6130 -0.2813
  253MPD2    C5 3890   1.400   1.020  15.333 -0.1713  0.5249 -0.3435
  253MPD2     H 3891   1.042   1.137  15.333 -1.3742 -1.4510  0.4185
  253MPD2    H1 3892   1.417   1.112  15.523  0.8849 -0.3808 -0.4702
  253MPD2    H2 3893   1.367   0.954  15.138  0.7419  1.4536  0.3232
  253MPD2    H3 3894   1.505   0.992  15.325 -0.3954 -0.3744 -0.1599
  253MPD2     N 3895   1.183   1.214  15.559 -1.0073 -0.4399  0.6315
  253MPD2    H5 3896   1.253   1.216  15.632  0.3196 -0.0936 -0.6702
  253MPD2    N1 3897   1.093   1.020  15.124  0.2140  0.2470 -0.2523
  253MPD2    H7 3898   0.999   1.045  15.153  1.4287  0.1224  3.9233
  254TMC3    C1 3899   1.050   1.315  15.731 -0.0126  0.1128  0.4852
  254TMC3    C2 3900   0.925   1.357  15.756  0.0078  0.1328 -0.3211
  254TMC3    C3 3901   0.882   1.357  15.887  0.3232 -0.1593  0.0880
  254TMC3    C4 3902   1.141   1.273  15.826  0.4393 -0.0370 -0.0410
  254TMC3    C5 3903   1.087   1.266  15.953  0.0943 -0.0616 -0.3243
  254TMC3    C6 3904   0.957   1.301  15.984 -0.0474 -0.3505  0.1700
  254TMC3     C 3905   1.062   1.266  15.595  0.1259 -0.1600 -0.1816
  254TMC3     O 3906   0.955   1.258  15.539  0.0097 -0.1898  0.5554
  254TMC3     H 3907   0.869   1.410  15.679 -3.1366  2.4078  3.4985
  254TMC3    H1 3908   1.238   1.240  15.791  0.0186 -0.0542 -1.1937
  254TMC3    H2 3909   0.925   1.318  16.086 -0.2833 -0.5781  0.1342
  254TMC3    C7 3910   1.170   1.243  16.071 -0.0237 -0.0968 -0.6682
  254TMC3    C8 3911   0.787   1.456  15.936 -0.7260  0.5590 -0.1762
  254TMC3    O1 3912   1.114   1.198  16.172 -0.1415  0.5441 -0.0651
  254TMC3    O2 3913   0.773   1.455  16.059  0.1133 -0.0117 -0.2367
  255MPD2     C 3914   3.857   3.673  10.392 -0.5230  0.2495  0.4022
  255MPD2    C1 3915   3.997   3.668  10.405  0.5711 -0.2881 -0.0950
  255MPD2    C2 3916   4.066   3.625  10.293 -0.4317 -0.6709  0.7763
  255MPD2    C3 3917   4.009   3.581  10.179 -0.6203  0.4340  0.2887
  255MPD2    C4 3918   3.868   3.587  10.169 -0.3141  0.0680  0.0195
  255MPD2    C5 3919   3.801   3.633  10.276 -1.1112 -0.4028 -0.1683
  255MPD2     H 3920   4.173   3.639  10.279 -0.5334  0.0673  0.7593
  255MPD2    H1 3921   3.809   3.559  10.083  1.8886 -2.2802 -0.7260
  255MPD2    H2 3922   3.793   3.709  10.472  0.0782  1.2194  0.4438
  255MPD2    H3 3923   3.693   3.646  10.274 -0.8615  1.6995 -0.3630
  255MPD2     N 3924   4.101   3.554  10.077  0.3280  0.1394  0.3198
  255MPD2    H5 3925   4.199   3.575  10.097  0.6605 -2.2233  1.0981
  255MPD2    N1 3926   4.066   3.719  10.520 -0.0393 -0.2160  0.4821
  255MPD2    H7 3927   4.009   3.772  10.586  1.2477  0.2633  1.2135
  256TMC3    C1 3928   4.256   3.818  10.618  0.2367 -0.1871  0.0130
  256TMC3    C2 3929   4.388   3.851  10.602 -0.3664  0.3129  0.2414
  256TMC3    C3 3930   4.432   3.964  10.670  0.0014  0.1318 -0.3405
  256TMC3    C4 3931   4.172   3.895  10.685  0.5307  0.1172 -0.4044
  256TMC3    C5 3932   4.220   4.003  10.760 -0.5992 -0.8250  0.3165
  256TMC3    C6 3933   4.351   4.041  10.751  0.0295  0.2942 -0.1752
  256TMC3     C 3934   4.204   3.716  10.531  0.0337  0.0896 -0.0887
  256TMC3     O 3935   4.277   3.626  10.490  0.2218 -0.0696  0.7978
  256TMC3     H 3936   4.460   3.789  10.551  0.2922  1.6702 -0.4659
  256TMC3    H1 3937   4.066   3.882  10.700  0.2544  1.4081 -1.2343
  256TMC3    H2 3938   4.389   4.132  10.797 -1.3180  2.0753 -2.6160
  256TMC3    C7 3939   4.121   4.110  10.773 -0.0842 -0.3845 -0.2009
  256TMC3    C8 3940   4.571   4.007  10.652 -0.3261  0.4645  0.2182
  256TMC3    O1 3941   4.027   4.107  10.694 -0.1745  0.1080 -0.9273
  256TMC3    O2 3942   4.656   3.924  10.619 -0.3901  0.1539 -0.4593
  257MPD2     C 3943   3.477   1.679  13.076 -0.1014  0.2252 -0.1355
  257MPD2    C1 3944   3.439   1.576  12.996 -0.5289  0.5465  0.1729
  257MPD2    C2 3945   3.437   1.448  13.042 -0.3249  0.1914 -0.5772
  257MPD2    C3 3946   3.467   1.422  13.172 -0.2135  1.1579 -1.0138
  257MPD2    C4 3947   3.496   1.521  13.256 -0.4454 -0.4880 -0.0426
  257MPD2    C5 3948   3.497   1.651  13.210 -0.1553 -0.0131  0.2538
  257MPD2     H 3949   3.407   1.362  12.982  0.7077 -0.0334 -0.7721
  257MPD2    H1 3950   3.525   1.508  13.360  1.0621 -0.4697 -0.4617
  257MPD2    H2 3951   3.474   1.783  13.048  3.1453  0.0318 -1.3041
  257MPD2    H3 3952   3.514   1.729  13.283 -3.5144 -0.1447  1.1754
  257MPD2     N 3953   3.454   1.287  13.218 -0.1482 -0.0084  0.1330
  257MPD2    H5 3954   3.423   1.218  13.151  1.7654 -1.2346  0.5397
  257MPD2    N1 3955   3.406   1.612  12.865 -0.6254 -0.1660 -0.3407
  257MPD2    H7 3956   3.419   1.706  12.830  0.0938 -0.2464 -0.3028
  258TMC3    C1 3957   3.477   1.117  13.385  0.0717  0.1971  0.0829
  258TMC3    C2 3958   3.532   1.040  13.288  0.0993  0.5117 -0.3253
  258TMC3    C3 3959   3.590   0.912  13.310 -0.0097 -0.3597 -0.2732
  258TMC3    C4 3960   3.458   1.061  13.504 -0.1991  0.8822  0.0845
  258TMC3    C5 3961   3.496   0.936  13.523 -0.3972 -0.5239  0.7066
  258TMC3    C6 3962   3.571   0.863  13.436  0.1096 -0.2540  0.3008
  258TMC3     C 3963   3.459   1.255  13.353  0.4748 -0.5180  0.2226
  258TMC3     O 3964   3.440   1.324  13.453  0.5083  0.3549 -0.2032
  258TMC3     H 3965   3.557   1.091  13.196 -0.0216  2.4923  0.7363
  258TMC3    H1 3966   3.404   1.113  13.584 -2.9863 -0.1511 -1.1180
  258TMC3    H2 3967   3.598   0.763  13.466  0.5831 -0.6606 -1.4790
  258TMC3    C7 3968   3.488   0.883  13.661  0.3997  0.0816  0.3753
  258TMC3    C8 3969   3.666   0.830  13.216 -0.0535  0.0475  0.9559
  258TMC3    O1 3970   3.393   0.918  13.736  0.7141  0.4473  0.6159
  258TMC3    O2 3971   3.735   0.737  13.256 -0.3321 -0.1245  0.1859
  259MPD2     C 3972   1.950   2.159   1.017  0.4464 -0.5253  0.6609
  259MPD2    C1 3973   2.067   2.233   1.000  0.0137  0.4311  0.0217
  259MPD2    C2 3974   2.173   2.167   0.941 -0.2166 -0.6086  0.3092
  259MPD2    C3 3975   2.166   2.037   0.902 -0.3926 -0.0665 -0.4099
  259MPD2    C4 3976   2.053   1.959   0.933  0.1906  0.4571  0.0908
  259MPD2    C5 3977   1.946   2.024   0.990  0.4590 -0.2494  0.5632
  259MPD2     H 3978   2.267   2.219   0.924 -0.0132 -1.8546 -2.4253
  259MPD2    H1 3979   2.045   1.853   0.916 -0.4973  0.7910 -1.7030
  259MPD2    H2 3980   1.864   2.212   1.055  0.2254 -0.8190  0.5762
  259MPD2    H3 3981   1.854   1.969   1.009  1.3923 -1.4920  1.4737
  259MPD2     N 3982   2.284   1.981   0.852 -0.3842 -0.2397 -0.2701
  259MPD2    H5 3983   2.358   2.050   0.840  0.3748 -1.4009 -2.3593
  259MPD2    N1 3984   2.065   2.373   1.024  0.0897  0.5069  0.1328
  259MPD2    H7 3985   1.977   2.417   1.049  0.3651  1.3916 -0.4491
  260TMC3    C1 3986   2.426   1.853   0.730 -0.9338  0.1039  0.0782
  260TMC3    C2 3987   2.478   1.966   0.670 -0.2953  0.1036  0.4986
  260TMC3    C3 3988   2.582   1.957   0.583  0.5145  0.4144  0.0639
  260TMC3    C4 3989   2.488   1.729   0.709 -0.1592  0.1532 -0.2021
  260TMC3    C5 3990   2.595   1.729   0.615 -0.1878 -0.2725 -0.1617
  260TMC3    C6 3991   2.647   1.837   0.559  0.1088  0.0862 -0.2936
  260TMC3     C 3992   2.306   1.856   0.812  0.1548  0.3814 -0.0222
  260TMC3     O 3993   2.241   1.754   0.823 -0.1861 -0.2493 -0.3313
  260TMC3     H 3994   2.415   2.054   0.673 -0.2360  0.1888 -0.8785
  260TMC3    H1 3995   2.443   1.635   0.740  0.3139  0.0670  0.2324
  260TMC3    H2 3996   2.738   1.840   0.500  1.3981 -1.5297  1.6554
  260TMC3    C7 3997   2.641   1.604   0.558 -0.1029  0.2510  0.1889
  260TMC3    C8 3998   2.637   2.082   0.549 -0.6167 -0.6076  0.1331
  260TMC3    O1 3999   2.721   1.612   0.466 -0.6730 -0.2356  0.3670
  260TMC3    O2 4000   2.554   2.171   0.526  0.1519  0.5155 -0.4493
  261MPD2     C 4001   3.738   1.176  12.264  0.4279  1.1353  0.9960
  261MPD2    C1 4002   3.856   1.230  12.311  0.4302 -0.2269 -0.0115
  261MPD2    C2 4003   3.900   1.356  12.265 -0.3057 -0.1189  0.3350
  261MPD2    C3 4004   3.817   1.432  12.187 -0.9377  0.2262 -0.0086
  261MPD2    C4 4005   3.697   1.378  12.142 -0.4276  0.3394  0.7278
  261MPD2    C5 4006   3.662   1.253  12.174 -0.1365 -0.2403 -0.0559
  261MPD2     H 4007   3.991   1.398  12.307 -0.9150  1.1147  0.4380
  261MPD2    H1 4008   3.625   1.433  12.082  2.8216  3.1030 -0.6081
  261MPD2    H2 4009   3.703   1.075  12.282 -0.1883  1.0549 -0.6444
  261MPD2    H3 4010   3.575   1.214  12.123  0.4828 -0.6824 -0.7915
  261MPD2     N 4011   3.863   1.563  12.159 -0.1305  0.3055 -0.5258
  261MPD2    H5 4012   3.954   1.592  12.195 -0.0003  0.1091 -0.7033
  261MPD2    N1 4013   3.940   1.173  12.406 -0.5497  0.2990 -0.4825
  261MPD2    H7 4014   4.024   1.221  12.438  0.1831 -0.4336 -1.2935
  262TMC3    C1 4015   3.850   1.794  12.125 -0.5646 -0.0581 -0.7554
  262TMC3    C2 4016   3.781   1.906  12.137  0.1920 -0.4791  0.1211
  262TMC3    C3 4017   3.837   2.025  12.122 -0.0917 -0.2542 -0.0545
  262TMC3    C4 4018   3.980   1.790  12.084  0.7603 -0.0417 -0.1982
  262TMC3    C5 4019   4.038   1.912  12.064 -0.2820  0.3409  0.0326
  262TMC3    C6 4020   3.969   2.025  12.088  0.0748 -0.5134  0.3433
  262TMC3     C 4021   3.783   1.668  12.125  0.4999 -0.4665  0.1425
  262TMC3     O 4022   3.665   1.668  12.101  0.1846  0.1073 -0.1031
  262TMC3     H 4023   3.681   1.902  12.180  0.1507 -2.0269 -0.1272
  262TMC3    H1 4024   4.038   1.700  12.068 -0.1532 -0.3575 -1.8336
  262TMC3    H2 4025   4.023   2.117  12.108  0.1308 -1.2235  3.4997
  262TMC3    C7 4026   4.113   1.916  11.942 -0.0535  0.4936  0.1001
  262TMC3    C8 4027   3.766   2.149  12.090  0.5772 -0.1133  0.3468
  262TMC3    O1 4028   4.158   1.808  11.895  0.5329 -0.0491  0.7306
  262TMC3    O2 4029   3.829   2.251  12.075  0.5518  0.5442  0.7072
  263MPD2     C 4030   0.027   0.870  11.496  0.7933  0.7296  0.4795
  263MPD2    C1 4031   0.152   0.840  11.453 -0.3995  0.1177  0.2095
  263MPD2    C2 4032   0.203   0.903  11.343 -0.4049  0.3029  0.6480
  263MPD2    C3 4033   0.123   0.986  11.267 -0.5170 -0.4898  0.1333
  263MPD2    C4 4034   4.731   1.014  11.314  0.2416  0.6236 -0.3562
  263MPD2    C5 4035   4.689   0.970  11.433  0.0704 -0.4716 -0.1146
  263MPD2     H 4036   0.300   0.875  11.304 -0.1653  2.1153 -0.0294
  263MPD2    H1 4037   4.659   1.083  11.273 -3.4366 -2.7646  0.4145
  263MPD2    H2 4038   4.712   0.814  11.577 -0.9173  1.1021 -0.2703
  263MPD2    H3 4039   4.593   1.005  11.467  0.8296  2.3568 -0.9065
  263MPD2     N 4040   0.178   1.055  11.153 -0.5220 -0.3229  0.3744
  263MPD2    H5 4041   0.275   1.039  11.129 -0.6433 -0.4721 -0.0243
  263MPD2    N1 4042   0.228   0.754  11.535  0.3671  0.5403  0.1717
  263MPD2    H7 4043   0.179   0.716  11.616  0.7381 -1.1077 -0.3781
  264TMC3    C1 4044   0.193   1.236  10.992 -0.4725 -0.7604  0.8216
  264TMC3    C2 4045   0.164   1.364  10.954  0.2923 -0.2736 -0.2788
  264TMC3    C3 4046   0.235   1.416  10.846 -0.6910 -0.0598  0.2761
  264TMC3    C4 4047   0.289   1.158  10.925 -0.2262  0.3839  0.5338
  264TMC3    C5 4048   0.331   1.206  10.802  0.3588 -0.0706 -0.1389
  264TMC3    C6 4049   0.314   1.333  10.770 -0.8377 -0.1938 -0.2691
  264TMC3     C 4050   0.116   1.167  11.093 -0.6125  0.3537 -0.5968
  264TMC3     O 4051   0.009   1.221  11.118 -0.6584 -0.2465 -0.4329
  264TMC3     H 4052   0.099   1.428  11.014  1.0324 -1.1434  1.4445
  264TMC3    H1 4053   0.290   1.051  10.941 -2.2675  0.0491 -1.5829
  264TMC3    H2 4054   0.353   1.376  10.678 -1.0722 -1.9630 -1.1836
  264TMC3    C7 4055   0.434   1.134  10.724  0.2072  0.2062 -0.0942
  264TMC3    C8 4056   0.287   1.552  10.851 -0.4005 -0.3177  0.4763
  264TMC3    O1 4057   0.492   1.197  10.639 -0.1488  0.2026  0.3231
  264TMC3    O2 4058   0.369   1.579  10.761 -0.5642 -0.4055  0.4421
  265MPD2     C 4059   2.392   0.571  15.319  0.9522 -0.3245  0.6173
  265MPD2    C1 4060   2.423   0.698  15.285 -0.1116 -0.1156  0.3999
  265MPD2    C2 4061   2.465   0.737  15.152 -0.3341  0.3319  0.3324
  265MPD2    C3 4062   2.464   0.634  15.054 -0.5129 -0.2286 -0.2176
  265MPD2    C4 4063   2.411   0.511  15.088 -0.3588 -0.0530  0.1044
  265MPD2    C5 4064   2.395   0.479  15.217 -0.4427  0.9033 -0.7773
  265MPD2     H 4065   2.493   0.840  15.135 -1.6561  0.8940  1.5114
  265MPD2    H1 4066   2.401   0.430  15.016 -0.1697 -0.2441  0.2901
  265MPD2    H2 4067   2.378   0.531  15.419  0.1502 -0.7020  0.3538
  265MPD2    H3 4068   2.381   0.373  15.236  0.9549  0.8295 -0.1960
  265MPD2     N 4069   2.513   0.649  14.922 -0.0266  0.5079  0.0363
  265MPD2    H5 4070   2.504   0.573  14.855 -1.4227  1.7171 -1.1479
  265MPD2    N1 4071   2.411   0.804  15.378 -0.3516  0.3452  0.1966
  265MPD2    H7 4072   2.422   0.897  15.338 -0.8136  1.0239  1.6523
  266TMC3    C1 4073   2.387   0.926  15.584 -0.2541  0.2630  0.0452
  266TMC3    C2 4074   2.351   0.921  15.716  0.1296  0.0393  0.2335
  266TMC3    C3 4075   2.342   1.039  15.790  1.2431 -0.3711  0.0938
  266TMC3    C4 4076   2.408   1.044  15.523 -0.5113  0.6175  0.1875
  266TMC3    C5 4077   2.394   1.155  15.592  0.7855  0.9217  0.5094
  266TMC3    C6 4078   2.357   1.162  15.728 -0.1801  0.8250  1.5537
  266TMC3     C 4079   2.389   0.795  15.513  0.2126 -0.1188 -0.1733
  266TMC3     O 4080   2.369   0.693  15.580 -0.2627  0.6969 -0.4143
  266TMC3     H 4081   2.326   0.827  15.763 -2.9811  0.8430  0.1638
  266TMC3    H1 4082   2.455   1.047  15.425  0.7908 -1.0044  0.7606
  266TMC3    H2 4083   2.348   1.256  15.781 -0.7002  1.5392  0.2069
  266TMC3    C7 4084   2.439   1.284  15.543  0.3064 -0.3174  0.4179
  266TMC3    C8 4085   2.377   1.013  15.928 -0.4865  0.1358  0.2933
  266TMC3    O1 4086   2.457   1.374  15.625  0.1098 -0.4333  0.3678
  266TMC3    O2 4087   2.393   0.898  15.960  0.0273 -0.0533 -0.0454
  267MPD2     C 4088   4.149   3.115   0.754 -0.0129  0.4601 -0.3495
  267MPD2    C1 4089   4.200   3.111   0.626  0.3255  0.2763  0.1143
  267MPD2    C2 4090   4.151   3.192   0.527 -0.0393 -1.0497  0.6935
  267MPD2    C3 4091   4.051   3.282   0.552  0.1571  0.4687 -0.7908
  267MPD2    C4 4092   4.012   3.297   0.687 -0.7354 -0.2522 -0.0611
  267MPD2    C5 4093   4.064   3.217   0.786 -0.2256 -0.1455  0.1691
  267MPD2     H 4094   4.184   3.177   0.425  1.2968  2.6352  0.5498
  267MPD2    H1 4095   3.941   3.373   0.715  0.9810  1.7104 -0.9922
  267MPD2    H2 4096   4.179   3.047   0.832 -2.5953 -1.0574 -0.7009
  267MPD2    H3 4097   4.040   3.230   0.890 -0.1813 -2.3820  0.4609
  267MPD2     N 4098   3.999   3.362   0.453 -0.4220 -0.4581 -0.2961
  267MPD2    H5 4099   4.036   3.344   0.360  0.4438 -0.8249  0.1140
  267MPD2    N1 4100   4.306   3.024   0.601  0.7635 -0.4617 -0.5706
  267MPD2    H7 4101   4.329   2.961   0.677  0.6479 -1.2530 -1.1916
  268TMC3    C1 4102   4.420   2.859   0.462 -0.3810  0.0772  0.3783
  268TMC3    C2 4103   4.433   2.792   0.340 -0.4260  0.3605 -0.1635
  268TMC3    C3 4104   4.472   2.663   0.339 -0.6570 -0.3657 -0.3171
  268TMC3    C4 4105   4.472   2.802   0.576 -0.8344 -0.2144 -0.4677
  268TMC3    C5 4106   4.539   2.680   0.562 -0.0552  0.0144  0.1248
  268TMC3    C6 4107   4.525   2.602   0.450  0.0296  0.1746  0.1796
  268TMC3     C 4108   4.355   2.985   0.475 -0.0171  0.4850  1.1221
  268TMC3     O 4109   4.347   3.045   0.367 -0.2921  0.5375  0.1555
  268TMC3     H 4110   4.416   2.846   0.248 -1.8392  0.6100  0.2399
  268TMC3    H1 4111   4.493   2.866   0.661 -1.7325 -0.5670  0.0184
  268TMC3    H2 4112   4.568   2.502   0.453  1.2906  0.7695  1.6291
  268TMC3    C7 4113   4.602   2.599   0.671 -0.4265  0.7423  0.1455
  268TMC3    C8 4114   4.426   2.567   0.238  0.2153  0.8161  0.7941
  268TMC3    O1 4115   4.672   2.502   0.647  0.2201 -0.5219  0.0712
  268TMC3    O2 4116   4.433   2.447   0.261  0.2603  0.3055  0.1357
  269MPD2     C 4117   0.091   1.914  15.267  0.5980 -0.9312  0.8650
  269MPD2    C1 4118   0.119   1.888  15.401  0.0285  0.5147  0.3067
  269MPD2    C2 4119   0.149   1.994  15.483 -0.2903  0.2887  0.2302
  269MPD2    C3 4120   0.156   2.123  15.433 -0.9669 -0.3818  0.3568
  269MPD2    C4 4121   0.119   2.145  15.301  0.2174  0.4086 -0.3617
  269MPD2    C5 4122   0.088   2.045  15.220  0.2733 -0.0005 -0.3612
  269MPD2     H 4123   0.170   1.983  15.588 -0.1486 -0.5412  0.1181
  269MPD2    H1 4124   0.124   2.245  15.259 -0.1120  0.0702 -1.2011
  269MPD2    H2 4125   0.064   1.836  15.197 -0.4412  1.5549 -1.4959
  269MPD2    H3 4126   0.061   2.064  15.117 -2.1233  1.9361  0.6341
  269MPD2     N 4127   0.193   2.222  15.526 -0.0079 -0.4902  0.0876
  269MPD2    H5 4128   0.218   2.193  15.620 -0.9522  1.5759  0.9755
  269MPD2    N1 4129   0.123   1.753  15.454  0.0173  0.1702 -0.8803
  269MPD2    H7 4130   0.083   1.680  15.397 -2.7065  0.7846  0.2391
  270TMC3    C1 4131   0.169   1.572  15.603  0.0079  0.0414  0.2675
  270TMC3    C2 4132   0.066   1.511  15.537  0.4481  0.5429  0.3900
  270TMC3    C3 4133   0.072   1.374  15.532 -0.0830  0.0496 -0.1035
  270TMC3    C4 4134   0.282   1.506  15.646 -0.0380 -0.2503 -0.0393
  270TMC3    C5 4135   0.288   1.377  15.606 -0.3841 -0.0682  0.1927
  270TMC3    C6 4136   0.190   1.307  15.552 -0.6900  0.5066 -0.3844
  270TMC3     C 4137   0.183   1.714  15.574 -0.0132  0.5743  0.6138
  270TMC3     O 4138   0.250   1.779  15.654  0.2181 -0.0971  0.2245
  270TMC3     H 4139   4.709   1.567  15.512 -0.2687 -0.9360 -0.3351
  270TMC3    H1 4140   0.369   1.556  15.687 -1.2824  1.2837  0.6907
  270TMC3    H2 4141   0.203   1.199  15.543 -1.8015  0.2479  1.0820
  270TMC3    C7 4142   0.410   1.308  15.637 -0.0856  0.0148 -0.5929
  270TMC3    C8 4143   4.693   1.305  15.499 -0.2606 -0.0984  0.1273
  270TMC3    O1 4144   0.476   1.264  15.547  0.7474  0.1759  0.2343
  270TMC3    O2 4145   4.594   1.368  15.519 -0.4023  1.0932  0.0520
  271MPD2     C 4146   4.267   1.199  13.708  0.0397 -0.3575 -1.0014
  271MPD2    C1 4147   4.224   1.199  13.835 -0.2553  0.5593 -0.0901
  271MPD2    C2 4148   4.138   1.304  13.871  0.3520 -0.6060 -0.2426
  271MPD2    C3 4149   4.122   1.413  13.786 -0.2491 -0.3061  0.5136
  271MPD2    C4 4150   4.183   1.413  13.666  0.0660  0.0150  0.3156
  271MPD2    C5 4151   4.244   1.295  13.617  0.2415  0.2461  1.1358
  271MPD2     H 4152   4.102   1.310  13.973  1.0195 -2.4388  0.0925
  271MPD2    H1 4153   4.180   1.496  13.597  0.7853 -0.3823 -0.1883
  271MPD2    H2 4154   4.316   1.111  13.667 -1.2185 -1.2769 -0.4984
  271MPD2    H3 4155   4.289   1.291  13.519  0.0284  1.7969  0.9792
  271MPD2     N 4156   4.032   1.518  13.798 -0.4110 -0.1199  0.6575
  271MPD2    H5 4157   4.038   1.584  13.721  1.9798  0.6603  1.5279
  271MPD2    N1 4158   4.256   1.103  13.931 -1.1992  0.6639  0.5468
  271MPD2    H7 4159   4.196   1.109  14.013 -0.4346 -0.5567  1.1895
  272TMC3    C1 4160   4.393   0.956  14.063 -0.5033 -0.0361 -0.0509
  272TMC3    C2 4161   4.519   0.899  14.075 -0.4331  0.5500 -0.2020
  272TMC3    C3 4162   4.556   0.839  14.184  0.4477  0.0323 -0.1718
  272TMC3    C4 4163   4.309   0.960  14.170  0.0090 -0.2351  0.1992
  272TMC3    C5 4164   4.350   0.900  14.290  0.1466  0.5456  0.4040
  272TMC3    C6 4165   4.482   0.844  14.300  0.4332 -0.1496  0.2703
  272TMC3     C 4166   4.358   1.020  13.931 -0.0183 -0.0427  0.6306
  272TMC3     O 4167   4.437   0.999  13.835  0.1473 -0.5256  0.1494
  272TMC3     H 4168   4.593   0.899  13.996  0.5071 -2.0141  0.6940
  272TMC3    H1 4169   4.220   1.021  14.171 -0.1146 -0.3894 -2.3612
  272TMC3    H2 4170   4.512   0.789  14.388  2.6167  2.7475  1.3386
  272TMC3    C7 4171   4.265   0.922  14.406 -0.6099  0.0835 -0.6152
  272TMC3    C8 4172   4.686   0.765  14.187  0.1690  0.1484 -0.3300
  272TMC3    O1 4173   4.142   0.922  14.387  0.2516  0.2605  0.2314
  272TMC3    O2 4174   0.047   0.815  14.131 -0.1973  0.0878 -0.0490
  273MPD2     C 4175   0.712   3.974  12.084 -0.3473 -0.4801 -0.0740
  273MPD2    C1 4176   0.794   4.080  12.090  0.2194  0.5304  0.2224
  273MPD2    C2 4177   0.838   4.152  11.979 -0.0942 -0.0032 -0.3655
  273MPD2    C3 4178   0.805   4.111  11.849  0.2226 -0.5207 -0.8719
  273MPD2    C4 4179   0.727   3.992  11.843 -0.2872  0.2325 -0.0271
  273MPD2    C5 4180   0.682   3.930  11.957  0.2941 -0.6224  0.5173
  273MPD2     H 4181   0.899   4.241  11.988 -0.1402 -0.1562  1.4826
  273MPD2    H1 4182   0.709   3.951  11.745 -2.2929 -1.8279  1.2058
  273MPD2    H2 4183   0.663   3.922  12.165 -0.8129 -2.8096 -1.8625
  273MPD2    H3 4184   0.622   3.840  11.951 -1.1620  0.4451 -1.0161
  273MPD2     N 4185   0.849   4.177  11.730  0.4309  0.1901 -0.0987
  273MPD2    H5 4186   0.834   4.128  11.643 -2.0342 -0.2679  0.5847
  273MPD2    N1 4187   0.828   4.122  12.222  0.1467  0.2004  0.1972
  273MPD2    H7 4188   0.769   4.081  12.294 -1.0312  1.1326 -0.2142
  274TMC3    C1 4189   0.965   4.343  11.600 -0.3668 -0.1463  0.4939
  274TMC3    C2 4190   0.933   4.289  11.484 -0.5227 -0.3277  0.3937
  274TMC3    C3 4191   0.984   4.339  11.367 -0.0652 -0.0157  0.5465
  274TMC3    C4 4192   1.040   4.460  11.607 -0.0218  0.2370 -0.7721
  274TMC3    C5 4193   1.084   4.506  11.488  0.0692 -0.4960  0.9915
  274TMC3    C6 4194   1.058   4.450  11.367 -0.1389  0.8098 -0.0885
  274TMC3     C 4195   0.912   4.305  11.732  0.3230 -0.0038  0.0167
  274TMC3     O 4196   0.933   4.382  11.822  0.4216  0.2899  0.5376
  274TMC3     H 4197   0.846   4.226  11.474 -1.2884  0.9527 -0.9940
  274TMC3    H1 4198   1.065   4.519  11.695  0.3495 -1.0000 -0.0441
  274TMC3    H2 4199   1.059   4.513  11.278 -0.0225 -1.3330 -1.6110
  274TMC3    C7 4200   1.092   4.648  11.477  0.2898 -0.5891  0.2211
  274TMC3    C8 4201   0.896   4.334  11.254  0.1752 -0.6390 -0.0721
  274TMC3    O1 4202   1.159   4.689  11.381  0.9779 -0.5131  0.4221
  274TMC3    O2 4203   0.779   4.331  11.282 -0.0603 -0.4702  0.5885
  275MPD2     C 4204   0.495   2.299  14.900 -0.1311  0.2456 -0.1701
  275MPD2    C1 4205   0.494   2.165  14.922  0.2606 -0.0488 -0.4517
  275MPD2    C2 4206   0.378   2.084  14.894  0.2267 -0.2497 -0.0674
  275MPD2    C3 4207   0.261   2.152  14.846 -0.2791  0.3564 -0.4090
  275MPD2    C4 4208   0.262   2.286  14.839 -0.4457  0.2067 -0.0721
  275MPD2    C5 4209   0.377   2.356  14.860  0.1278 -0.3490  1.0913
  275MPD2     H 4210   0.384   1.978  14.917  0.9830 -0.1776  0.0631
  275MPD2    H1 4211   0.174   2.335  14.798 -0.9800 -0.3980  0.3652
  275MPD2    H2 4212   0.579   2.362  14.930 -0.4078 -0.6145  2.3586
  275MPD2    H3 4213   0.376   2.465  14.857 -0.2219 -0.3907 -0.0303
  275MPD2     N 4214   0.143   2.086  14.807  0.0349 -1.0924 -0.5157
  275MPD2    H5 4215   0.081   2.137  14.746  1.0055 -0.4247 -0.9415
  275MPD2    N1 4216   0.606   2.092  14.954 -0.3910 -0.2008  0.4300
  275MPD2    H7 4217   0.608   1.991  14.942  1.6973  0.0355 -1.2025
  276TMC3    C1 4218   0.832   2.056  14.999  0.6820 -0.1296  0.0721
  276TMC3    C2 4219   0.850   1.966  14.900  0.2724  0.2223 -0.4822
  276TMC3    C3 4220   0.967   1.890  14.901 -0.4455  0.2808 -0.3247
  276TMC3    C4 4221   0.938   2.083  15.088  0.3511 -0.2318 -0.6313
  276TMC3    C5 4222   1.049   1.999  15.084 -0.5427  0.4928  1.2434
  276TMC3    C6 4223   1.066   1.903  14.994 -0.4499  0.3471  0.0535
  276TMC3     C 4224   0.722   2.149  15.003  0.4233  0.7486 -0.5532
  276TMC3     O 4225   0.731   2.250  15.068  0.1447 -0.3794 -0.6565
  276TMC3     H 4226   0.781   1.948  14.818 -0.2180 -1.6230  0.3232
  276TMC3    H1 4227   0.936   2.153  15.170 -0.8483 -1.7489  0.6276
  276TMC3    H2 4228   1.155   1.842  15.002 -0.7479  0.0391  1.1273
  276TMC3    C7 4229   1.166   2.048  15.155 -0.3855 -0.8513 -0.0944
  276TMC3    C8 4230   0.966   1.763  14.834 -1.1232  0.4278 -0.0425
  276TMC3    O1 4231   1.155   2.070  15.277 -0.1269 -0.0263 -0.0527
  276TMC3    O2 4232   0.857   1.709  14.820  0.0583  0.1091 -0.0218
  277MPD2     C 4233   2.227   1.508  12.984 -0.1214  0.7767  0.2781
  277MPD2    C1 4234   2.123   1.490  13.068  0.8364  0.3666  0.6901
  277MPD2    C2 4235   2.139   1.437  13.194  0.7831  0.1422 -0.8367
  277MPD2    C3 4236   2.266   1.395  13.231 -0.0032 -0.2772  0.9596
  277MPD2    C4 4237   2.371   1.403  13.138  0.3936 -0.7023  0.1078
  277MPD2    C5 4238   2.347   1.452  13.016  0.0533 -0.4432 -0.5629
  277MPD2     H 4239   2.071   1.441  13.279 -1.0967  2.5199 -2.4295
  277MPD2    H1 4240   2.471   1.365  13.160 -0.4707 -3.0928 -0.0763
  277MPD2    H2 4241   2.221   1.555  12.887 -2.0120  0.1838  0.1207
  277MPD2    H3 4242   2.430   1.464  12.946 -1.6604  0.6780 -2.4082
  277MPD2     N 4243   2.290   1.344  13.362  0.6106  0.2443 -0.5163
  277MPD2    H5 4244   2.206   1.349  13.419  2.2553  2.0190  1.7289
  277MPD2    N1 4245   2.000   1.538  13.022 -0.4107  0.0124 -0.2542
  277MPD2    H7 4246   2.004   1.579  12.929 -0.5791 -2.2030 -1.2472
  278TMC3    C1 4247   2.387   1.222  13.539  0.3703  0.1632  0.7476
  278TMC3    C2 4248   2.430   1.089  13.554  0.3997  0.3103 -0.3994
  278TMC3    C3 4249   2.400   1.035  13.669  0.0826 -0.2616 -0.0329
  278TMC3    C4 4250   2.313   1.288  13.634  0.0993 -0.1922 -0.0057
  278TMC3    C5 4251   2.289   1.228  13.753 -0.5035 -0.5182 -1.0215
  278TMC3    C6 4252   2.341   1.099  13.770  0.7284 -0.1558 -0.6437
  278TMC3     C 4253   2.398   1.262  13.402 -0.3398  0.5020 -0.2025
  278TMC3     O 4254   2.484   1.202  13.343  0.3337  0.2562 -0.2817
  278TMC3     H 4255   2.497   1.032  13.491  1.4506  2.1606 -0.9593
  278TMC3    H1 4256   2.281   1.389  13.610 -2.7529 -1.4160 -1.2457
  278TMC3    H2 4257   2.319   1.040  13.858 -1.4808 -0.0676 -1.1465
  278TMC3    C7 4258   2.169   1.266  13.829 -0.0046 -0.6922  0.1095
  278TMC3    C8 4259   2.399   0.894  13.682 -0.4968  0.7289  0.1136
  278TMC3    O1 4260   2.104   1.173  13.874 -0.0435 -0.2580 -0.5252
  278TMC3    O2 4261   2.435   0.847  13.790 -0.5484 -0.1051  0.5075
  279MPD2     C 4262   1.217   0.730   0.245  0.7743  0.7108  0.1213
  279MPD2    C1 4263   1.208   0.866   0.281 -0.4036  0.3741 -0.1271
  279MPD2    C2 4264   1.314   0.948   0.241  0.2144 -0.1130  0.3147
  279MPD2    C3 4265   1.399   0.911   0.144  0.0375 -0.4200  0.1829
  279MPD2    C4 4266   1.405   0.781   0.109  0.0547 -0.5642  0.5481
  279MPD2    C5 4267   1.310   0.696   0.150  0.8776  0.3722 -0.5618
  279MPD2     H 4268   1.324   1.053   0.267  5.6268 -0.8198  1.2595
  279MPD2    H1 4269   1.478   0.749   0.036  2.4998  0.9914  2.3228
  279MPD2    H2 4270   1.139   0.660   0.274  1.1312  1.7017  3.4526
  279MPD2    H3 4271   1.320   0.595   0.112  0.9876 -0.2878  1.2003
  279MPD2     N 4272   1.490   1.000   0.084  0.9163  0.1242 -0.5919
  279MPD2    H5 4273   1.536   0.967  17.729  0.7566 -1.0290 -0.2289
  279MPD2    N1 4274   1.097   0.908   0.354  0.1495  0.1793  0.3377
  279MPD2    H7 4275   1.016   0.847   0.355  0.7983 -0.6836  0.3704
  280TMC3    C1 4276   0.964   1.107   0.361  0.2833 -0.1084  0.2816
  280TMC3    C2 4277   0.908   1.060   0.250  0.2764 -0.1249 -0.4828
  280TMC3    C3 4278   0.905   1.148   0.145 -0.6630  1.8131  0.4783
  280TMC3    C4 4279   0.991   1.240   0.382 -0.3523 -0.0919  0.2625
  280TMC3    C5 4280   0.980   1.329   0.276  0.0033 -0.4124 -0.1904
  280TMC3    C6 4281   0.938   1.282   0.155  0.2242  0.4462  0.0449
  280TMC3     C 4282   1.084   1.034   0.411  0.7106  0.5424 -0.1086
  280TMC3     O 4283   1.173   1.108   0.454  0.1041  0.4415  0.0737
  280TMC3     H 4284   0.861   0.963   0.241 -1.2937  0.5910 -0.0515
  280TMC3    H1 4285   1.015   1.276   0.482  3.5471 -1.1838 -0.2661
  280TMC3    H2 4286   0.939   1.341   0.064  2.1316  1.5383  0.7896
  280TMC3    C7 4287   1.035   1.458   0.297  0.0993  0.0509 -0.1821
  280TMC3    C8 4288   0.962   1.092   0.025  0.4228  0.6831 -1.0023
  280TMC3    O1 4289   1.128   1.465   0.382 -0.0616 -0.4435  0.3530
  280TMC3    O2 4290   0.984   1.167  17.658 -0.7376  0.3515 -0.3259
  281TMC3    C1 4291   0.254   2.081  13.870  0.7186 -0.5696  0.0808
  281TMC3    C2 4292   0.357   2.116  13.797 -0.3065 -0.2194  0.2604
  281TMC3    C3 4293   0.392   2.034  13.692  0.5331  0.6247  0.3900
  281TMC3    C4 4294   0.170   1.978  13.841 -0.8433 -0.1531  0.1971
  281TMC3    C5 4295   0.220   1.885  13.758  0.1919  0.1089  0.0274
  281TMC3    C6 4296   0.327   1.915  13.680 -0.0141  0.6312 -0.5583
  281TMC3     C 4297   0.213   2.183  13.959  0.0594 -0.3130 -0.5388
  281TMC3     O 4298   0.286   2.227  14.037  0.3246 -0.2974 -0.0176
  281TMC3     H 4299   0.407   2.210  13.818  0.2832 -0.1142 -1.6234
  281TMC3    H1 4300   0.089   1.953  13.908 -2.0728  1.3635 -0.7328
  281TMC3    H2 4301   0.353   1.851  13.596  1.7105  1.0322 -0.3295
  281TMC3    C7 4302   0.124   1.799  13.698  0.7050  0.1717  0.7214
  281TMC3    C8 4303   0.452   2.102  13.581 -0.4128 -0.6728  0.1573
  281TMC3    O1 4304   0.013   1.839  13.701 -0.4090 -0.2072 -0.2974
  281TMC3    O2 4305   0.506   2.214  13.594 -0.2598 -0.0388 -0.4283
  282MPD2     C 4306   2.118   2.860  14.765 -0.6046 -0.0389  0.4261
  282MPD2    C1 4307   2.085   2.796  14.881 -0.4650  0.8069 -0.0877
  282MPD2    C2 4308   2.034   2.671  14.859 -0.1634 -0.1290 -0.9051
  282MPD2    C3 4309   2.016   2.611  14.734 -0.4608 -1.1160  0.3839
  282MPD2    C4 4310   2.051   2.690  14.619  0.7406 -0.0924  0.8781
  282MPD2    C5 4311   2.098   2.819  14.640 -0.1297  0.0743  0.0129
  282MPD2     H 4312   2.012   2.608  14.945  1.6841  0.4988  0.0224
  282MPD2    H1 4313   2.030   2.654  14.519  1.6961  4.0692 -0.8410
  282MPD2    H2 4314   2.153   2.963  14.771  2.4449 -0.9097 -2.4080
  282MPD2    H3 4315   2.107   2.878  14.550  0.4012  1.2274  0.8265
  282MPD2     N 4316   1.942   2.490  14.733 -0.0619 -0.5583  0.9764
  282MPD2    H5 4317   1.934   2.432  14.816 -1.9089 -0.8769  0.5736
  282MPD2    N1 4318   2.106   2.829  15.016 -0.4073  1.1356  0.1260
  282MPD2    H7 4319   2.081   2.767  15.091  0.8507 -0.5301 -0.8342
  283TMC3    C1 4320   2.175   2.973  15.189  0.1674 -0.0306  0.4641
  283TMC3    C2 4321   2.164   3.111  15.214  0.2112  0.2887 -0.3240
  283TMC3    C3 4322   2.144   3.145  15.345 -0.1944 -0.0108 -0.0351
  283TMC3    C4 4323   2.196   2.881  15.285 -0.1042  0.1607  0.0337
  283TMC3    C5 4324   2.175   2.920  15.416 -0.2400  0.0411  0.4995
  283TMC3    C6 4325   2.142   3.054  15.447 -0.5628 -0.1195  0.0309
  283TMC3     C 4326   2.179   2.939  15.052  0.6570 -0.2784  0.0292
  283TMC3     O 4327   2.226   3.026  14.982 -0.2433 -0.4200 -0.1567
  283TMC3     H 4328   2.166   3.181  15.130 -0.5896  2.0766  1.1457
  283TMC3    H1 4329   2.197   2.775  15.264 -4.1493 -0.0882  1.1617
  283TMC3    H2 4330   2.107   3.093  15.542 -0.0739  0.0027  0.1627
  283TMC3    C7 4331   2.158   2.822  15.534  0.2767 -0.4461  0.0322
  283TMC3    C8 4332   2.163   3.281  15.380  0.5716  0.0220  0.3596
  283TMC3    O1 4333   2.158   2.873  15.648 -0.0398  0.2869 -0.1249
  283TMC3    O2 4334   2.172   3.304  15.500 -0.2314 -0.0019 -0.0623
  284MPD2     C 4335   0.576   2.843  11.351 -0.3427 -0.3942  0.2418
  284MPD2    C1 4336   0.693   2.865  11.419  0.1474 -0.2905 -0.3499
  284MPD2    C2 4337   0.704   2.847  11.555 -0.4652  0.3140 -0.0833
  284MPD2    C3 4338   0.592   2.791  11.622 -0.1227  0.4190  0.6101
  284MPD2    C4 4339   0.468   2.786  11.551 -0.5558 -0.7598 -0.0154
  284MPD2    C5 4340   0.466   2.797  11.415 -0.4249  1.2283  0.4386
  284MPD2     H 4341   0.800   2.861  11.605 -0.5274  0.1522  0.0834
  284MPD2    H1 4342   0.378   2.743  11.593 -3.4038  0.7449 -4.5196
  284MPD2    H2 4343   0.575   2.857  11.244  0.2556  1.5890  0.4882
  284MPD2    H3 4344   0.373   2.792  11.360 -1.0272  2.9912  1.3052
  284MPD2     N 4345   0.606   2.756  11.755  0.2868  0.7556 -0.2220
  284MPD2    H5 4346   0.695   2.774  11.801 -0.6717  0.7189  1.6199
  284MPD2    N1 4347   0.805   2.893  11.341 -0.1816 -0.0409 -0.0971
  284MPD2    H7 4348   0.793   2.872  11.242  1.1957 -0.3522 -0.1896
  285TMC3    C1 4349   1.036   2.901  11.285  0.1762 -0.1027  0.1807
  285TMC3    C2 4350   1.028   2.814  11.183 -0.3651 -0.4985  0.6815
  285TMC3    C3 4351   1.146   2.787  11.126  0.9455  0.5061  0.1706
  285TMC3    C4 4352   1.148   2.967  11.317 -0.2478  0.1098 -0.0801
  285TMC3    C5 4353   1.266   2.935  11.256 -0.3209 -0.3803 -0.6506
  285TMC3    C6 4354   1.268   2.846  11.160  0.3987 -0.3651  0.9580
  285TMC3     C 4355   0.932   2.912  11.390 -0.1396 -0.3485 -0.2564
  285TMC3     O 4356   0.968   2.957  11.500 -0.4351 -0.1577  0.5862
  285TMC3     H 4357   0.936   2.763  11.158 -1.7893  2.0466  0.7049
  285TMC3    H1 4358   1.156   3.030  11.405 -0.7655 -3.3975  2.4790
  285TMC3    H2 4359   1.358   2.830  11.102  0.2150  1.6628  0.1490
  285TMC3    C7 4360   1.368   3.030  11.275  0.0246 -0.6693  0.3837
  285TMC3    C8 4361   1.140   2.697  11.016 -0.0964 -0.4453 -0.5341
  285TMC3    O1 4362   1.335   3.141  11.312 -0.4203 -0.6346  0.2648
  285TMC3    O2 4363   1.033   2.629  11.016  0.7934  0.1218  0.5946
  286MPD2     C 4364   0.256   0.489   0.656  0.0109 -0.6734 -0.5529
  286MPD2    C1 4365   0.292   0.529   0.780  0.8528  0.0683 -0.2112
  286MPD2    C2 4366   0.395   0.453   0.847 -0.0116 -0.5454 -0.1465
  286MPD2    C3 4367   0.468   0.363   0.777 -0.1598 -0.5672 -1.0934
  286MPD2    C4 4368   0.426   0.323   0.654  0.6736 -0.1447  0.3535
  286MPD2    C5 4369   0.319   0.379   0.597 -0.6430 -0.5197 -0.5372
  286MPD2     H 4370   0.427   0.479   0.947  1.7905  0.8792 -1.0823
  286MPD2    H1 4371   0.475   0.237   0.610  0.6346 -1.1562  2.2898
  286MPD2    H2 4372   0.167   0.534   0.612 -0.7210 -1.1821  0.4258
  286MPD2    H3 4373   0.277   0.350   0.502  1.5680 -2.5629 -0.8941
  286MPD2     N 4374   0.576   0.290   0.831  0.5719 -0.0537 -0.1031
  286MPD2    H5 4375   0.603   0.211   0.773 -0.9799 -0.9316  0.3554
  286MPD2    N1 4376   0.236   0.642   0.852  0.6467  0.2508 -0.6597
  286MPD2    H7 4377   0.264   0.663   0.947  1.8573 -0.2152 -0.9110
  287TMC3    C1 4378   0.762   0.238   0.978 -0.9238 -0.2967  0.5374
  287TMC3    C2 4379   0.811   0.150   0.885  0.4393 -0.0264 -0.0442
  287TMC3    C3 4380   0.947   0.130   0.869  0.2665 -0.6558  0.5526
  287TMC3    C4 4381   0.846   0.296   1.066  0.2440  0.0404 -0.3380
  287TMC3    C5 4382   0.974   0.273   1.056  0.4106 -0.2077 -0.1197
  287TMC3    C6 4383   1.028   0.190   0.957  0.3032 -0.6134  0.2041
  287TMC3     C 4384   0.631   0.306   0.959  0.9110  0.2339 -0.3904
  287TMC3     O 4385   0.607   0.395   1.043 -0.4272 -0.2625 -0.2100
  287TMC3     H 4386   0.748   0.098   0.813 -0.8805 -0.8149  1.6614
  287TMC3    H1 4387   0.806   0.365   1.140 -0.5308  1.3411 -1.9702
  287TMC3    H2 4388   1.134   0.168   0.945  0.6597  1.7565 -0.9257
  287TMC3    C7 4389   1.070   0.349   1.141  0.4782 -0.5019 -0.5335
  287TMC3    C8 4390   0.990   0.036   0.766  0.2457  1.0913 -0.8588
  287TMC3    O1 4391   1.020   0.434   1.213  0.4874 -0.5471 -0.4465
  287TMC3    O2 4392   0.905   0.006   0.683 -0.2875 -0.7541  0.2516
  288TMC3    C1 4393   2.740   0.882  13.617  0.1840  0.3565  1.1486
  288TMC3    C2 4394   2.745   0.880  13.758  0.1269  0.5875  0.0466
  288TMC3    C3 4395   2.761   1.005  13.822 -0.3250  0.3146 -0.3893
  288TMC3    C4 4396   2.747   1.001  13.547  0.6264 -0.2453  0.1438
  288TMC3    C5 4397   2.767   1.117  13.620  0.0407  1.0703 -0.1531
  288TMC3    C6 4398   2.775   1.120  13.755 -0.5560 -0.1986  0.2525
  288TMC3     C 4399   2.730   0.751  13.550 -0.1676  0.5527 -0.0230
  288TMC3     O 4400   2.778   0.653  13.609 -1.1516  0.8965  0.2213
  288TMC3     H 4401   2.735   0.786  13.811  2.2076  1.7255  2.4476
  288TMC3    H1 4402   2.767   0.991  13.441  1.1793 -1.3527  0.3492
  288TMC3    H2 4403   2.783   1.214  13.809 -0.0942  1.0292 -1.9427
  288TMC3    C7 4404   2.764   1.247  13.544  1.1030  0.2065  0.5799
  288TMC3    C8 4405   2.700   1.020  13.956  0.6056 -0.4838  0.0525
  288TMC3    O1 4406   2.751   1.343  13.621  0.1192  0.6071 -0.5766
  288TMC3    O2 4407   2.746   1.111  14.023 -0.1036 -0.0881  0.1084
  289MPD2     C 4408   2.507   4.540  14.168  0.1078  0.0219 -0.3214
  289MPD2    C1 4409   2.530   4.663  14.104  0.6458 -0.1373  0.1578
  289MPD2    C2 4410   2.428   4.712  14.015  0.1633 -0.5017  0.7527
  289MPD2    C3 4411   2.312   4.638  13.992 -0.5268  0.2090 -0.1711
  289MPD2    C4 4412   2.296   4.519  14.056 -0.2823 -0.4848 -0.0919
  289MPD2    C5 4413   2.389   4.476  14.147  0.4719  0.4044 -0.3633
  289MPD2     H 4414   2.437   0.074  13.963  2.9237 -2.5035 -2.4286
  289MPD2    H1 4415   2.200   4.469  14.055  0.5172 -2.0231  0.4829
  289MPD2    H2 4416   2.578   4.507  14.243  0.5121  0.1624 -0.6408
  289MPD2    H3 4417   2.363   4.384  14.198 -0.1273  1.2904  0.9265
  289MPD2     N 4418   2.204   4.687  13.906  0.6263 -0.4469 -0.3837
  289MPD2    H5 4419   2.124   4.626  13.895 -1.4104  1.8597  1.6789
  289MPD2    N1 4420   2.644   0.014  14.147  0.5505 -0.0611  0.1874
  289MPD2    H7 4421   2.711   4.703  14.210 -0.7854  1.9580  3.0255
  290TMC3    C1 4422   2.087   0.093  13.749  0.2668 -0.0323 -0.3568
  290TMC3    C2 4423   2.067   0.230  13.721  0.1536 -0.0502  0.5315
  290TMC3    C3 4424   1.969   0.256  13.635 -0.0445  0.6746  0.0655
  290TMC3    C4 4425   2.009   4.721  13.704 -0.3343 -0.0546 -0.6618
  290TMC3    C5 4426   1.896   0.028  13.630 -0.6713  0.5130 -0.1621
  290TMC3    C6 4427   1.888   0.160  13.583 -0.4047  0.3093 -0.3805
  290TMC3     C 4428   2.208   0.067  13.825  0.6714  0.7773 -0.5796
  290TMC3     O 4429   2.291   0.157  13.825  0.0203  0.6921  0.0063
  290TMC3     H 4430   2.127   0.309  13.765 -0.1352  1.3208 -1.5510
  290TMC3    H1 4431   2.040   4.618  13.717  0.6038  0.1359 -1.3755
  290TMC3    H2 4432   1.805   0.195  13.522  1.0778  0.3215 -2.4166
  290TMC3    C7 4433   1.790   4.675  13.591  0.9586 -0.1269 -0.2287
  290TMC3    C8 4434   1.929   0.397  13.610  0.4909  0.0226  0.4175
  290TMC3    O1 4435   1.689   4.724  13.541  0.1522  0.4598  0.4331
  290TMC3    O2 4436   1.856   0.423  13.519 -0.1698  0.0976  0.1400
  291MPD2     C 4437   1.532   4.642   0.306 -0.3334  0.6219 -0.1031
  291MPD2    C1 4438   1.631   4.544   0.299 -0.5811 -0.6807 -0.0318
  291MPD2    C2 4439   1.765   4.594   0.293  0.0979 -0.1928 -0.2572
  291MPD2    C3 4440   1.799   4.720   0.260  1.0836  0.3447 -0.0484
  291MPD2    C4 4441   1.704   0.081   0.258 -0.4448  0.3490 -0.2572
  291MPD2    C5 4442   1.570   0.038   0.281  0.1901 -0.6384  0.3888
  291MPD2     H 4443   1.853   4.532   0.297  2.1266  2.5295 -2.3469
  291MPD2    H1 4444   1.720   0.188   0.242 -2.1601  0.9238  1.8848
  291MPD2    H2 4445   1.427   4.618   0.323 -0.6677  0.9864 -1.5947
  291MPD2    H3 4446   1.490   0.112   0.279 -0.7856 -1.6416  2.1629
  291MPD2     N 4447   1.930   0.033   0.207  0.3606  0.2139  0.2403
  291MPD2    H5 4448   1.944   0.131   0.182  1.7390  0.2046  0.9509
  291MPD2    N1 4449   1.599   4.405   0.302  0.1625 -0.1879 -0.0186
  291MPD2    H7 4450   1.501   4.378   0.297  0.3183 -0.9549  1.0942
  292TMC3    C1 4451   1.637   4.175   0.244  0.1610  0.3910  0.3659
  292TMC3    C2 4452   1.530   4.169   0.161 -0.2809  0.6241  0.4332
  292TMC3    C3 4453   1.482   4.047   0.126 -0.1717  0.3209  0.4532
  292TMC3    C4 4454   1.711   4.061   0.273 -0.4088 -0.2001 -0.9807
  292TMC3    C5 4455   1.671   3.943   0.207 -0.2688  0.4748 -0.1126
  292TMC3    C6 4456   1.542   3.932   0.160  0.2685 -0.1527  0.2543
  292TMC3     C 4457   1.692   4.301   0.278 -0.2812 -0.1108  0.2855
  292TMC3     O 4458   1.814   4.307   0.262  0.0467 -0.5016 -0.5682
  292TMC3     H 4459   1.486   4.251   0.106 -1.3278 -0.2262  0.0106
  292TMC3    H1 4460   1.797   4.075   0.336  0.5398 -0.9255 -2.1025
  292TMC3    H2 4461   1.512   3.838   0.115 -1.2408 -0.0054  0.9699
  292TMC3    C7 4462   1.746   3.820   0.234 -0.4638 -0.3064  0.1133
  292TMC3    C8 4463   1.356   4.043   0.060  0.6086  0.7569 -1.0608
  292TMC3    O1 4464   1.730   3.727   0.155  0.0600  0.1590  0.0497
  292TMC3    O2 4465   1.327   4.128  17.704  1.0710 -0.3886 -0.8323
  293MPD2     C 4466   3.661   1.454  12.509 -0.5956  0.1223  0.0943
  293MPD2    C1 4467   3.606   1.365  12.598 -0.5579  0.0154  0.6211
  293MPD2    C2 4468   3.655   1.351  12.727  0.1716  0.1917  0.7581
  293MPD2    C3 4469   3.732   1.459  12.779 -0.3495 -0.0901 -0.2717
  293MPD2    C4 4470   3.767   1.565  12.696  1.0360  0.9042 -0.0980
  293MPD2    C5 4471   3.733   1.557  12.564 -0.1548 -0.0557 -0.1499
  293MPD2     H 4472   3.615   1.276  12.794  2.8337 -1.3939  0.5848
  293MPD2    H1 4473   3.830   1.649  12.723  0.2461  1.4647 -0.0117
  293MPD2    H2 4474   3.643   1.461  12.403  1.7208 -1.6890 -0.4144
  293MPD2    H3 4475   3.774   1.625  12.491  0.9775 -2.0753 -1.4101
  293MPD2     N 4476   3.779   1.446  12.915  0.0784  0.1162 -0.4336
  293MPD2    H5 4477   3.765   1.356  12.959  1.4886  1.3890  2.6106
  293MPD2    N1 4478   3.494   1.292  12.543  0.1639 -0.1184 -0.1143
  293MPD2    H7 4479   3.454   1.331  12.458 -1.6949  0.2477  0.9360
  294TMC3    C1 4480   3.298   1.165  12.546  0.6127 -0.0426  0.3743
  294TMC3    C2 4481   3.248   1.046  12.590  0.0824  0.1025  0.7176
  294TMC3    C3 4482   3.123   1.013  12.548 -0.3925 -0.4140  0.5220
  294TMC3    C4 4483   3.227   1.261  12.480  0.3590  0.2890  0.1262
  294TMC3    C5 4484   3.097   1.229  12.453  0.1378  0.1713  0.1224
  294TMC3    C6 4485   3.047   1.105  12.483 -0.6255 -0.0344  0.5154
  294TMC3     C 4486   3.419   1.201  12.608  0.5685  0.1533  0.3955
  294TMC3     O 4487   3.431   1.160  12.724 -0.0934 -0.0844 -0.3409
  294TMC3     H 4488   3.316   0.972  12.631  1.9766  1.7009  0.4703
  294TMC3    H1 4489   3.272   1.357  12.461 -0.4013  1.0244  2.0290
  294TMC3    H2 4490   2.941   1.086  12.475 -0.6392  0.0318  0.5383
  294TMC3    C7 4491   3.006   1.319  12.393  0.6381  0.0075  0.4819
  294TMC3    C8 4492   3.078   0.877  12.578  0.3882  0.0302  0.1974
  294TMC3    O1 4493   2.888   1.317  12.416 -0.3948  0.1103 -0.1923
  294TMC3    O2 4494   3.120   0.830  12.682 -0.0077  0.1461  0.1883
  295MPD2     C 4495   4.551   0.032   0.941 -0.5932  0.7338  0.5009
  295MPD2    C1 4496   4.419   0.067   0.919  0.1044 -0.2665  0.9886
  295MPD2    C2 4497   4.355   0.148   1.006  0.3330 -0.3336  1.2345
  295MPD2    C3 4498   4.409   0.197   1.114 -0.5853 -0.4946 -0.3933
  295MPD2    C4 4499   4.541   0.169   1.144 -0.3963 -0.0064 -0.2659
  295MPD2    C5 4500   4.605   0.078   1.061  0.8492 -0.2902  1.0032
  295MPD2     H 4501   4.246   0.152   0.999  0.5727  2.1328 -1.1238
  295MPD2    H1 4502   4.614   0.215   1.210 -2.5743  1.4784  1.0713
  295MPD2    H2 4503   4.605   4.690   0.883 -1.0550  1.3023 -0.6782
  295MPD2    H3 4504   4.708   0.047   1.072  1.2219 -0.7465 -3.7451
  295MPD2     N 4505   4.324   0.272   1.204  0.5427  0.6713 -0.0752
  295MPD2    H5 4506   4.376   0.325   1.273 -1.3422  1.0254  1.0612
  295MPD2    N1 4507   4.339   0.031   0.810 -0.6684 -0.2369  0.1858
  295MPD2    H7 4508   4.246   0.071   0.812 -0.5029  0.2337 -1.0746
  296TMC3    C1 4509   4.124   0.343   1.317  0.3392 -1.1179  0.1296
  296TMC3    C2 4510   4.157   0.477   1.315 -0.0338  0.4505  0.0631
  296TMC3    C3 4511   4.055   0.565   1.357  0.1059 -0.4858  0.0656
  296TMC3    C4 4512   4.014   0.297   1.380  0.2803 -0.4963  0.0601
  296TMC3    C5 4513   3.918   0.385   1.429 -0.1544 -0.0049 -0.1954
  296TMC3    C6 4514   3.934   0.521   1.412 -0.2507  0.2711 -0.4005
  296TMC3     C 4515   4.190   0.251   1.231 -0.0126 -0.2615 -0.0364
  296TMC3     O 4516   4.116   0.168   1.176 -0.1309 -0.1913 -0.3231
  296TMC3     H 4517   4.251   0.512   1.276  0.2370 -1.2360 -0.8382
  296TMC3    H1 4518   3.993   0.191   1.375  0.6502 -0.6720  2.2878
  296TMC3    H2 4519   3.863   0.588   1.458 -2.6963 -0.7294 -2.7545
  296TMC3    C7 4520   3.835   0.351   1.543 -0.1996  0.3743 -0.2876
  296TMC3    C8 4521   4.074   0.694   1.310 -0.0925  0.4779 -0.3708
  296TMC3    O1 4522   3.798   0.445   1.614  0.0031  0.1922 -0.7051
  296TMC3    O2 4523   4.167   0.710   1.233  0.2555 -0.6749  0.2683
  297MPD2     C 4524   1.283   1.599  16.324  0.4868 -0.5475  0.0045
  297MPD2    C1 4525   1.329   1.675  16.222 -0.0153  0.1627  0.0973
  297MPD2    C2 4526   1.456   1.714  16.209  1.2241 -0.6751 -0.6393
  297MPD2    C3 4527   1.546   1.673  16.307  0.0849 -0.0662  0.6264
  297MPD2    C4 4528   1.511   1.587  16.407  0.9367 -0.2846 -0.7192
  297MPD2    C5 4529   1.374   1.554  16.418 -0.0017 -0.1974 -0.9133
  297MPD2     H 4530   1.472   1.777  16.122  1.1513  1.0926  0.6412
  297MPD2    H1 4531   1.584   1.543  16.475 -0.4085 -0.0219  0.8832
  297MPD2    H2 4532   1.186   1.551  16.327  0.8890 -1.2104  2.3449
  297MPD2    H3 4533   1.343   1.474  16.485 -0.1262  0.7088  0.1097
  297MPD2     N 4534   1.678   1.717  16.298  0.3684 -0.8057 -0.0230
  297MPD2    H5 4535   1.719   1.761  16.216 -0.0981 -1.4422 -0.6003
  297MPD2    N1 4536   1.228   1.725  16.132 -0.6808 -0.1207 -0.0629
  297MPD2    H7 4537   1.268   1.763  16.046  1.4128 -0.4043  0.7882
  298TMC3    C1 4538   1.046   1.807  16.033  0.0948 -1.0175 -0.1352
  298TMC3    C2 4539   1.060   1.764  15.904 -0.0219  0.1708  0.5587
  298TMC3    C3 4540   0.966   1.807  15.812  0.0995 -0.5371 -0.1473
  298TMC3    C4 4541   0.949   1.892  16.070  0.1190 -0.2088  0.6515
  298TMC3    C5 4542   0.866   1.934  15.969 -0.3589  0.2367  0.2410
  298TMC3    C6 4543   0.877   1.902  15.835 -0.1168 -0.6835  0.4217
  298TMC3     C 4544   1.096   1.726  16.143  0.6061  0.1371 -0.0278
  298TMC3     O 4545   1.018   1.704  16.234  0.7060  0.2669 -0.1727
  298TMC3     H 4546   1.125   1.679  15.889 -0.4646  0.0447 -0.6538
  298TMC3    H1 4547   0.939   1.924  16.173 -0.4462  0.2593  0.4475
  298TMC3    H2 4548   0.799   1.929  15.764 -1.2884  1.0830  2.4107
  298TMC3    C7 4549   0.781   2.043  16.008 -0.4328  0.1208  0.5034
  298TMC3    C8 4550   0.961   1.728  15.692  1.0303  0.0437 -0.9842
  298TMC3    O1 4551   0.773   2.055  16.131 -0.1162  0.1139  0.5670
  298TMC3    O2 4552   1.010   1.620  15.703 -0.4776 -0.3348  0.1162
  299MPD2     C 4553   1.754   1.285   9.964 -0.2289 -0.6449  0.2998
  299MPD2    C1 4554   1.761   1.389   9.874  0.7666  0.4238  0.7960
  299MPD2    C2 4555   1.650   1.406   9.795  0.5591 -0.4321 -0.4277
  299MPD2    C3 4556   1.544   1.323   9.796 -0.3712 -0.8681  0.2195
  299MPD2    C4 4557   1.539   1.226   9.890 -0.3109  0.5061 -0.0634
  299MPD2    C5 4558   1.643   1.201   9.973  0.3030  0.2254  0.0718
  299MPD2     H 4559   1.643   1.496   9.735  2.4278 -0.5699 -0.8365
  299MPD2    H1 4560   1.446   1.170   9.901  0.4555 -1.2055 -2.1553
  299MPD2    H2 4561   1.835   1.253  10.029 -0.7488  1.1619  1.8478
  299MPD2    H3 4562   1.630   1.121  10.044  1.0056  1.7204  1.8713
  299MPD2     N 4563   1.428   1.346   9.717  0.3242  0.7058  0.0274
  299MPD2    H5 4564   1.345   1.293   9.743  1.1215 -1.0919 -1.1257
  299MPD2    N1 4565   1.866   1.486   9.878 -0.2215 -0.1381  0.3194
  299MPD2    H7 4566   1.934   1.474   9.953  0.9431  1.2863 -0.5209
  300TMC3    C1 4567   1.320   1.531   9.644  0.0769 -1.2043  0.1403
  300TMC3    C2 4568   1.347   1.658   9.593  0.2145  0.1139  0.5682
  300TMC3    C3 4569   1.296   1.771   9.647 -0.5979  0.3326  0.9398
  300TMC3    C4 4570   1.218   1.508   9.737 -0.4382  0.1980  0.5229
  300TMC3    C5 4571   1.157   1.624   9.776 -0.1494 -0.0162 -0.2599
  300TMC3    C6 4572   1.190   1.760   9.741  0.3056  0.6337  0.2394
  300TMC3     C 4573   1.417   1.434   9.609 -0.3358 -0.4363  0.7332
  300TMC3     O 4574   1.503   1.458   9.525 -0.1253 -0.0264 -0.3177
  300TMC3     H 4575   1.431   1.663   9.524 -0.6894  1.7988 -0.3976
  300TMC3    H1 4576   1.182   1.409   9.762  1.8126 -0.1764  2.3652
  300TMC3    H2 4577   1.121   1.843   9.750 -1.6427 -0.9607  0.0542
  300TMC3    C7 4578   1.031   1.607   9.861  0.2762 -0.4670  1.0129
  300TMC3    C8 4579   1.329   1.903   9.595  0.2395 -0.5225 -0.0020
  300TMC3    O1 4580   0.980   1.496   9.861  0.2166  0.3079  0.1934
  300TMC3    O2 4581   1.359   1.905   9.478  0.7028 -0.0586  0.0676
  301MPD2     C 4582   3.455   3.049   1.692 -0.1581 -0.2011 -0.2555
  301MPD2    C1 4583   3.385   3.059   1.570 -0.0789  0.1135 -0.1229
  301MPD2    C2 4584   3.426   2.980   1.467  0.3927  0.4278  0.1771
  301MPD2    C3 4585   3.534   2.892   1.466 -0.5434  0.3195 -0.6707
  301MPD2    C4 4586   3.594   2.885   1.591  0.0110 -0.1929  0.5547
  301MPD2    C5 4587   3.561   2.963   1.699  0.1085 -0.0353 -0.7509
  301MPD2     H 4588   3.367   2.999   1.378  3.1012 -3.0518 -2.3659
  301MPD2    H1 4589   3.676   2.820   1.620 -0.0022 -1.4286 -2.2275
  301MPD2    H2 4590   3.422   3.100   1.782  0.5133  1.0127 -0.6921
  301MPD2    H3 4591   3.614   2.947   1.792 -0.4257  1.9862 -0.1015
  301MPD2     N 4592   3.577   2.813   1.358  0.3278 -0.5968  0.0098
  301MPD2    H5 4593   3.646   2.742   1.382 -0.6514 -1.4501  0.3212
  301MPD2    N1 4594   3.262   3.125   1.552  0.5348  0.6166 -0.6269
  301MPD2    H7 4595   3.206   3.098   1.472  1.2438  2.4764 -1.7466
  302TMC3    C1 4596   3.545   2.656   1.190 -0.3768  0.0696  0.2211
  302TMC3    C2 4597   3.670   2.614   1.226  0.2806 -0.2298 -0.6982
  302TMC3    C3 4598   3.688   2.474   1.217 -0.5188 -0.2036 -0.6042
  302TMC3    C4 4599   3.431   2.586   1.160  0.0414 -0.4615  0.4953
  302TMC3    C5 4600   3.461   2.456   1.151 -0.5362 -0.0779 -0.1386
  302TMC3    C6 4601   3.583   2.400   1.182 -0.2140  0.3348 -0.6275
  302TMC3     C 4602   3.517   2.789   1.235  0.2188 -0.1038  0.1235
  302TMC3     O 4603   3.425   2.851   1.185 -0.0844 -0.8733 -0.0909
  302TMC3     H 4604   3.760   2.671   1.203 -0.0323 -0.0680 -1.4973
  302TMC3    H1 4605   3.339   2.636   1.133  0.2823 -2.3016 -3.6722
  302TMC3    H2 4606   3.602   2.293   1.181 -0.3280  0.2957  1.1495
  302TMC3    C7 4607   3.364   2.361   1.116 -0.6037  0.5808  1.2268
  302TMC3    C8 4608   3.811   2.403   1.225  0.3055 -0.2716  0.6408
  302TMC3    O1 4609   3.405   2.256   1.068  0.1207  0.7968 -0.0950
  302TMC3    O2 4610   3.815   2.284   1.191  0.2041  0.3869  0.0151
  303MPD2     C 4611   3.826   1.981  10.552  0.3346  0.0620 -0.5307
  303MPD2    C1 4612   3.843   1.857  10.617  0.4628 -0.3017  0.0218
  303MPD2    C2 4613   3.923   1.765  10.549 -1.0402 -0.0469 -0.4424
  303MPD2    C3 4614   3.973   1.798  10.421 -0.3040  0.1738 -0.1456
  303MPD2    C4 4615   3.941   1.920  10.362 -0.2625  0.8548  0.2718
  303MPD2    C5 4616   3.866   2.006  10.421 -0.2331  0.2003  0.0728
  303MPD2     H 4617   3.930   1.663  10.585 -0.4461 -0.0976 -0.7046
  303MPD2    H1 4618   3.981   1.945  10.265  0.4764  1.1318  0.6525
  303MPD2    H2 4619   3.777   2.058  10.610  0.4827  0.1757 -0.5562
  303MPD2    H3 4620   3.834   2.098  10.372 -0.2495 -0.7557 -1.7142
  303MPD2     N 4621   4.044   1.702  10.345  0.2493  0.7768  0.4543
  303MPD2    H5 4622   4.068   1.729  10.250  0.4899  3.3311  1.2339
  303MPD2    N1 4623   3.783   1.838  10.743  0.2616 -0.9335 -0.2646
  303MPD2    H7 4624   3.710   1.901  10.774 -0.4012 -2.7478  1.8492
  304TMC3    C1 4625   3.712   1.712  10.938  0.2625 -0.8528 -0.1324
  304TMC3    C2 4626   3.589   1.758  10.939  0.1290  0.6967  0.1745
  304TMC3    C3 4627   3.479   1.699  11.006  0.0870 -0.1037 -0.6390
  304TMC3    C4 4628   3.731   1.607  11.023  0.3525 -0.0244 -0.6625
  304TMC3    C5 4629   3.634   1.548  11.093  0.2165  0.6956 -0.2333
  304TMC3    C6 4630   3.502   1.598  11.096 -0.8948  0.5084  0.6770
  304TMC3     C 4631   3.803   1.726  10.822 -0.4378 -0.2033  0.2677
  304TMC3     O 4632   3.892   1.638  10.811  0.2450 -0.5475  0.1109
  304TMC3     H 4633   3.551   1.819  10.858  0.1316 -0.3766 -0.6450
  304TMC3    H1 4634   3.829   1.560  11.027  0.5912  0.5736  0.7571
  304TMC3    H2 4635   3.425   1.550  11.154 -2.0322  0.0132 -1.2540
  304TMC3    C7 4636   3.636   1.405  11.091  0.4041  0.8255  0.3959
  304TMC3    C8 4637   3.360   1.684  10.926  0.1763  0.0922 -0.4444
  304TMC3    O1 4638   3.527   1.371  11.048 -0.7320  0.1529 -0.5049
  304TMC3    O2 4639   3.316   1.767  10.853 -0.2651 -0.2044  0.0354
  305MPD2     C 4640   2.126   3.117  14.274 -0.5616 -0.0104  0.3971
  305MPD2    C1 4641   2.234   3.038  14.303  1.0847 -0.5315  1.1545
  305MPD2    C2 4642   2.277   2.952  14.204  0.3028  0.6817  0.3505
  305MPD2    C3 4643   2.213   2.936  14.085  0.6416  0.5535  0.6680
  305MPD2    C4 4644   2.113   3.023  14.050 -0.5281  1.1717 -0.6592
  305MPD2    C5 4645   2.073   3.114  14.146 -0.4039  0.3337 -0.0616
  305MPD2     H 4646   2.366   2.892  14.219 -1.0828 -1.5593 -0.3862
  305MPD2    H1 4647   2.059   3.028  13.956 -1.1173 -1.1972 -0.4363
  305MPD2    H2 4648   2.089   3.189  14.346 -0.6865  0.4571 -0.1406
  305MPD2    H3 4649   1.981   3.167  14.126 -1.0409 -0.9979 -0.6751
  305MPD2     N 4650   2.245   2.842  13.982  0.3609 -0.2397  0.8620
  305MPD2    H5 4651   2.198   2.844  13.893  1.3147 -1.1220  0.3365
  305MPD2    N1 4652   2.304   3.061  14.427 -0.6753 -0.3617  0.2520
  305MPD2    H7 4653   2.284   3.143  14.483  1.7630  1.2553 -1.2554
  306TMC3    C1 4654   2.482   3.032  14.576 -0.3352 -0.2679 -0.7809
  306TMC3    C2 4655   2.545   2.949  14.666 -0.5340  0.0113  1.3167
  306TMC3    C3 4656   2.609   3.012  14.775  0.1576 -0.3382  0.3721
  306TMC3    C4 4657   2.486   3.167  14.590  0.6518  0.0174 -0.0169
  306TMC3    C5 4658   2.551   3.223  14.692  0.4758  0.0777 -0.1540
  306TMC3    C6 4659   2.606   3.153  14.799 -0.3251  0.0047  0.0781
  306TMC3     C 4660   2.397   2.974  14.472 -0.4926 -0.4324 -0.6299
  306TMC3     O 4661   2.424   2.859  14.437  0.0850 -0.1743 -0.1263
  306TMC3     H 4662   2.547   2.842  14.647 -0.4560  0.5817 -1.9703
  306TMC3    H1 4663   2.437   3.231  14.518 -0.8410  0.0762  1.0530
  306TMC3    H2 4664   2.676   3.201  14.866 -0.1851 -0.5554  0.3279
  306TMC3    C7 4665   2.550   3.371  14.700 -0.1669 -0.3122 -0.3950
  306TMC3    C8 4666   2.681   2.932  14.877 -0.5549  0.2655  0.9335
  306TMC3    O1 4667   2.533   3.433  14.598  0.3540  0.4226  0.2780
  306TMC3    O2 4668   2.772   2.984  14.940 -0.0352  0.1049  0.2353
  307MPD2     C 4669   0.129   0.491   0.227 -0.0931  0.3245 -0.2232
  307MPD2    C1 4670   0.093   0.626   0.237  1.0268  0.4993  0.3687
  307MPD2    C2 4671   0.005   0.660   0.339 -0.4484  0.2891 -0.4444
  307MPD2    C3 4672   4.687   0.566   0.432 -0.4784 -0.2258  0.5688
  307MPD2    C4 4673   4.726   0.433   0.427  0.7303 -0.7521  0.3750
  307MPD2    C5 4674   0.078   0.402   0.320 -0.6910 -0.7314  0.0187
  307MPD2     H 4675   4.720   0.767   0.345  0.9653  0.6207 -2.5772
  307MPD2    H1 4676   4.695   0.356   0.496  1.6552  0.7995  2.5055
  307MPD2    H2 4677   0.188   0.454   0.145  0.4086 -0.8836  0.6901
  307MPD2    H3 4678   0.110   0.300   0.306  2.7138  0.1077  1.6271
  307MPD2     N 4679   4.591   0.615   0.523  0.4383  0.2492 -0.3024
  307MPD2    H5 4680   4.563   0.712   0.516 -0.0772 -0.0167 -2.0175
  307MPD2    N1 4681   0.136   0.721   0.144  0.2321  0.1229 -0.1940
  307MPD2    H7 4682   0.120   0.819   0.164  0.9259  0.8970 -3.5762
  308TMC3    C1 4683   4.265   0.594   0.868 -0.3582 -0.4654 -0.3859
  308TMC3    C2 4684   4.294   0.726   0.913  0.0995  0.5937 -0.9848
  308TMC3    C3 4685   4.392   0.790   0.848 -0.1448  0.0958  0.2084
  308TMC3    C4 4686   4.341   0.529   0.771 -0.1344  0.5807 -0.6820
  308TMC3    C5 4687   4.436   0.600   0.708  0.0939  0.8256  0.5019
  308TMC3    C6 4688   4.465   0.726   0.747  0.2528 -0.7158  0.3632
  308TMC3     C 4689   4.160   0.523   0.930  0.1646  0.2761 -0.0595
  308TMC3     O 4690   4.162   0.401   0.915  0.0730  0.3486  0.5831
  308TMC3     H 4691   4.242   0.776   0.994  0.8956  0.2708 -0.2807
  308TMC3    H1 4692   4.334   0.424   0.745 -0.0688  0.2910  0.4679
  308TMC3    H2 4693   4.563   0.765   0.720 -0.6997  0.1314 -1.8262
  308TMC3    C7 4694   4.521   0.534   0.614  0.4656 -0.3480  0.7143
  308TMC3    C8 4695   4.431   0.921   0.902 -0.0469  0.9703 -0.0140
  308TMC3    O1 4696   4.538   0.416   0.641  0.4513  0.0138 -0.1454
  308TMC3    O2 4697   4.387   0.927   1.016 -0.0934  0.0653 -0.1643
  309MPD2     C 4698   3.946   1.284  17.693 -0.7986  0.4816  0.2714
  309MPD2    C1 4699   3.860   1.345  17.607  0.3886  0.1717  0.0043
  309MPD2    C2 4700   3.736   1.384  17.649 -1.0570 -0.4174  0.4687
  309MPD2    C3 4701   3.701   1.376   0.051 -0.1486  0.6956 -0.2085
  309MPD2    C4 4702   3.792   1.318   0.138 -0.0090  0.5340  0.0651
  309MPD2    C5 4703   3.911   1.273   0.098  0.1574  0.8397  0.2191
  309MPD2     H 4704   3.667   1.412  17.570 -0.0158  0.1715 -0.2432
  309MPD2    H1 4705   3.771   1.328   0.244  2.9659  0.7785  0.6195
  309MPD2    H2 4706   4.049   1.254  17.675 -0.3129  1.9936  0.5449
  309MPD2    H3 4707   3.992   1.253   0.167 -1.4844  0.0514  1.9218
  309MPD2     N 4708   3.575   1.405   0.114 -0.1233  0.4378 -0.4362
  309MPD2    H5 4709   3.564   1.375   0.210  1.0001  0.4422 -0.3070
  309MPD2    N1 4710   3.894   1.354  17.467  0.2113  1.4817  0.3022
  309MPD2    H7 4711   3.817   1.388  17.411 -0.6262 -1.6017 -0.4264
  310TMC3    C1 4712   3.980   1.322  17.258 -0.1077  0.0927  0.6582
  310TMC3    C2 4713   3.896   1.418  17.203  0.7972  0.3097  0.4791
  310TMC3    C3 4714   3.888   1.414  17.062 -0.0144  0.1942  0.0204
  310TMC3    C4 4715   4.062   1.239  17.185  0.5563  0.5107 -0.1547
  310TMC3    C5 4716   4.035   1.243  17.054  0.0087 -0.3344  0.3072
  310TMC3    C6 4717   3.941   1.316  16.991 -1.1543 -0.4022  0.3103
  310TMC3     C 4718   4.010   1.322  17.402  0.2306 -0.2708  0.0181
  310TMC3     O 4719   4.122   1.291  17.435 -0.1877 -0.2962  0.0932
  310TMC3     H 4720   3.860   1.501  17.262  0.9770 -0.3221  1.4963
  310TMC3    H1 4721   4.124   1.167  17.237 -0.0237  0.4025  0.3842
  310TMC3    H2 4722   3.954   1.327  16.884 -4.0156  0.6640  0.0862
  310TMC3    C7 4723   4.143   1.198  16.961  0.0780  0.3254 -0.2895
  310TMC3    C8 4724   3.825   1.523  16.990  0.6279 -0.5408  0.3965
  310TMC3    O1 4725   4.107   1.177  16.843  0.0840 -0.5597  0.0106
  310TMC3    O2 4726   3.875   1.556  16.882  0.5783 -0.2256  0.2214
  311MPD2     C 4727   1.213   2.541  12.849  0.4995 -0.4168 -0.1378
  311MPD2    C1 4728   1.167   2.671  12.835 -0.1797 -0.0158  0.2644
  311MPD2    C2 4729   1.027   2.693  12.834 -0.0543  0.0892  0.1461
  311MPD2    C3 4730   0.938   2.590  12.859  0.8484 -0.0483  0.4641
  311MPD2    C4 4731   0.984   2.460  12.866  0.1806  0.6152  0.4194
  311MPD2    C5 4732   1.123   2.440  12.855  0.6939  0.2459 -0.1456
  311MPD2     H 4733   0.991   2.793  12.818  1.1732  0.3144 -1.2010
  311MPD2    H1 4734   0.926   2.370  12.881 -0.4340  0.6235 -1.9456
  311MPD2    H2 4735   1.316   2.517  12.825  0.4838  0.9678 -1.5798
  311MPD2    H3 4736   1.151   2.336  12.865 -1.6671 -0.5123 -1.4308
  311MPD2     N 4737   0.804   2.630  12.897  0.3371 -0.1194 -0.5054
  311MPD2    H5 4738   0.782   2.728  12.915  1.2627  0.2325 -1.3159
  311MPD2    N1 4739   1.250   2.781  12.805  0.2121 -0.0079 -0.2466
  311MPD2    H7 4740   1.197   2.866  12.794 -0.8558 -0.5142  1.0095
  312TMC3    C1 4741   0.592   2.609  12.990  0.5016 -0.4593  0.4985
  312TMC3    C2 4742   0.457   2.572  12.972  0.3099  0.6000 -0.0494
  312TMC3    C3 4743   0.363   2.647  13.034  0.1714 -0.5613  0.5949
  312TMC3    C4 4744   0.624   2.708  13.074 -0.3079 -0.0363 -0.6547
  312TMC3    C5 4745   0.528   2.776  13.129 -0.2725 -0.7372  0.1223
  312TMC3    C6 4746   0.395   2.761  13.107 -0.4732 -0.1333 -0.5138
  312TMC3     C 4747   0.706   2.537  12.938 -0.5099  0.0137  0.0688
  312TMC3     O 4748   0.707   2.416  12.930  0.0854  0.6597  0.2795
  312TMC3     H 4749   0.431   2.480  12.921 -1.3531 -0.0363  1.9424
  312TMC3    H1 4750   0.726   2.722  13.111 -0.4582 -1.3158  0.2444
  312TMC3    H2 4751   0.332   2.844  13.136  1.1703  0.6126  0.9779
  312TMC3    C7 4752   0.571   2.896  13.197  0.4890 -0.0162 -0.1633
  312TMC3    C8 4753   0.232   2.635  12.980 -0.7786  0.3699  0.0602
  312TMC3    O1 4754   0.510   3.000  13.173  0.4234  0.0890 -0.7344
  312TMC3    O2 4755   0.215   2.548  12.901  0.4251  0.1501 -0.6253
  313MPD2     C 4756   0.152   2.574  11.546 -0.7116 -0.8921 -0.0177
  313MPD2    C1 4757   0.115   2.644  11.434 -0.1195 -0.6864 -1.2494
  313MPD2    C2 4758   0.092   2.575  11.314 -0.2613  0.3506 -0.4910
  313MPD2    C3 4759   0.093   2.434  11.315 -0.5299  0.2129  1.1587
  313MPD2    C4 4760   0.135   2.367  11.427 -0.7822  0.2749 -0.3832
  313MPD2    C5 4761   0.163   2.436  11.543 -0.2531  0.8452 -0.1262
  313MPD2     H 4762   0.054   2.620  11.223  0.3841  0.8806 -0.4948
  313MPD2    H1 4763   0.151   2.260  11.431  0.9562  0.5617  0.3905
  313MPD2    H2 4764   0.168   2.623  11.641  0.3377 -0.0535 -0.6256
  313MPD2    H3 4765   0.199   2.382  11.630  0.9159 -1.6871 -2.1495
  313MPD2     N 4766   0.085   2.366  11.194 -0.6027 -0.1040  0.0849
  313MPD2    H5 4767   0.086   2.424  11.110 -0.7308  0.7387  0.6581
  313MPD2    N1 4768   0.099   2.785  11.422  0.3589 -0.3294 -0.7637
  313MPD2    H7 4769   0.076   2.818  11.329 -0.7858  0.4651 -0.1973
  314TMC3    C1 4770   0.116   3.019  11.461  0.0726 -0.1042 -0.7887
  314TMC3    C2 4771   0.219   3.107  11.472 -0.0914  0.1900 -0.3117
  314TMC3    C3 4772   0.230   3.206  11.378 -0.0658 -0.3708 -0.5235
  314TMC3    C4 4773   0.027   3.036  11.363  0.3487  1.0588 -0.4896
  314TMC3    C5 4774   0.036   3.145  11.281  0.5878 -0.0577 -0.1170
  314TMC3    C6 4775   0.137   3.240  11.282 -0.0524  0.4422 -0.0488
  314TMC3     C 4776   0.128   2.884  11.513 -0.5779  0.5398 -0.7658
  314TMC3     O 4777   0.158   2.874  11.634  0.1515  0.2545 -0.1829
  314TMC3     H 4778   0.292   3.098  11.552 -0.4459  1.9499  0.2228
  314TMC3    H1 4779   4.681   2.961  11.358  1.1869  0.1769 -0.3255
  314TMC3    H2 4780   0.137   3.329  11.220 -0.4805  0.2527 -0.3218
  314TMC3    C7 4781   4.680   3.145  11.164 -0.7029  0.9218 -0.6439
  314TMC3    C8 4782   0.354   3.268  11.350  0.1767 -0.7039 -0.4306
  314TMC3    O1 4783   4.568   3.099  11.180  0.1897  0.3658  0.1368
  314TMC3    O2 4784   0.356   3.352  11.258  0.3413  0.5913 -0.1336
  315MPD2     C 4785   0.200   1.875   0.151  0.0898 -0.4286 -0.5049
  315MPD2    C1 4786   0.277   1.777   0.091  0.0970 -0.2830  0.6546
  315MPD2    C2 4787   0.366   1.818  17.717 -0.2249 -0.1775 -0.3311
  315MPD2    C3 4788   0.368   1.946  17.671 -0.0524  0.6056 -0.0015
  315MPD2    C4 4789   0.303   2.041   0.008 -1.1024  0.4032  0.6642
  315MPD2    C5 4790   0.214   2.003   0.102  0.4955  0.9014 -0.5020
  315MPD2     H 4791   0.439   1.745  17.686  1.2353  1.2581 -0.3117
  315MPD2    H1 4792   0.310   2.147  17.713 -0.9254  0.0555 -0.7947
  315MPD2    H2 4793   0.126   1.858   0.228 -0.7001  0.8147 -0.9859
  315MPD2    H3 4794   0.156   2.075   0.159  0.5510  0.8575 -0.3891
  315MPD2     N 4795   0.477   1.984  17.585  0.1877  0.3216  0.3860
  315MPD2    H5 4796   0.545   1.911  17.566  0.5407  0.5608  0.7374
  315MPD2    N1 4797   0.284   1.643   0.134 -0.2766 -0.0173  0.8695
  315MPD2    H7 4798   0.344   1.577   0.086 -0.3156  1.8182 -1.6916
  316TMC3    C1 4799   0.638   2.121  17.471  0.9355  0.3043 -0.0559
  316TMC3    C2 4800   0.742   2.060  17.543  0.7510  0.2523  0.8105
  316TMC3    C3 4801   0.872   2.090  17.510  0.1815 -0.5463  0.5236
  316TMC3    C4 4802   0.664   2.199  17.360  0.2716  0.3849  0.6679
  316TMC3    C5 4803   0.800   2.235  17.333 -0.7552 -0.0722 -0.6569
  316TMC3    C6 4804   0.902   2.179  17.412  0.1987  0.2542 -0.0115
  316TMC3     C 4805   0.496   2.107  17.527  0.4470 -0.6678 -0.5172
  316TMC3     O 4806   0.414   2.197  17.516  1.1964 -0.0704  0.2870
  316TMC3     H 4807   0.721   1.998  17.630  0.1621 -0.9121 -0.1654
  316TMC3    H1 4808   0.588   2.250  17.302  1.4041  1.5931  0.2242
  316TMC3    H2 4809   1.006   2.193  17.384  1.1264 -1.9413  2.2713
  316TMC3    C7 4810   0.845   2.294  17.211  0.4667  0.7540 -0.2046
  316TMC3    C8 4811   0.980   2.040  17.586 -0.2425 -0.6055 -0.3820
  316TMC3    O1 4812   0.960   2.344  17.221  0.0835 -0.2614 -0.5782
  316TMC3    O2 4813   1.075   2.119  17.605  0.4423  0.0551  0.2999
  317MPD2     C 4814   2.265   0.178  12.809 -0.3530  0.2382  0.2470
  317MPD2    C1 4815   2.294   0.047  12.773 -0.5946  0.2679  0.2256
  317MPD2    C2 4816   2.354   4.687  12.863 -0.1641  0.1215 -0.4651
  317MPD2    C3 4817   2.402   0.003  12.977 -0.5499 -0.6640 -0.0862
  317MPD2    C4 4818   2.370   0.134  13.014  0.2557 -0.1083  0.4629
  317MPD2    C5 4819   2.312   0.231  12.929  0.0969  0.4479  0.4701
  317MPD2     H 4820   2.384   4.588  12.831  1.8585  0.4911  0.3277
  317MPD2    H1 4821   2.381   0.159  13.119 -1.5572  0.3078  0.5480
  317MPD2    H2 4822   2.237   0.251  12.733  1.1463 -0.1207 -0.6525
  317MPD2    H3 4823   2.300   0.331  12.967  1.5870  0.9390 -0.3591
  317MPD2     N 4824   2.468   4.650  13.066 -0.0142 -0.2916  0.2627
  317MPD2    H5 4825   2.465   4.549  13.059  2.9280 -0.2960 -0.9763
  317MPD2    N1 4826   2.262   4.727  12.647  0.0619  0.9648 -1.1555
  317MPD2    H7 4827   2.292   4.632  12.629 -1.9788  0.1542 -0.2852
  318TMC3    C1 4828   2.616   4.584  13.252  0.1481  0.4163  0.3431
  318TMC3    C2 4829   2.560   4.453  13.262 -0.5302  1.0747 -0.0908
  318TMC3    C3 4830   2.627   4.358  13.339  0.4209  0.2069 -0.1408
  318TMC3    C4 4831   2.729   4.611  13.314  0.5077  0.4829 -0.0670
  318TMC3    C5 4832   2.791   4.514  13.390 -0.3002  0.3361 -0.1654
  318TMC3    C6 4833   2.741   4.390  13.406 -0.2451  0.4399 -0.4084
  318TMC3     C 4834   2.561   4.688  13.166 -0.1133  0.8656 -0.8119
  318TMC3     O 4835   2.609   0.070  13.172 -0.6473 -0.3424  0.0232
  318TMC3     H 4836   2.479   4.420  13.199  0.5344  2.2728 -2.0655
  318TMC3    H1 4837   2.773   4.709  13.299 -3.4230  2.3258  0.4159
  318TMC3    H2 4838   2.784   4.306  13.460  0.8694  0.4363 -1.3061
  318TMC3    C7 4839   2.916   4.554  13.448  0.2538 -0.0938  0.5878
  318TMC3    C8 4840   2.585   4.219  13.341 -0.2172 -0.0521  0.9854
  318TMC3    O1 4841   2.944   4.673  13.448 -0.3861  0.0608  0.1621
  318TMC3    O2 4842   2.673   4.134  13.341 -0.2516  0.1359 -1.0019
  319MPD2     C 4843   3.719   1.199  16.391 -1.0091 -0.4230 -0.0796
  319MPD2    C1 4844   3.651   1.089  16.445  0.4584  0.4680 -0.1005
  319MPD2    C2 4845   3.591   0.995  16.359 -0.5709  0.0145  0.1672
  319MPD2    C3 4846   3.597   1.007  16.220 -0.0510  0.3333  0.6257
  319MPD2    C4 4847   3.669   1.116  16.168 -0.0033  0.5294  0.0643
  319MPD2    C5 4848   3.739   1.202  16.252  0.2582 -0.4724 -0.4763
  319MPD2     H 4849   3.532   0.915  16.402  2.7541 -1.4545  1.9844
  319MPD2    H1 4850   3.661   1.139  16.062 -1.4857 -0.0576  0.0585
  319MPD2    H2 4851   3.763   1.278  16.450  0.6263 -0.6712 -0.9697
  319MPD2    H3 4852   3.789   1.287  16.205 -2.0298  0.2540 -1.5781
  319MPD2     N 4853   3.517   0.927  16.135 -0.2130  0.3846  0.6040
  319MPD2    H5 4854   3.518   0.943  16.035  0.1178  2.5441  0.9459
  319MPD2    N1 4855   3.614   1.080  16.583  0.0902 -0.1835 -0.3945
  319MPD2    H7 4856   3.536   1.022  16.612  1.1256 -1.4690 -0.1350
  320TMC3    C1 4857   3.316   0.826  16.064  1.1348  0.1345 -0.0006
  320TMC3    C2 4858   3.276   0.945  16.008  0.0733 -0.9139  0.2775
  320TMC3    C3 4859   3.150   0.944  15.955  0.7258 -0.5433 -0.5570
  320TMC3    C4 4860   3.234   0.721  16.067  0.1163 -0.4759  0.0926
  320TMC3    C5 4861   3.115   0.722  16.003 -0.2012  0.0701 -0.8331
  320TMC3    C6 4862   3.076   0.833  15.944 -1.1617 -0.4647 -0.2315
  320TMC3     C 4863   3.418   0.840  16.170  0.1764  0.4835 -0.2094
  320TMC3     O 4864   3.394   0.789  16.281  0.4202 -0.1164  0.3665
  320TMC3     H 4865   3.328   1.039  16.022 -1.1667  0.0305 -1.4813
  320TMC3    H1 4866   3.265   0.626  16.110 -2.6454 -1.4758 -0.0780
  320TMC3    H2 4867   2.972   0.851  15.916 -1.2866  1.3320  1.3641
  320TMC3    C7 4868   3.033   0.607  15.988 -0.0089  0.4040  0.0285
  320TMC3    C8 4869   3.090   1.072  15.925 -0.3222  0.4454  0.4583
  320TMC3    O1 4870   2.976   0.569  15.886  0.0590 -0.3230  0.3356
  320TMC3    O2 4871   3.109   1.156  16.009 -0.1182 -0.5502  0.1246
  321TMC3    C1 4872   3.628   1.103  16.817  0.2885 -0.5461  0.0747
  321TMC3    C2 4873   3.571   0.980  16.829  0.8990  0.1648 -0.2419
  321TMC3    C3 4874   3.460   0.969  16.907 -0.0248  0.3833  0.2922
  321TMC3    C4 4875   3.590   1.200  16.910  0.8867 -0.0996 -0.0987
  321TMC3    C5 4876   3.473   1.184  16.995  0.0093  0.3075 -0.4732
  321TMC3    C6 4877   3.400   1.072  16.976 -0.3629  0.0356  1.2783
  321TMC3     C 4878   3.672   1.149  16.687  0.7015  0.1425  0.2887
  321TMC3     O 4879   3.757   1.234  16.688  0.4424 -0.5499  0.1364
  321TMC3     H 4880   3.599   0.903  16.759 -1.7756  0.0977 -1.2296
  321TMC3    H1 4881   3.651   1.289  16.917 -0.7945  0.9437  1.2060
  321TMC3    H2 4882   3.299   1.058  17.012  0.0200 -0.4334  2.1660
  321TMC3    C7 4883   3.485   1.236  17.133 -0.9320  0.3551  0.8849
  321TMC3    C8 4884   3.455   0.855  16.993 -0.2955  0.0436  0.3291
  321TMC3    O1 4885   3.593   1.276  17.170  0.2603  0.1220 -0.0052
  321TMC3    O2 4886   3.398   0.873  17.101 -0.3715 -0.3996  0.1116
  322MPD2     C 4887   2.250   2.373  14.097  1.0161 -0.6790  0.8743
  322MPD2    C1 4888   2.361   2.340  14.175  0.3228 -0.1884 -0.4287
  322MPD2    C2 4889   2.436   2.232  14.128  0.1931  0.2408 -0.0874
  322MPD2    C3 4890   2.399   2.151  14.023 -0.4311  0.3853  0.2653
  322MPD2    C4 4891   2.284   2.176  13.957  1.2607 -0.2648 -0.6832
  322MPD2    C5 4892   2.216   2.293  13.987 -0.1833  0.4108  0.3845
  322MPD2     H 4893   2.522   2.198  14.185 -0.6929 -1.5001  0.1871
  322MPD2    H1 4894   2.257   2.113  13.873  0.6315 -1.0407  0.0938
  322MPD2    H2 4895   2.181   2.450  14.126  0.2154 -0.8499 -0.5919
  322MPD2    H3 4896   2.130   2.321  13.927  0.1448  0.1941 -0.1889
  322MPD2     N 4897   2.487   2.043  13.987 -0.3050  0.1165  0.1519
  322MPD2    H5 4898   2.567   2.038  14.050 -0.3180  0.9561  0.2277
  322MPD2    N1 4899   2.390   2.406  14.297  0.7054  0.1382  0.1955
  322MPD2    H7 4900   2.331   2.487  14.308  1.2705  0.4361  1.0962
  323TMC3    C1 4901   2.518   2.457  14.486  0.2648 -0.2885  0.0399
  323TMC3    C2 4902   2.567   2.571  14.436 -0.3543  0.5402 -0.4201
  323TMC3    C3 4903   2.641   2.649  14.513 -0.3697 -0.6382 -0.9280
  323TMC3    C4 4904   2.563   2.404  14.606  0.4675  0.1074  0.3306
  323TMC3    C5 4905   2.643   2.479  14.684 -0.0648 -0.2678 -0.2358
  323TMC3    C6 4906   2.683   2.602  14.640  0.9869 -0.3418 -0.0148
  323TMC3     C 4907   2.472   2.359  14.395 -0.3426 -0.6372  0.2115
  323TMC3     O 4908   2.512   2.243  14.420 -0.0588  0.3291  0.4970
  323TMC3     H 4909   2.517   2.618  14.351 -0.0383  1.1392 -0.2785
  323TMC3    H1 4910   2.539   2.303  14.635 -0.1109  0.2580  0.3833
  323TMC3    H2 4911   2.757   2.641  14.709  0.7305  3.1751 -1.7214
  323TMC3    C7 4912   2.688   2.420  14.812  0.2234 -1.1606 -0.1095
  323TMC3    C8 4913   2.749   2.712  14.438 -0.1814 -0.2926  0.0077
  323TMC3    O1 4914   2.620   2.327  14.853 -0.5693  0.0579 -0.0449
  323TMC3    O2 4915   2.860   2.731  14.491  0.4564 -0.4926 -0.2868
  324MPD2     C 4916   3.940   3.473  14.781 -0.1313  0.0572 -0.0956
  324MPD2    C1 4917   3.974   3.592  14.721  0.5581 -0.5924 -0.0713
  324MPD2    C2 4918   3.882   3.650  14.632 -0.7047  0.0483 -0.3978
  324MPD2    C3 4919   3.766   3.586  14.595 -0.5907  0.7191 -0.5022
  324MPD2    C4 4920   3.744   3.458  14.646  0.4064  0.1945 -0.0226
  324MPD2    C5 4921   3.822   3.412  14.745 -0.4332 -0.0280 -0.0429
  324MPD2     H 4922   3.906   3.747  14.591  0.6874  0.2051  0.7812
  324MPD2    H1 4923   3.661   3.395  14.616 -1.0197  1.9017  0.3358
  324MPD2    H2 4924   4.012   3.429  14.849  0.8570 -1.4355 -2.0921
  324MPD2    H3 4925   3.786   3.317  14.782 -2.7147  0.0526 -2.0459
  324MPD2     N 4926   3.669   3.636  14.507  0.0714  0.2762 -0.0347
  324MPD2    H5 4927   3.591   3.577  14.483 -0.8414  0.3617  2.8020
  324MPD2    N1 4928   4.105   3.639  14.733 -0.6216  0.1326  0.5561
  324MPD2    H7 4929   4.128   3.716  14.670 -0.6290 -0.3635 -0.0483
  325TMC3    C1 4930   3.565   3.807  14.366  0.0790 -0.3359 -0.3295
  325TMC3    C2 4931   3.448   3.733  14.372  0.5362 -0.1851 -0.5242
  325TMC3    C3 4932   3.347   3.770  14.283  0.0896  0.4355 -0.4191
  325TMC3    C4 4933   3.590   3.905  14.272  0.4638  0.4501 -0.3718
  325TMC3    C5 4934   3.481   3.943  14.194  0.0629 -0.1541  0.4016
  325TMC3    C6 4935   3.366   3.875  14.192 -0.1801  0.0670  0.1361
  325TMC3     C 4936   3.674   3.764  14.448 -0.4876 -0.3394 -0.1658
  325TMC3     O 4937   3.767   3.840  14.442 -0.0051 -0.1944 -0.2157
  325TMC3     H 4938   3.437   3.639  14.425 -2.8417  0.6861  0.3152
  325TMC3    H1 4939   3.686   3.955  14.273  0.8499 -0.3166  1.0480
  325TMC3    H2 4940   3.304   3.885  14.103 -0.9006 -1.1126  0.5060
  325TMC3    C7 4941   3.484   4.074  14.136  0.2843 -0.1612  0.3576
  325TMC3    C8 4942   3.229   3.681  14.267 -0.6388 -0.5120  0.0463
  325TMC3    O1 4943   3.595   4.116  14.095 -0.0270 -0.5090  0.2312
  325TMC3    O2 4944   3.234   3.572  14.326 -0.6410 -0.2645  0.1894
  326MPD2     C 4945   0.628   4.659  11.277  0.2532 -0.5316  0.1995
  326MPD2    C1 4946   0.568   0.023  11.198  0.2488 -0.2076 -0.6368
  326MPD2    C2 4947   0.653   0.109  11.131 -0.7596 -0.3514 -0.0430
  326MPD2    C3 4948   0.788   0.112  11.160  0.3693  0.3326  0.8576
  326MPD2    C4 4949   0.844   0.011  11.237 -0.2189 -0.5543  0.3642
  326MPD2    C5 4950   0.760   4.654  11.302  0.3282  0.4292 -0.5938
  326MPD2     H 4951   0.616   0.177  11.055 -0.6904  1.6127  1.6836
  326MPD2    H1 4952   0.947   4.718  11.259  0.0616  0.7513  0.5954
  326MPD2    H2 4953   0.571   4.601  11.348 -3.1213  1.2583 -1.0539
  326MPD2    H3 4954   0.800   4.608  11.392  2.0068 -0.4709 -1.7927
  326MPD2     N 4955   0.871   0.216  11.108 -0.7393 -0.0210  0.1539
  326MPD2    H5 4956   0.968   0.187  11.098 -0.2768  1.3987  0.4662
  326MPD2    N1 4957   0.433   0.018  11.163  1.1407 -0.0406 -0.6504
  326MPD2    H7 4958   0.404   0.094  11.103 -0.9478  0.6283  1.2410
  327TMC3    C1 4959   0.271   4.629  11.070  0.1036  0.0181 -0.1980
  327TMC3    C2 4960   0.244   0.013  11.006 -0.4409 -0.3407 -0.2130
  327TMC3    C3 4961   0.243   0.009  10.866 -0.4386 -0.5209  1.4902
  327TMC3    C4 4962   0.316   4.516  11.003 -0.5143 -0.6475  0.6013
  327TMC3    C5 4963   0.326   4.524  10.867  0.5711  0.0870  0.0015
  327TMC3    C6 4964   0.286   4.635  10.801  0.6350 -0.1182 -0.2653
  327TMC3     C 4965   0.349   4.648  11.192 -0.3509 -0.2852  0.0552
  327TMC3     O 4966   0.347   4.548  11.269 -0.6677  0.2014  0.6077
  327TMC3     H 4967   0.221   0.103  11.063  1.1974 -0.4482  0.6069
  327TMC3    H1 4968   0.339   4.427  11.060  0.0293 -0.5377  0.5523
  327TMC3    H2 4969   0.309   4.642  10.695  2.1554  0.7410  0.1116
  327TMC3    C7 4970   0.454   4.481  10.815  0.3561 -0.2677  0.4205
  327TMC3    C8 4971   0.216   0.136  10.797  0.2767 -0.4365  0.1152
  327TMC3    O1 4972   0.477   4.483  10.692  0.3234  0.4348 -0.1125
  327TMC3    O2 4973   0.272   0.144  10.691  0.4115 -0.2121 -0.2710
  328MPD2     C 4974   2.621   4.102  17.472  0.1643 -0.3809  0.5276
  328MPD2    C1 4975   2.563   4.030  17.366 -0.1363  0.0860  0.0880
  328MPD2    C2 4976   2.599   4.053  17.233 -0.4729 -0.8027 -0.3986
  328MPD2    C3 4977   2.685   4.159  17.208 -0.3345 -0.4402 -0.4045
  328MPD2    C4 4978   2.731   4.241  17.315 -0.6729  0.5994 -0.7587
  328MPD2    C5 4979   2.697   4.209  17.444 -0.5596 -0.0307  0.0988
  328MPD2     H 4980   2.551   3.996  17.154 -3.5207  1.3930 -0.1478
  328MPD2    H1 4981   2.809   4.315  17.300 -1.5190  1.5707 -0.4057
  328MPD2    H2 4982   2.603   4.092  17.578  2.5001 -1.2781  0.8234
  328MPD2    H3 4983   2.744   4.260  17.527  0.5342 -0.9264  0.0279
  328MPD2     N 4984   2.714   4.200  17.074 -0.6021  0.3839 -0.2307
  328MPD2    H5 4985   2.772   4.282  17.060 -0.7171  0.5552  0.3043
  328MPD2    N1 4986   2.468   3.935  17.407  0.5337  0.3213  0.1256
  328MPD2    H7 4987   2.451   3.927  17.507 -1.8949 -0.8688 -0.3808
  329TMC3    C1 4988   2.286   3.782  17.390 -0.1590 -0.1515  0.3734
  329TMC3    C2 4989   2.207   3.874  17.455  0.3817 -0.3755 -0.3817
  329TMC3    C3 4990   2.072   3.874  17.416  0.3307 -0.3998 -0.3090
  329TMC3    C4 4991   2.236   3.684  17.305  0.3978 -0.2643  0.1908
  329TMC3    C5 4992   2.096   3.681  17.295  0.2008 -0.2028 -0.8882
  329TMC3    C6 4993   2.012   3.774  17.349 -0.0951  0.1006  0.3273
  329TMC3     C 4994   2.400   3.846  17.327  0.4653 -0.0765 -0.0490
  329TMC3     O 4995   2.423   3.817  17.210  0.0106 -0.3399  0.4635
  329TMC3     H 4996   2.243   3.962  17.507 -0.0858 -0.3480 -0.1071
  329TMC3    H1 4997   2.293   3.608  17.252 -1.1278 -0.4694 -1.1539
  329TMC3    H2 4998   1.907   3.778  17.325  0.1470  2.2348 -0.4611
  329TMC3    C7 4999   2.060   3.639  17.161  0.1021 -0.0939 -0.4045
  329TMC3    C8 5000   2.037   4.001  17.349  0.9333  0.6869 -0.4850
  329TMC3    O1 5001   2.084   3.519  17.129  0.1891  0.2515  0.0651
  329TMC3    O2 5002   2.004   3.986  17.229 -0.5127 -0.2186  0.3964
  330TMC3    C1 5003   1.073   3.941   9.392 -0.4462 -0.6090  0.0864
  330TMC3    C2 5004   0.974   3.860   9.339 -0.6680  0.2209 -0.1934
  330TMC3    C3 5005   1.011   3.768   9.238  0.4224  0.6729  0.0143
  330TMC3    C4 5006   1.204   3.930   9.363 -0.2368 -0.1440 -1.0788
  330TMC3    C5 5007   1.235   3.838   9.261  0.1248  0.0904  1.0325
  330TMC3    C6 5008   1.145   3.758   9.199  0.9517 -0.0021 -0.6460
  330TMC3     C 5009   1.027   4.032   9.499  0.0534 -0.2688  0.4069
  330TMC3     O 5010   1.123   4.060   9.569  0.5943  0.0646 -0.0991
  330TMC3     H 5011   0.871   3.858   9.369 -0.6109 -1.9585 -0.1307
  330TMC3    H1 5012   1.280   3.998   9.399  0.1416 -0.7323 -0.7794
  330TMC3    H2 5013   1.165   3.707   9.105  2.6365  1.4162 -1.0495
  330TMC3    C7 5014   1.369   3.836   9.214 -0.3693  0.3864  0.1537
  330TMC3    C8 5015   0.936   3.646   9.221  0.2234  0.0296 -0.4378
  330TMC3    O1 5016   1.395   3.807   9.102 -0.2493  0.7492  0.3443
  330TMC3    O2 5017   0.973   3.576   9.127 -0.3464 -0.1593 -0.2453
  331MPD2     C 5018   3.909   2.843  12.798  1.0806  0.2660  0.3753
  331MPD2    C1 5019   3.797   2.922  12.780 -0.5150 -0.2934 -0.1452
  331MPD2    C2 5020   3.670   2.882  12.816 -0.0222  0.6275  0.2460
  331MPD2    C3 5021   3.661   2.748  12.854 -0.5107 -0.0664 -0.5865
  331MPD2    C4 5022   3.774   2.668  12.858  0.5820  0.3571  0.4461
  331MPD2    C5 5023   3.898   2.715  12.835 -0.0623 -0.2782  0.4033
  331MPD2     H 5024   3.579   2.942  12.810 -0.9535 -0.9226 -1.1004
  331MPD2    H1 5025   3.781   2.562  12.878  1.5714  0.2711 -0.3884
  331MPD2    H2 5026   4.011   2.871  12.776 -0.0396  2.6005 -1.8472
  331MPD2    H3 5027   3.987   2.653  12.837  0.1566 -0.0151 -1.5218
  331MPD2     N 5028   3.526   2.699  12.873  0.3164  0.2344 -0.7016
  331MPD2    H5 5029   3.451   2.767  12.863 -0.1367 -0.5500 -2.6050
  331MPD2    N1 5030   3.836   3.047  12.735  0.4646  0.0681 -0.5336
  331MPD2    H7 5031   3.934   3.060  12.709  0.1579  1.6143 -0.9123
  332TMC3    C1 5032   3.358   2.545  12.927  0.2440 -0.0192 -0.4906
  332TMC3    C2 5033   3.278   2.585  12.830 -0.2774  0.3278  0.2194
  332TMC3    C3 5034   3.199   2.487  12.772  0.8515 -0.0281  0.1772
  332TMC3    C4 5035   3.343   2.419  12.977  0.1377  0.2791  0.2517
  332TMC3    C5 5036   3.281   2.327  12.900 -0.2847 -0.5834 -0.1803
  332TMC3    C6 5037   3.199   2.354  12.800  0.6645 -0.0967 -0.7217
  332TMC3     C 5038   3.498   2.580  12.924 -0.1578 -0.2631  0.3003
  332TMC3     O 5039   3.566   2.484  12.950 -0.5695  0.0173  0.1174
  332TMC3     H 5040   3.291   2.688  12.800  1.3874  0.1266  0.2819
  332TMC3    H1 5041   3.393   2.394  13.070 -0.1612  0.3559  0.4341
  332TMC3    H2 5042   3.155   2.274  12.741 -2.2195  0.0726  1.1690
  332TMC3    C7 5043   3.345   2.204  12.877  0.4511 -0.4884  0.3524
  332TMC3    C8 5044   3.150   2.542  12.640 -0.3666  0.6602  0.3220
  332TMC3    O1 5045   3.283   2.104  12.850 -0.3282  0.1521 -0.6820
  332TMC3    O2 5046   3.168   2.658  12.611 -0.2957 -0.1492 -0.2380
  333MPD2     C 5047   3.669   3.102  11.218 -0.7792  0.1914 -0.2793
  333MPD2    C1 5048   3.615   3.046  11.099  0.2000  0.1510 -0.4522
  333MPD2    C2 5049   3.533   2.932  11.102  0.1282 -0.0568  0.3480
  333MPD2    C3 5050   3.528   2.866  11.221  0.0085  0.3146 -0.1019
  333MPD2    C4 5051   3.584   2.912  11.338 -0.0306 -0.4433  1.0844
  333MPD2    C5 5052   3.655   3.035  11.339 -0.6319  0.3795  0.5605
  333MPD2     H 5053   3.481   2.897  11.013 -1.5228  0.2229  1.1989
  333MPD2    H1 5054   3.571   2.863  11.434 -1.1616  0.3560  1.3358
  333MPD2    H2 5055   3.730   3.191  11.224 -2.4164  1.1971  1.2493
  333MPD2    H3 5056   3.688   3.087  11.428 -1.1874  2.8946 -0.6927
  333MPD2     N 5057   3.446   2.746  11.220  0.1970  0.6710  0.3165
  333MPD2    H5 5058   3.422   2.722  11.124  1.2627  0.4555  0.1013
  333MPD2    N1 5059   3.645   3.121  10.978 -0.2963  0.0905  0.0626
  333MPD2    H7 5060   3.687   3.213  10.984 -0.5867  0.2237  0.0631
  334TMC3    C1 5061   3.655   3.183  10.750 -0.3483  0.3019  0.4855
  334TMC3    C2 5062   3.693   3.146  10.623  0.2883 -0.3216 -0.3821
  334TMC3    C3 5063   3.733   3.246  10.538 -0.4459  1.0550 -0.5022
  334TMC3    C4 5064   3.638   3.308  10.786 -0.0054  0.2166 -0.0667
  334TMC3    C5 5065   3.658   3.405  10.689 -0.1031 -0.0104  0.0515
  334TMC3    C6 5066   3.715   3.374  10.566  0.8283  0.4858  0.1266
  334TMC3     C 5067   3.629   3.078  10.847 -0.0374  0.3519 -0.2048
  334TMC3     O 5068   3.614   2.965  10.796  0.2601 -0.6137  0.1539
  334TMC3     H 5069   3.707   3.041  10.601  1.1242 -0.4665  0.8337
  334TMC3    H1 5070   3.595   3.339  10.881  1.5824 -0.8229  0.9819
  334TMC3    H2 5071   3.758   3.453  10.506  1.3582  0.0257 -0.0926
  334TMC3    C7 5072   3.663   3.545  10.736 -0.8128  0.1494  0.3627
  334TMC3    C8 5073   3.821   3.214  10.430  0.6051 -0.1737 -1.1426
  334TMC3    O1 5074   3.689   3.565  10.854 -0.5463 -0.3010 -0.0543
  334TMC3    O2 5075   3.801   3.114  10.370  0.1402 -0.3486 -0.4083
  335TMC3    C1 5076   3.430   4.596  17.291  0.3041 -0.0383  0.3122
  335TMC3    C2 5077   3.328   4.516  17.247  0.1104  0.2159 -0.3629
  335TMC3    C3 5078   3.372   4.416  17.172 -0.2716 -0.2456  0.2670
  335TMC3    C4 5079   3.565   4.580  17.271  0.4495 -0.2096  0.0178
  335TMC3    C5 5080   3.600   4.478  17.187 -0.3601  0.4944 -0.2382
  335TMC3    C6 5081   3.505   4.389  17.142  0.6614 -0.3819 -1.0642
  335TMC3     C 5082   3.399   4.668  17.419 -0.2657 -0.0278 -0.3693
  335TMC3     O 5083   3.453   0.039  17.453 -0.0868 -0.1036 -0.3915
  335TMC3     H 5084   3.223   4.534  17.267  0.8161  1.2030  2.5255
  335TMC3    H1 5085   3.633   4.657  17.304 -0.9302  0.9406  0.2032
  335TMC3    H2 5086   3.544   4.307  17.082  2.3260  0.1173 -0.6854
  335TMC3    C7 5087   3.746   4.447  17.182 -0.4687 -0.8577  0.0226
  335TMC3    C8 5088   3.264   4.330  17.124  0.4011 -0.3373 -0.7971
  335TMC3    O1 5089   3.768   4.341  17.127  0.3771 -0.1215 -1.0878
  335TMC3    O2 5090   3.154   4.332  17.177  0.2270  1.0302  0.2060
  336MPD2     C 5091   2.973   2.053  16.970 -0.7063  0.0820 -0.0734
  336MPD2    C1 5092   2.994   2.075  16.838  0.2874 -0.2278  0.0711
  336MPD2    C2 5093   3.051   1.979  16.759  0.0599  0.0371 -0.5277
  336MPD2    C3 5094   3.114   1.876  16.824 -0.2718  0.5135 -0.2945
  336MPD2    C4 5095   3.086   1.850  16.956  0.0113  0.1737  0.2585
  336MPD2    C5 5096   3.015   1.938  17.028  0.0013 -0.1760  0.3542
  336MPD2     H 5097   3.063   1.997  16.653 -1.7620 -0.6034 -0.8536
  336MPD2    H1 5098   3.128   1.762  17.004 -0.2463 -1.1131 -1.8932
  336MPD2    H2 5099   2.938   2.138  17.027  2.7421  0.2916  1.7583
  336MPD2    H3 5100   2.997   1.920  17.134 -0.9423  0.3890  0.2942
  336MPD2     N 5101   3.179   1.770  16.757 -0.1582 -0.8853 -0.4658
  336MPD2    H5 5102   3.209   1.685  16.803 -0.1897 -1.7106 -1.9710
  336MPD2    N1 5103   2.952   2.195  16.784 -0.1762 -0.2769 -0.5639
  336MPD2    H7 5104   2.985   2.207  16.689  1.8195  0.8289  0.2702
  337TMC3    C1 5105   2.833   2.396  16.746  0.5516 -0.0790 -0.4276
  337TMC3    C2 5106   2.708   2.440  16.738 -0.5094  0.4094  0.7643
  337TMC3    C3 5107   2.659   2.498  16.626 -0.0932 -0.1560  0.2901
  337TMC3    C4 5108   2.918   2.429  16.649 -0.3009  0.1607  0.0592
  337TMC3    C5 5109   2.883   2.509  16.540  0.1552  0.4987 -0.2596
  337TMC3    C6 5110   2.746   2.546  16.526  0.5051 -0.3373 -0.2087
  337TMC3     C 5111   2.860   2.278  16.836  0.9123  0.2915 -0.2534
  337TMC3     O 5112   2.784   2.264  16.933 -0.1479 -0.1825  0.0342
  337TMC3     H 5113   2.642   2.398  16.814 -1.5386 -1.4324 -1.1544
  337TMC3    H1 5114   3.021   2.395  16.650 -0.8381 -1.5030 -1.2203
  337TMC3    H2 5115   2.699   2.595  16.441  0.2001 -0.7790 -0.2954
  337TMC3    C7 5116   2.971   2.522  16.423 -0.2947  0.0609 -0.1335
  337TMC3    C8 5117   2.520   2.485  16.599 -0.2184  0.8945 -0.0522
  337TMC3    O1 5118   3.079   2.460  16.434  0.3781 -0.4494 -0.6086
  337TMC3    O2 5119   2.448   2.508  16.696 -0.3188  0.2232 -0.0216
  338MPD2     C 5120   3.003   1.139   1.528  0.4823  0.0715  0.2655
  338MPD2    C1 5121   3.100   1.208   1.453  0.2483  0.4100 -0.4611
  338MPD2    C2 5122   3.108   1.348   1.468  0.0063  0.5944  0.6205
  338MPD2    C3 5123   3.030   1.409   1.556  0.2721 -0.4276 -0.5679
  338MPD2    C4 5124   2.952   1.340   1.645  0.2683 -0.5289 -0.5112
  338MPD2    C5 5125   2.931   1.210   1.621 -0.5126 -0.2137 -0.2511
  338MPD2     H 5126   3.169   1.412   1.406  0.1568 -1.2669 -1.1364
  338MPD2    H1 5127   2.898   1.390   1.724  1.5286 -0.6636  0.4288
  338MPD2    H2 5128   2.988   1.032   1.538  2.6879 -0.3015 -0.5404
  338MPD2    H3 5129   2.883   1.154   1.700 -0.9791 -0.9592 -1.0603
  338MPD2     N 5130   3.045   1.551   1.571  0.6880 -0.3411 -0.1545
  338MPD2    H5 5131   3.106   1.599   1.505 -0.9779  0.7010 -0.9130
  338MPD2    N1 5132   3.185   1.136   1.370  0.2166  0.1781 -0.0656
  338MPD2    H7 5133   3.255   1.186   1.318 -0.9517  2.5839  0.7030
  339TMC3    C1 5134   3.007   1.773   1.630  0.7287 -0.1490 -0.4107
  339TMC3    C2 5135   2.908   1.864   1.635 -0.3839 -0.3792 -0.0696
  339TMC3    C3 5136   2.938   1.991   1.590 -0.1782  0.2083  0.4271
  339TMC3    C4 5137   3.132   1.802   1.575  0.2478 -0.4062 -0.5270
  339TMC3    C5 5138   3.162   1.936   1.539  0.2529 -0.2795  0.0775
  339TMC3    C6 5139   3.061   2.028   1.549 -0.4007  0.2525 -0.3016
  339TMC3     C 5140   2.971   1.632   1.650  0.0525 -0.3756 -0.2661
  339TMC3     O 5141   2.871   1.618   1.719  0.0444 -0.3696  0.1065
  339TMC3     H 5142   2.812   1.843   1.681  0.8718  0.7774  3.0498
  339TMC3    H1 5143   3.207   1.724   1.577  0.0233 -0.5244  2.8751
  339TMC3    H2 5144   3.084   2.132   1.530 -0.7569  0.5540  0.9751
  339TMC3    C7 5145   3.268   1.971   1.447 -0.2941 -0.3941 -0.2087
  339TMC3    C8 5146   2.842   2.095   1.599 -0.3283  0.0471 -0.8599
  339TMC3    O1 5147   3.259   2.084   1.400  0.2998 -0.6572 -0.4034
  339TMC3    O2 5148   2.866   2.202   1.552 -0.1084  0.5296  0.0435
  340MPD2     C 5149   3.976   4.571  10.937 -0.1212 -0.4357 -0.2730
  340MPD2    C1 5150   3.916   4.489  10.851  0.5076  0.5323  0.3191
  340MPD2    C2 5151   3.980   4.367  10.824  0.3565 -0.6230  0.3415
  340MPD2    C3 5152   4.095   4.328  10.894 -0.3505  0.2094  0.3299
  340MPD2    C4 5153   4.148   4.413  10.987  0.0470  0.0058  0.5121
  340MPD2    C5 5154   4.096   4.539  10.997  0.6986 -0.4733 -0.0063
  340MPD2     H 5155   3.942   4.299  10.749 -0.4271 -0.9281  1.0144
  340MPD2    H1 5156   4.236   4.380  11.041 -1.1149  1.5584  3.3117
  340MPD2    H2 5157   3.936   4.671  10.948 -1.0135 -0.7799 -0.4467
  340MPD2    H3 5158   4.152   4.604  11.063 -1.4808  0.6205  0.7615
  340MPD2     N 5159   4.163   4.209  10.862  0.5675  0.1683  0.0255
  340MPD2    H5 5160   4.247   4.194  10.917  0.0629 -0.5515  0.5885
  340MPD2    N1 5161   3.797   4.529  10.792  0.3924 -0.0821 -0.2765
  340MPD2    H7 5162   3.772   4.626  10.807  2.3778  0.3671  0.0888
  341TMC3    C1 5163   3.639   4.534  10.614 -0.4109  0.2014 -0.5091
  341TMC3    C2 5164   3.555   4.449  10.543 -0.0393  0.3251  0.0823
  341TMC3    C3 5165   3.531   4.474  10.411 -0.0853 -0.7957 -0.1562
  341TMC3    C4 5166   3.712   4.628  10.550  0.1824  0.7144 -0.4727
  341TMC3    C5 5167   3.699   4.636  10.413  0.5787 -0.0722 -0.5350
  341TMC3    C6 5168   3.608   4.562  10.346  0.0564  0.0043  0.5448
  341TMC3     C 5169   3.715   4.457  10.714  0.4581  0.4067 -0.3385
  341TMC3     O 5170   3.715   4.334  10.694  0.4370 -0.9889  0.2206
  341TMC3     H 5171   3.501   4.365  10.585  0.9590 -0.3814 -0.0569
  341TMC3    H1 5172   3.797   4.670  10.603  2.0496 -1.0774 -2.0242
  341TMC3    H2 5173   3.601   4.595  10.243 -0.7078 -1.0164  0.2687
  341TMC3    C7 5174   3.806   4.697  10.333  0.8291  0.1835  0.1599
  341TMC3    C8 5175   3.449   4.391  10.338  0.2068  0.1483 -0.0654
  341TMC3    O1 5176   3.857   4.630  10.245  0.1825  0.1044  0.2653
  341TMC3    O2 5177   3.373   4.314  10.398 -0.3361  0.1574  0.6263
  342MPD2     C 5178   1.474   2.347   0.160 -0.5369  0.3091  0.0222
  342MPD2    C1 5179   1.606   2.332   0.111  0.1475 -0.0702 -0.2428
  342MPD2    C2 5180   1.695   2.436   0.141 -0.2302 -0.4197  0.1080
  342MPD2    C3 5181   1.656   2.545   0.214 -0.5794  0.1191  0.1212
  342MPD2    C4 5182   1.523   2.550   0.251  0.5829 -0.5687  0.0433
  342MPD2    C5 5183   1.430   2.454   0.227  0.0997 -0.2004 -0.0579
  342MPD2     H 5184   1.796   2.443   0.103  0.2432 -0.2847  1.4052
  342MPD2    H1 5185   1.489   2.633   0.312  0.7940 -0.0963 -0.4851
  342MPD2    H2 5186   1.399   2.273   0.134 -0.7356  0.3618  0.4407
  342MPD2    H3 5187   1.324   2.462   0.248  0.2085  1.4242 -0.1413
  342MPD2     N 5188   1.751   2.646   0.223  0.4350 -0.3978 -0.0409
  342MPD2    H5 5189   1.838   2.632   0.171  0.8320  0.5788  0.3536
  342MPD2    N1 5190   1.645   2.227   0.027  0.3937 -0.0274  0.3752
  342MPD2    H7 5191   1.744   2.234   0.007  0.0630 -1.8584 -1.8507
  343TMC3    C1 5192   1.633   2.018  17.643 -0.1488 -0.0417 -1.0071
  343TMC3    C2 5193   1.768   2.030  17.610  0.0884  0.2922  0.1086
  343TMC3    C3 5194   1.833   1.922  17.550  0.0527  0.5068 -0.2985
  343TMC3    C4 5195   1.554   1.907  17.617  0.8358 -0.5466  0.0009
  343TMC3    C5 5196   1.621   1.809  17.540  0.1326  0.2597 -0.5333
  343TMC3    C6 5197   1.759   1.815  17.514  0.8974 -0.4723 -0.2785
  343TMC3     C 5198   1.565   2.121  17.718 -0.4099  0.5692 -0.6744
  343TMC3     O 5199   1.446   2.110  17.728  0.0581  0.5583 -0.2216
  343TMC3     H 5200   1.828   2.118  17.633 -0.1286  0.2664  0.7662
  343TMC3    H1 5201   1.445   1.904  17.621  0.8327 -0.5279 -0.0651
  343TMC3    H2 5202   1.801   1.739  17.450  0.7778  0.6137 -1.6682
  343TMC3    C7 5203   1.544   1.695  17.504 -0.0440 -0.2034  0.4107
  343TMC3    C8 5204   1.974   1.943  17.518  0.5215  0.4367  0.3760
  343TMC3    O1 5205   1.570   1.625  17.407 -0.1204  0.3876 -0.2078
  343TMC3    O2 5206   2.031   2.034  17.571  0.6540 -0.2145 -0.3793
  344MPD2     C 5207   2.099   2.326   9.673 -0.2084  0.0587  0.2483
  344MPD2    C1 5208   2.111   2.283   9.807  0.3496  0.9472 -0.0110
  344MPD2    C2 5209   2.148   2.373   9.900  0.9028 -0.5498 -0.1772
  344MPD2    C3 5210   2.176   2.506   9.866 -0.6102  0.0587 -0.4395
  344MPD2    C4 5211   2.144   2.554   9.742  0.0433  0.5292  0.4806
  344MPD2    C5 5212   2.112   2.459   9.647 -1.1799 -0.4932 -0.8361
  344MPD2     H 5213   2.159   2.329   9.998  2.0229  0.1423 -0.0011
  344MPD2    H1 5214   2.161   2.660   9.728 -1.8546  0.7398 -0.2692
  344MPD2    H2 5215   2.072   2.265   9.588 -0.2777 -0.7774  0.8692
  344MPD2    H3 5216   2.099   2.493   9.545  0.7186 -1.0978 -1.2812
  344MPD2     N 5217   2.220   2.601   9.963 -0.1762 -0.3134 -0.1410
  344MPD2    H5 5218   2.246   2.694   9.933 -0.1947  0.3119  1.7453
  344MPD2    N1 5219   2.080   2.158   9.849 -0.6673  0.1029  0.2778
  344MPD2    H7 5220   2.095   2.145   9.949 -1.9079 -0.4208  0.3900
  345TMC3    C1 5221   2.281   2.692  10.170  0.5433  0.6734 -0.4210
  345TMC3    C2 5222   2.345   2.676  10.295  0.3213  0.0054  0.0961
  345TMC3    C3 5223   2.390   2.786  10.358  0.6507  0.2270 -0.1861
  345TMC3    C4 5224   2.259   2.821  10.114  0.2331  0.0909 -0.7661
  345TMC3    C5 5225   2.306   2.928  10.189  0.3188 -0.1067 -0.6078
  345TMC3    C6 5226   2.374   2.915  10.307  0.1633  0.3059 -0.5044
  345TMC3     C 5227   2.247   2.569  10.099  0.2113  0.8280 -0.1954
  345TMC3     O 5228   2.253   2.461  10.161 -0.4088  0.6679  0.2808
  345TMC3     H 5229   2.371   2.578  10.334  1.2702 -0.4058 -1.5333
  345TMC3    H1 5230   2.199   2.835  10.025  0.3555  2.4023 -0.4646
  345TMC3    H2 5231   2.407   3.006  10.357  0.1798  0.1316 -0.1959
  345TMC3    C7 5232   2.278   3.059  10.156 -0.0203  0.2176  0.2926
  345TMC3    C8 5233   2.406   2.763  10.498 -0.2229  0.5925 -0.3492
  345TMC3    O1 5234   2.353   3.145  10.198  0.4539  0.6467 -0.3684
  345TMC3    O2 5235   2.380   2.654  10.541  0.5911  0.4820 -0.0094
  346MPD2     C 5236   2.477   3.722  14.250  0.0060 -0.3387  0.3909
  346MPD2    C1 5237   2.497   3.822  14.158  0.5052  0.2230  0.4736
  346MPD2    C2 5238   2.568   3.933  14.203  0.0394  0.3367  0.7745
  346MPD2    C3 5239   2.620   3.941  14.333  0.2875  0.1871  0.6432
  346MPD2    C4 5240   2.601   3.839  14.424 -0.1331  0.2011 -0.4094
  346MPD2    C5 5241   2.525   3.729  14.384  0.0874 -0.2940 -0.9679
  346MPD2     H 5242   2.581   4.019  14.139  0.0950  0.1202  0.4933
  346MPD2    H1 5243   2.620   3.840  14.530 -0.6057 -2.3488 -0.2887
  346MPD2    H2 5244   2.433   3.628  14.218  0.0868 -0.0138 -0.6676
  346MPD2    H3 5245   2.521   3.640  14.447 -1.1887  1.0373  0.8274
  346MPD2     N 5246   2.690   4.054  14.373  0.7470  0.2413  0.0263
  346MPD2    H5 5247   2.708   4.119  14.297  5.0044 -0.9119  0.0646
  346MPD2    N1 5248   2.455   3.824  14.023 -0.1482 -0.0205  0.2207
  346MPD2    H7 5249   2.464   3.912  13.972 -1.2900  0.0748  0.1867
  347TMC3    C1 5250   2.789   4.214  14.506  1.1954 -0.7391  0.3466
  347TMC3    C2 5251   2.805   4.268  14.383  0.4538  0.4040 -0.7330
  347TMC3    C3 5252   2.925   4.331  14.358 -0.7729 -0.1519 -0.0925
  347TMC3    C4 5253   2.886   4.223  14.610 -0.1729  0.5169 -0.3791
  347TMC3    C5 5254   3.001   4.291  14.578 -0.3634 -0.1760 -0.1592
  347TMC3    C6 5255   3.021   4.349  14.456 -0.7819 -0.0924  0.0994
  347TMC3     C 5256   2.717   4.088  14.505 -0.7420 -0.4969 -0.2593
  347TMC3     O 5257   2.717   4.015  14.602 -0.8493  0.3007  1.0900
  347TMC3     H 5258   2.720   4.283  14.318  1.5258  0.2124 -2.1867
  347TMC3    H1 5259   2.865   4.187  14.710 -3.7310  1.9560 -0.6009
  347TMC3    H2 5260   3.114   4.399  14.432 -1.9988  2.1078 -0.0288
  347TMC3    C7 5261   3.102   4.310  14.682  0.1416 -0.3824  0.9379
  347TMC3    C8 5262   2.920   4.439  14.254 -0.3407  0.3414 -0.7029
  347TMC3    O1 5263   3.184   4.402  14.671 -0.3294  0.7454  0.1450
  347TMC3    O2 5264   2.806   4.484  14.241 -0.6431  0.1849 -0.9395
  348MPD2     C 5265   0.774   3.139  12.167 -0.0876 -0.2220  0.1713
  348MPD2    C1 5266   0.902   3.184  12.140  0.8494  0.0940  0.4927
  348MPD2    C2 5267   0.917   3.287  12.047 -0.0347 -0.7414  0.6620
  348MPD2    C3 5268   0.811   3.356  11.994  0.1334 -0.3256 -0.4894
  348MPD2    C4 5269   0.681   3.310  12.025 -0.1176  0.4318  0.2344
  348MPD2    C5 5270   0.666   3.200  12.109  0.0148  0.1248 -0.0692
  348MPD2     H 5271   1.018   3.314  12.018  0.3331 -1.1382  1.5607
  348MPD2    H1 5272   0.599   3.358  11.972 -1.2282  3.1460  4.4625
  348MPD2    H2 5273   0.757   3.048  12.223  2.2255  1.0534  2.9807
  348MPD2    H3 5274   0.563   3.171  12.126 -0.0939 -0.1386 -1.1862
  348MPD2     N 5275   0.842   3.453  11.897  0.3479  0.3169  0.1251
  348MPD2    H5 5276   0.939   3.455  11.866 -0.3283  0.9189 -1.9401
  348MPD2    N1 5277   1.015   3.126  12.198 -0.2990  0.1587  0.3958
  348MPD2    H7 5278   1.103   3.173  12.180  0.3112 -1.4614 -0.7887
  349TMC3    C1 5279   1.147   2.982  12.331 -0.2357  0.1964  0.3656
  349TMC3    C2 5280   1.176   2.847  12.350  0.6987 -0.1109  0.6605
  349TMC3    C3 5281   1.307   2.808  12.356  1.1385  0.4234  0.1424
  349TMC3    C4 5282   1.242   3.077  12.343 -0.1582 -0.5664 -0.1727
  349TMC3    C5 5283   1.373   3.033  12.354 -0.3695 -0.4513  1.0133
  349TMC3    C6 5284   1.407   2.902  12.337  0.7585  0.2410  0.6056
  349TMC3     C 5285   1.020   3.009  12.274  0.1158 -0.2867  0.1236
  349TMC3     O 5286   0.928   2.934  12.303 -0.6349 -0.3839  0.0105
  349TMC3     H 5287   1.095   2.775  12.352 -0.6076  1.3623  0.1910
  349TMC3    H1 5288   1.217   3.182  12.348  0.2070 -0.3321 -2.7981
  349TMC3    H2 5289   1.507   2.861  12.331  1.4570  1.5177  3.4186
  349TMC3    C7 5290   1.478   3.130  12.324  0.2587 -0.2120  0.0639
  349TMC3    C8 5291   1.352   2.676  12.396 -0.0121  0.6363  0.1353
  349TMC3    O1 5292   1.566   3.088  12.252  0.2368 -1.2863 -0.3357
  349TMC3    O2 5293   1.467   2.667  12.433  0.1713  0.2355 -0.3813
  350MPD2     C 5294   0.558   2.271  10.295 -0.7916 -0.1385 -0.3444
  350MPD2    C1 5295   0.473   2.164  10.302  0.2820 -0.3909 -0.8202
  350MPD2    C2 5296   0.417   2.135  10.420 -0.8334  0.0622 -0.0466
  350MPD2    C3 5297   0.427   2.213  10.531 -0.0470  0.6680 -0.2961
  350MPD2    C4 5298   0.517   2.320  10.528  0.3764 -0.0983 -0.4646
  350MPD2    C5 5299   0.586   2.342  10.411 -0.3102 -1.1644  0.8090
  350MPD2     H 5300   0.350   2.052  10.438 -0.4030 -0.1366  0.6041
  350MPD2    H1 5301   0.529   2.388  10.611 -0.5204  0.1218 -0.5115
  350MPD2    H2 5302   0.608   2.288  10.200 -1.1060  0.9826 -0.3118
  350MPD2    H3 5303   0.668   2.413  10.407 -0.1899 -1.3545 -0.4241
  350MPD2     N 5304   0.356   2.174  10.637 -0.4706 -0.4151 -0.3953
  350MPD2    H5 5305   0.295   2.094  10.619  0.7749 -0.7694 -3.1145
  350MPD2    N1 5306   0.455   2.068  10.198  0.4836  0.4089  0.1908
  350MPD2    H7 5307   0.404   1.988  10.234 -0.9484  0.1674 -2.3930
  351TMC3    C1 5308   0.461   1.952   9.994  0.1975 -0.4208 -0.6178
  351TMC3    C2 5309   0.546   1.911   9.893  0.7449  0.1509 -1.2424
  351TMC3    C3 5310   0.520   1.776   9.852  0.0214  0.8553 -0.7713
  351TMC3    C4 5311   0.346   1.883  10.043  0.0690 -0.6610 -0.0203
  351TMC3    C5 5312   0.327   1.760   9.988 -0.1968  0.5357 -0.2059
  351TMC3    C6 5313   0.408   1.710   9.898 -0.6898  0.7391  0.0382
  351TMC3     C 5314   0.506   2.065  10.069  0.0540 -0.2288  0.0383
  351TMC3     O 5315   0.585   2.143  10.018  0.6199 -0.2235 -0.3791
  351TMC3     H 5316   0.633   1.966   9.859  1.3770 -1.1541 -1.7039
  351TMC3    H1 5317   0.273   1.922  10.113  0.4468  0.2485 -0.1355
  351TMC3    H2 5318   0.391   1.606   9.873  0.1950  0.8783 -1.1717
  351TMC3    C7 5319   0.224   1.675  10.053  0.0071 -0.2098 -0.2815
  351TMC3    C8 5320   0.608   1.702   9.764  0.2720 -0.2127  0.7798
  351TMC3    O1 5321   0.217   1.678  10.174  0.2223 -0.1960  0.1264
  351TMC3    O2 5322   0.586   1.582   9.752  0.4907 -0.4860  0.2158
  352MPD2     C 5323   3.300   4.007   1.299  0.2853  0.0651  0.1757
  352MPD2    C1 5324   3.178   3.965   1.254  0.3873 -0.3707 -0.0453
  352MPD2    C2 5325   3.117   3.852   1.298 -0.4176 -0.2328  0.5408
  352MPD2    C3 5326   3.180   3.783   1.404  0.4728 -0.0254 -0.3789
  352MPD2    C4 5327   3.303   3.830   1.449  0.0743  0.2224  0.5713
  352MPD2    C5 5328   3.366   3.941   1.397  0.2307  0.3511  0.5067
  352MPD2     H 5329   3.021   3.813   1.267 -1.1745  0.7943  1.6056
  352MPD2    H1 5330   3.370   3.763   1.503  1.2038 -0.3929 -1.6194
  352MPD2    H2 5331   3.343   4.099   1.263 -0.1197  0.0907 -0.2321
  352MPD2    H3 5332   3.458   3.979   1.439  0.8234 -0.7146  0.1870
  352MPD2     N 5333   3.144   3.659   1.458  0.4719  0.3345 -0.0846
  352MPD2    H5 5334   3.210   3.615   1.521  0.4525  0.0858 -0.2371
  352MPD2    N1 5335   3.116   4.031   1.152  0.2963  0.1684  0.3464
  352MPD2    H7 5336   3.154   4.121   1.125  1.2503  0.4625  2.6989
  353TMC3    C1 5337   3.018   3.462   1.467  0.3696 -0.1107  0.3011
  353TMC3    C2 5338   3.101   3.415   1.571  0.1307  0.0194 -0.5376
  353TMC3    C3 5339   3.090   3.279   1.590  0.2765  0.2358  0.1996
  353TMC3    C4 5340   2.924   3.382   1.408  0.7041  0.3986  0.0719
  353TMC3    C5 5341   2.928   3.241   1.436 -0.1582 -0.5707 -1.2951
  353TMC3    C6 5342   3.009   3.185   1.535 -0.0891  0.1015 -0.6584
  353TMC3     C 5343   3.025   3.597   1.424  0.0767  0.3330 -0.4366
  353TMC3     O 5344   2.920   3.635   1.375  0.1066 -0.7192  0.5553
  353TMC3     H 5345   3.176   3.468   1.628 -1.1727 -0.7946  1.9641
  353TMC3    H1 5346   2.860   3.416   1.327 -0.1290  1.4331  1.1846
  353TMC3    H2 5347   3.028   3.080   1.552  2.5827  0.9490  1.5363
  353TMC3    C7 5348   2.840   3.151   1.365 -0.2483 -0.3994  0.3461
  353TMC3    C8 5349   3.215   3.225   1.631 -0.1115  0.4013 -0.5115
  353TMC3    O1 5350   2.863   3.033   1.386 -0.4370 -0.6029 -0.5945
  353TMC3    O2 5351   3.278   3.290   1.716 -0.3191  0.1443  0.4638
  354TMC3    C1 5352   0.525   0.160  13.312  0.0245 -0.4323 -0.3368
  354TMC3    C2 5353   0.418   0.243  13.292  0.2822  0.8539  0.1506
  354TMC3    C3 5354   0.394   0.283  13.162 -0.4222 -0.1394 -0.6088
  354TMC3    C4 5355   0.603   0.113  13.209  0.5811  0.0684 -0.0276
  354TMC3    C5 5356   0.584   0.161  13.087 -0.2939 -0.0493  0.0223
  354TMC3    C6 5357   0.478   0.242  13.061  0.1217  0.0856 -0.2788
  354TMC3     C 5358   0.511   0.071  13.427  0.1906 -0.3901  0.0363
  354TMC3     O 5359   0.551   4.689  13.414  0.4681  0.1916  0.0707
  354TMC3     H 5360   0.355   0.277  13.373 -0.2233 -0.1813  0.1808
  354TMC3    H1 5361   0.683   0.042  13.228  1.8626  1.5345  0.0384
  354TMC3    H2 5362   0.459   0.283  12.962  1.3691 -1.4016 -1.1483
  354TMC3    C7 5363   0.695   0.171  13.001 -0.7205 -0.4773  0.1930
  354TMC3    C8 5364   0.291   0.384  13.123 -0.1467 -0.6266 -0.2250
  354TMC3    O1 5365   0.784   0.097  13.027  0.2827 -0.1422 -0.2338
  354TMC3    O2 5366   0.293   0.422  13.008  0.1926 -0.1767  0.5386
  355MPD2     C 5367   0.424   1.243  11.471  0.0418 -0.5505  0.4538
  355MPD2    C1 5368   0.493   1.195  11.364 -0.2016 -0.6236  0.9875
  355MPD2    C2 5369   0.547   1.065  11.368 -0.2932  0.4917 -0.3580
  355MPD2    C3 5370   0.556   1.000  11.494 -0.2939  0.1930  0.4045
  355MPD2    C4 5371   0.490   1.046  11.598 -0.0763 -0.4117  0.2317
  355MPD2    C5 5372   0.417   1.166  11.580 -0.3142 -0.4705  0.4065
  355MPD2     H 5373   0.599   1.017  11.286  0.0780 -1.5328  1.0700
  355MPD2    H1 5374   0.499   1.007  11.699  0.7688  2.4742  1.2886
  355MPD2    H2 5375   0.379   1.341  11.478  1.4022 -0.0748  2.5957
  355MPD2    H3 5376   0.369   1.211  11.667  1.2811 -0.7444  1.4195
  355MPD2     N 5377   0.641   0.887  11.498 -0.7189 -0.0966  0.3273
  355MPD2    H5 5378   0.695   0.876  11.412 -0.0361 -2.2485  1.0304
  355MPD2    N1 5379   0.506   1.274  11.242 -0.2429 -0.1466 -0.3064
  355MPD2    H7 5380   0.447   1.356  11.236  0.0993  0.3264  2.3977
  356TMC3    C1 5381   0.793   0.725  11.576  0.2175  0.2581  0.5838
  356TMC3    C2 5382   0.849   0.719  11.450 -0.7867  0.1399  0.4841
  356TMC3    C3 5383   0.977   0.682  11.435 -1.0770  0.1965  0.2070
  356TMC3    C4 5384   0.865   0.692  11.681 -0.5191 -0.4293 -0.7520
  356TMC3    C5 5385   0.998   0.660  11.653  0.1900  0.9458 -0.2010
  356TMC3    C6 5386   1.056   0.642  11.534  0.2019 -0.1685 -0.5918
  356TMC3     C 5387   0.677   0.810  11.605  1.0012  0.6571 -0.4995
  356TMC3     O 5388   0.645   0.821  11.720  0.2342  0.3463 -0.0231
  356TMC3     H 5389   0.802   0.740  11.355 -1.6687  1.8333  1.2954
  356TMC3    H1 5390   0.830   0.706  11.783 -0.7084 -2.6999 -0.5032
  356TMC3    H2 5391   1.161   0.621  11.517  0.8910 -0.8214  4.6369
  356TMC3    C7 5392   1.085   0.683  11.768  0.3043  0.1062 -0.2710
  356TMC3    C8 5393   1.031   0.756  11.324 -0.1502  0.7739  0.0823
  356TMC3    O1 5394   1.164   0.596  11.797  0.0509 -0.5591  0.2848
  356TMC3    O2 5395   1.115   0.702  11.255  0.3009 -0.2782 -0.1650
  357MPD2     C 5396   0.226   4.490  17.485 -0.9068 -0.1709 -0.0533
  357MPD2    C1 5397   0.204   4.609  17.555  0.1823 -0.0092 -0.3065
  357MPD2    C2 5398   0.088   4.685  17.537 -0.9059 -0.7763 -0.6564
  357MPD2    C3 5399   4.731   4.647  17.442  0.6937  0.1105  0.2517
  357MPD2    C4 5400   0.021   4.525  17.379  0.1280 -0.0482 -0.3889
  357MPD2    C5 5401   0.131   4.449  17.401 -0.0375 -0.2642 -0.0147
  357MPD2     H 5402   0.090   0.055  17.572  2.0814 -0.6011 -1.3929
  357MPD2    H1 5403   4.686   4.485  17.304  0.6694 -0.6896 -0.5359
  357MPD2    H2 5404   0.317   4.433  17.491 -0.8407 -0.0064  0.4693
  357MPD2    H3 5405   0.149   4.368  17.331  0.3454 -1.3272  1.3133
  357MPD2     N 5406   4.607   4.715  17.433  0.1110 -0.1439  0.3070
  357MPD2    H5 5407   4.593   0.062  17.495  1.5871  0.6992 -0.4202
  357MPD2    N1 5408   0.310   4.660  17.637  0.3661 -0.0257 -0.3410
  357MPD2    H7 5409   0.397   4.610  17.628  0.9943  1.0867 -0.3784
  358TMC3    C1 5410   0.408   0.012   0.108  0.2098  0.1972 -0.2412
  358TMC3    C2 5411   0.520   4.671   0.072 -0.6275 -0.3792 -0.0233
  358TMC3    C3 5412   0.639   4.705   0.131  0.4020  0.5472 -0.0692
  358TMC3    C4 5413   0.420   0.112   0.200 -0.4054 -0.5502  0.7646
  358TMC3    C5 5414   0.536   0.141   0.250 -0.1901  0.5983 -0.4399
  358TMC3    C6 5415   0.655   0.080   0.213 -0.1306  0.7010  0.3762
  358TMC3     C 5416   0.295   0.018   0.013 -0.4802  0.6836 -0.5037
  358TMC3     O 5417   0.195   0.078   0.052  0.3447 -0.0571  0.4982
  358TMC3     H 5418   0.522   4.584   0.008 -1.5625 -0.0580 -0.4844
  358TMC3    H1 5419   0.339   0.176   0.233 -0.0932  1.2133 -1.8439
  358TMC3    H2 5420   0.745   0.111   0.265  0.4793 -2.1596  1.0025
  358TMC3    C7 5421   0.554   0.269   0.318  0.2145  0.2216 -0.2881
  358TMC3    C8 5422   0.750   4.686   0.045  0.2037 -0.2731 -0.0256
  358TMC3    O1 5423   0.487   0.368   0.282 -0.2580 -0.1078  0.2981
  358TMC3    O2 5424   0.724   4.694  17.655  0.3230 -0.5291 -0.1535
  359MPD2     C 5425   0.455   4.730  12.397  0.3176 -0.1658 -0.3992
  359MPD2    C1 5426   0.466   4.604  12.448 -0.2645  0.1370 -0.5196
  359MPD2    C2 5427   0.353   4.536  12.488 -0.2534  0.3864  0.1687
  359MPD2    C3 5428   0.226   4.595  12.481  0.3161  0.4274  0.4639
  359MPD2    C4 5429   0.210   4.723  12.427 -0.0739  0.2020 -0.2663
  359MPD2    C5 5430   0.331   0.057  12.395 -0.1970  0.7858  0.0496
  359MPD2     H 5431   0.364   4.436  12.530  0.2991 -0.1652 -1.2882
  359MPD2    H1 5432   0.120   0.048  12.408 -1.1750 -0.9248  1.5841
  359MPD2    H2 5433   0.542   0.060  12.377  0.9420 -0.7827  0.3975
  359MPD2    H3 5434   0.328   0.156  12.353  0.2428  0.2267 -1.2877
  359MPD2     N 5435   0.115   4.537  12.552 -0.6198 -0.3850 -0.4351
  359MPD2    H5 5436   0.027   4.587  12.545 -2.4201 -3.5225  0.0920
  359MPD2    N1 5437   0.586   4.535  12.449  0.1727 -0.4167  0.2480
  359MPD2    H7 5438   0.583   4.443  12.492  0.0419 -1.0906 -1.2154
  360TMC3    C1 5439   0.815   4.482  12.436  0.7543 -0.1636  0.2134
  360TMC3    C2 5440   0.943   4.535  12.461 -0.3655 -0.2831 -0.5022
  360TMC3    C3 5441   1.055   4.461  12.436 -0.1954 -0.5722 -0.0654
  360TMC3    C4 5442   0.808   4.356  12.378 -0.0222 -0.1894  0.9021
  360TMC3    C5 5443   0.920   4.280  12.370  0.0693  0.6953  0.5339
  360TMC3    C6 5444   1.050   4.329  12.409 -0.7276 -0.6536 -0.1927
  360TMC3     C 5445   0.710   4.587  12.414  0.2386 -0.1417  0.3258
  360TMC3     O 5446   0.749   4.702  12.421 -0.3795 -0.8794  0.0403
  360TMC3     H 5447   0.951   4.641  12.482  1.5790 -0.4853 -0.2393
  360TMC3    H1 5448   0.717   4.328  12.327  0.8518  0.1284 -0.8339
  360TMC3    H2 5449   1.133   4.259  12.413 -2.1810 -2.3168  1.2367
  360TMC3    C7 5450   0.937   4.205  12.252 -0.6036 -0.6035  0.1122
  360TMC3    C8 5451   1.164   4.537  12.376 -0.7461  0.0084  0.1210
  360TMC3    O1 5452   1.034   4.248  12.187  0.0425  0.1601  0.9614
  360TMC3    O2 5453   1.171   4.657  12.400  0.2152 -0.6337 -0.2998
  361MPD2     C 5454   3.066   2.724  16.706  0.0756  1.1203 -0.7070
  361MPD2    C1 5455   2.968   2.759  16.803 -0.0878  0.1005 -0.3443
  361MPD2    C2 5456   2.979   2.701  16.927  0.5772  0.1193  0.7170
  361MPD2    C3 5457   3.073   2.616  16.970 -0.0764  0.3902  0.4647
  361MPD2    C4 5458   3.177   2.587  16.883  0.3995  0.7127 -0.4320
  361MPD2    C5 5459   3.161   2.640  16.751 -0.4183  0.8238  0.4919
  361MPD2     H 5460   2.893   2.722  16.990 -1.2713 -0.3075 -1.6416
  361MPD2    H1 5461   3.261   2.528  16.919 -0.3935 -1.3205 -1.9483
  361MPD2    H2 5462   3.054   2.763  16.606 -0.2147 -0.2979 -1.2174
  361MPD2    H3 5463   3.228   2.611  16.671  0.5123 -2.9695  2.6186
  361MPD2     N 5464   3.072   2.562  17.106  0.3686  0.4939 -0.4648
  361MPD2    H5 5465   3.127   2.478  17.121  0.3000  0.7999  1.4194
  361MPD2    N1 5466   2.869   2.856  16.784  0.3072  0.2734  0.2185
  361MPD2    H7 5467   2.825   2.880  16.872 -1.1816  1.5396 -0.8730
  362TMC3    C1 5468   2.758   3.031  16.690  0.2454  0.0625  0.7472
  362TMC3    C2 5469   2.689   3.036  16.811  0.2079  0.1268  0.2135
  362TMC3    C3 5470   2.590   3.133  16.821  0.3159  0.1110 -0.4183
  362TMC3    C4 5471   2.747   3.127  16.594  0.4434 -0.0178  0.4809
  362TMC3    C5 5472   2.666   3.237  16.629  0.0179 -0.7767  0.0876
  362TMC3    C6 5473   2.583   3.239  16.735 -0.3126 -0.0950  0.3637
  362TMC3     C 5474   2.841   2.924  16.668  0.3297 -0.9666 -0.1726
  362TMC3     O 5475   2.873   2.906  16.549 -0.2350 -0.0706  0.2065
  362TMC3     H 5476   2.664   2.942  16.858  1.8430 -0.0194  0.7991
  362TMC3    H1 5477   2.786   3.111  16.494 -2.0966  1.3788 -0.7402
  362TMC3    H2 5478   2.520   3.324  16.758  0.6873  0.4570  1.0566
  362TMC3    C7 5479   2.617   3.327  16.522  0.0189  0.5084  0.0475
  362TMC3    C8 5480   2.495   3.100  16.919  0.9021  0.2137  0.3475
  362TMC3    O1 5481   2.505   3.372  16.538 -0.5989 -0.1416 -0.2829
  362TMC3    O2 5482   2.522   3.028  17.011 -0.0941 -0.2837  0.1046
  363TMC3    C1 5483   1.054   1.061   8.972  0.1044  0.0623 -0.5090
  363TMC3    C2 5484   1.174   1.064   9.041 -0.2072  0.2445 -0.6998
  363TMC3    C3 5485   1.230   1.185   9.079  0.1624  0.1235  0.0332
  363TMC3    C4 5486   0.969   1.170   8.971 -1.1130  0.5870 -0.1352
  363TMC3    C5 5487   1.032   1.282   9.013  0.0440 -0.2099 -0.2001
  363TMC3    C6 5488   1.155   1.296   9.066  0.1178  0.3901  0.1971
  363TMC3     C 5489   0.998   0.932   8.948  0.9642  0.8489  0.0978
  363TMC3     O 5490   1.045   0.835   9.002 -0.3471 -0.1169 -1.0425
  363TMC3     H 5491   1.227   0.970   9.037  0.2734  0.4892 -0.0390
  363TMC3    H1 5492   0.874   1.171   8.919 -0.9375 -1.3941 -0.4922
  363TMC3    H2 5493   1.188   1.392   9.105  0.3724  0.6513 -0.6520
  363TMC3    C7 5494   0.938   1.383   9.035 -0.3044  1.2749  0.1810
  363TMC3    C8 5495   1.347   1.196   9.165 -0.1225 -0.1516  0.1432
  363TMC3    O1 5496   0.818   1.360   9.047  0.2549 -0.4948 -0.0240
  363TMC3    O2 5497   1.390   1.308   9.187 -0.4789  0.7474  0.6179
  364MPD2     C 5498   0.042   0.599  10.702  0.6682  0.7809  0.2680
  364MPD2    C1 5499   0.168   0.542  10.682 -0.2765  0.1923 -0.8427
  364MPD2    C2 5500   0.203   0.422  10.742  0.3320 -0.9194  0.5024
  364MPD2    C3 5501   0.108   0.355  10.822  0.4628  1.2051  0.4730
  364MPD2    C4 5502   4.727   0.419  10.856  0.3950  0.7083 -0.1845
  364MPD2    C5 5503   4.687   0.540  10.789 -0.3297 -0.3513  0.4753
  364MPD2     H 5504   0.295   0.370  10.718 -0.0562 -1.7287  0.7778
  364MPD2    H1 5505   4.660   0.370  10.926  0.6201  0.4030 -0.1771
  364MPD2    H2 5506   0.012   0.683  10.642  0.3205 -0.4793 -1.3168
  364MPD2    H3 5507   4.602   0.599  10.821 -1.8205 -1.1577 -2.0036
  364MPD2     N 5508   0.131   0.222  10.866  0.5504  0.4586 -0.2219
  364MPD2    H5 5509   0.075   0.191  10.944 -0.1345 -2.7744 -2.0091
  364MPD2    N1 5510   0.252   0.597  10.585  0.2969  0.4908 -0.3626
  364MPD2    H7 5511   0.226   0.687  10.546  2.5973  1.9091  1.3817
  365TMC3    C1 5512   0.444   0.629  10.430  0.1517 -0.0445  0.0894
  365TMC3    C2 5513   0.515   0.551  10.335  0.0588  0.0225 -0.2515
  365TMC3    C3 5514   0.553   0.609  10.212 -0.8868 -0.2438 -0.1965
  365TMC3    C4 5515   0.400   0.760  10.398  0.3810 -0.1099  0.6429
  365TMC3    C5 5516   0.451   0.807  10.273  0.0652  0.5466 -0.2787
  365TMC3    C6 5517   0.504   0.729  10.175 -0.7184 -0.5608  0.0285
  365TMC3     C 5518   0.369   0.545  10.533 -0.0540  0.1309  0.3362
  365TMC3     O 5519   0.416   0.434  10.546  0.3586 -0.1523 -0.1002
  365TMC3     H 5520   0.563   0.461  10.370 -1.0306 -0.4231  0.0932
  365TMC3    H1 5521   0.354   0.817  10.478 -0.6016 -0.5526  0.3890
  365TMC3    H2 5522   0.528   0.766  10.077 -0.2974  1.5414  0.9357
  365TMC3    C7 5523   0.428   0.948  10.248  0.7744 -0.6452  0.1153
  365TMC3    C8 5524   0.600   0.527  10.104 -0.9401  0.6364 -0.0218
  365TMC3    O1 5525   0.469   0.999  10.142 -0.3826  0.2334  0.0254
  365TMC3    O2 5526   0.653   0.573  10.007 -0.1281  0.0979 -0.4613
  366MPD2     C 5527   3.005   1.531  15.221 -0.6293 -0.0344  0.3114
  366MPD2    C1 5528   3.105   1.582  15.305 -0.0483 -0.0741  0.1048
  366MPD2    C2 5529   3.180   1.493  15.380  0.5557  0.2243  0.2574
  366MPD2    C3 5530   3.150   1.360  15.381  0.0838  0.2202  0.0112
  366MPD2    C4 5531   3.059   1.312  15.289  0.0395  0.4982  0.0663
  366MPD2    C5 5532   2.985   1.401  15.210 -0.3348  0.6789  0.0658
  366MPD2     H 5533   3.259   1.545  15.433 -0.2638  0.3145  1.3928
  366MPD2    H1 5534   3.038   1.206  15.280 -0.2201  0.3455  2.5552
  366MPD2    H2 5535   2.962   1.601  15.150 -0.5053 -0.9547 -0.6682
  366MPD2    H3 5536   2.911   1.362  15.140 -1.9911  0.8041  1.7256
  366MPD2     N 5537   3.212   1.269  15.472 -0.2429 -0.1074  0.1775
  366MPD2    H5 5538   3.264   1.313  15.547  0.7918  1.4156 -1.4345
  366MPD2    N1 5539   3.137   1.718  15.309  0.4973 -0.0346 -0.2292
  366MPD2    H7 5540   3.230   1.744  15.338  0.5270 -0.7015  0.2752
  367TMC3    C1 5541   3.099   1.941  15.315  0.2846  0.2987 -0.1264
  367TMC3    C2 5542   3.169   1.938  15.436 -0.2785 -0.5814 -0.4777
  367TMC3    C3 5543   3.155   2.058  15.507 -0.5427 -0.3695  0.1379
  367TMC3    C4 5544   3.020   2.047  15.273 -0.0883  0.6109  0.1290
  367TMC3    C5 5545   3.002   2.157  15.356  0.1074 -0.5796 -0.4024
  367TMC3    C6 5546   3.075   2.165  15.470 -0.4246  0.7043 -0.4706
  367TMC3     C 5547   3.055   1.821  15.264 -0.0439 -0.2702  0.4758
  367TMC3     O 5548   2.941   1.821  15.223  0.4066 -0.0223 -0.5684
  367TMC3     H 5549   3.243   1.864  15.462  2.4345  2.2015 -0.2767
  367TMC3    H1 5550   2.972   2.038  15.176  0.3474 -0.0375 -0.0243
  367TMC3    H2 5551   3.052   2.255  15.526 -0.9489  0.4844 -0.3292
  367TMC3    C7 5552   2.866   2.172  15.387  0.2341 -0.3278 -0.8132
  367TMC3    C8 5553   3.207   2.056  15.644 -0.1070  0.3613 -0.2905
  367TMC3    O1 5554   2.840   2.186  15.504  0.8418 -0.0080  0.2363
  367TMC3    O2 5555   3.314   2.001  15.649 -0.1555  0.7783 -0.2477
  368MPD2     C 5556   4.022   3.111  13.024 -0.3642 -0.2177 -0.6004
  368MPD2    C1 5557   4.004   3.233  12.969  1.0495  0.5738 -0.4440
  368MPD2    C2 5558   4.071   3.267  12.856 -0.8096 -0.4406  1.3174
  368MPD2    C3 5559   4.167   3.183  12.803  0.0699  0.0137  0.3976
  368MPD2    C4 5560   4.192   3.069  12.870  0.5537 -0.1522 -0.6004
  368MPD2    C5 5561   4.126   3.032  12.980  0.1821  0.2827  0.0269
  368MPD2     H 5562   4.047   3.365  12.814 -0.8419 -1.9482 -2.2158
  368MPD2    H1 5563   4.264   2.993  12.839 -0.0959 -0.3720 -1.5921
  368MPD2    H2 5564   3.972   3.081  13.115 -0.1437  0.9131 -0.1049
  368MPD2    H3 5565   4.140   2.935  13.026 -1.0354 -0.0500 -0.3015
  368MPD2     N 5566   4.238   3.215  12.690 -1.0310  0.0025  0.4360
  368MPD2    H5 5567   4.313   3.152  12.663 -2.7985 -2.4715  1.2714
  368MPD2    N1 5568   3.908   3.316  13.032 -0.5154 -0.1755 -0.1034
  368MPD2    H7 5569   3.846   3.280  13.104 -0.6003  0.0638 -0.0560
  369TMC3    C1 5570   3.782   3.522  13.084  0.2243  0.1365  0.4680
  369TMC3    C2 5571   3.764   3.656  13.056 -0.0710  0.8961 -0.0975
  369TMC3    C3 5572   3.665   3.722  13.119  0.0468 -0.0860  0.8086
  369TMC3    C4 5573   3.701   3.452  13.165  0.0485  0.5231  0.4351
  369TMC3    C5 5574   3.582   3.513  13.198 -0.1847  0.3040 -0.0539
  369TMC3    C6 5575   3.567   3.649  13.182 -0.0180  0.4389 -0.3049
  369TMC3     C 5576   3.891   3.450  13.009  0.3757 -0.3189 -0.5893
  369TMC3     O 5577   3.957   3.523  12.936 -0.2018 -0.8723  0.9101
  369TMC3     H 5578   3.850   3.702  13.010 -0.6917  2.6951  0.5170
  369TMC3    H1 5579   3.714   3.347  13.186  1.0199  0.5804  0.1179
  369TMC3    H2 5580   3.485   3.703  13.229  0.0267  2.3930 -2.4808
  369TMC3    C7 5581   3.490   3.450  13.287 -0.1300  0.7390  0.1657
  369TMC3    C8 5582   3.632   3.859  13.078  0.2041 -0.1024 -0.6044
  369TMC3    O1 5583   3.434   3.519  13.376 -0.0025 -0.1506 -0.5660
  369TMC3    O2 5584   3.514   3.892  13.053  0.5325  0.6820 -0.3162
  370TMC3    C1 5585   3.707   3.809  16.313 -0.2357  0.0022 -0.3273
  370TMC3    C2 5586   3.660   3.734  16.418  0.7055  0.1424  0.1154
  370TMC3    C3 5587   3.635   3.597  16.408 -0.2174  0.7553 -0.2153
  370TMC3    C4 5588   3.724   3.746  16.191  0.0691  0.1300 -0.1813
  370TMC3    C5 5589   3.702   3.609  16.185  0.3870 -0.1265 -0.2296
  370TMC3    C6 5590   3.660   3.531  16.290  0.7927  0.5755 -0.0614
  370TMC3     C 5591   3.803   3.914  16.349  0.2102 -0.3002 -0.5185
  370TMC3     O 5592   3.860   3.914  16.458  0.2712 -0.0813  0.0354
  370TMC3     H 5593   3.665   3.783  16.514 -0.4000  0.3133  0.0853
  370TMC3    H1 5594   3.760   3.803  16.106 -0.1453  0.4217 -0.0747
  370TMC3    H2 5595   3.650   3.423  16.286  0.5274  0.5021  3.1017
  370TMC3    C7 5596   3.779   3.545  16.081  0.0487 -0.5644  0.0068
  370TMC3    C8 5597   3.558   3.529  16.508 -0.4759 -0.5179 -0.2872
  370TMC3    O1 5598   3.835   3.622  16.007  0.0590 -0.3698  0.5282
  370TMC3    O2 5599   3.570   3.409  16.509 -0.1522 -0.4338 -0.1529
  371TMC3    C1 5600   0.245   2.433  15.615  0.4466 -0.0130 -0.2729
  371TMC3    C2 5601   0.258   2.363  15.734 -0.8998  0.3783 -0.2835
  371TMC3    C3 5602   0.277   2.440  15.846 -0.3358  0.6241  0.1191
  371TMC3    C4 5603   0.264   2.566  15.604 -0.2691 -0.0895 -0.0555
  371TMC3    C5 5604   0.288   2.624  15.717  0.1005  0.5088 -0.6286
  371TMC3    C6 5605   0.280   2.576  15.844  0.6416  0.5038 -0.3530
  371TMC3     C 5606   0.193   2.349  15.497  0.3023  0.3319 -0.2154
  371TMC3     O 5607   0.146   2.413  15.404  0.6106 -0.1856 -0.4913
  371TMC3     H 5608   0.241   2.258  15.754 -1.5190  0.8369  1.5237
  371TMC3    H1 5609   0.252   2.606  15.504 -1.1742  0.9121  0.4575
  371TMC3    H2 5610   0.302   2.629  15.936  0.7793 -1.4279  0.7173
  371TMC3    C7 5611   0.329   2.762  15.714 -0.3897  0.3587 -0.2667
  371TMC3    C8 5612   0.221   2.376  15.960 -0.2061  0.1312  0.3618
  371TMC3    O1 5613   0.343   2.823  15.821  0.0719 -0.0299  0.0248
  371TMC3    O2 5614   0.249   2.260  15.989  0.1525 -0.0290 -0.7134
  372MPD2     C 5615   3.872   3.517  13.563 -0.1639 -0.2503 -0.3746
  372MPD2    C1 5616   4.006   3.514  13.602  0.8634 -0.1947  0.9161
  372MPD2    C2 5617   4.033   3.488  13.735  0.5267 -0.0892 -0.2678
  372MPD2    C3 5618   3.937   3.478  13.833  0.0646 -0.1031 -0.0207
  372MPD2    C4 5619   3.807   3.485  13.787 -0.0612 -0.1069 -0.1323
  372MPD2    C5 5620   3.776   3.501  13.654 -0.6700  0.7228 -0.4736
  372MPD2     H 5621   4.137   3.476  13.764 -0.1503 -2.6624  1.0899
  372MPD2    H1 5622   3.725   3.468  13.857  0.9523 -1.0071  0.8479
  372MPD2    H2 5623   3.841   3.529  13.459  1.6065 -2.4601 -1.1659
  372MPD2    H3 5624   3.670   3.489  13.635 -1.0105 -0.6766  2.2476
  372MPD2     N 5625   3.978   3.443  13.967 -0.1168 -0.2022  0.0838
  372MPD2    H5 5626   4.075   3.451  13.993 -0.3388 -0.5346  1.0319
  372MPD2    N1 5627   4.107   3.508  13.498  0.0405 -0.5829  0.4150
  372MPD2    H7 5628   4.200   3.478  13.524  0.2508 -0.5497 -0.2946
  373TMC3    C1 5629   3.956   3.372  14.194  0.1097 -0.0541 -0.5082
  373TMC3    C2 5630   4.062   3.447  14.233 -0.0200  0.0155 -0.1884
  373TMC3    C3 5631   4.099   3.434  14.367 -0.3085  0.7577  0.2688
  373TMC3    C4 5632   3.889   3.290  14.278 -0.0496 -0.1288 -0.6161
  373TMC3    C5 5633   3.925   3.270  14.405  0.1245  0.4798 -0.2118
  373TMC3    C6 5634   4.033   3.351  14.457  0.3052  0.2383  0.2128
  373TMC3     C 5635   3.898   3.391  14.063 -0.0423 -0.3984  0.0404
  373TMC3     O 5636   3.790   3.342  14.040 -0.2325 -0.3254 -0.6716
  373TMC3     H 5637   4.103   3.521  14.165  0.8682  0.1868  0.5309
  373TMC3    H1 5638   3.812   3.228  14.233 -2.9067  2.5322  0.6702
  373TMC3    H2 5639   4.052   3.340  14.563  1.1864  0.0714  0.0392
  373TMC3    C7 5640   3.907   3.142  14.465 -0.5243 -0.2063  0.4118
  373TMC3    C8 5641   4.236   3.463  14.393  0.2818 -0.3027  0.0528
  373TMC3    O1 5642   3.901   3.136  14.586 -0.6080  0.1080 -0.1569
  373TMC3    O2 5643   4.289   3.530  14.308  0.3583 -0.2832  0.4667
  374TMC3    C1 5644   0.419   3.864   9.759  0.7707 -0.4216 -0.6008
  374TMC3    C2 5645   0.556   3.874   9.774  0.2304 -0.0600  0.6858
  374TMC3    C3 5646   0.642   3.883   9.665 -0.0886  0.1218 -0.1721
  374TMC3    C4 5647   0.369   3.864   9.631 -0.0890  0.0488  0.1769
  374TMC3    C5 5648   0.455   3.858   9.527 -1.2198  0.2290 -0.4722
  374TMC3    C6 5649   0.593   3.869   9.539  0.0597  0.2357 -0.2275
  374TMC3     C 5650   0.328   3.853   9.865  0.7580  0.0641 -0.6486
  374TMC3     O 5651   0.215   3.895   9.848 -0.0146 -0.0999  0.2878
  374TMC3     H 5652   0.582   3.882   9.879  0.2669  0.9393  0.6057
  374TMC3    H1 5653   0.262   3.850   9.621  0.0299 -0.8040  0.0975
  374TMC3    H2 5654   0.659   3.869   9.454 -1.9518  2.0008 -1.7915
  374TMC3    C7 5655   0.405   3.803   9.400 -0.0782 -0.6800 -0.6278
  374TMC3    C8 5656   0.778   3.835   9.684  0.3925 -0.3559 -0.5913
  374TMC3    O1 5657   0.492   3.773   9.313 -0.2602  0.2030  0.1145
  374TMC3    O2 5658   0.825   3.762   9.597  0.0697  0.0754 -0.6566
  375MPD2     C 5659   0.355   4.059  17.150 -0.2846 -0.6987 -0.5945
  375MPD2    C1 5660   0.286   4.028  17.031  0.5485  0.1614  0.5164
  375MPD2    C2 5661   0.349   3.982  16.922  0.5114 -0.4206 -0.4294
  375MPD2    C3 5662   0.486   3.964  16.920  0.3320 -0.1439 -0.0803
  375MPD2    C4 5663   0.552   3.985  17.036 -0.1597 -0.4540 -0.5555
  375MPD2    C5 5664   0.489   4.047  17.142  0.1092 -0.4245 -0.3333
  375MPD2     H 5665   0.282   3.952  16.843  1.0972 -2.2624 -0.2158
  375MPD2    H1 5666   0.656   3.966  17.062 -0.4918 -0.6741  0.6144
  375MPD2    H2 5667   0.311   4.099  17.241  0.3976  0.0309 -0.5875
  375MPD2    H3 5668   0.548   4.056  17.233 -1.1791  2.0483  0.2653
  375MPD2     N 5669   0.556   3.902  16.813 -0.2745 -0.5413 -0.3247
  375MPD2    H5 5670   0.651   3.873  16.834  0.0336  1.7374  1.5229
  375MPD2    N1 5671   0.149   4.050  17.020  0.1661  0.3346 -0.0794
  375MPD2    H7 5672   0.113   4.037  16.927  0.3496  1.7222 -0.3440
  376TMC3    C1 5673   0.604   3.849  16.590 -0.3935 -0.5653 -0.7413
  376TMC3    C2 5674   0.735   3.821  16.629 -0.1593  0.4269  0.3252
  376TMC3    C3 5675   0.803   3.728  16.555 -0.1708  0.3741  1.1375
  376TMC3    C4 5676   0.546   3.797  16.474  0.5777  0.1673  0.0499
  376TMC3    C5 5677   0.632   3.722  16.397  0.6593 -0.6807 -0.2609
  376TMC3    C6 5678   0.754   3.677  16.438  0.3883 -0.1681  0.4583
  376TMC3     C 5679   0.508   3.903  16.684  0.2394  0.2319  0.3107
  376TMC3     O 5680   0.406   3.949  16.631 -0.5529 -0.1814 -0.3069
  376TMC3     H 5681   0.787   3.868  16.712 -2.1244 -0.2111  1.9083
  376TMC3    H1 5682   0.447   3.827  16.440  1.5348  0.8875 -2.1505
  376TMC3    H2 5683   0.826   3.641  16.365  0.9634 -0.8617  1.3676
  376TMC3    C7 5684   0.601   3.724  16.251 -0.2849 -0.3068 -0.0979
  376TMC3    C8 5685   0.943   3.750  16.553  0.4083  0.0330  0.0574
  376TMC3    O1 5686   0.611   3.625  16.179  0.4682 -0.1264  0.5442
  376TMC3    O2 5687   0.980   3.864  16.576 -0.4483 -0.0140  0.4672
  377MPD2     C 5688   3.391   3.350  12.865 -0.1055 -0.0846 -0.0948
  377MPD2    C1 5689   3.314   3.463  12.910 -0.3229  0.0811  0.2243
  377MPD2    C2 5690   3.209   3.433  12.997  0.6354 -0.1731  0.1013
  377MPD2    C3 5691   3.170   3.311  13.033 -0.3529  0.0340 -0.5578
  377MPD2    C4 5692   3.248   3.202  12.994 -0.2098  0.3478  0.1587
  377MPD2    C5 5693   3.358   3.226  12.911  0.3513 -0.4956 -0.2535
  377MPD2     H 5694   3.155   3.516  13.040  0.0107 -0.1823 -0.6695
  377MPD2    H1 5695   3.231   3.096  13.010 -1.1794  0.5499  0.4705
  377MPD2    H2 5696   3.475   3.357  12.797 -0.6103 -1.1250 -0.8268
  377MPD2    H3 5697   3.410   3.140  12.869  1.4965 -0.9313  2.0709
  377MPD2     N 5698   3.068   3.288  13.125  0.3729 -1.0134 -0.0767
  377MPD2    H5 5699   3.057   3.197  13.168  1.3484 -1.4458 -0.7169
  377MPD2    N1 5700   3.346   3.595  12.848  0.1233 -0.5463  0.1350
  377MPD2    H7 5701   3.425   3.603  12.784  1.7330 -2.7980  1.8367
  378TMC3    C1 5702   3.261   3.934  12.567 -0.2216 -0.0025 -0.0172
  378TMC3    C2 5703   3.219   3.863  12.678 -0.3361  0.2791 -0.0251
  378TMC3    C3 5704   3.318   3.809  12.763  0.2426  0.2897  0.1356
  378TMC3    C4 5705   3.395   3.951  12.542 -0.1499  0.4654 -0.4583
  378TMC3    C5 5706   3.481   3.897  12.632 -0.5925  0.0531 -0.0687
  378TMC3    C6 5707   3.449   3.811  12.731 -0.1562  0.0114  0.5919
  378TMC3     C 5708   3.171   3.938  12.463 -0.0831  0.2845 -0.4946
  378TMC3     O 5709   3.054   3.960  12.490  0.0886  0.6719 -0.3388
  378TMC3     H 5710   3.113   3.861  12.703 -0.2208 -0.1108  0.4321
  378TMC3    H1 5711   3.435   4.013  12.462 -0.6587  1.7894  0.3140
  378TMC3    H2 5712   3.523   3.760  12.790  0.0977 -0.4976 -0.1755
  378TMC3    C7 5713   3.625   3.931  12.631  0.4867  0.3151  0.2161
  378TMC3    C8 5714   3.267   3.707  12.853  0.4211  0.4014 -0.1058
  378TMC3    O1 5715   3.695   3.907  12.728  0.4491 -0.2111  0.2926
  378TMC3    O2 5716   3.159   3.721  12.910 -0.4702  0.0679 -0.2372
  379MPD2     C 5717   3.454   1.868  16.922  0.2056 -0.6242 -0.1199
  379MPD2    C1 5718   3.566   1.842  16.848  0.2784 -0.1005  0.4465
  379MPD2    C2 5719   3.657   1.747  16.892  0.1926 -0.2660  0.5365
  379MPD2    C3 5720   3.628   1.667  17.014 -0.5492 -0.1507  0.2701
  379MPD2    C4 5721   3.509   1.685  17.080  0.4013 -1.0322 -0.2634
  379MPD2    C5 5722   3.427   1.788  17.035 -0.3469 -0.6889  0.2512
  379MPD2     H 5723   3.741   1.719  16.829  1.9187  3.9590  0.9768
  379MPD2    H1 5724   3.482   1.632  17.171  0.3498 -0.4573  0.0544
  379MPD2    H2 5725   3.382   1.942  16.891 -0.2485 -0.3388  1.6539
  379MPD2    H3 5726   3.337   1.811  17.091 -1.4489 -3.3904 -0.4056
  379MPD2     N 5727   3.715   1.570  17.059  0.1217 -0.0365 -0.1801
  379MPD2    H5 5728   3.680   1.515  17.136  0.8356 -0.5825 -0.2406
  379MPD2    N1 5729   3.576   1.908  16.725  0.7962  0.5502 -0.0508
  379MPD2    H7 5730   3.493   1.956  16.692  0.1154 -1.3840 -1.1461
  380TMC3    C1 5731   3.668   1.973  16.519  0.6592  0.1297 -0.4839
  380TMC3    C2 5732   3.774   1.960  16.434  0.2379  0.8482  0.0726
  380TMC3    C3 5733   3.753   1.958  16.297  0.2264  0.0273 -0.3409
  380TMC3    C4 5734   3.542   2.005  16.466 -1.0322 -0.9943 -0.1371
  380TMC3    C5 5735   3.532   2.018  16.326  0.3916 -0.3410 -0.5442
  380TMC3    C6 5736   3.632   1.994  16.237 -0.1133  0.1779  0.2619
  380TMC3     C 5737   3.685   1.911  16.643  0.2870 -0.5712 -0.0285
  380TMC3     O 5738   3.799   1.869  16.660 -0.1292 -0.5867 -0.1502
  380TMC3     H 5739   3.875   1.947  16.472  0.6925  2.0682 -0.7284
  380TMC3    H1 5740   3.453   2.000  16.528  0.3207 -1.7398  1.7368
  380TMC3    H2 5741   3.626   2.021  16.132 -0.8584  2.6188  0.9334
  380TMC3    C7 5742   3.409   2.084  16.279 -0.5098  0.8335  0.1844
  380TMC3    C8 5743   3.865   1.937  16.202 -0.8213 -0.0181 -0.5241
  380TMC3    O1 5744   3.354   2.164  16.357  0.6486  0.1573  0.2443
  380TMC3    O2 5745   3.857   1.995  16.094  0.0143  0.0890  0.2906
  381TMC3    C1 5746   3.500   3.023  16.343  0.2915  0.3866 -0.0574
  381TMC3    C2 5747   3.630   3.045  16.357 -0.5149  0.0110  0.0649
  381TMC3    C3 5748   3.676   3.095  16.475  0.1374 -0.7848  0.4426
  381TMC3    C4 5749   3.410   3.055  16.442 -0.3627  1.1742  0.5007
  381TMC3    C5 5750   3.464   3.100  16.559  0.4833 -0.3583 -0.7382
  381TMC3    C6 5751   3.598   3.107  16.581  0.7430 -0.4492  0.2930
  381TMC3     C 5752   3.449   3.014  16.211 -0.0695  0.4976  0.2469
  381TMC3     O 5753   3.524   3.006  16.114  0.4481 -0.4417  0.4170
  381TMC3     H 5754   3.697   3.014  16.278 -0.4386 -1.0385  0.5436
  381TMC3    H1 5755   3.307   3.021  16.437  0.4041 -1.2101  1.1039
  381TMC3    H2 5756   3.636   3.116  16.683  0.5698  0.0192  0.3153
  381TMC3    C7 5757   3.393   3.059  16.681  0.6140 -0.3353  1.1120
  381TMC3    C8 5758   3.817   3.143  16.483 -0.3010 -0.1594  0.0896
  381TMC3    O1 5759   3.449   2.985  16.761 -0.0431 -0.7309  0.2021
  381TMC3    O2 5760   3.894   3.095  16.399 -0.2206  0.2719 -0.4055
  382MPD2     C 5761   3.252   0.129  16.970  0.5596 -0.4593 -1.0629
  382MPD2    C1 5762   3.221   0.197  17.084  0.0104 -0.0298 -0.8988
  382MPD2    C2 5763   3.128   0.142  17.171  0.2927 -0.3860 -0.4855
  382MPD2    C3 5764   3.072   0.016  17.140  0.2063  0.2481 -0.1633
  382MPD2    C4 5765   3.106   4.684  17.030  0.8007 -1.0623 -0.2786
  382MPD2    C5 5766   3.199   0.004  16.944  0.6470 -0.3461 -0.6983
  382MPD2     H 5767   3.086   0.213  17.242  2.1956  0.6285 -0.3797
  382MPD2    H1 5768   3.069   4.589  16.993  0.2934 -0.8002 -0.4437
  382MPD2    H2 5769   3.319   0.175  16.898  2.8109 -1.7781  0.1914
  382MPD2    H3 5770   3.227   4.689  16.851  1.2817 -0.3363 -0.5158
  382MPD2     N 5771   2.962   4.693  17.214 -0.5017  0.1647  0.5207
  382MPD2    H5 5772   2.898   4.632  17.165  1.6339 -0.8722 -0.9769
  382MPD2    N1 5773   3.260   0.327  17.113  0.1848 -0.1574  0.9319
  382MPD2    H7 5774   3.229   0.367  17.201  0.5947 -2.9256  2.3227
  383TMC3    C1 5775   2.794   4.673  17.373 -0.1526 -0.2333  0.2299
  383TMC3    C2 5776   2.716   4.624  17.273 -0.1964  0.2252 -0.6567
  383TMC3    C3 5777   2.597   4.562  17.306  0.5853  0.8591  0.3941
  383TMC3    C4 5778   2.768   4.652  17.504 -0.7951  0.4958  0.0111
  383TMC3    C5 5779   2.651   4.585  17.529 -0.5974 -0.9915  0.1979
  383TMC3    C6 5780   2.563   4.534  17.438  0.1525  0.0787 -0.1293
  383TMC3     C 5781   2.919   0.005  17.335  0.4850  0.3511 -0.1246
  383TMC3     O 5782   2.966   0.090  17.411 -0.5948  0.0627 -0.6872
  383TMC3     H 5783   2.729   4.648  17.168  2.2080 -2.0608 -0.8727
  383TMC3    H1 5784   2.819   4.701  17.586  0.9297  0.2150 -0.8942
  383TMC3    H2 5785   2.463   4.498  17.461 -0.4737  0.4906 -2.2232
  383TMC3    C7 5786   2.627   4.517  17.653  0.0664  0.2235 -0.5368
  383TMC3    C8 5787   2.498   4.538  17.206  0.5319 -0.3344 -0.4096
  383TMC3    O1 5788   2.509   4.516  17.687  0.2661  0.4075 -0.0589
  383TMC3    O2 5789   2.480   4.619  17.116 -0.0961 -0.2816 -0.2148
  384MPD2     C 5790   4.154   2.691  11.843  0.0216 -0.0532  0.0862
  384MPD2    C1 5791   4.221   2.584  11.899 -1.0034  0.0571  0.2110
  384MPD2    C2 5792   4.321   2.514  11.831  0.3827 -0.3645  0.1248
  384MPD2    C3 5793   4.345   2.541  11.695 -0.9367  0.5558  0.1143
  384MPD2    C4 5794   4.274   2.646  11.640 -0.5948  0.1894 -0.2050
  384MPD2    C5 5795   4.180   2.716  11.709 -0.1527 -0.4837  0.5082
  384MPD2     H 5796   4.369   2.437  11.889  1.3269 -0.3534 -0.6263
  384MPD2    H1 5797   4.287   2.679  11.538 -1.6734  1.7954  0.1649
  384MPD2    H2 5798   4.095   2.755  11.908  1.7697  1.2324  0.4256
  384MPD2    H3 5799   4.145   2.804  11.657 -0.2619  1.0210  3.1400
  384MPD2     N 5800   4.441   2.477  11.612 -0.0975  0.2544 -0.4770
  384MPD2    H5 5801   4.433   2.492  11.512  0.3999 -2.9207 -0.9886
  384MPD2    N1 5802   4.193   2.540  12.027 -0.3314 -0.0222  0.8784
  384MPD2    H7 5803   4.252   2.469  12.070 -2.0773 -0.8994  1.8188
  385TMC3    C1 5804   4.598   2.304  11.557 -0.1930  0.0829  0.6278
  385TMC3    C2 5805   4.530   2.274  11.441  0.1900  0.2503 -0.3568
  385TMC3    C3 5806   4.527   2.151  11.392  0.1525 -0.0404  0.2441
  385TMC3    C4 5807   4.670   2.203  11.613  0.5783 -0.5854  0.3658
  385TMC3    C5 5808   4.642   2.076  11.581 -0.3907 -0.0941 -0.0497
  385TMC3    C6 5809   4.576   2.045  11.462  0.4661 -0.4014 -0.1140
  385TMC3     C 5810   4.530   2.382  11.660  0.0901 -0.2359  0.3966
  385TMC3     O 5811   4.563   2.362  11.774  0.2330  0.2253 -0.5446
  385TMC3     H 5812   4.483   2.353  11.384  0.4917  0.0293 -0.9108
  385TMC3    H1 5813   0.007   2.220  11.694  2.6498 -4.4498 -0.5770
  385TMC3    H2 5814   4.546   1.942  11.448 -0.7375 -0.3397  2.0100
  385TMC3    C7 5815   4.615   1.987  11.693 -0.1471 -0.3046  0.2241
  385TMC3    C8 5816   4.439   2.129  11.280 -0.5394 -1.3555 -0.0334
  385TMC3    O1 5817   4.585   1.872  11.660 -0.2423 -0.2308 -0.1224
  385TMC3    O2 5818   4.382   2.223  11.229  0.0960 -0.1242  0.3031
  386TMC3    C1 5819   4.480   4.701  12.043 -0.3440 -0.2565 -0.4953
  386TMC3    C2 5820   4.493   4.684  11.910  0.5218 -0.6277  0.2329
  386TMC3    C3 5821   4.384   4.728  11.840  0.3289  0.0852 -0.1777
  386TMC3    C4 5822   4.367   0.014  12.104  0.1745 -0.1192 -0.2525
  386TMC3    C5 5823   4.258   0.041  12.025  0.4348 -0.1676 -0.9219
  386TMC3    C6 5824   4.271   0.041  11.893  0.3242  0.3248  0.3500
  386TMC3     C 5825   4.557   4.623  12.129 -0.0787  0.0181  0.4961
  386TMC3     O 5826   4.600   4.677  12.230 -0.6951  0.4792 -0.4741
  386TMC3     H 5827   4.583   4.641  11.866  0.1581 -0.8063 -0.3454
  386TMC3    H1 5828   4.372   0.016  12.212  1.3898 -0.1080 -0.3017
  386TMC3    H2 5829   4.200   0.089  11.826  0.9615  0.3198 -0.3285
  386TMC3    C7 5830   4.135   4.704  12.059 -1.0786  0.5510  0.2977
  386TMC3    C8 5831   4.356   4.650  11.718 -0.5543 -0.7312 -0.0997
  386TMC3    O1 5832   4.115   4.678  12.180  0.0130 -0.2284 -0.7238
  386TMC3    O2 5833   4.234   4.650  11.694  0.5840  0.1941 -0.3345
  387MPD2     C 5834   2.425   4.593   9.851 -0.5626 -0.1538 -0.0786
  387MPD2    C1 5835   2.413   4.579   9.985 -0.8061  0.1692  0.5774
  387MPD2    C2 5836   2.353   4.466  10.027  0.7745 -0.6276  0.8253
  387MPD2    C3 5837   2.306   4.367   9.949 -0.1632  0.3289 -0.4135
  387MPD2    C4 5838   2.312   4.389   9.815 -0.2241  0.1653  0.0754
  387MPD2    C5 5839   2.366   4.505   9.767 -0.0694 -0.5090 -0.3079
  387MPD2     H 5840   2.363   4.452  10.134  0.9394  0.3406  0.9369
  387MPD2    H1 5841   2.277   4.313   9.745 -2.3270 -1.5510  3.0273
  387MPD2    H2 5842   2.487   4.674   9.815 -1.1290  0.2427 -0.1599
  387MPD2    H3 5843   2.377   4.517   9.659 -0.2432 -1.8129 -0.4704
  387MPD2     N 5844   2.262   4.247  10.004  0.0439  0.1470  0.0547
  387MPD2    H5 5845   2.279   4.221  10.101  1.1849  0.1427 -0.1487
  387MPD2    N1 5846   2.485   4.651  10.081 -1.3270 -0.2205  0.0039
  387MPD2    H7 5847   2.457   4.628  10.176 -1.5919 -1.2943 -0.3353
  388TMC3    C1 5848   2.659   0.043  10.176  0.3080 -0.8137 -0.4733
  388TMC3    C2 5849   2.748   0.144  10.175  0.1298 -0.3810 -0.1242
  388TMC3    C3 5850   2.854   0.151  10.261  0.6471 -0.5686 -0.1161
  388TMC3    C4 5851   2.677   4.670  10.267  0.2541 -0.3711 -0.1412
  388TMC3    C5 5852   2.784   4.678  10.355  0.5028  0.1127  0.5549
  388TMC3    C6 5853   2.872   0.051  10.355 -0.7139  0.0464 -0.0448
  388TMC3     C 5854   2.579   0.015  10.059 -0.5887  0.2399  0.5362
  388TMC3     O 5855   2.595   0.093   9.967 -0.7680 -0.1218 -0.1256
  388TMC3     H 5856   2.741   0.223  10.102 -1.4521  0.7200  1.2071
  388TMC3    H1 5857   2.606   4.587  10.267  3.2138 -2.9136  1.5950
  388TMC3    H2 5858   2.957   0.051  10.423 -0.5370  1.0379 -0.2541
  388TMC3    C7 5859   2.817   4.561  10.435  0.1500  0.1072 -0.7749
  388TMC3    C8 5860   2.955   0.258  10.246 -0.1313  0.7789  0.3252
  388TMC3    O1 5861   2.819   4.564  10.558  0.1338  0.1886  0.2800
  388TMC3    O2 5862   2.964   0.309  10.133 -0.5702 -0.1143  0.1933
  389MPD2     C 5863   1.877   2.600  10.530 -1.1938  1.1437  0.0155
  389MPD2    C1 5864   1.759   2.552  10.484  1.0985 -0.2122 -0.4184
  389MPD2    C2 5865   1.677   2.475  10.562 -0.8905 -0.2526 -0.0825
  389MPD2    C3 5866   1.711   2.455  10.695  0.0112 -0.2712 -0.5286
  389MPD2    C4 5867   1.826   2.500  10.743  0.6999  0.2764 -0.2771
  389MPD2    C5 5868   1.906   2.571  10.659  0.3511 -0.0153 -0.7892
  389MPD2     H 5869   1.585   2.432  10.526 -1.7896  2.2728 -0.7615
  389MPD2    H1 5870   1.854   2.496  10.847 -1.9395  0.6863  0.4296
  389MPD2    H2 5871   1.938   2.670  10.474  0.7055 -1.2264 -0.8731
  389MPD2    H3 5872   1.990   2.618  10.710 -0.8692 -0.3297  1.5481
  389MPD2     N 5873   1.628   2.406  10.796 -0.3757  0.1991 -0.1755
  389MPD2    H5 5874   1.661   2.422  10.890  0.9345  0.6222 -0.7064
  389MPD2    N1 5875   1.711   2.599  10.353  0.6119  0.0404 -0.2145
  389MPD2    H7 5876   1.765   2.671  10.304 -0.5072  1.9648  1.3763
  390TMC3    C1 5877   1.436   2.329  10.908  0.2980  0.0824  0.0027
  390TMC3    C2 5878   1.342   2.230  10.903  0.2300  1.0999 -0.2258
  390TMC3    C3 5879   1.253   2.226  11.009  0.0854  0.4945 -0.2855
  390TMC3    C4 5880   1.449   2.418  11.007  0.0424 -0.0693  0.4090
  390TMC3    C5 5881   1.367   2.394  11.113  0.3695 -0.1010 -0.2930
  390TMC3    C6 5882   1.270   2.301  11.120  0.6897 -0.4482 -0.5906
  390TMC3     C 5883   1.505   2.351  10.782  0.7745 -0.2086 -0.2432
  390TMC3     O 5884   1.459   2.299  10.679  0.2559 -0.3095  0.1811
  390TMC3     H 5885   1.343   2.156  10.825  1.7711  1.5920 -0.6755
  390TMC3    H1 5886   1.505   2.511  11.003  0.1907 -0.1553  0.4659
  390TMC3    H2 5887   1.218   2.268  11.209  2.7202 -2.9129 -0.3142
  390TMC3    C7 5888   1.362   2.506  11.213 -0.3865  0.2763 -0.1175
  390TMC3    C8 5889   1.141   2.134  10.996  0.6160 -0.7321 -0.9706
  390TMC3    O1 5890   1.461   2.580  11.213  0.3345  0.8239  0.3022
  390TMC3    O2 5891   1.116   2.067  10.893 -0.2648  0.6316  0.2548
  391MPD2     C 5892   0.488   3.632  11.201 -0.0743 -0.2442  0.3485
  391MPD2    C1 5893   0.623   3.658  11.211 -0.1670 -0.2603 -0.4591
  391MPD2    C2 5894   0.690   3.698  11.097  0.3921  0.4209  0.0056
  391MPD2    C3 5895   0.626   3.714  10.978 -0.0055  0.3833  0.0190
  391MPD2    C4 5896   0.490   3.688  10.967 -0.0321 -0.3110  0.5231
  391MPD2    C5 5897   0.421   3.645  11.082  0.5163  0.1316 -0.1439
  391MPD2     H 5898   0.793   3.732  11.103  0.3894  0.3334  0.5374
  391MPD2    H1 5899   0.442   3.692  10.869  1.8433  2.0459 -0.2850
  391MPD2    H2 5900   0.439   3.588  11.287 -2.7062 -0.6000 -1.3491
  391MPD2    H3 5901   0.315   3.633  11.066  0.9613 -0.7831 -2.4312
  391MPD2     N 5902   0.711   3.746  10.866 -0.0031 -0.2130  0.7467
  391MPD2    H5 5903   0.802   3.781  10.895 -0.0924 -0.6167  1.5354
  391MPD2    N1 5904   0.689   3.636  11.338  0.3444  0.0646  0.0758
  391MPD2    H7 5905   0.623   3.603  11.407 -1.4854  3.4115 -0.0685
  392TMC3    C1 5906   0.810   3.750  10.650 -0.7658 -0.5167 -0.0830
  392TMC3    C2 5907   0.802   3.751  10.514 -0.2646 -0.1142  0.4178
  392TMC3    C3 5908   0.912   3.766  10.444  0.1944 -0.6538  0.7242
  392TMC3    C4 5909   0.930   3.769  10.714  0.2732  0.3720 -0.4133
  392TMC3    C5 5910   1.039   3.798  10.636 -1.3859  0.2763 -0.2344
  392TMC3    C6 5911   1.032   3.790  10.499 -0.2355  0.1660  0.1908
  392TMC3     C 5912   0.688   3.733  10.731  0.0988 -0.2679  0.2164
  392TMC3     O 5913   0.583   3.717  10.677 -0.5099  0.1791 -0.4323
  392TMC3     H 5914   0.710   3.733  10.460  0.5580 -4.8805  0.6677
  392TMC3    H1 5915   0.947   3.771  10.821  1.1047 -0.1459 -0.5318
  392TMC3    H2 5916   1.120   3.813  10.440  0.6387 -0.3128  1.3076
  392TMC3    C7 5917   1.128   3.897  10.698  0.0703 -0.9110  0.2210
  392TMC3    C8 5918   0.899   3.770  10.299 -0.2284 -0.4263 -0.7443
  392TMC3    O1 5919   1.118   3.925  10.820  0.1089  0.6485  0.3662
  392TMC3    O2 5920   0.787   3.741  10.249  0.3071 -0.1693 -0.0773
  393TMC3    C1 5921   3.901   2.456  10.405 -0.0623  0.1530 -0.8053
  393TMC3    C2 5922   3.862   2.472  10.535 -0.4716 -0.1628 -0.2335
  393TMC3    C3 5923   3.911   2.380  10.621 -0.5676 -0.6505  0.3758
  393TMC3    C4 5924   3.994   2.355  10.367 -0.0712 -0.2578 -0.0203
  393TMC3    C5 5925   4.041   2.272  10.463 -0.2071 -0.5179  0.0447
  393TMC3    C6 5926   3.985   2.276  10.586  0.2286 -0.4262 -0.5500
  393TMC3     C 5927   3.846   2.534  10.296 -0.0505 -0.1272  0.2233
  393TMC3     O 5928   3.795   2.641  10.327  0.5531  0.0278 -0.2972
  393TMC3     H 5929   3.799   2.553  10.569  1.6314  1.3742 -0.0171
  393TMC3    H1 5930   4.032   2.339  10.266  0.3590 -1.5170  0.3363
  393TMC3    H2 5931   4.017   2.211  10.667 -0.1390 -1.9645 -1.6621
  393TMC3    C7 5932   4.160   2.183  10.441  0.4870  0.4351  0.3206
  393TMC3    C8 5933   3.833   2.364  10.746  0.5057 -0.4144 -0.9142
  393TMC3    O1 5934   4.197   2.152  10.326  0.1092  0.1986  0.4468
  393TMC3    O2 5935   3.799   2.250  10.772  0.2184  1.0023 -0.0139
  394TMC3    C1 5936   1.605   2.615  10.156  0.3704 -0.9753  0.7400
  394TMC3    C2 5937   1.541   2.555  10.049 -0.4697  0.0589 -0.1344
  394TMC3    C3 5938   1.510   2.638   9.942  0.4603 -0.1092 -0.6089
  394TMC3    C4 5939   1.620   2.758  10.157 -0.0863 -0.0841  1.0057
  394TMC3    C5 5940   1.591   2.835  10.047  0.0723  0.1260 -0.1483
  394TMC3    C6 5941   1.542   2.776   9.942 -0.4640  0.2683  0.2094
  394TMC3     C 5942   1.611   2.539  10.277  0.3463 -0.2919 -0.3782
  394TMC3     O 5943   1.545   2.442  10.295  0.0355  0.2850 -0.4817
  394TMC3     H 5944   1.516   2.450  10.059 -0.6461  0.2307  1.2547
  394TMC3    H1 5945   1.656   2.811  10.244 -1.1706  1.6616  0.4074
  394TMC3    H2 5946   1.532   2.827   9.847 -2.0554  1.2182  0.8951
  394TMC3    C7 5947   1.599   2.977  10.056  0.1341  0.4550  0.1908
  394TMC3    C8 5948   1.457   2.581   9.820  0.1972  0.0671  0.4337
  394TMC3    O1 5949   1.683   3.020  10.131 -0.0792  0.3418  0.0138
  394TMC3    O2 5950   1.435   2.653   9.728 -0.0546 -0.7251  0.0555
  395TMC3    C1 5951   1.618   4.105  14.100  0.2487  0.4849  0.0859
  395TMC3    C2 5952   1.484   4.096  14.129  0.7699 -0.1297  0.0629
  395TMC3    C3 5953   1.419   4.221  14.112  0.2978  0.7752 -0.4797
  395TMC3    C4 5954   1.680   4.219  14.053  0.4265  0.1381 -0.8472
  395TMC3    C5 5955   1.610   4.336  14.050 -0.8447  1.0476 -0.3099
  395TMC3    C6 5956   1.478   4.340  14.077 -0.0224 -0.2232 -0.3922
  395TMC3     C 5957   1.695   3.986  14.095  0.2064  0.2959 -0.1416
  395TMC3     O 5958   1.794   3.982  14.032  0.1471  0.2208 -0.0185
  395TMC3     H 5959   1.439   3.999  14.147  0.6089 -0.7111 -3.4663
  395TMC3    H1 5960   1.786   4.221  14.029  0.4721  0.7287 -0.6036
  395TMC3    H2 5961   1.425   4.433  14.096 -0.4131  0.0240 -2.6954
  395TMC3    C7 5962   1.685   4.462  14.048 -1.0388 -0.2816 -0.1972
  395TMC3    C8 5963   1.275   4.224  14.137  0.2135 -0.7936 -0.8878
  395TMC3    O1 5964   1.800   4.455  14.093 -0.2329 -0.0543 -0.5568
  395TMC3    O2 5965   1.213   4.318  14.089  0.2941  0.1458  0.8344
  396MPD2     C 5966   1.375   0.133  16.962 -0.8137 -0.8920  1.2683
  396MPD2    C1 5967   1.471   0.212  17.022  0.2827 -0.5789 -1.0701
  396MPD2    C2 5968   1.486   0.338  16.974 -0.3222  0.2949 -0.6013
  396MPD2    C3 5969   1.414   0.386  16.869 -0.0045 -0.9997 -0.0260
  396MPD2    C4 5970   1.326   0.303  16.796  0.6153  0.7304  0.2852
  396MPD2    C5 5971   1.305   0.176  16.848  0.6165 -0.8037 -0.2443
  396MPD2     H 5972   1.556   0.404  17.024 -0.8341 -1.4941  2.5066
  396MPD2    H1 5973   1.277   0.329  16.703 -0.9142 -0.0827  0.8633
  396MPD2    H2 5974   1.350   0.035  17.001 -0.1395 -2.0040 -1.1136
  396MPD2    H3 5975   1.232   0.115  16.796 -0.3882  0.8956 -0.8244
  396MPD2     N 5976   1.448   0.518  16.827 -0.0403 -1.0696 -0.2740
  396MPD2    H5 5977   1.527   0.557  16.878  0.3736 -2.0497 -0.1483
  396MPD2    N1 5978   1.545   0.155  17.125 -0.0009  0.1919 -0.2963
  396MPD2    H7 5979   1.564   0.056  17.111 -1.1167  0.2116 -2.0110
  397TMC3    C1 5980   1.745   0.124  17.249  0.4234  0.3909 -0.0694
  397TMC3    C2 5981   1.855   0.119  17.160  0.0656  0.2145  0.3941
  397TMC3    C3 5982   1.869   0.011  17.084 -0.5110  0.2694 -0.1537
  397TMC3    C4 5983   1.680   0.008  17.280 -0.1335  0.1005  0.1039
  397TMC3    C5 5984   1.698   4.632  17.200  0.0276 -0.0103 -0.4058
  397TMC3    C6 5985   1.789   4.636  17.098  0.4244  0.6716  0.7870
  397TMC3     C 5986   1.642   0.218  17.198 -0.0944 -0.0965  0.1120
  397TMC3     O 5987   1.653   0.338  17.224  0.1921 -0.3901 -0.1912
  397TMC3     H 5988   1.878   0.216  17.116  1.7031  0.4397  1.7655
  397TMC3    H1 5989   1.609   0.014  17.361  2.5656  2.4309  2.2955
  397TMC3    H2 5990   1.796   4.557  17.025  0.0437  0.6836  0.7375
  397TMC3    C7 5991   1.584   4.547  17.184 -0.6750 -0.2795 -0.2476
  397TMC3    C8 5992   1.871   0.053  16.944  0.6880 -0.0048  0.6114
  397TMC3    O1 5993   1.562   4.502  17.069  0.2537  0.3958 -0.6188
  397TMC3    O2 5994   1.775   0.022  16.873 -0.6866 -0.4796  0.0075
  398MPD2     C 5995   3.679   1.574   0.415 -0.5321  0.1102  0.0502
  398MPD2    C1 5996   3.767   1.484   0.456  0.0560 -0.4951  0.2054
  398MPD2    C2 5997   3.902   1.513   0.463 -0.2459  0.2597  0.2562
  398MPD2    C3 5998   3.945   1.636   0.422  0.1970 -1.0802  0.1654
  398MPD2    C4 5999   3.854   1.732   0.390  0.5966 -1.1185  0.6007
  398MPD2    C5 6000   3.716   1.705   0.388 -0.4182  0.8733  1.0612
  398MPD2     H 6001   3.972   1.432   0.484  1.2492  1.4938  0.0540
  398MPD2    H1 6002   3.884   1.833   0.364 -0.0359 -0.1423  3.7911
  398MPD2    H2 6003   3.574   1.550   0.398 -0.2182 -0.6260 -0.8454
  398MPD2    H3 6004   3.643   1.779   0.357 -1.3574  0.4493  2.2755
  398MPD2     N 6005   4.080   1.652   0.419 -0.0163 -0.2092 -0.0129
  398MPD2    H5 6006   4.133   1.571   0.452 -1.3657 -1.3045 -0.5544
  398MPD2    N1 6007   3.741   1.346   0.488  0.4100  0.0638 -0.1286
  398MPD2    H7 6008   3.813   1.285   0.525  0.7356  1.4983  1.5989
  399TMC3    C1 6009   3.620   1.150   0.516  0.3096  0.7401 -0.0423
  399TMC3    C2 6010   3.652   1.143   0.653 -0.4401  0.0757  0.0667
  399TMC3    C3 6011   3.631   1.015   0.717 -0.6209  0.3316  0.1718
  399TMC3    C4 6012   3.555   1.049   0.455  0.4855  0.7310  0.8902
  399TMC3    C5 6013   3.539   0.924   0.511  0.2374  0.0098 -0.3658
  399TMC3    C6 6014   3.578   0.909   0.642 -0.0751  0.0718 -0.5918
  399TMC3     C 6015   3.621   1.285   0.470  0.8597 -0.1759  0.3344
  399TMC3     O 6016   3.513   1.321   0.426 -0.5598  0.6057 -0.3568
  399TMC3     H 6017   3.704   1.221   0.708 -1.3097  0.9011 -0.2966
  399TMC3    H1 6018   3.513   1.066   0.356 -1.1774 -3.4925  0.8748
  399TMC3    H2 6019   3.549   0.817   0.691 -1.9524  1.1653  0.3586
  399TMC3    C7 6020   3.526   0.807   0.428 -0.2754 -0.4513 -0.1592
  399TMC3    C8 6021   3.642   1.003   0.866 -0.1600  0.4454  0.0597
  399TMC3    O1 6022   3.536   0.696   0.482 -0.0742  0.0679  0.7064
  399TMC3    O2 6023   3.667   0.891   0.905  0.1042 -0.2669  0.3182
  400TMC3    C1 6024   2.678   4.223  16.849 -0.6692  0.2874 -0.2448
  400TMC3    C2 6025   2.557   4.219  16.783 -0.0810  1.1145 -0.7485
  400TMC3    C3 6026   2.508   4.340  16.729 -1.0796  0.2449  1.0198
  400TMC3    C4 6027   2.754   4.339  16.853  0.1484 -0.4393 -0.5367
  400TMC3    C5 6028   2.690   4.458  16.816 -0.4397 -0.9761  0.5332
  400TMC3    C6 6029   2.567   4.461  16.752  0.9689 -0.7356 -0.2160
  400TMC3     C 6030   2.668   4.137  16.962 -0.2745  0.0366  0.2895
  400TMC3     O 6031   2.620   4.026  16.935  0.2578  0.6831 -0.1074
  400TMC3     H 6032   2.483   4.140  16.786 -0.1170  1.1700 -0.1157
  400TMC3    H1 6033   2.854   4.329  16.895  0.0378 -1.0143 -0.4096
  400TMC3    H2 6034   2.518   4.555  16.731  1.0027 -0.8285 -0.7107
  400TMC3    C7 6035   2.754   4.586  16.853  0.2179  0.5899  0.1992
  400TMC3    C8 6036   2.397   4.349  16.640  0.5183  0.1048  0.0378
  400TMC3    O1 6037   2.876   4.571  16.870  0.1844 -0.2184  0.7155
  400TMC3    O2 6038   2.358   4.465  16.617  0.2971  0.6694  0.0163
  401MPD2     C 6039   0.438   3.071   0.089 -0.4207 -0.5663  0.2431
  401MPD2    C1 6040   0.483   3.043   0.217  0.1322 -0.0624 -0.1494
  401MPD2    C2 6041   0.467   2.926   0.279  0.0381  0.1357  0.8240
  401MPD2    C3 6042   0.390   2.828   0.211  0.2934 -1.1696  0.9942
  401MPD2    C4 6043   0.338   2.862   0.082 -0.2320  0.7282  1.0224
  401MPD2    C5 6044   0.363   2.983   0.020  0.0325 -0.1928 -0.0549
  401MPD2     H 6045   0.511   2.900   0.374  0.2814  1.8875  1.1865
  401MPD2    H1 6046   0.276   2.793   0.026  1.6319 -0.6077  0.6159
  401MPD2    H2 6047   0.468   3.167   0.047 -1.2416  0.0454  1.0590
  401MPD2    H3 6048   0.322   3.007  17.652  0.7489 -1.5241 -0.6890
  401MPD2     N 6049   0.366   2.709   0.286  0.9620  0.2972 -0.0074
  401MPD2    H5 6050   0.416   2.695   0.374 -1.2304  1.2853  1.3950
  401MPD2    N1 6051   0.552   3.143   0.292 -0.3492  0.0757  0.3118
  401MPD2    H7 6052   0.606   3.102   0.368  0.1315  0.6385  0.2711
  402TMC3    C1 6053   0.256   2.515   0.348  0.3980  0.2941  0.0459
  402TMC3    C2 6054   0.251   2.547   0.482 -0.2898  0.2493  0.4663
  402TMC3    C3 6055   0.238   2.448   0.572 -0.1070  0.0673 -0.9676
  402TMC3    C4 6056   0.254   2.390   0.302  0.5630 -0.2473  0.5286
  402TMC3    C5 6057   0.263   2.291   0.402 -0.0586 -0.5517  0.3839
  402TMC3    C6 6058   0.254   2.317   0.535 -0.9901 -0.1003 -0.2806
  402TMC3     C 6059   0.278   2.615   0.247 -0.6983 -0.6741 -0.6954
  402TMC3     O 6060   0.211   2.613   0.145 -0.0960 -0.1967 -0.2689
  402TMC3     H 6061   0.242   2.654   0.495  1.1134  0.2557  1.3527
  402TMC3    H1 6062   0.265   2.359   0.198  1.5912  0.6026  0.3852
  402TMC3    H2 6063   0.257   2.239   0.610  0.3272  2.8008  2.6805
  402TMC3    C7 6064   0.342   2.170   0.376  1.0950  0.2600  0.3387
  402TMC3    C8 6065   0.280   2.485   0.708 -0.4619  0.1061 -1.5953
  402TMC3    O1 6066   0.291   2.058   0.391  0.1567 -0.3973 -0.7284
  402TMC3    O2 6067   0.327   2.394   0.772  0.1209 -0.2468 -0.1990
  403MPD2     C 6068   3.826   2.028  13.540  0.4007 -0.9842  0.3411
  403MPD2    C1 6069   3.924   1.932  13.526  0.2995 -0.0806  0.1062
  403MPD2    C2 6070   4.039   1.936  13.599 -0.4085 -0.8222  0.2046
  403MPD2    C3 6071   4.054   2.037  13.699 -0.0405 -0.2701  0.1715
  403MPD2    C4 6072   3.952   2.134  13.702 -0.8334 -0.0865 -0.1364
  403MPD2    C5 6073   3.841   2.133  13.624  0.6875  0.0693 -0.3637
  403MPD2     H 6074   4.119   1.865  13.582  1.9649  1.7069  0.7470
  403MPD2    H1 6075   3.956   2.211  13.777  0.4116  0.9466 -1.2559
  403MPD2    H2 6076   3.732   2.025  13.486  0.9690  1.2083 -0.7936
  403MPD2    H3 6077   3.765   2.210  13.624  1.1243  0.4948 -0.1974
  403MPD2     N 6078   4.157   2.035  13.795 -0.2713  0.2591  0.7869
  403MPD2    H5 6079   4.218   1.956  13.774 -2.7819 -1.2654 -0.8314
  403MPD2    N1 6080   3.896   1.828  13.428 -0.5933  0.3719 -0.5013
  403MPD2    H7 6081   3.832   1.849  13.352 -2.1339 -0.5018  0.5535
  404TMC3    C1 6082   3.881   1.608  13.349 -0.1719 -0.1465  0.3705
  404TMC3    C2 6083   3.873   1.484  13.402 -0.8888 -0.5213 -0.3623
  404TMC3    C3 6084   3.825   1.384  13.319  0.4552  0.3837  0.7187
  404TMC3    C4 6085   3.859   1.639  13.219 -0.0073  0.1384  0.1895
  404TMC3    C5 6086   3.834   1.530  13.136  0.2356 -0.0586  0.6047
  404TMC3    C6 6087   3.819   1.403  13.185 -0.4714  0.7080 -0.3698
  404TMC3     C 6088   3.953   1.700  13.434  0.0646  0.1117 -0.2073
  404TMC3     O 6089   4.032   1.656  13.519 -0.3487 -0.1082 -0.5804
  404TMC3     H 6090   3.908   1.469  13.504  0.7849 -0.4167 -0.9259
  404TMC3    H1 6091   3.877   1.739  13.183  2.0203 -0.7057 -1.1918
  404TMC3    H2 6092   3.817   1.314  13.124  0.5092  0.0008  0.6385
  404TMC3    C7 6093   3.841   1.551  12.987  0.9947  0.0351  0.3586
  404TMC3    C8 6094   3.845   1.252  13.367  0.0698 -0.0459 -0.5279
  404TMC3    O1 6095   3.869   1.664  12.952 -0.0192  0.5564 -0.0383
  404TMC3    O2 6096   3.863   1.156  13.295 -0.5788  0.0660 -0.0455
  405MPD2     C 6097   4.061   1.671  15.048  0.1636  0.1456 -0.4576
  405MPD2    C1 6098   4.076   1.649  14.914  0.4469 -0.1267 -0.7662
  405MPD2    C2 6099   4.091   1.753  14.833 -1.3395  0.0810 -0.7319
  405MPD2    C3 6100   4.078   1.883  14.888  0.0510  0.0341 -0.0593
  405MPD2    C4 6101   4.050   1.908  15.023  0.0709  0.1959  0.9590
  405MPD2    C5 6102   4.047   1.794  15.099  0.1723 -0.2868 -0.5394
  405MPD2     H 6103   4.126   1.753  14.730  3.9152 -2.2989  1.0592
  405MPD2    H1 6104   4.038   2.004  15.070 -1.4833  0.0776  0.7888
  405MPD2    H2 6105   4.075   1.593  15.123  2.7235  0.0475 -1.0679
  405MPD2    H3 6106   4.044   1.807  15.207  1.3583  2.3542 -0.8356
  405MPD2     N 6107   4.089   1.988  14.793  0.3976  0.1588  0.2454
  405MPD2    H5 6108   4.144   1.960  14.712  0.5978  2.7799 -0.5166
  405MPD2    N1 6109   4.108   1.512  14.872 -0.5661  0.3272 -0.2778
  405MPD2    H7 6110   4.110   1.434  14.937  0.8655 -0.6609 -1.4877
  406TMC3    C1 6111   3.864   2.289  14.550  0.7474 -0.2193  0.1737
  406TMC3    C2 6112   3.904   2.229  14.435  0.5220 -0.0401 -0.2015
  406TMC3    C3 6113   4.013   2.145  14.444 -0.0548 -0.7217 -0.0836
  406TMC3    C4 6114   3.918   2.269  14.670  0.1357  0.7515  0.1370
  406TMC3    C5 6115   4.030   2.192  14.677  0.6955 -0.9038  0.2096
  406TMC3    C6 6116   4.078   2.137  14.562  0.1210  0.1159  0.0397
  406TMC3     C 6117   3.754   2.383  14.536 -0.1918  0.2956  0.0800
  406TMC3     O 6118   3.709   2.401  14.424 -0.1300 -0.4119  0.0687
  406TMC3     H 6119   3.856   2.252  14.340  0.6390  0.4362 -0.1451
  406TMC3    H1 6120   3.874   2.302  14.763 -1.2718 -0.7592  0.0094
  406TMC3    H2 6121   4.180   2.100  14.574 -0.8138 -2.2090  0.8488
  406TMC3    C7 6122   4.047   2.121  14.804 -0.1294  0.1902  1.2116
  406TMC3    C8 6123   4.068   2.070  14.325  0.0323 -0.2421 -0.4276
  406TMC3    O1 6124   4.001   2.173  14.904  0.4491 -0.1649 -0.6955
  406TMC3    O2 6125   4.019   2.093  14.218 -0.5152 -0.2401 -0.0499
  407MPD2     C 6126   1.640   3.999   9.813 -0.1150  0.3461  0.2334
  407MPD2    C1 6127   1.754   3.946   9.873  0.4529  0.0837 -0.0361
  407MPD2    C2 6128   1.825   4.026   9.962  0.3574  0.1943  0.0429
  407MPD2    C3 6129   1.790   4.155   9.973 -0.5282  0.3072  0.8461
  407MPD2    C4 6130   1.687   4.211   9.904  0.0034 -0.0019  0.1708
  407MPD2    C5 6131   1.610   4.129   9.829 -0.0806  0.1001 -0.2925
  407MPD2     H 6132   1.902   3.985  10.027 -0.4421 -0.1266  0.7853
  407MPD2    H1 6133   1.659   4.315   9.911 -0.7723 -0.0585 -2.2511
  407MPD2    H2 6134   1.588   3.943   9.735 -3.7557  1.8958  1.5832
  407MPD2    H3 6135   1.530   4.174   9.771 -2.3187 -0.4165  2.4118
  407MPD2     N 6136   1.854   4.243  10.059  0.4494  0.1393 -0.5814
  407MPD2    H5 6137   1.822   4.339  10.066  0.2642 -0.0562  1.2599
  407MPD2    N1 6138   1.800   3.810   9.855 -0.2731  0.2126 -0.2794
  407MPD2    H7 6139   1.885   3.787   9.905 -0.7769 -1.0949 -0.0394
  408TMC3    C1 6140   1.821   3.595   9.752  0.1629 -0.4380 -0.5206
  408TMC3    C2 6141   1.956   3.614   9.745  0.8368  0.1489 -0.1635
  408TMC3    C3 6142   2.034   3.506   9.714  0.1294  0.7023  0.0852
  408TMC3    C4 6143   1.759   3.479   9.725  0.2127 -0.3143  0.0666
  408TMC3    C5 6144   1.841   3.372   9.711 -0.1252 -0.3110  0.2402
  408TMC3    C6 6145   1.976   3.385   9.706  0.2792 -0.2417  0.1433
  408TMC3     C 6146   1.740   3.712   9.782  0.0024 -0.0665 -0.0816
  408TMC3     O 6147   1.631   3.698   9.736  0.2186 -0.2792  0.2159
  408TMC3     H 6148   1.990   3.717   9.743 -0.4009  0.4968 -2.7986
  408TMC3    H1 6149   1.651   3.472   9.733  0.3890 -1.5700  1.3758
  408TMC3    H2 6150   2.047   3.306   9.682  2.0247  0.7064  2.2337
  408TMC3    C7 6151   1.785   3.237   9.713  0.6272 -0.9777  0.1890
  408TMC3    C8 6152   2.172   3.509   9.745 -0.4524  0.3653 -0.0561
  408TMC3    O1 6153   1.842   3.140   9.765 -0.0076  0.0887 -0.2393
  408TMC3    O2 6154   2.219   3.405   9.786 -0.6968  0.4966  0.1580
  409MPD2     C 6155   1.706   3.786  16.422  0.0520 -0.2431  0.4500
  409MPD2    C1 6156   1.700   3.825  16.554 -0.5437 -0.3857  0.0204
  409MPD2    C2 6157   1.720   3.961  16.590 -0.7030  0.6929 -0.3765
  409MPD2    C3 6158   1.743   4.054  16.497 -0.8974 -0.4753 -0.9007
  409MPD2    C4 6159   1.742   4.019  16.367 -0.5692  0.9502  0.0663
  409MPD2    C5 6160   1.730   3.887  16.332  0.2028 -0.3735  0.1173
  409MPD2     H 6161   1.723   3.981  16.697 -1.5808  2.2136 -0.6429
  409MPD2    H1 6162   1.752   4.098  16.293  0.8448  0.9736  0.2919
  409MPD2    H2 6163   1.697   3.686  16.381  1.0531  0.4373 -1.4332
  409MPD2    H3 6164   1.736   3.868  16.225 -0.1085  2.0372 -0.3348
  409MPD2     N 6165   1.767   4.187  16.527 -0.6659  0.0091 -0.5596
  409MPD2    H5 6166   1.773   4.253  16.450  2.1767 -1.5701 -1.6964
  409MPD2    N1 6167   1.673   3.741  16.666  0.1931  0.3038  0.2167
  409MPD2    H7 6168   1.664   3.790  16.754 -1.4099  0.1646  0.1140
  410TMC3    C1 6169   1.829   4.376  16.658  0.4819 -0.3445 -0.3889
  410TMC3    C2 6170   1.913   4.414  16.754  0.7658 -0.5839  0.5329
  410TMC3    C3 6171   1.994   4.527  16.747  0.6363 -0.3778  0.3462
  410TMC3    C4 6172   1.808   4.451  16.552  0.2896 -0.1622 -0.4025
  410TMC3    C5 6173   1.888   4.565  16.539 -0.4022 -0.4183 -0.7134
  410TMC3    C6 6174   1.978   4.603  16.634  0.0530  0.4148 -0.5967
  410TMC3     C 6175   1.786   4.240  16.655 -0.2117  0.3384  0.0464
  410TMC3     O 6176   1.791   4.184  16.765 -0.5244  0.0854  0.4265
  410TMC3     H 6177   1.896   4.370  16.851 -2.3876 -0.8697 -0.1438
  410TMC3    H1 6178   1.729   4.423  16.483 -1.0441  2.2755  0.1518
  410TMC3    H2 6179   2.037   4.694  16.634 -0.5774  0.8236 -0.2880
  410TMC3    C7 6180   1.845   4.661  16.435 -0.2591  0.1925  0.1970
  410TMC3    C8 6181   2.117   4.521  16.817 -0.9703 -0.2640 -0.0151
  410TMC3    O1 6182   1.741   4.629  16.374 -0.2282 -0.2433  0.0876
  410TMC3    O2 6183   2.176   4.616  16.862 -0.2010  0.5306  0.0084
  411MPD2     C 6184   1.719   1.224  14.346 -0.1778 -0.2944 -1.0092
  411MPD2    C1 6185   1.638   1.109  14.370 -0.3108 -0.3669  0.4297
  411MPD2    C2 6186   1.629   1.013  14.270  0.1968 -0.2949  0.2419
  411MPD2    C3 6187   1.689   1.033  14.145  0.2780 -0.4433 -0.3125
  411MPD2    C4 6188   1.765   1.146  14.120  0.3359  0.0910  0.4943
  411MPD2    C5 6189   1.784   1.230  14.228  0.1621 -0.1273 -0.2463
  411MPD2     H 6190   1.573   0.921  14.289  0.0242 -0.2349  0.0159
  411MPD2    H1 6191   1.824   1.152  14.030 -1.2623  1.6201 -0.4394
  411MPD2    H2 6192   1.732   1.303  14.420  3.1592 -1.0042 -0.8384
  411MPD2    H3 6193   1.844   1.318  14.206 -1.0874  0.9416  0.7061
  411MPD2     N 6194   1.678   0.939  14.040 -0.1617  0.3358 -1.0080
  411MPD2    H5 6195   1.725   0.961  13.953  2.7730  0.5044  0.6102
  411MPD2    N1 6196   1.567   1.106  14.495  0.1294  0.8266 -0.3459
  411MPD2    H7 6197   1.577   1.189  14.554  0.0421  0.0625  0.7357
  412TMC3    C1 6198   1.627   0.746  13.914 -0.4885 -0.3389 -0.0556
  412TMC3    C2 6199   1.588   0.612  13.919  0.3584  0.4944  0.8825
  412TMC3    C3 6200   1.598   0.550  13.798  0.1737  0.4034 -0.0385
  412TMC3    C4 6201   1.649   0.816  13.798  0.2049  0.2751 -0.1762
  412TMC3    C5 6202   1.650   0.750  13.681  0.0761 -0.1902 -0.5053
  412TMC3    C6 6203   1.629   0.620  13.683 -0.8242  0.1949  0.8779
  412TMC3     C 6204   1.617   0.816  14.044  0.4593 -0.3194 -0.1882
  412TMC3     O 6205   1.562   0.752  14.138  0.2075 -0.1204  0.4698
  412TMC3     H 6206   1.551   0.556  14.005 -2.9098  1.2519 -0.0168
  412TMC3    H1 6207   1.645   0.923  13.811 -1.1085  0.1481  0.5627
  412TMC3    H2 6208   1.657   0.562  13.596 -2.2267  0.6986  0.0965
  412TMC3    C7 6209   1.584   0.828  13.580  0.5013  0.3325 -0.3329
  412TMC3    C8 6210   1.484   0.471  13.753  0.3365  0.0156  0.9245
  412TMC3    O1 6211   1.633   0.936  13.562  0.2383 -0.0107  0.1914
  412TMC3    O2 6212   1.450   0.489  13.639 -0.1236 -0.2493  0.3899
  413MPD2     C 6213   3.104   3.670  15.976  0.0505 -0.0124 -0.2539
  413MPD2    C1 6214   3.072   3.601  15.862  0.0876  0.6956  0.0320
  413MPD2    C2 6215   3.164   3.510  15.817 -0.5407 -0.1486  0.6552
  413MPD2    C3 6216   3.287   3.490  15.878  0.4396  0.3627  0.3830
  413MPD2    C4 6217   3.325   3.576  15.978  0.2025  0.1197  0.3710
  413MPD2    C5 6218   3.228   3.658  16.031  0.0920  0.2659  0.1652
  413MPD2     H 6219   3.147   3.445  15.732  2.4964  0.0979 -0.1182
  413MPD2    H1 6220   3.420   3.560  16.028  0.9805  1.0525 -0.8142
  413MPD2    H2 6221   3.027   3.740  16.007  1.7582  1.4722  0.6409
  413MPD2    H3 6222   3.261   3.711  16.119  2.2859 -2.9314  1.2784
  413MPD2     N 6223   3.359   3.382  15.827 -0.7635  0.2733 -0.3297
  413MPD2    H5 6224   3.325   3.333  15.745  1.9945 -1.1631 -0.6156
  413MPD2    N1 6225   2.961   3.635  15.786 -0.1019 -1.0631 -0.4661
  413MPD2    H7 6226   2.911   3.717  15.819 -1.7995  0.1801 -6.0128
  414TMC3    C1 6227   3.572   3.258  15.807 -0.3161 -0.0209  0.3958
  414TMC3    C2 6228   3.642   3.157  15.866  0.6197 -0.1554 -0.1293
  414TMC3    C3 6229   3.719   3.072  15.789 -0.1081 -0.2916  0.2156
  414TMC3    C4 6230   3.560   3.258  15.672 -0.5635 -0.0170  0.2199
  414TMC3    C5 6231   3.649   3.182  15.601 -0.3083 -0.2224 -0.1560
  414TMC3    C6 6232   3.729   3.095  15.659 -0.6552  0.0821 -0.7355
  414TMC3     C 6233   3.482   3.341  15.882 -0.7261  0.3613  0.0040
  414TMC3     O 6234   3.528   3.352  15.998  0.2186  0.0582  0.0298
  414TMC3     H 6235   3.651   3.148  15.974  0.2318  2.4215  0.1298
  414TMC3    H1 6236   3.498   3.340  15.636 -1.4209 -0.5074  0.5816
  414TMC3    H2 6237   3.769   3.016  15.596 -5.6088 -2.5251 -0.7010
  414TMC3    C7 6238   3.673   3.219  15.457 -0.1695  0.8984 -0.6895
  414TMC3    C8 6239   3.830   3.002  15.849  0.2595  0.2264 -0.2341
  414TMC3    O1 6240   3.584   3.282  15.404 -0.2292  0.0045 -0.0352
  414TMC3    O2 6241   3.932   2.987  15.787 -0.7084  0.0999  0.6312
  415TMC3    C1 6242   4.155   1.506  10.272  0.2036 -0.7586 -0.3680
  415TMC3    C2 6243   4.241   1.570  10.181 -0.3274  0.4623  0.0625
  415TMC3    C3 6244   4.298   1.484  10.080 -0.5399 -0.1209 -0.3277
  415TMC3    C4 6245   4.123   1.368  10.269  0.3822  0.0689 -0.7454
  415TMC3    C5 6246   4.161   1.303  10.151  0.5583  0.6675  0.0255
  415TMC3    C6 6247   4.244   1.362  10.056 -0.5829 -0.7917 -0.3830
  415TMC3     C 6248   4.088   1.579  10.380 -0.5369 -0.1934  0.2525
  415TMC3     O 6249   4.058   1.513  10.483  0.0150 -0.6148 -0.0442
  415TMC3     H 6250   4.285   1.666  10.207  2.1976 -0.8845  0.8232
  415TMC3    H1 6251   4.054   1.333  10.344  1.5401 -0.0621  0.2525
  415TMC3    H2 6252   4.273   1.301   9.971  0.8787  0.8476 -1.0681
  415TMC3    C7 6253   4.066   1.213  10.098 -0.0851 -0.7254  0.3417
  415TMC3    C8 6254   4.383   1.545   9.976 -0.2453 -0.0554  0.1015
  415TMC3    O1 6255   4.064   1.214   9.977 -0.0316 -0.2174 -0.7430
  415TMC3    O2 6256   4.420   1.476   9.883 -0.5429 -0.3447  0.0866
  416MPD2     C 6257   0.898   0.370  11.431  0.0376 -0.0802  0.5970
  416MPD2    C1 6258   0.812   0.298  11.512  0.7805 -0.8256 -0.7015
  416MPD2    C2 6259   0.854   0.173  11.567 -0.0533 -0.1783 -0.3408
  416MPD2    C3 6260   0.980   0.118  11.528 -0.5267 -0.6650  0.2601
  416MPD2    C4 6261   1.070   0.205  11.466  0.4024 -0.4874  0.2898
  416MPD2    C5 6262   1.027   0.325  11.418 -0.4705 -0.0239 -0.3784
  416MPD2     H 6263   0.776   0.109  11.607 -0.6398  0.8598  0.1843
  416MPD2    H1 6264   1.166   0.169  11.430  1.0802  3.5009 -1.8623
  416MPD2    H2 6265   0.866   0.464  11.388  2.4845 -0.8999 -3.0549
  416MPD2    H3 6266   1.093   0.390  11.362 -0.8666  1.1119  0.4679
  416MPD2     N 6267   0.995   4.711  11.553  0.3370  0.4200 -0.5420
  416MPD2    H5 6268   0.914   4.669  11.597  0.7815 -0.2110 -0.3351
  416MPD2    N1 6269   0.687   0.356  11.545  0.0297  0.1153  0.1302
  416MPD2    H7 6270   0.677   0.443  11.495  2.1564  0.2441 -0.0859
  417TMC3    C1 6271   0.514   0.415  11.677  0.1307  0.6929 -0.3500
  417TMC3    C2 6272   0.493   0.450  11.807  0.3830 -0.5386 -0.5510
  417TMC3    C3 6273   0.425   0.564  11.840  0.2822  1.0287  0.2881
  417TMC3    C4 6274   0.467   0.497  11.574  0.0319 -0.1362  0.0841
  417TMC3    C5 6275   0.391   0.607  11.612  0.1376 -0.2451  0.3899
  417TMC3    C6 6276   0.372   0.642  11.742  0.6256 -0.0189  0.1550
  417TMC3     C 6277   0.605   0.315  11.646  0.1557 -0.0985 -0.1643
  417TMC3     O 6278   0.612   0.218  11.723 -0.3853 -0.9810  0.3892
  417TMC3     H 6279   0.499   0.381  11.891  0.8616 -1.8734 -1.6830
  417TMC3    H1 6280   0.481   0.479  11.468  2.2495  0.8860  0.2151
  417TMC3    H2 6281   0.325   0.736  11.768  2.0363  0.6453  0.3256
  417TMC3    C7 6282   0.348   0.692  11.507  0.1257 -0.5815 -0.1827
  417TMC3    C8 6283   0.394   0.604  11.977  0.5101 -0.3675 -0.0672
  417TMC3    O1 6284   0.401   0.693  11.396  0.5523 -0.3350  0.3332
  417TMC3    O2 6285   0.297   0.674  11.994 -0.2130  0.6690  1.0415
  418TMC3    C1 6286   4.489   1.687   0.231 -0.3444 -0.2106  0.5065
  418TMC3    C2 6287   4.366   1.751   0.246 -0.5502 -0.4354  0.5925
  418TMC3    C3 6288   4.290   1.727   0.353 -0.0733 -0.0510  0.2005
  418TMC3    C4 6289   4.546   1.623   0.335 -0.5193  0.4050 -1.1459
  418TMC3    C5 6290   4.469   1.606   0.446 -0.0699  0.4597  0.1400
  418TMC3    C6 6291   4.343   1.660   0.459  0.6260 -0.1887  1.2041
  418TMC3     C 6292   4.559   1.697   0.106 -0.5014 -0.7038 -0.0011
  418TMC3     O 6293   4.524   1.786   0.027 -0.3279 -0.5741  0.1861
  418TMC3     H 6294   4.314   1.779   0.155 -0.9232  1.2459  1.3219
  418TMC3    H1 6295   4.644   1.577   0.324 -0.4959  0.0548  0.5742
  418TMC3    H2 6296   4.295   1.656   0.556 -0.5203  0.2499  0.6447
  418TMC3    C7 6297   4.498   1.497   0.533 -0.2261 -0.4154 -0.1721
  418TMC3    C8 6298   4.152   1.752   0.358  0.3862 -0.2294  0.0954
  418TMC3    O1 6299   4.584   1.421   0.485  0.1146 -0.4192 -0.2670
  418TMC3    O2 6300   4.114   1.831   0.271  0.3860  0.0006 -0.0704
  419MPD2     C 6301   2.640   4.704  12.327 -0.0307 -0.5634 -0.1483
  419MPD2    C1 6302   2.568   0.092  12.323 -0.3243  0.5042  0.0682
  419MPD2    C2 6303   2.536   0.165  12.433 -0.6587 -0.3369 -0.3687
  419MPD2    C3 6304   2.583   0.118  12.554 -0.6835 -0.1787  0.6906
  419MPD2    C4 6305   2.656   4.730  12.561 -0.8799  0.5753  0.2123
  419MPD2    C5 6306   2.682   4.656  12.448  0.5370  0.4264  0.0323
  419MPD2     H 6307   2.489   0.262  12.421  1.1470  0.9469  2.9867
  419MPD2    H1 6308   2.683   4.688  12.657 -1.1746 -1.5827 -0.6364
  419MPD2    H2 6309   2.646   4.644  12.237  2.2635  1.6870 -1.5071
  419MPD2    H3 6310   2.717   4.555  12.466 -0.4595  0.1445  0.4143
  419MPD2     N 6311   2.569   0.215  12.662 -0.0384  0.1033  0.1450
  419MPD2    H5 6312   2.502   0.289  12.643  0.5477  0.3459 -1.0035
  419MPD2    N1 6313   2.526   0.151  12.199  0.3813 -0.0278  0.2364
  419MPD2    H7 6314   2.469   0.235  12.198 -0.0432 -0.3074  0.6832
  420TMC3    C1 6315   2.641   0.332  12.859 -0.5623 -0.2314  0.3951
  420TMC3    C2 6316   2.558   0.430  12.808  0.3040 -0.1856 -0.7309
  420TMC3    C3 6317   2.606   0.558  12.799 -0.3104  0.0447  0.6127
  420TMC3    C4 6318   2.755   0.371  12.930 -0.2916 -0.2361 -0.4733
  420TMC3    C5 6319   2.797   0.494  12.917 -0.8922  0.1308 -0.3134
  420TMC3    C6 6320   2.727   0.592  12.856  0.0375 -0.8932  0.1181
  420TMC3     C 6321   2.639   0.208  12.776 -0.0607 -0.4865  0.1177
  420TMC3     O 6322   2.713   0.127  12.826  0.6113  0.5008 -0.8509
  420TMC3     H 6323   2.464   0.397  12.764 -0.4529 -0.6314  1.1998
  420TMC3    H1 6324   2.802   0.295  12.991  1.0131  0.9206 -0.0389
  420TMC3    H2 6325   2.764   0.693  12.861  1.4527 -1.4222  0.3375
  420TMC3    C7 6326   2.897   0.545  13.007  0.0073  0.1891  1.3823
  420TMC3    C8 6327   2.536   0.649  12.715  0.1828  0.4559 -1.0330
  420TMC3    O1 6328   2.943   0.653  12.980  0.2121  0.3037  0.0894
  420TMC3    O2 6329   2.420   0.626  12.689 -0.0534  0.2566 -0.2579
  421TMC3    C1 6330   4.299   2.088  13.977  0.2215  0.3080 -0.0278
  421TMC3    C2 6331   4.308   2.156  14.095  0.6616 -0.2693  0.1871
  421TMC3    C3 6332   4.417   2.134  14.180  0.0506 -0.2071 -0.2118
  421TMC3    C4 6333   4.388   1.987  13.939 -0.0947 -0.1833 -0.0956
  421TMC3    C5 6334   4.494   1.972  14.024 -0.1923 -0.6194  0.5426
  421TMC3    C6 6335   4.510   2.043  14.141 -0.1932 -0.5496  0.3149
  421TMC3     C 6336   4.184   2.121  13.898  0.1344 -0.2075 -0.7471
  421TMC3     O 6337   4.117   2.218  13.931 -0.2927 -0.5752 -0.0398
  421TMC3     H 6338   4.223   2.217  14.123  0.6968 -0.2231  0.1934
  421TMC3    H1 6339   4.387   1.923  13.851  0.4007 -0.9652  0.4708
  421TMC3    H2 6340   4.601   2.028  14.198  0.9162  0.4138 -1.1933
  421TMC3    C7 6341   4.566   1.843  14.035  0.1301 -0.5164 -0.1185
  421TMC3    C8 6342   4.431   2.185  14.314  0.1410 -0.8653  0.1594
  421TMC3    O1 6343   4.658   1.830  14.119 -0.3616 -0.0036  0.1479
  421TMC3    O2 6344   4.527   2.142  14.378 -0.1250  0.0202  0.2817
  422TMC3    C1 6345   1.644   2.982  12.648  0.0871  0.5709 -0.0403
  422TMC3    C2 6346   1.597   3.109  12.682  0.4086  0.3537  0.2249
  422TMC3    C3 6347   1.479   3.124  12.744  0.4827  0.9002  0.4287
  422TMC3    C4 6348   1.567   2.872  12.670 -0.2842  0.7680 -0.1022
  422TMC3    C5 6349   1.444   2.897  12.734 -0.5861  1.0987 -0.8285
  422TMC3    C6 6350   1.397   3.018  12.759  0.6068  0.1287  0.3338
  422TMC3     C 6351   1.755   2.980  12.553 -0.9398  0.1639 -0.1017
  422TMC3     O 6352   1.848   3.061  12.560 -0.8048  0.6164 -0.2368
  422TMC3     H 6353   1.654   3.199  12.661 -0.0081  0.8871  1.3510
  422TMC3    H1 6354   1.606   2.775  12.643  1.6219  1.0399  1.7524
  422TMC3    H2 6355   1.300   3.048  12.798  0.3335  1.7256 -1.5729
  422TMC3    C7 6356   1.382   2.775  12.786 -0.8314  0.5650  0.1480
  422TMC3    C8 6357   1.415   3.250  12.722 -0.3922 -0.4580  0.7780
  422TMC3    O1 6358   1.461   2.685  12.818  0.2770 -0.0428  0.1475
  422TMC3    O2 6359   1.346   3.264  12.622 -0.1740 -0.1417 -0.0437
  423MPD2     C 6360   3.229   4.032   0.425  0.0049  0.3699 -0.2932
  423MPD2    C1 6361   3.100   3.984   0.462  0.6579 -0.0051  0.3225
  423MPD2    C2 6362   3.036   3.870   0.400  0.0673  0.2470  0.1175
  423MPD2    C3 6363   3.103   3.821   0.288  0.1885  0.5024  0.6913
  423MPD2    C4 6364   3.216   3.879   0.237 -0.0493  0.1291  0.7894
  423MPD2    C5 6365   3.281   3.977   0.312 -0.1008  0.2794 -0.1079
  423MPD2     H 6366   2.951   3.829   0.454 -1.5887  1.1937 -1.7498
  423MPD2    H1 6367   3.262   3.846   0.145 -1.5573 -1.8018  0.7165
  423MPD2    H2 6368   3.273   4.119   0.473  1.3853 -1.8413  2.4655
  423MPD2    H3 6369   3.369   4.023   0.269  0.2293 -0.0294  0.2320
  423MPD2     N 6370   3.048   3.713   0.211 -0.2494 -0.8333  0.1143
  423MPD2    H5 6371   3.100   3.681   0.130  0.5789  0.8172 -0.0151
  423MPD2    N1 6372   3.032   4.034   0.571 -0.5239 -0.4439  0.8009
  423MPD2    H7 6373   2.939   4.004   0.598 -0.7822 -2.0232 -1.8735
  424TMC3    C1 6374   3.004   4.151   0.770  1.0828 -0.4218 -0.1978
  424TMC3    C2 6375   3.050   4.121   0.900 -0.0741  0.0472  0.1489
  424TMC3    C3 6376   2.954   4.104   1.001 -0.4737 -0.7780 -0.1080
  424TMC3    C4 6377   2.867   4.173   0.750  0.2029 -0.1030 -0.4691
  424TMC3    C5 6378   2.783   4.169   0.854 -0.1060  0.8923  0.2456
  424TMC3    C6 6379   2.824   4.141   0.982 -0.3769 -0.3872 -0.0608
  424TMC3     C 6380   3.095   4.113   0.665 -0.1624  0.1384 -0.3213
  424TMC3     O 6381   3.212   4.142   0.679 -0.5481 -0.3450 -0.6344
  424TMC3     H 6382   3.149   4.080   0.915  0.3966  0.8161 -0.8982
  424TMC3    H1 6383   2.824   4.205   0.656 -1.0281  1.0731  0.5116
  424TMC3    H2 6384   2.752   4.117   1.060 -0.7367 -1.8014 -0.8262
  424TMC3    C7 6385   2.638   4.193   0.825  0.3641 -0.4238 -0.0522
  424TMC3    C8 6386   2.983   4.019   1.112  0.7017  0.2296 -0.0562
  424TMC3    O1 6387   2.594   4.139   0.725  0.1127 -0.0687 -0.0011
  424TMC3    O2 6388   2.889   3.950   1.150 -0.4621 -0.0328  0.1470
  425MPD2     C 6389   2.377   2.806  17.384  0.3856 -0.0356 -0.2074
  425MPD2    C1 6390   2.342   2.711  17.471 -0.3192  0.0185  0.4990
  425MPD2    C2 6391   2.246   2.738  17.564  0.0426 -0.0992 -0.2365
  425MPD2    C3 6392   2.191   2.863  17.569 -0.0355  0.1082 -0.2233
  425MPD2    C4 6393   2.229   2.961  17.487 -0.4760  0.3559 -0.1937
  425MPD2    C5 6394   2.330   2.934  17.392 -0.6824 -0.3928 -0.0859
  425MPD2     H 6395   2.212   2.663  17.635  0.2871  1.0953  1.1412
  425MPD2    H1 6396   2.195   3.064  17.494  1.7174  0.9881  1.1534
  425MPD2    H2 6397   2.446   2.779  17.304 -0.6409  0.2118 -1.1753
  425MPD2    H3 6398   2.372   3.014  17.333  2.5708 -2.4822 -0.5935
  425MPD2     N 6399   2.092   2.872  17.672  0.2310 -0.2301  0.2382
  425MPD2    H5 6400   2.057   2.788  17.716  0.5737 -1.1271 -1.2017
  425MPD2    N1 6401   2.408   2.586  17.469 -0.1502 -0.3902  0.2878
  425MPD2    H7 6402   2.482   2.572  17.401  1.5298  2.2000  1.5889
  426TMC3    C1 6403   2.482   2.375  17.533  0.3762 -0.1745 -0.6345
  426TMC3    C2 6404   2.469   2.317  17.409  0.3682  0.1817  0.3582
  426TMC3    C3 6405   2.531   2.198  17.387  0.0434  0.1623 -0.0081
  426TMC3    C4 6406   2.517   2.297  17.641 -0.2539 -0.1560 -0.1746
  426TMC3    C5 6407   2.590   2.181  17.618 -0.3100 -0.8187 -0.3670
  426TMC3    C6 6408   2.600   2.133  17.490 -0.7094  1.0661 -0.4839
  426TMC3     C 6409   2.385   2.477  17.549 -0.5177  0.5916 -0.1548
  426TMC3     O 6410   2.311   2.476  17.648  0.3638 -0.3554 -0.4038
  426TMC3     H 6411   2.436   2.371  17.322 -0.4021 -0.7965  0.0329
  426TMC3    H1 6412   2.514   2.340   0.012 -0.0363  0.6650 -0.5190
  426TMC3    H2 6413   2.655   2.041  17.476  0.4727  1.5890  0.6487
  426TMC3    C7 6414   2.598   2.077  17.718  0.4908 -0.7985 -0.2880
  426TMC3    C8 6415   2.482   2.115  17.283  0.3191  0.3571  0.3271
  426TMC3    O1 6416   2.683   1.986  17.707 -0.3590  0.5269 -0.5627
  426TMC3    O2 6417   2.567   2.032  17.246  0.0834  0.3302 -0.2050
  427MPD2     C 6418   0.755   4.407  14.535  0.7667  0.6426 -0.4322
  427MPD2    C1 6419   0.729   4.423  14.667  0.0259  0.0711  0.1989
  427MPD2    C2 6420   0.624   4.503  14.711  0.4377  0.7624 -0.1733
  427MPD2    C3 6421   0.528   4.545  14.621  0.1824  0.0854  0.2978
  427MPD2    C4 6422   0.547   4.519  14.488 -0.3247  0.0058 -0.5298
  427MPD2    C5 6423   0.662   4.462  14.441  0.6964 -0.5355 -0.3326
  427MPD2     H 6424   0.613   4.520  14.818 -0.3460 -2.7110  0.3128
  427MPD2    H1 6425   0.474   4.547  14.413  1.4527 -0.3051 -2.3874
  427MPD2    H2 6426   0.839   4.352  14.492 -0.3365 -0.3296 -1.3440
  427MPD2    H3 6427   0.681   4.453  14.335  2.6799  0.5473 -0.0665
  427MPD2     N 6428   0.413   4.617  14.657 -0.4371  0.0901  0.1265
  427MPD2    H5 6429   0.349   4.645  14.584  1.3275 -1.0526 -1.8667
  427MPD2    N1 6430   0.831   4.380  14.757 -0.0615  0.2640  0.2389
  427MPD2    H7 6431   0.830   4.412  14.853  0.2651 -0.7131  0.5713
  428TMC3    C1 6432   0.965   4.217  14.864 -0.8341  0.7097 -0.5030
  428TMC3    C2 6433   0.987   4.082  14.873  0.3205  0.2647  0.3392
  428TMC3    C3 6434   1.098   4.040  14.935  0.7168  0.5602 -0.0759
  428TMC3    C4 6435   1.074   4.296  14.899  0.2099 -0.0606  0.3244
  428TMC3    C5 6436   1.193   4.250  14.942 -0.7524 -0.1805  0.1432
  428TMC3    C6 6437   1.205   4.116  14.974  0.0310  0.4891  0.8273
  428TMC3     C 6438   0.896   4.257  14.740  0.9151 -0.4686  0.0682
  428TMC3     O 6439   0.898   4.175  14.647  0.0510  0.9195 -0.2845
  428TMC3     H 6440   0.907   4.013  14.847  0.4284  0.6940 -1.1425
  428TMC3    H1 6441   1.059   4.398  14.867 -0.6763 -0.8260 -1.7108
  428TMC3    H2 6442   1.296   4.066  15.005 -0.6534 -1.6464 -0.6689
  428TMC3    C7 6443   1.309   4.342  14.946 -0.1114  0.0593 -0.0854
  428TMC3    C8 6444   1.126   3.902  14.918  0.4407 -0.1306  0.4780
  428TMC3    O1 6445   1.290   4.463  14.936  0.1297  0.0157  0.2065
  428TMC3    O2 6446   1.242   3.889  14.882 -0.3341  0.0726 -0.0955
  429MPD2     C 6447   1.693   0.092  17.632  0.0617 -0.4672  0.2620
  429MPD2    C1 6448   1.812   0.019  17.607 -0.1229  0.0398  0.2064
  429MPD2    C2 6449   1.918   0.082  17.555 -1.1164  0.3055 -0.1423
  429MPD2    C3 6450   1.913   0.220  17.517 -0.7012 -0.7595  0.1584
  429MPD2    C4 6451   1.796   0.286  17.542 -0.0980 -0.0720  0.1312
  429MPD2    C5 6452   1.693   0.228  17.614  0.4791 -0.0254  0.3008
  429MPD2     H 6453   2.009   0.027  17.537 -0.8560  0.3749  0.9794
  429MPD2    H1 6454   1.775   0.389  17.516  1.3067 -0.1021 -1.1428
  429MPD2    H2 6455   1.604   0.052  17.678 -0.0451  1.6631  1.9136
  429MPD2    H3 6456   1.605   0.289  17.632 -0.5867 -1.7798  1.0172
  429MPD2     N 6457   2.018   0.273  17.443  1.1867  0.5510 -0.3386
  429MPD2    H5 6458   2.098   0.215  17.419  1.8443  0.4870  1.9478
  429MPD2    N1 6459   1.813   4.609  17.625 -0.2445  0.5858 -0.2077
  429MPD2    H7 6460   1.897   4.556  17.604 -2.0259 -2.9766  1.8871
  430TMC3    C1 6461   2.139   0.429  17.316 -0.3365  0.3145 -0.6767
  430TMC3    C2 6462   2.149   0.541  17.235 -0.0385  0.0361  0.5277
  430TMC3    C3 6463   2.261   0.569  17.165 -0.3872  0.1155 -0.3239
  430TMC3    C4 6464   2.255   0.353  17.329 -0.6874 -0.7007 -0.0066
  430TMC3    C5 6465   2.372   0.397  17.271  0.2823 -0.5079  0.1209
  430TMC3    C6 6466   2.379   0.507  17.188  0.0578  0.5261  0.3814
  430TMC3     C 6467   2.010   0.390  17.366 -0.3816  0.3266 -0.2954
  430TMC3     O 6468   1.917   0.470  17.352  0.2645 -0.7542 -0.4403
  430TMC3     H 6469   2.054   0.593  17.226 -0.2002 -0.4025 -0.3584
  430TMC3    H1 6470   2.264   0.256  17.377 -0.9751 -0.9900 -0.5360
  430TMC3    H2 6471   2.458   0.524  17.116 -1.6239  1.0940 -1.3531
  430TMC3    C7 6472   2.449   0.289  17.211 -0.0218  0.5714  0.1660
  430TMC3    C8 6473   2.235   0.623  17.025 -0.0164 -0.2308 -0.4403
  430TMC3    O1 6474   2.399   0.180  17.212  0.2579 -0.3146  0.5085
  430TMC3    O2 6475   2.314   0.591  16.935  0.1858 -0.4623 -0.6119
  431MPD2     C 6476   2.964   0.599  12.570 -0.4959  0.1368 -0.2277
  431MPD2    C1 6477   2.948   0.690  12.466  0.2170 -0.0336  0.4505
  431MPD2    C2 6478   2.894   0.652  12.347  0.2700 -0.2598  0.0330
  431MPD2    C3 6479   2.846   0.521  12.330 -1.0830 -0.2571  0.2484
  431MPD2    C4 6480   2.853   0.437  12.438  0.0866  0.4412 -0.1618
  431MPD2    C5 6481   2.910   0.478  12.557 -0.2419 -0.3714  0.2110
  431MPD2     H 6482   2.893   0.727  12.269  2.3698 -2.4019 -2.0599
  431MPD2    H1 6483   2.826   0.334  12.419  0.7200  1.0375 -4.1570
  431MPD2    H2 6484   3.012   0.621  12.665  0.0961 -0.4386 -0.3901
  431MPD2    H3 6485   2.903   0.418  12.648  2.5038 -1.2778 -0.1749
  431MPD2     N 6486   2.779   0.470  12.214 -0.2294  0.6852  0.4786
  431MPD2    H5 6487   2.782   0.370  12.200  0.4220  0.7315  0.2803
  431MPD2    N1 6488   2.994   0.827  12.478 -0.5912 -0.2108  0.1719
  431MPD2    H7 6489   2.978   0.891  12.401 -0.1562 -0.4409 -0.1089
  432TMC3    C1 6490   2.697   0.452  12.003  0.2134  0.0614  0.3787
  432TMC3    C2 6491   2.770   0.436  11.888 -0.2073  0.3447 -0.1302
  432TMC3    C3 6492   2.753   0.316  11.816  0.0858  0.4586  0.8386
  432TMC3    C4 6493   2.608   0.361  12.052 -0.1200 -0.3340 -0.1843
  432TMC3    C5 6494   2.597   0.239  11.988  0.1529 -0.5894 -0.2558
  432TMC3    C6 6495   2.667   0.217  11.866 -0.6972 -0.4035  0.5054
  432TMC3     C 6496   2.748   0.544  12.104  0.1591 -0.6223  0.0065
  432TMC3     O 6497   2.791   0.654  12.064 -0.1814 -0.2604 -0.3014
  432TMC3     H 6498   2.831   0.520  11.855  1.8056 -0.7215  0.9076
  432TMC3    H1 6499   2.569   0.383  12.150  0.1170  2.7672 -0.7749
  432TMC3    H2 6500   2.662   0.120  11.819 -0.8309  0.1456 -0.6222
  432TMC3    C7 6501   2.581   0.120  12.077 -0.4741 -0.3902 -0.4026
  432TMC3    C8 6502   2.837   0.275  11.697  0.4943  0.5681  0.6795
  432TMC3    O1 6503   2.653   0.034  12.033  0.5318 -0.0209 -0.3687
  432TMC3    O2 6504   2.794   0.204  11.607 -0.7598 -0.2818  0.1563
  433MPD2     C 6505   1.765   4.171  10.970 -0.3714  0.1459  0.9064
  433MPD2    C1 6506   1.680   4.068  11.008 -0.7423 -0.0606 -0.0179
  433MPD2    C2 6507   1.632   4.066  11.140 -0.0701 -0.2177 -0.2632
  433MPD2    C3 6508   1.676   4.160  11.233  0.3390 -0.4909 -0.7968
  433MPD2    C4 6509   1.755   4.265  11.193 -0.2326  0.2590  0.2261
  433MPD2    C5 6510   1.799   4.268  11.062 -0.0020  0.1280 -0.6231
  433MPD2     H 6511   1.569   3.982  11.166  0.0896 -0.2259  0.0944
  433MPD2    H1 6512   1.801   4.339  11.258  2.4615 -0.9142 -0.3302
  433MPD2    H2 6513   1.814   4.182  10.874 -2.1653 -0.6159 -0.0891
  433MPD2    H3 6514   1.867   4.348  11.034 -0.3952  0.2145 -1.3235
  433MPD2     N 6515   1.658   4.135  11.375 -0.4304 -0.1244 -0.0409
  433MPD2    H5 6516   1.624   4.047  11.411 -1.0533  0.1144 -0.0387
  433MPD2    N1 6517   1.658   3.976  10.900 -0.2587  0.0580  0.1695
  433MPD2    H7 6518   1.721   3.982  10.821 -0.5663 -0.7875 -0.1466
  434TMC3    C1 6519   1.581   3.810  10.771  0.1675  0.1360  0.7734
  434TMC3    C2 6520   1.699   3.744  10.776  0.1378  0.1131 -0.3271
  434TMC3    C3 6521   1.728   3.645  10.682  0.2092 -1.0002 -0.5895
  434TMC3    C4 6522   1.481   3.781  10.686  0.1258 -0.6146 -0.3546
  434TMC3    C5 6523   1.509   3.670  10.603  0.0554  0.1112  0.1985
  434TMC3    C6 6524   1.632   3.616  10.590 -0.0356 -0.3258 -0.3339
  434TMC3     C 6525   1.554   3.893  10.882 -0.4707  0.3585  0.3613
  434TMC3     O 6526   1.451   3.878  10.945 -0.0390 -0.2325  0.0795
  434TMC3     H 6527   1.764   3.754  10.862 -0.6398  0.3500  0.2399
  434TMC3    H1 6528   1.385   3.832  10.684  0.5802  0.1869 -1.9949
  434TMC3    H2 6529   1.642   3.538  10.516 -0.6541 -1.4747  0.8031
  434TMC3    C7 6530   1.404   3.630  10.508  0.8781  0.3403  0.3275
  434TMC3    C8 6531   1.824   3.542  10.709  0.0615  0.5447 -0.9469
  434TMC3    O1 6532   1.325   3.714  10.471 -0.6135  0.1321  0.0209
  434TMC3    O2 6533   1.826   3.452  10.626 -0.5640 -0.7835  0.3920
  435MPD2     C 6534   3.872   3.557  15.531  0.1763  0.5162  0.0315
  435MPD2    C1 6535   3.865   3.616  15.653  0.0582 -1.0084  0.1178
  435MPD2    C2 6536   3.979   3.629  15.731  0.3022  0.0362  0.1124
  435MPD2    C3 6537   4.097   3.569  15.700 -0.3262  0.4797  0.4774
  435MPD2    C4 6538   4.108   3.504  15.576  0.1221  0.1571 -0.3529
  435MPD2    C5 6539   3.995   3.498  15.495 -0.5339 -0.9895  0.5544
  435MPD2     H 6540   3.964   3.673  15.829  1.0307  1.1772 -0.2799
  435MPD2    H1 6541   4.195   3.450  15.540 -0.7517 -0.7869 -1.0523
  435MPD2    H2 6542   3.792   3.548  15.458 -0.5519  1.2056  0.7505
  435MPD2    H3 6543   4.005   3.441  15.403  1.3944 -2.0372  1.4096
  435MPD2     N 6544   4.187   3.573  15.804 -0.8592  0.3363 -0.2508
  435MPD2    H5 6545   4.147   3.600  15.893 -1.0940 -1.7890  0.2964
  435MPD2    N1 6546   3.746   3.675  15.702 -0.0922 -0.5175 -0.4824
  435MPD2    H7 6547   3.751   3.709  15.797  0.4031 -0.6087 -0.4780
  436TMC3    C1 6548   3.457   3.887  15.899 -0.5813 -0.7811 -0.0174
  436TMC3    C2 6549   3.555   3.804  15.849  0.1223  0.0311 -0.7491
  436TMC3    C3 6550   3.525   3.741  15.728  0.8074  0.6728 -0.0778
  436TMC3    C4 6551   3.337   3.906  15.838  0.9021  0.2784 -0.2340
  436TMC3    C5 6552   3.315   3.839  15.722 -0.7023  0.4257  0.2816
  436TMC3    C6 6553   3.404   3.753  15.669  0.9912 -0.1821 -0.0448
  436TMC3     C 6554   3.487   3.964  16.012  0.9813  0.4081 -0.4639
  436TMC3     O 6555   3.608   3.981  16.034 -0.1246  0.3514 -0.3791
  436TMC3     H 6556   3.644   3.792  15.909 -1.0545 -3.5615  0.2804
  436TMC3    H1 6557   3.264   3.978  15.873  1.6215 -0.2287  2.3079
  436TMC3    H2 6558   3.374   3.686  15.589 -1.2111  0.6544  0.0879
  436TMC3    C7 6559   3.177   3.838  15.681 -0.8599  0.0173  0.0810
  436TMC3    C8 6560   3.623   3.668  15.640  0.7650  0.5739 -0.6926
  436TMC3    O1 6561   3.103   3.912  15.743 -0.2032 -0.2648  0.2939
  436TMC3    O2 6562   3.586   3.630  15.531 -0.3927  0.6716 -0.2847
  437TMC3    C1 6563   2.234   1.354  12.606  0.0748 -0.3415  0.0988
  437TMC3    C2 6564   2.099   1.376  12.597  0.0434 -0.3931 -0.6681
  437TMC3    C3 6565   2.044   1.494  12.544 -0.4735 -0.1286  0.5443
  437TMC3    C4 6566   2.321   1.447  12.558 -0.0002 -0.5794  0.0005
  437TMC3    C5 6567   2.270   1.568  12.511 -0.3179 -0.0649 -0.4936
  437TMC3    C6 6568   2.135   1.589  12.498  0.3433 -0.2157 -0.3277
  437TMC3     C 6569   2.272   1.263  12.717  0.5158 -0.5202  0.0181
  437TMC3     O 6570   2.185   1.191  12.768  0.0077 -0.2467 -0.0564
  437TMC3     H 6571   2.040   1.289  12.624  2.0149 -2.0293 -1.6525
  437TMC3    H1 6572   2.427   1.439  12.580 -0.3241 -0.0296  1.7901
  437TMC3    H2 6573   2.089   1.681  12.464  0.5497  0.5210  1.3612
  437TMC3    C7 6574   2.346   1.686  12.475  0.1840 -0.2423 -0.3434
  437TMC3    C8 6575   1.897   1.512  12.544  0.0320 -0.6015 -0.8010
  437TMC3    O1 6576   2.281   1.776  12.424  0.7656 -0.0069 -0.4592
  437TMC3    O2 6577   1.855   1.606  12.477 -0.2333 -0.2276 -0.1713
  438MPD2     C 6578   4.615   1.937  16.510  0.5110  0.3043  0.3584
  438MPD2    C1 6579   4.707   1.907  16.608  0.5402 -0.3143  1.0259
  438MPD2    C2 6580   4.662   1.859  16.730 -0.2033 -0.3614  0.3667
  438MPD2    C3 6581   4.526   1.825  16.754  0.4390  0.8268 -0.5316
  438MPD2    C4 6582   4.440   1.883  16.665 -0.2538 -0.7298 -0.7500
  438MPD2    C5 6583   4.481   1.927  16.539  0.9775  0.1878  0.1368
  438MPD2     H 6584   0.010   1.839  16.800 -0.8481 -1.0540  0.9143
  438MPD2    H1 6585   4.332   1.883  16.678 -0.1770 -0.8636 -0.1089
  438MPD2    H2 6586   4.640   1.969  16.410 -1.4589  1.3613  0.2058
  438MPD2    H3 6587   4.405   1.968  16.473  0.8989 -0.8653 -0.4210
  438MPD2     N 6588   4.481   1.753  16.865  0.0928  0.1244 -0.4007
  438MPD2    H5 6589   4.382   1.742  16.880  0.3859  0.7950  2.0881
  438MPD2    N1 6590   0.116   1.899  16.590 -0.1909  1.0220  0.7259
  438MPD2    H7 6591   0.171   1.869  16.669 -0.5695 -1.2889  0.1313
  439TMC3    C1 6592   0.300   1.831  16.474 -0.2245  0.3855  0.5710
  439TMC3    C2 6593   0.379   1.887  16.379 -0.1365 -0.1783  0.5714
  439TMC3    C3 6594   0.510   1.876  16.389 -0.0362  0.4423 -0.4271
  439TMC3    C4 6595   0.349   1.774  16.592  0.4119 -0.0707 -0.0630
  439TMC3    C5 6596   0.483   1.776  16.603  0.3873  0.3074  0.0885
  439TMC3    C6 6597   0.562   1.816  16.500 -0.0578 -0.7697 -0.4414
  439TMC3     C 6598   0.171   1.885  16.468  0.4739  0.4765  0.9581
  439TMC3     O 6599   0.114   1.887  16.358 -0.5141 -0.3633  0.0815
  439TMC3     H 6600   0.339   1.941  16.294  1.6372 -1.4233 -1.0690
  439TMC3    H1 6601   0.288   1.740  16.675  1.6111  0.7346  1.1416
  439TMC3    H2 6602   0.671   1.815  16.508 -0.1609  0.5693  1.1818
  439TMC3    C7 6603   0.546   1.719  16.723 -0.7025  0.4154  0.0958
  439TMC3    C8 6604   0.574   1.821  16.275 -0.1197  0.2449 -0.2762
  439TMC3    O1 6605   0.662   1.677  16.706  0.0043 -0.2750  0.3695
  439TMC3    O2 6606   0.665   1.738  16.296 -0.7258  0.1301 -0.3521
  440MPD2     C 6607   4.134   2.546  15.144  0.2341  0.1367 -0.6601
  440MPD2    C1 6608   4.082   2.609  15.257 -0.0973 -0.2944  0.1436
  440MPD2    C2 6609   4.144   2.585  15.381 -0.0339 -0.0770  0.6722
  440MPD2    C3 6610   4.246   2.494  15.394  0.5533 -0.2644  0.0601
  440MPD2    C4 6611   4.306   2.442  15.282  0.5913 -0.6771 -0.6500
  440MPD2    C5 6612   4.241   2.462  15.160  0.9342  0.6617 -0.4916
  440MPD2     H 6613   4.099   2.640  15.463 -1.0235  0.2856 -0.1254
  440MPD2    H1 6614   4.377   2.361  15.296  0.0557 -0.6535  2.1429
  440MPD2    H2 6615   4.104   2.565  15.042  1.1627 -1.0191 -1.1457
  440MPD2    H3 6616   4.281   2.411  15.073  1.7239 -0.5430  0.5868
  440MPD2     N 6617   4.297   2.465  15.521  0.3036 -0.0798 -1.0693
  440MPD2    H5 6618   4.382   2.410  15.518 -0.0703 -0.7380  0.3653
  440MPD2    N1 6619   3.970   2.697  15.261  0.5221 -0.2170  0.4612
  440MPD2    H7 6620   3.936   2.727  15.352 -0.5219 -1.8287  0.6058
  441TMC3    C1 6621   4.331   2.461  15.748  0.5491  0.2071 -0.3489
  441TMC3    C2 6622   4.357   2.550  15.852 -0.7498  0.0058 -0.1116
  441TMC3    C3 6623   4.365   2.499  15.978 -0.0749  0.2358 -0.9556
  441TMC3    C4 6624   4.317   2.330  15.767  0.0298 -0.4324  0.8628
  441TMC3    C5 6625   4.343   2.284  15.892  0.0827  0.7945  0.0412
  441TMC3    C6 6626   4.388   2.365  15.996  0.3594 -0.4587 -0.4554
  441TMC3     C 6627   4.249   2.507  15.640 -0.4500  0.6341  0.6312
  441TMC3     O 6628   4.190   2.615  15.664 -0.0364  0.1229 -0.1747
  441TMC3     H 6629   4.348   2.656  15.834 -2.0682 -0.1384 -0.3205
  441TMC3    H1 6630   4.281   2.259  15.692 -0.9448 -1.2743  2.1346
  441TMC3    H2 6631   4.405   2.315  16.091  0.9925 -1.2980 -1.0154
  441TMC3    C7 6632   4.277   2.162  15.932  0.3311 -0.3387  0.4358
  441TMC3    C8 6633   4.247   2.534  16.060 -0.7191  0.2294  0.1628
  441TMC3    O1 6634   4.162   2.148  15.891 -0.3839  0.3920  0.6408
  441TMC3    O2 6635   4.242   2.488  16.172  0.1114  0.4351 -0.3727
  442MPD2     C 6636   2.475   2.168  16.827 -0.0763 -0.4083 -0.4238
  442MPD2    C1 6637   2.359   2.231  16.804  0.5236 -0.1272 -0.4570
  442MPD2    C2 6638   2.285   2.204  16.691 -0.0079  0.7514 -0.8047
  442MPD2    C3 6639   2.319   2.107  16.598  0.0699 -0.3314 -0.4952
  442MPD2    C4 6640   2.439   2.042  16.626  0.3443  0.8220 -0.2206
  442MPD2    C5 6641   2.517   2.077  16.736 -0.2715  0.0542  0.1056
  442MPD2     H 6642   2.194   2.259  16.670 -1.1313 -0.8866 -0.2703
  442MPD2    H1 6643   2.478   1.972  16.554 -0.5086  0.7342 -0.6014
  442MPD2    H2 6644   2.529   2.174  16.921 -0.8174  1.0136 -0.0847
  442MPD2    H3 6645   2.603   2.015  16.762 -0.9561 -0.6276  0.7659
  442MPD2     N 6646   2.233   2.057  16.494 -0.1509 -0.1251 -0.0436
  442MPD2    H5 6647   2.266   1.987  16.428  0.0630 -0.3151  0.2631
  442MPD2    N1 6648   2.308   2.333  16.887 -0.4398  0.4818 -0.1113
  442MPD2    H7 6649   2.222   2.375  16.853  0.0650  1.0128 -0.7204
  443TMC3    C1 6650   2.291   2.494  17.066 -0.0547 -0.1502  0.1012
  443TMC3    C2 6651   2.260   2.604  16.985  0.5198  0.1081  1.1925
  443TMC3    C3 6652   2.164   2.695  17.021  0.6701 -0.3061 -0.6879
  443TMC3    C4 6653   2.225   2.480  17.186 -0.5677  0.5702 -0.8487
  443TMC3    C5 6654   2.128   2.570  17.215  0.0871 -0.6736  0.2609
  443TMC3    C6 6655   2.092   2.682  17.140 -0.2234 -0.8638 -0.3732
  443TMC3     C 6656   2.364   2.378  17.011  0.0450 -0.0097 -0.7097
  443TMC3     O 6657   2.453   2.333  17.078  0.2438  0.3564 -0.8482
  443TMC3     H 6658   2.297   2.600  16.883 -0.1413  1.0621  0.9200
  443TMC3    H1 6659   2.249   2.390  17.242  0.6733 -0.4887 -3.1112
  443TMC3    H2 6660   2.007   2.744  17.164  0.4686  0.1401 -0.5085
  443TMC3    C7 6661   2.035   2.512  17.310 -0.2157 -0.4555 -0.5373
  443TMC3    C8 6662   2.094   2.762  16.913  0.2728 -0.0857  0.6285
  443TMC3    O1 6663   2.040   2.391  17.323 -0.4042 -0.2809  0.7386
  443TMC3    O2 6664   1.970   2.746  16.904 -0.4197 -0.0861 -0.1205
  444MPD2     C 6665   2.267   1.879  17.497  0.3350  0.4620 -0.0732
  444MPD2    C1 6666   2.169   1.816  17.423  1.0724 -0.5691 -0.0883
  444MPD2    C2 6667   2.210   1.709  17.339  0.3702 -0.3028  0.0391
  444MPD2    C3 6668   2.342   1.676  17.312 -0.1756 -0.2696 -0.0764
  444MPD2    C4 6669   2.439   1.745  17.373 -0.4526  0.0832  0.2456
  444MPD2    C5 6670   2.401   1.841  17.471  0.3028 -0.3682  0.8586
  444MPD2     H 6671   2.126   1.667  17.285  1.0126 -1.7452  0.1509
  444MPD2    H1 6672   2.543   1.733  17.345  0.5576  1.3515  3.4037
  444MPD2    H2 6673   2.233   1.946  17.575  0.5090 -0.3708  0.7151
  444MPD2    H3 6674   2.482   1.897  17.514  1.6396 -0.1429 -1.9582
  444MPD2     N 6675   2.363   1.573  17.218 -0.5128  0.4865 -0.3129
  444MPD2    H5 6676   2.280   1.523  17.188 -0.2343 -1.1543  1.6875
  444MPD2    N1 6677   2.031   1.842  17.436  0.1227  0.0497  0.4685
  444MPD2    H7 6678   1.962   1.777  17.399 -0.7928  1.5608 -0.4887
  445TMC3    C1 6679   2.487   1.405  17.107  0.2257  0.4851  0.1014
  445TMC3    C2 6680   2.392   1.385  17.010 -0.6494 -0.0166  0.8648
  445TMC3    C3 6681   2.403   1.276  16.925  0.8075  0.4169 -0.6557
  445TMC3    C4 6682   2.589   1.317  17.116 -0.1960  0.7944  0.5102
  445TMC3    C5 6683   2.610   1.220  17.014  0.4371  0.8352  0.4415
  445TMC3    C6 6684   2.508   1.190  16.924 -0.3676 -0.1536  0.5527
  445TMC3     C 6685   2.488   1.527  17.180 -0.5895  0.4658 -0.5538
  445TMC3     O 6686   2.600   1.554  17.218 -0.1046  0.3058  0.0295
  445TMC3     H 6687   2.310   1.453  16.991 -0.3817  0.2066  0.5059
  445TMC3    H1 6688   2.674   1.329  17.183  0.2112 -0.6039  0.2456
  445TMC3    H2 6689   2.530   1.134  16.833  0.5768  0.0440  0.6619
  445TMC3    C7 6690   2.743   1.228  16.962 -0.3282  0.7191 -0.1378
  445TMC3    C8 6691   2.302   1.241  16.829 -0.3958  1.2771  0.4486
  445TMC3    O1 6692   2.806   1.335  16.976 -0.2707 -0.4413  0.1828
  445TMC3    O2 6693   2.346   1.193  16.721 -0.5314  0.9821 -0.6430
  446MPD2     C 6694   1.468   3.337  10.968 -0.8748 -0.2021 -0.2289
  446MPD2    C1 6695   1.411   3.462  10.989 -0.0707 -0.5608 -0.5042
  446MPD2    C2 6696   1.494   3.561  11.041 -0.2156 -0.1560 -0.7590
  446MPD2    C3 6697   1.623   3.540  11.069  0.6835 -0.4333 -0.3830
  446MPD2    C4 6698   1.679   3.415  11.047 -0.2665  0.2521  0.4946
  446MPD2    C5 6699   1.598   3.315  10.993 -0.1472  0.3315  0.4686
  446MPD2     H 6700   1.452   3.659  11.061  1.7211  0.9636 -2.0665
  446MPD2    H1 6701   1.784   3.393  11.059 -0.5014 -1.5267 -0.6963
  446MPD2    H2 6702   1.411   3.250  10.937  0.0823 -0.9261  0.0274
  446MPD2    H3 6703   1.647   3.220  10.976  1.3174  1.0700  0.6368
  446MPD2     N 6704   1.701   3.650  11.124  0.0664  0.2451  0.1475
  446MPD2    H5 6705   1.652   3.739  11.132 -0.7176 -0.1141 -0.7505
  446MPD2    N1 6706   1.281   3.490  10.951 -0.1609  1.0367  0.0654
  446MPD2    H7 6707   1.219   3.557  10.995  0.1296  1.5999 -0.3902
  447TMC3    C1 6708   1.888   3.763  11.222  0.4210  0.2149 -0.0744
  447TMC3    C2 6709   1.912   3.835  11.106 -0.1411 -0.0271  0.1659
  447TMC3    C3 6710   2.039   3.870  11.073  0.3856 -0.2254  0.1091
  447TMC3    C4 6711   1.986   3.757  11.322  0.8542  0.3776  0.2055
  447TMC3    C5 6712   2.107   3.808  11.288  0.1270  0.1280  0.7380
  447TMC3    C6 6713   2.139   3.863  11.167  0.1463  0.0441  0.6248
  447TMC3     C 6714   1.826   3.635  11.184 -0.1301  0.2999  0.4250
  447TMC3     O 6715   1.892   3.537  11.219 -0.0750 -0.2328  0.5522
  447TMC3     H 6716   1.832   3.846  11.034  0.3590  1.7154 -0.1320
  447TMC3    H1 6717   1.960   3.696  11.408 -2.9086  2.4023  0.5290
  447TMC3    H2 6718   2.241   3.878  11.133  0.4715  1.7635  2.3748
  447TMC3    C7 6719   2.211   3.751  11.353  0.4171 -0.4905  0.2959
  447TMC3    C8 6720   2.044   3.969  10.968  0.5541  0.1478 -0.0115
  447TMC3    O1 6721   2.288   3.696  11.280 -0.3131  0.2983 -0.6448
  447TMC3    O2 6722   1.965   3.957  10.871  0.2246 -0.1496  0.4544
  448TMC3    C1 6723   4.293   3.018  17.139 -0.4586 -0.1967  0.1099
  448TMC3    C2 6724   4.338   3.006  17.012  0.3579 -0.1310 -0.6215
  448TMC3    C3 6725   4.357   2.878  16.977  0.2690 -0.2421  0.0290
  448TMC3    C4 6726   4.265   2.915  17.226 -0.7096  0.0031 -0.5683
  448TMC3    C5 6727   4.281   2.790  17.180 -0.4505 -0.6233 -0.2691
  448TMC3    C6 6728   4.334   2.767  17.061 -0.2421 -0.0792  0.6893
  448TMC3     C 6729   4.257   3.159  17.175  0.2901 -0.1137  0.6287
  448TMC3     O 6730   4.205   3.221  17.081  0.7207 -0.4569  0.2475
  448TMC3     H 6731   4.349   3.093  16.948 -1.6004  0.3970 -0.2349
  448TMC3    H1 6732   4.198   2.934  17.309  0.4681  0.5302  0.2632
  448TMC3    H2 6733   4.362   2.665  17.037 -0.8281 -0.2285  0.6455
  448TMC3    C7 6734   4.285   2.675  17.276 -0.8640 -0.5013  0.3745
  448TMC3    C8 6735   4.445   2.855  16.858 -0.7278  0.4504 -0.0831
  448TMC3    O1 6736   4.306   2.569  17.226  0.3634 -0.4008 -0.0638
  448TMC3    O2 6737   4.477   2.733  16.848  0.0786  0.4799  0.4124
  449MPD2     C 6738   1.382   1.476  14.061 -0.1580  0.3614  1.1506
  449MPD2    C1 6739   1.253   1.452  14.008 -0.2668  0.8657 -0.5978
  449MPD2    C2 6740   1.194   1.324  14.015  0.8527 -0.6073 -0.7341
  449MPD2    C3 6741   1.252   1.220  14.077  0.2891  0.0569  0.1317
  449MPD2    C4 6742   1.389   1.241  14.111  0.0543 -0.7666 -0.0398
  449MPD2    C5 6743   1.447   1.366  14.110 -0.0069  1.0819 -0.9782
  449MPD2     H 6744   1.093   1.315  13.976 -0.4020 -0.1797  2.4359
  449MPD2    H1 6745   1.451   1.156  14.139  2.0832  0.9747  0.7190
  449MPD2    H2 6746   1.430   1.574  14.058  0.3909  0.0724  0.6083
  449MPD2    H3 6747   1.546   1.378  14.153  0.3595 -0.2563 -1.4734
  449MPD2     N 6748   1.186   1.095  14.087  0.3023  0.3375  0.2547
  449MPD2    H5 6749   1.093   1.095  14.047  0.4706 -2.1370 -0.1459
  449MPD2    N1 6750   1.166   1.545  13.949 -0.2991  0.2154 -0.1388
  449MPD2    H7 6751   1.078   1.510  13.915  0.8256 -1.9073 -0.8662
  450TMC3    C1 6752   1.074   1.726  13.861 -0.6707 -0.1578 -0.6908
  450TMC3    C2 6753   1.072   1.743  13.723 -0.7672 -0.3824 -0.1975
  450TMC3    C3 6754   0.959   1.711  13.647 -0.4500 -0.3229 -0.0601
  450TMC3    C4 6755   0.955   1.672  13.915  0.0012 -0.0895  0.1445
  450TMC3    C5 6756   0.845   1.634  13.839 -0.8891  0.1650  1.1273
  450TMC3    C6 6757   0.842   1.660  13.700  0.4614 -0.2890 -0.0343
  450TMC3     C 6758   1.199   1.670  13.917  0.6344 -0.5431  0.3721
  450TMC3     O 6759   1.314   1.704  13.888 -0.5135  0.2947  0.1573
  450TMC3     H 6760   1.164   1.781  13.681 -1.2558 -0.2367 -1.1294
  450TMC3    H1 6761   0.948   1.645  14.020  0.5004 -2.5735 -0.4598
  450TMC3    H2 6762   0.762   1.618  13.641  0.8851 -0.9747 -0.1145
  450TMC3    C7 6763   0.790   1.509  13.892  0.2604 -0.5902 -0.0261
  450TMC3    C8 6764   0.954   1.754  13.506  0.1448 -0.1380  1.4302
  450TMC3    O1 6765   0.856   1.445  13.975 -0.1401 -0.0726  0.2630
  450TMC3    O2 6766   0.846   1.788  13.472  0.3576  0.1604  0.0223
  451MPD2     C 6767   2.764   4.555   0.533 -0.8755 -0.0611 -0.0010
  451MPD2    C1 6768   2.750   4.559   0.673  0.4106  0.2993 -0.0826
  451MPD2    C2 6769   2.856   4.524   0.757 -0.1734 -0.6305 -0.0112
  451MPD2    C3 6770   2.977   4.505   0.699 -0.1126  0.1031  0.4263
  451MPD2    C4 6771   2.988   4.494   0.560 -0.3448  0.0715 -0.0012
  451MPD2    C5 6772   2.881   4.520   0.479  0.5109  0.2760 -0.9521
  451MPD2     H 6773   2.840   4.513   0.863  0.4371 -1.7118 -0.0343
  451MPD2    H1 6774   3.078   4.475   0.503  0.3506 -1.3723  1.5905
  451MPD2    H2 6775   2.676   4.566   0.470 -2.3911  0.6983  2.2357
  451MPD2    H3 6776   2.891   4.518   0.371  1.5845  0.6623 -0.8574
  451MPD2     N 6777   3.097   4.498   0.774  0.0015  0.2145  0.1981
  451MPD2    H5 6778   3.177   4.480   0.715  0.6457 -1.7176  1.6783
  451MPD2    N1 6779   2.622   4.592   0.722 -0.8797  0.6027  0.8254
  451MPD2    H7 6780   2.548   4.589   0.653  1.2221 -2.4838 -1.3217
  452TMC3    C1 6781   3.242   4.538   0.954  0.0750 -0.3937 -0.0494
  452TMC3    C2 6782   3.275   4.645   1.033 -0.3812 -0.2248  0.1513
  452TMC3    C3 6783   3.404   4.661   1.058  0.0767 -0.0289  0.0852
  452TMC3    C4 6784   3.345   4.462   0.893  0.3664 -0.1591  0.0715
  452TMC3    C5 6785   3.477   4.498   0.913 -0.3141  0.2075  0.6658
  452TMC3    C6 6786   3.507   4.599   0.998  0.0128  0.9244  0.2981
  452TMC3     C 6787   3.108   4.538   0.905  0.0416 -1.0491  0.0865
  452TMC3     O 6788   3.023   4.574   0.979  1.0292  0.2051  0.2819
  452TMC3     H 6789   3.199   4.709   1.077 -2.4990 -1.8258 -1.2025
  452TMC3    H1 6790   3.324   4.373   0.834 -3.5767  0.0056  1.2135
  452TMC3    H2 6791   3.610   4.625   1.020  1.0186 -2.5325 -0.3295
  452TMC3    C7 6792   3.578   4.468   0.805 -0.3631 -0.1882  0.1384
  452TMC3    C8 6793   3.445   0.039   1.148  0.8148 -0.2223 -0.0229
  452TMC3    O1 6794   3.668   4.548   0.797  0.0166  0.9479 -0.2447
  452TMC3    O2 6795   3.557   0.083   1.131  0.2410  0.0067 -0.0797
  453TMC3    C1 6796   3.724   2.936  12.018  0.1611  0.3976  1.2667
  453TMC3    C2 6797   3.645   2.828  12.050 -0.4248  0.8653  0.2454
  453TMC3    C3 6798   3.529   2.823  11.982 -0.0762  0.0726 -0.3959
  453TMC3    C4 6799   3.687   3.040  11.932 -0.2392  0.3800 -0.0350
  453TMC3    C5 6800   3.574   3.021  11.856 -0.5087  0.5966 -0.5563
  453TMC3    C6 6801   3.484   2.920  11.892  0.9200 -0.1702  0.1134
  453TMC3     C 6802   3.856   2.953  12.072  0.5012  0.2256 -0.3254
  453TMC3     O 6803   3.947   3.012  12.013  0.1495  0.5848 -0.3465
  453TMC3     H 6804   3.666   2.757  12.129  0.1374 -0.2867 -0.9408
  453TMC3    H1 6805   3.748   3.127  11.912  0.1208 -0.0969 -0.9780
  453TMC3    H2 6806   3.394   2.903  11.835  0.9069  0.8662 -0.1809
  453TMC3    C7 6807   3.540   3.114  11.742 -0.0223  0.2469  0.6565
  453TMC3    C8 6808   3.446   2.703  11.979 -0.0460 -0.1440 -0.3525
  453TMC3    O1 6809   3.432   3.107  11.681  0.3685  0.2601 -0.3060
  453TMC3    O2 6810   3.328   2.713  11.946 -0.5932 -0.3218 -0.6401
  454MPD2     C 6811   3.083   1.484  16.329 -0.1055 -0.0323  1.1895
  454MPD2    C1 6812   3.024   1.610  16.344 -0.0700  0.1536 -0.0933
  454MPD2    C2 6813   2.928   1.631  16.443  0.2059  0.6505  0.7049
  454MPD2    C3 6814   2.874   1.522  16.515 -0.2810  0.6912 -1.0403
  454MPD2    C4 6815   2.927   1.392  16.495  0.4756 -0.2959 -0.5330
  454MPD2    C5 6816   3.037   1.381  16.411 -0.2775 -0.4409  0.3491
  454MPD2     H 6817   2.894   1.734  16.457 -2.3419 -0.0873  0.0305
  454MPD2    H1 6818   2.893   1.319  16.567 -0.0947  1.8673  1.3914
  454MPD2    H2 6819   3.153   1.468  16.248 -1.9604 -0.7572 -0.2919
  454MPD2    H3 6820   3.095   1.291  16.397 -0.8017 -0.6827 -0.2854
  454MPD2     N 6821   2.756   1.530  16.596  0.4702  0.1200 -0.4655
  454MPD2    H5 6822   2.722   1.438  16.623  0.2400  0.1662 -0.5957
  454MPD2    N1 6823   3.043   1.715  16.259 -0.3050  0.0221 -0.2347
  454MPD2    H7 6824   2.989   1.800  16.272  0.7875  0.5008  1.0896
  455TMC3    C1 6825   2.552   1.606  16.671  0.0793  1.1435  0.2680
  455TMC3    C2 6826   2.473   1.710  16.709  0.1343  0.4440 -0.8601
  455TMC3    C3 6827   2.335   1.705  16.679 -0.1300  0.5997 -0.0212
  455TMC3    C4 6828   2.505   1.498  16.606  0.1107 -0.1810 -0.1849
  455TMC3    C5 6829   2.370   1.498  16.578  0.1043 -0.0204  0.3710
  455TMC3    C6 6830   2.289   1.591  16.612 -0.3381 -0.4694 -0.2178
  455TMC3     C 6831   2.682   1.642  16.619 -0.2326  0.5668  0.2109
  455TMC3     O 6832   2.697   1.757  16.588 -0.5328  0.4595  0.2064
  455TMC3     H 6833   2.528   1.784  16.767 -2.0038  0.1455  1.5493
  455TMC3    H1 6834   2.560   1.408  16.582 -0.6940 -0.0599 -2.4426
  455TMC3    H2 6835   2.189   1.573  16.576  0.1235  1.2767 -2.4143
  455TMC3    C7 6836   2.332   1.413  16.463  0.1767  0.5672 -0.2857
  455TMC3    C8 6837   2.237   1.785  16.748  0.0991  0.1446 -0.0302
  455TMC3    O1 6838   2.319   1.478  16.361  0.2995 -0.1622  0.3777
  455TMC3    O2 6839   2.120   1.766  16.731  0.3129 -0.3594 -0.6646
  456MPD2     C 6840   0.690   2.352  15.809 -0.2140  0.9459 -0.5856
  456MPD2    C1 6841   0.695   2.262  15.917  0.0157  0.2733  0.2369
  456MPD2    C2 6842   0.638   2.300  16.041 -0.6134  0.8719 -0.0275
  456MPD2    C3 6843   0.583   2.429  16.054 -0.6258 -0.1218 -0.2477
  456MPD2    C4 6844   0.590   2.521  15.948  0.8825  0.1133 -0.8468
  456MPD2    C5 6845   0.639   2.479  15.829  0.7133 -0.7235 -0.4866
  456MPD2     H 6846   0.628   2.223  16.117 -0.7560 -1.4935 -2.4139
  456MPD2    H1 6847   0.528   2.610  15.946 -0.2670 -0.6828 -0.7027
  456MPD2    H2 6848   0.732   2.317  15.715  0.6379 -0.6682  0.3967
  456MPD2    H3 6849   0.642   2.540  15.740  0.6138 -1.1538 -0.7819
  456MPD2     N 6850   0.512   2.453  16.169  0.4310  0.1999 -0.4032
  456MPD2    H5 6851   0.530   2.371  16.226  1.0324  1.6254  1.4407
  456MPD2    N1 6852   0.767   2.140  15.905 -0.0845 -0.4313  0.2796
  456MPD2    H7 6853   0.800   2.132  15.809  0.1680  0.3144  0.3070
  457TMC3    C1 6854   0.383   2.552  16.345 -0.1884 -0.1618 -0.0843
  457TMC3    C2 6855   0.265   2.619  16.377  0.3193 -0.4915 -0.4110
  457TMC3    C3 6856   0.206   2.580  16.499  0.4491  0.2953  0.6048
  457TMC3    C4 6857   0.454   2.486  16.443 -0.5525 -0.4910 -0.5205
  457TMC3    C5 6858   0.400   2.466  16.567 -0.4069  0.2210  0.4904
  457TMC3    C6 6859   0.268   2.501  16.590  0.3627  0.0910 -0.1925
  457TMC3     C 6860   0.434   2.559  16.206  0.1125  0.9292 -0.3610
  457TMC3     O 6861   0.406   2.657  16.141  0.6404  0.0620  0.6159
  457TMC3     H 6862   0.210   2.665  16.297 -1.4622 -0.2301  0.9659
  457TMC3    H1 6863   0.553   2.443  16.427  0.7116  1.6895  1.4561
  457TMC3    H2 6864   0.220   2.481  16.685 -0.9563  1.6934 -0.5125
  457TMC3    C7 6865   0.475   2.443  16.690 -0.1773  0.6456 -0.8663
  457TMC3    C8 6866   0.084   2.642  16.550 -0.5439 -0.3373 -0.5418
  457TMC3    O1 6867   0.410   2.412  16.789  0.4778 -0.0749  0.5015
  457TMC3    O2 6868   0.041   2.597  16.655 -0.0577 -0.2534  0.1148
  458MPD2     C 6869   2.787   1.926  12.372  0.4615 -0.1433 -1.2717
  458MPD2    C1 6870   2.814   1.813  12.439 -0.3425 -1.1479  0.1570
  458MPD2    C2 6871   2.717   1.726  12.483  0.7879  0.1128  0.2289
  458MPD2    C3 6872   2.584   1.763  12.453 -0.3600 -0.2285  0.0631
  458MPD2    C4 6873   2.552   1.881  12.386 -0.1327  0.1106 -0.6660
  458MPD2    C5 6874   2.655   1.962  12.339  0.5351 -0.2449 -0.0669
  458MPD2     H 6875   2.740   1.633  12.533  0.7230 -0.2748 -0.4567
  458MPD2    H1 6876   2.453   1.917  12.361 -0.3561  0.5086  0.7563
  458MPD2    H2 6877   2.867   1.995  12.348 -0.8189  1.3677 -1.2024
  458MPD2    H3 6878   2.648   2.061  12.297 -0.1884 -0.7155 -1.0529
  458MPD2     N 6879   2.480   1.673  12.493 -0.1819 -0.0639 -0.4728
  458MPD2    H5 6880   2.512   1.593  12.545  0.5584  0.6845  0.2160
  458MPD2    N1 6881   2.958   1.799  12.457  0.3263 -0.1507 -0.6584
  458MPD2    H7 6882   3.020   1.856  12.401  0.7775 -0.8443 -0.8685
  459TMC3    C1 6883   3.163   1.677  12.511 -0.0958  0.2554 -0.0325
  459TMC3    C2 6884   3.234   1.782  12.477 -0.1760  0.0529  0.0290
  459TMC3    C3 6885   3.361   1.796  12.535 -0.0119  0.3542 -0.1268
  459TMC3    C4 6886   3.205   1.585  12.600  0.1200 -0.4695  0.1251
  459TMC3    C5 6887   3.331   1.599  12.651  0.5271  0.1540  0.4495
  459TMC3    C6 6888   3.412   1.710  12.625  0.0476 -0.6732 -0.4272
  459TMC3     C 6889   3.017   1.694  12.518  0.0070 -0.9342 -0.1181
  459TMC3     O 6890   2.957   1.597  12.565  0.8185 -0.8068  0.1181
  459TMC3     H 6891   3.203   1.848  12.397 -0.0268 -0.1497 -0.1930
  459TMC3    H1 6892   3.143   1.508  12.645  1.4670 -1.1159  0.9095
  459TMC3    H2 6893   3.516   1.715  12.655  0.2417 -2.6904 -0.7367
  459TMC3    C7 6894   3.350   1.529  12.777 -0.5111  0.0031  0.6771
  459TMC3    C8 6895   3.446   1.904  12.482 -0.1323 -1.0909  0.7883
  459TMC3    O1 6896   3.272   1.439  12.801 -0.6831 -0.4532  0.7800
  459TMC3    O2 6897   3.560   1.869  12.452  0.1872  0.5286 -0.5699
  460MPD2     C 6898   2.224   4.300  11.006 -0.3008 -0.6901 -0.4104
  460MPD2    C1 6899   2.151   4.201  10.937 -0.4578  0.0786  0.5943
  460MPD2    C2 6900   2.106   4.225  10.808 -0.5800 -0.8121 -0.0251
  460MPD2    C3 6901   2.145   4.347  10.744  1.2890  0.4897  0.3625
  460MPD2    C4 6902   2.234   4.436  10.806  0.1799  0.2869  0.3194
  460MPD2    C5 6903   2.268   4.413  10.939 -0.7808  0.6001 -0.4873
  460MPD2     H 6904   2.049   4.148  10.758 -2.1765  1.6746 -2.0177
  460MPD2    H1 6905   2.262   4.532  10.765  1.1147  0.5565  1.5652
  460MPD2    H2 6906   2.254   4.289  11.110  0.7477  0.3853 -0.5953
  460MPD2    H3 6907   2.330   4.484  10.994  0.1160 -1.0621  0.6630
  460MPD2     N 6908   2.087   4.366  10.617 -0.0621 -0.1761  0.4547
  460MPD2    H5 6909   2.016   4.300  10.587  0.8923 -0.8963 -0.2365
  460MPD2    N1 6910   2.119   4.081  11.012 -0.1019 -0.1021 -0.7989
  460MPD2    H7 6911   2.158   4.074  11.105 -2.4924 -1.1250  0.1285
  461TMC3    C1 6912   2.052   4.460  10.408 -0.5620 -0.1907  0.2141
  461TMC3    C2 6913   2.030   4.335  10.358  0.4982  0.4155 -0.8179
  461TMC3    C3 6914   2.012   4.325  10.222 -0.2153 -0.5931 -0.2877
  461TMC3    C4 6915   2.060   4.566  10.324 -0.1461  0.0281  0.1220
  461TMC3    C5 6916   2.052   4.548  10.187  0.0060 -0.1526 -0.7888
  461TMC3    C6 6917   2.036   4.430  10.132  0.2521  0.7321 -0.7210
  461TMC3     C 6918   2.099   4.480  10.542  1.0134  0.5624  0.5255
  461TMC3     O 6919   2.153   4.586  10.563 -0.2073  0.0418  0.1416
  461TMC3     H 6920   2.021   4.241  10.412 -3.7727  1.6282  0.6128
  461TMC3    H1 6921   2.062   4.668  10.361 -1.5503  0.0405  0.1765
  461TMC3    H2 6922   2.041   4.411  10.026 -0.6475  0.7328 -0.7601
  461TMC3    C7 6923   2.049   4.653  10.088 -0.4909  0.2712 -0.0980
  461TMC3    C8 6924   1.947   4.209  10.165 -0.3895 -0.5298 -0.2313
  461TMC3    O1 6925   2.012   4.627   9.972  0.3847 -0.3748 -0.7077
  461TMC3    O2 6926   1.981   4.098  10.202 -0.1924  0.6191 -0.2424
  462TMC3    C1 6927   2.238   0.206   0.019 -0.7980 -0.7215  0.0276
  462TMC3    C2 6928   2.299   0.131  17.653  0.7749 -0.0411 -0.5750
  462TMC3    C3 6929   2.285   4.729  17.659  0.2798  0.3738 -0.5380
  462TMC3    C4 6930   2.146   0.160   0.102  0.0850 -0.2329 -0.4752
  462TMC3    C5 6931   2.149   0.023   0.118  0.0691  0.4464  0.3399
  462TMC3    C6 6932   2.238   4.672   0.048  0.5575 -0.0694 -0.0505
  462TMC3     C 6933   2.211   0.348  17.708 -0.0356 -0.3410 -0.4039
  462TMC3     O 6934   2.106   0.400   0.007  0.2888  0.4113 -0.1162
  462TMC3     H 6935   2.337   0.183  17.566 -0.1596  0.5708 -0.6137
  462TMC3    H1 6936   2.095   0.221   0.175  0.4678  1.2400 -1.4362
  462TMC3    H2 6937   2.220   4.566   0.063 -1.3937 -0.0276 -2.0614
  462TMC3    C7 6938   2.031   4.684   0.177  0.1463 -0.4968 -0.0551
  462TMC3    C8 6939   2.243   4.674  17.534 -0.0105  0.2457 -0.6208
  462TMC3    O1 6940   2.034   4.559   0.188  0.0832  0.0865 -0.5701
  462TMC3    O2 6941   2.218   0.020  17.444 -0.4216 -0.0101 -0.0688
  463MPD2     C 6942   3.152   3.700   1.852 -0.1675  0.4504  0.0049
  463MPD2    C1 6943   3.045   3.739   1.777  0.0911 -0.1211 -0.1761
  463MPD2    C2 6944   3.053   3.862   1.717  0.7650 -0.4775 -0.1900
  463MPD2    C3 6945   3.163   3.949   1.734 -0.5952  0.5570 -0.1713
  463MPD2    C4 6946   3.267   3.905   1.812 -0.0837  0.6241  0.8022
  463MPD2    C5 6947   3.255   3.783   1.871 -0.3821 -0.1103  0.1261
  463MPD2     H 6948   2.963   3.901   1.670  0.4907  0.3792  1.0280
  463MPD2    H1 6949   3.361   3.958   1.821  1.2255 -1.5326 -0.1457
  463MPD2    H2 6950   3.153   3.599   1.893 -1.3534  0.5280  0.2244
  463MPD2    H3 6951   3.344   3.747   1.922 -0.3376  1.2463  1.0310
  463MPD2     N 6952   3.178   4.073   1.663 -0.7004  0.4688  0.3802
  463MPD2    H5 6953   3.269   4.116   1.672 -1.8652  2.6319  2.0414
  463MPD2    N1 6954   2.926   3.670   1.759  0.4021  0.8854  0.5708
  463MPD2    H7 6955   2.861   3.710   1.692 -0.1335 -2.4940 -0.9798
  464TMC3    C1 6956   2.777   3.488   1.770  0.0214  0.7048  0.9491
  464TMC3    C2 6957   2.673   3.567   1.712 -0.0488  0.3059  0.0629
  464TMC3    C3 6958   2.566   3.493   1.663  0.2088  0.0228 -0.2415
  464TMC3    C4 6959   2.772   3.355   1.778 -0.2717  0.3747  0.0085
  464TMC3    C5 6960   2.674   3.285   1.715 -0.0500 -0.0709 -0.2130
  464TMC3    C6 6961   2.556   3.356   1.669  0.3594 -0.1860  0.0553
  464TMC3     C 6962   2.893   3.554   1.824  0.1940 -0.4610 -0.0670
  464TMC3     O 6963   2.953   3.491   1.911 -0.1300  0.1988  0.1145
  464TMC3     H 6964   2.682   3.675   1.708 -0.1918  0.2499 -1.8461
  464TMC3    H1 6965   2.863   3.310   1.816 -0.5079  0.2599  0.4270
  464TMC3    H2 6966   2.470   3.308   1.625  0.5147 -0.5474  0.1513
  464TMC3    C7 6967   2.688   3.145   1.701 -0.1636 -0.3186 -0.0602
  464TMC3    C8 6968   2.456   3.569   1.607 -0.4887 -0.1120  0.4382
  464TMC3    O1 6969   2.781   3.092   1.760  0.4732 -0.2034  0.1726
  464TMC3    O2 6970   2.488   3.677   1.559  0.5157  0.0116  0.3673
  465MPD2     C 6971   4.402   1.988  17.506 -0.4251 -0.3465 -0.0745
  465MPD2    C1 6972   4.263   1.987  17.517  0.7656 -0.0386 -0.7058
  465MPD2    C2 6973   4.179   1.978  17.409  0.5881  0.6665  0.2586
  465MPD2    C3 6974   4.230   1.966  17.287  0.3589  0.2858  0.0634
  465MPD2    C4 6975   4.367   1.986  17.265  0.7167 -0.3764 -0.2736
  465MPD2    C5 6976   4.448   2.006  17.376  0.3383  0.2455 -0.3689
  465MPD2     H 6977   4.071   1.982  17.420  0.6011  0.4334  0.4762
  465MPD2    H1 6978   4.418   1.995  17.170  0.3380 -2.1270 -0.6450
  465MPD2    H2 6979   4.476   1.997  17.585  0.0760 -1.4467 -0.4166
  465MPD2    H3 6980   4.553   2.025  17.356  0.5717 -1.6967 -0.9725
  465MPD2     N 6981   4.136   1.965  17.183 -0.1001 -0.2390  0.0810
  465MPD2    H5 6982   4.038   1.964  17.209 -0.2280  0.2118 -0.3756
  465MPD2    N1 6983   4.180   2.006  17.632  0.2779 -0.4080 -0.4309
  465MPD2    H7 6984   4.079   2.010  17.626  0.1586  0.7206  2.2327
  466TMC3    C1 6985   3.815   2.014  17.047 -0.2530  0.2573 -0.0082
  466TMC3    C2 6986   3.801   2.112  16.947  0.1852  0.1807 -0.0582
  466TMC3    C3 6987   3.911   2.145  16.884 -0.8219 -0.1964 -0.8091
  466TMC3    C4 6988   3.920   1.939  17.071 -0.8517 -0.0117  0.0180
  466TMC3    C5 6989   4.028   1.971  16.990 -0.8037  0.3323 -0.4554
  466TMC3    C6 6990   4.020   2.066  16.895  0.5965 -0.2630  0.5847
  466TMC3     C 6991   3.737   2.021  17.170 -0.3102 -0.5596 -0.0794
  466TMC3     O 6992   3.785   1.988  17.281  0.2212  0.3744 -0.6449
  466TMC3     H 6993   3.710   2.172  16.946  1.0514  1.5133  0.8694
  466TMC3    H1 6994   3.924   1.861  17.146  2.1161  0.7038  0.6189
  466TMC3    H2 6995   4.116   2.082  16.847  0.1956 -0.2725 -0.2192
  466TMC3    C7 6996   4.158   1.962  17.053 -1.0318  0.2997 -0.5936
  466TMC3    C8 6997   3.915   2.264  16.796 -0.3140 -0.5089 -0.1271
  466TMC3    O1 6998   4.260   1.973  16.990 -0.1008  0.0672 -0.1392
  466TMC3    O2 6999   4.000   2.274  16.706  0.0706 -0.0150  0.1800
  467TMC3    C1 7000   0.497   0.939  13.490 -0.7820  0.0815 -0.1774
  467TMC3    C2 7001   0.431   1.049  13.457  0.4294  0.1727  0.8739
  467TMC3    C3 7002   0.296   1.055  13.490 -0.4406  0.4800  0.2825
  467TMC3    C4 7003   0.426   0.828  13.531  0.1069 -0.2641  0.0467
  467TMC3    C5 7004   0.291   0.826  13.553  0.5590  0.1483  0.4127
  467TMC3    C6 7005   0.225   0.941  13.537 -0.0911 -0.4023 -0.8362
  467TMC3     C 7006   0.647   0.947  13.517 -0.7390 -0.1441  0.0656
  467TMC3     O 7007   0.697   1.061  13.522 -0.4466  0.1127  0.2302
  467TMC3     H 7008   0.488   1.134  13.422  0.2923 -0.2094 -0.3100
  467TMC3    H1 7009   0.478   0.735  13.550  0.5827  0.1735  0.8518
  467TMC3    H2 7010   0.121   0.956  13.565  0.3151 -2.9841  2.0159
  467TMC3    C7 7011   0.243   0.703  13.615  0.0665 -0.2110  0.4104
  467TMC3    C8 7012   0.239   1.195  13.490 -0.2730  0.4343 -0.3347
  467TMC3    O1 7013   0.323   0.614  13.626 -0.4506 -0.3174 -0.1472
  467TMC3    O2 7014   0.321   1.278  13.458 -0.2640 -0.0560 -0.0527
  468MPD2     C 7015   3.583   4.048  10.674  1.0004  0.4665 -0.2632
  468MPD2    C1 7016   3.644   3.978  10.773  0.5149 -0.1995 -0.2913
  468MPD2    C2 7017   3.661   3.841  10.763  0.4292 -0.0411 -0.0918
  468MPD2    C3 7018   3.614   3.772  10.652  0.4478 -0.7143 -0.0705
  468MPD2    C4 7019   3.553   3.845  10.556  0.3501  0.5948 -0.5510
  468MPD2    C5 7020   3.538   3.981  10.567  0.0741  0.6969  0.1581
  468MPD2     H 7021   3.720   3.790  10.838 -0.0048  0.2710  0.4633
  468MPD2    H1 7022   3.523   3.798  10.463  1.0060 -0.9262 -0.0017
  468MPD2    H2 7023   3.563   4.153  10.688 -0.8805  0.0036  0.5606
  468MPD2    H3 7024   3.498   4.037  10.484 -2.1586  0.2635  0.9409
  468MPD2     N 7025   3.628   3.635  10.638  0.3009 -0.7217 -0.1889
  468MPD2    H5 7026   3.594   3.602  10.548  2.7173 -1.0478 -0.9770
  468MPD2    N1 7027   3.697   4.057  10.880  0.3269  0.3345 -0.3448
  468MPD2    H7 7028   3.667   4.154  10.884 -0.5389  0.1877 -3.3504
  469TMC3    C1 7029   3.831   4.121  11.071 -0.0388 -0.4196 -0.2368
  469TMC3    C2 7030   3.952   4.110  11.133  0.2979 -0.2985  0.0799
  469TMC3    C3 7031   3.993   4.214  11.221  0.8652  0.5602  0.1340
  469TMC3    C4 7032   3.752   4.234  11.084 -0.9144 -0.2281 -0.0934
  469TMC3    C5 7033   3.796   4.343  11.160 -0.0892 -1.0005 -0.2093
  469TMC3    C6 7034   3.912   4.325  11.240 -0.3023 -0.5207  0.2827
  469TMC3     C 7035   3.793   4.016  10.976 -0.3585 -0.3590 -0.1854
  469TMC3     O 7036   3.852   3.911  10.975  0.1709  0.7617 -0.3132
  469TMC3     H 7037   4.020   4.026  11.121  0.5404  0.0634 -1.0782
  469TMC3    H1 7038   3.672   4.259  11.017  0.2072 -1.1747 -1.7805
  469TMC3    H2 7039   3.940   4.403  11.310 -2.8590 -1.5441  2.4297
  469TMC3    C7 7040   3.695   4.443  11.190  0.0723 -0.7066 -0.1523
  469TMC3    C8 7041   4.112   4.201  11.303  0.0155 -0.3793  0.6153
  469TMC3    O1 7042   3.593   4.442  11.120  0.4935  0.3463  0.5199
  469TMC3    O2 7043   4.170   4.092  11.302 -0.1665 -0.2342 -0.3739
  470TMC3    C1 7044   1.300   4.303   0.943  0.1125  0.2279 -0.6608
  470TMC3    C2 7045   1.367   4.417   0.976 -0.3833 -0.1901 -0.7502
  470TMC3    C3 7046   1.305   4.526   1.033 -0.4118  0.5901  0.4097
  470TMC3    C4 7047   1.164   4.301   0.940  0.4520  0.7597 -0.2121
  470TMC3    C5 7048   1.102   4.409   0.997 -0.2829  0.4629 -0.2153
  470TMC3    C6 7049   1.172   4.517   1.048 -0.2931  0.3955 -0.0161
  470TMC3     C 7050   1.377   4.196   0.887  0.2092 -0.8784  0.4083
  470TMC3     O 7051   1.495   4.186   0.918 -0.2521  0.3167 -0.0953
  470TMC3     H 7052   1.474   4.408   0.970 -0.3427 -1.2059  1.5139
  470TMC3    H1 7053   1.108   4.211   0.917  1.7049  0.3740 -1.7850
  470TMC3    H2 7054   1.125   4.604   1.092 -1.4288  0.1156 -0.6816
  470TMC3    C7 7055   0.957   4.431   0.966  0.3396 -0.0562  0.8882
  470TMC3    C8 7056   1.368   4.657   1.026 -0.9852  0.4778 -0.6857
  470TMC3    O1 7057   0.931   4.381   0.859  0.3782  0.2040 -0.2574
  470TMC3    O2 7058   1.298   0.024   1.029  0.3524 -0.3168  0.6894
  471MPD2     C 7059   2.009   0.947  16.708 -0.3408  0.0592 -0.0173
  471MPD2    C1 7060   2.095   0.836  16.686  0.2709 -1.0458 -0.1173
  471MPD2    C2 7061   2.116   0.749  16.789 -0.5453  0.4582  0.3147
  471MPD2    C3 7062   2.076   0.775  16.917  0.3104  0.1769 -0.3844
  471MPD2    C4 7063   1.990   0.881  16.931  1.1288  0.2960  0.3685
  471MPD2    C5 7064   1.954   0.970  16.831 -0.5026  0.2910 -0.4124
  471MPD2     H 7065   2.188   0.673  16.762 -0.5291  1.0175 -1.2024
  471MPD2    H1 7066   1.944   0.902  17.027  0.0986  0.1357 -0.0849
  471MPD2    H2 7067   1.988   1.023  16.633 -2.0714  0.9006  1.3264
  471MPD2    H3 7068   1.881   1.045  16.861  0.8987  1.9292 -1.1134
  471MPD2     N 7069   2.125   0.702  17.030 -0.0068  0.8259  0.0487
  471MPD2    H5 7070   2.090   0.728  17.122 -4.0345 -0.8380 -1.0025
  471MPD2    N1 7071   2.164   0.810  16.564 -0.4173 -0.0932  0.2861
  471MPD2    H7 7072   2.230   0.732  16.563 -1.7353 -1.2178  1.3043
  472TMC3    C1 7073   2.186   0.790  16.328  0.1478 -0.4175 -0.2313
  472TMC3    C2 7074   2.141   0.841  16.208 -0.0373  0.2698  0.4031
  472TMC3    C3 7075   2.145   0.760  16.095 -0.4027  0.4094 -0.8434
  472TMC3    C4 7076   2.233   0.662  16.338  0.3621  0.0052 -0.3269
  472TMC3    C5 7077   2.243   0.583  16.222  0.7104 -0.7980  0.1456
  472TMC3    C6 7078   2.204   0.634  16.099 -0.7200  0.5973 -0.3386
  472TMC3     C 7079   2.138   0.867  16.443  0.5494 -0.3824  0.1401
  472TMC3     O 7080   2.066   0.962  16.419 -0.3504  0.1401 -0.0748
  472TMC3     H 7081   2.099   0.942  16.209  1.5975  0.9479  0.2274
  472TMC3    H1 7082   2.235   0.613  16.434  2.9519 -1.5785 -1.1921
  472TMC3    H2 7083   2.208   0.575  16.008  0.4044  1.8386 -1.0987
  472TMC3    C7 7084   2.198   0.447  16.247 -0.3452 -0.9828 -0.3770
  472TMC3    C8 7085   2.011   0.740  16.044  0.1128 -0.3237  0.2244
  472TMC3    O1 7086   2.246   0.396  16.345 -0.1513 -0.3787  0.7039
  472TMC3    O2 7087   1.980   0.623  16.043 -0.1494  0.2220  0.1444
  473MPD2     C 7088   1.780   3.056  13.641 -0.2712 -0.0307 -0.1905
  473MPD2    C1 7089   1.701   3.123  13.554  0.1634 -0.6043  0.2570
  473MPD2    C2 7090   1.732   3.255  13.531 -0.0177 -0.0057  0.2055
  473MPD2    C3 7091   1.839   3.318  13.592 -0.0672  0.7280 -0.2503
  473MPD2    C4 7092   1.917   3.248  13.671 -0.3988  0.5597 -0.3307
  473MPD2    C5 7093   1.886   3.116  13.692 -0.0406 -1.0080  0.3244
  473MPD2     H 7094   1.671   3.310  13.460  3.0107  3.5568  0.3961
  473MPD2    H1 7095   2.008   3.286  13.717  0.4140 -3.2014  1.1241
  473MPD2    H2 7096   1.758   2.951  13.659 -0.5048  0.8763  4.6413
  473MPD2    H3 7097   1.948   3.053  13.755  0.4166 -1.1278 -0.2427
  473MPD2     N 7098   1.865   3.456  13.571 -0.1910 -0.2027  0.0092
  473MPD2    H5 7099   1.947   3.493  13.618 -0.3204  0.2376 -0.1175
  473MPD2    N1 7100   1.595   3.067  13.478  0.5150  0.3711  0.6758
  473MPD2    H7 7101   1.557   3.125  13.405 -1.6569 -2.8173 -0.7295
  474TMC3    C1 7102   1.846   3.678  13.507 -0.7406 -0.2390  0.3831
  474TMC3    C2 7103   1.749   3.768  13.544  0.0554  0.5052 -0.1982
  474TMC3    C3 7104   1.772   3.859  13.650 -0.3637 -0.1332  0.3960
  474TMC3    C4 7105   1.970   3.684  13.571  0.6587 -0.2429  0.1860
  474TMC3    C5 7106   1.976   3.762  13.683  0.3372 -0.6242 -0.8190
  474TMC3    C6 7107   1.884   3.855  13.725  0.0365  0.0049 -0.0397
  474TMC3     C 7108   1.793   3.543  13.495 -0.4985 -1.1419  0.4539
  474TMC3     O 7109   1.686   3.529  13.435 -0.1515 -0.1802  0.1311
  474TMC3     H 7110   1.649   3.756  13.504 -0.0847  1.3179 -0.0990
  474TMC3    H1 7111   2.052   3.620  13.541  1.4547  2.1366 -2.7934
  474TMC3    H2 7112   1.890   3.888  13.828 -1.0461 -2.7891  0.9433
  474TMC3    C7 7113   2.048   3.684  13.793 -0.4613 -0.1318  0.2309
  474TMC3    C8 7114   1.678   3.972  13.662 -0.3005 -0.1993  0.5739
  474TMC3    O1 7115   2.070   3.569  13.758  0.2996  0.0782 -0.3352
  474TMC3    O2 7116   1.570   3.955  13.617  0.3484 -0.0087  0.2961
  475MPD2     C 7117   4.520   1.857  10.614 -0.0880  0.1214  0.3210
  475MPD2    C1 7118   4.509   1.966  10.694 -0.8470  0.1713 -0.7786
  475MPD2    C2 7119   4.418   2.061  10.674 -0.1734  0.7370 -0.7350
  475MPD2    C3 7120   4.324   2.053  10.572 -0.0905  0.2755 -0.1068
  475MPD2    C4 7121   4.337   1.945  10.488  0.1412  0.1487 -0.0196
  475MPD2    C5 7122   4.427   1.846  10.510  0.0903  0.5908  0.1667
  475MPD2     H 7123   4.412   2.147  10.739  2.9086  0.7827 -0.5405
  475MPD2    H1 7124   4.258   1.931  10.414  1.4234  0.1295 -1.3805
  475MPD2    H2 7125   4.593   1.777  10.621 -0.0048  0.0622 -1.3974
  475MPD2    H3 7126   4.422   1.757  10.448 -0.8111  0.4193  0.4957
  475MPD2     N 7127   4.227   2.156  10.555  0.3675 -0.4173  0.1488
  475MPD2    H5 7128   4.213   2.218  10.634  2.9389 -0.1720  0.4218
  475MPD2    N1 7129   4.604   2.004  10.783  0.0944  0.8649 -0.1397
  475MPD2    H7 7130   4.586   2.093  10.827 -1.8895  0.3026  0.2186
  476TMC3    C1 7131   0.086   2.031  10.880 -0.6454  0.1765 -0.2603
  476TMC3    C2 7132   0.199   2.064  10.814  0.1112 -0.1666 -0.2789
  476TMC3    C3 7133   0.257   2.174  10.855 -1.1215  0.2211  0.0262
  476TMC3    C4 7134   0.037   2.096  10.990 -0.8528  0.2684  0.1659
  476TMC3    C5 7135   0.115   2.194  11.037 -0.7232 -0.4161  0.3718
  476TMC3    C6 7136   0.222   2.245  10.971 -0.2646 -0.3538 -0.2013
  476TMC3     C 7137   4.732   1.946  10.795 -0.5766 -0.1453 -0.0763
  476TMC3     O 7138   0.043   1.853  10.728 -0.0956 -0.1332  0.0217
  476TMC3     H 7139   0.239   1.987  10.749 -1.9318  0.4479 -2.2727
  476TMC3    H1 7140   4.690   2.060  11.053 -1.0963  1.5975  0.6220
  476TMC3    H2 7141   0.290   2.314  11.019  0.7825 -2.3588  1.2220
  476TMC3    C7 7142   0.091   2.231  11.173 -0.2506  0.1126  0.6297
  476TMC3    C8 7143   0.343   2.242  10.758  0.9793  0.2670  0.1299
  476TMC3    O1 7144   0.110   2.136  11.251  0.4597  0.0376  0.0263
  476TMC3    O2 7145   0.399   2.345  10.795  0.2097 -0.0956  0.3098
  477MPD2     C 7146   2.643   3.256  11.938  0.0639 -0.0450 -0.1337
  477MPD2    C1 7147   2.566   3.172  11.861 -0.3703 -0.0464 -0.3310
  477MPD2    C2 7148   2.556   3.036  11.891 -0.7768  0.1345  0.2587
  477MPD2    C3 7149   2.628   2.987  11.999 -0.0897 -0.3266  0.1172
  477MPD2    C4 7150   2.714   3.073  12.076 -0.5466 -0.9548  0.3503
  477MPD2    C5 7151   2.718   3.203  12.041  0.7964 -0.1792 -0.3697
  477MPD2     H 7152   2.497   2.964  11.835 -0.3054 -0.4263  0.4876
  477MPD2    H1 7153   2.764   3.038  12.165 -0.4439 -0.9241  0.3051
  477MPD2    H2 7154   2.655   3.364  11.930  0.4589 -0.2880 -2.5459
  477MPD2    H3 7155   2.781   3.274  12.093  0.3768  0.2463 -0.4376
  477MPD2     N 7156   2.618   2.850  12.028  0.3290  0.5759 -0.1812
  477MPD2    H5 7157   2.568   2.789  11.963  2.5704 -0.6849 -0.7205
  477MPD2    N1 7158   2.489   3.228  11.755 -0.9279 -0.0393 -0.3253
  477MPD2    H7 7159   2.479   3.329  11.758  0.2709  0.0663  0.1926
  478TMC3    C1 7160   2.351   3.228  11.570  0.3982 -1.0000  0.1412
  478TMC3    C2 7161   2.249   3.286  11.639 -0.6465 -0.1470 -0.3277
  478TMC3    C3 7162   2.158   3.361  11.567  0.0186  0.3532  0.3482
  478TMC3    C4 7163   2.364   3.240  11.440 -0.3992 -0.1746  0.1350
  478TMC3    C5 7164   2.278   3.317  11.362 -0.2296  0.1806 -0.5324
  478TMC3    C6 7165   2.171   3.365  11.426  0.6343 -0.0778 -0.0846
  478TMC3     C 7166   2.441   3.150  11.653 -0.0903  0.2942 -0.0108
  478TMC3     O 7167   2.465   3.035  11.616  0.3254 -0.3983 -0.6413
  478TMC3     H 7168   2.250   3.274  11.746 -0.5731  2.0070 -0.0892
  478TMC3    H1 7169   2.461   3.229  11.392 -1.5834  0.3493 -2.3663
  478TMC3    H2 7170   2.103   3.431  11.374 -1.6665 -0.3818  2.5520
  478TMC3    C7 7171   2.283   3.300  11.219 -0.2141 -0.0432  0.0926
  478TMC3    C8 7172   2.057   3.433  11.628 -0.4646  0.1597  0.6989
  478TMC3    O1 7173   2.339   3.197  11.186  0.0204 -0.0472 -0.7633
  478TMC3    O2 7174   1.992   3.509  11.558 -0.1984  0.0026  0.2247
  479MPD2     C 7175   1.639   4.231  15.034  0.0626  0.5420  0.1823
  479MPD2    C1 7176   1.535   4.322  15.028  0.3694 -0.5579 -0.1393
  479MPD2    C2 7177   1.552   4.451  15.089 -0.5102 -0.1510  0.1308
  479MPD2    C3 7178   1.670   4.490  15.145  0.3337  0.2406  0.6657
  479MPD2    C4 7179   1.773   4.392  15.150 -0.0381 -0.3364 -0.0013
  479MPD2    C5 7180   1.759   4.272  15.089 -0.0030  0.4986  0.4289
  479MPD2     H 7181   1.469   4.521  15.087  0.0555  0.4913 -1.0775
  479MPD2    H1 7182   1.869   4.419  15.191  0.8023 -0.2076 -2.0609
  479MPD2    H2 7183   1.639   4.133  14.988  0.6775 -0.0403  1.4160
  479MPD2    H3 7184   1.841   4.201  15.091  0.6399  1.2134 -0.4552
  479MPD2     N 7185   1.699   4.614  15.203  0.3609  0.1810 -0.6859
  479MPD2    H5 7186   1.787   4.624  15.252  0.3622  0.0982 -0.6707
  479MPD2    N1 7187   1.422   4.273  14.973  0.9132 -0.3765  0.4497
  479MPD2    H7 7188   1.417   4.174  14.951 -0.2499 -0.0518 -0.7574
  480TMC3    C1 7189   1.666   0.111  15.529 -0.8573 -0.7235  0.1642
  480TMC3    C2 7190   1.610   0.233  15.520 -0.2511  0.0904 -0.5520
  480TMC3    C3 7191   1.578   0.290  15.396  0.1038  0.0364  0.1378
  480TMC3    C4 7192   1.690   0.040  15.416 -0.5252  0.1087  0.2804
  480TMC3    C5 7193   1.636   0.088  15.295 -0.4961  0.0489 -0.0571
  480TMC3    C6 7194   1.597   0.215  15.281 -0.0415  0.0497 -0.1232
  480TMC3     C 7195   1.626   0.033  15.645 -0.3387 -0.3790 -0.3303
  480TMC3     O 7196   1.633   4.645  15.624  0.2199 -0.1363 -0.1945
  480TMC3     H 7197   1.568   0.279  15.610 -1.1936  0.9364 -1.4203
  480TMC3    H1 7198   1.719   4.669  15.430 -3.4617 -0.6200  1.1294
  480TMC3    H2 7199   1.571   0.246  15.180  1.3071 -1.6434 -0.9980
  480TMC3    C7 7200   1.613   4.722  15.193 -0.0599 -0.0895  0.7721
  480TMC3    C8 7201   1.603   0.435  15.382  0.3293  0.0229  0.3548
  480TMC3    O1 7202   1.522   0.009  15.112  0.0701 -0.4448  0.0818
  480TMC3    O2 7203   1.634   0.488  15.487 -0.5008 -0.2384  0.4932
  481MPD2     C 7204   3.415   0.268  14.147 -0.3267  0.4507  0.8476
  481MPD2    C1 7205   3.293   0.201  14.144 -0.1784 -0.1016 -0.3551
  481MPD2    C2 7206   3.234   0.160  14.267 -0.2584 -0.3663 -0.0459
  481MPD2    C3 7207   3.303   0.178  14.379 -0.2766  0.3262  0.0334
  481MPD2    C4 7208   3.426   0.244  14.378  0.9283 -0.4057 -0.1741
  481MPD2    C5 7209   3.484   0.277  14.259 -0.5301  0.5826  0.2077
  481MPD2     H 7210   3.131   0.127  14.275 -1.1146  2.2622 -0.1008
  481MPD2    H1 7211   3.490   0.252  14.465  0.8237 -1.0467 -0.0339
  481MPD2    H2 7212   3.462   0.290  14.052 -1.0768 -0.8793  0.1633
  481MPD2    H3 7213   3.584   0.321  14.265 -0.1874  0.0310 -1.3595
  481MPD2     N 7214   3.254   0.132  14.503  0.2339  0.1334  0.2452
  481MPD2    H5 7215   3.303   0.176  14.581 -0.1328 -0.4792  0.8258
  481MPD2    N1 7216   3.222   0.172  14.020 -0.1643 -0.1929  0.0759
  481MPD2    H7 7217   3.257   0.207  13.932 -0.8129 -0.7801 -0.4198
  482TMC3    C1 7218   3.031   0.092  13.883  0.6034  1.1337  0.1313
  482TMC3    C2 7219   2.940   4.717  13.880  0.0419 -0.7153 -0.3437
  482TMC3    C3 7220   2.854   4.708  13.778  0.2507  0.8742  0.8142
  482TMC3    C4 7221   3.017   0.195  13.797  0.3538  0.1703  0.4819
  482TMC3    C5 7222   2.920   0.182  13.704 -0.6462  0.6994 -0.1106
  482TMC3    C6 7223   2.841   0.073  13.690  0.0876  0.7178  0.2274
  482TMC3     C 7224   3.099   0.108  14.010  0.5956  0.5115  0.4602
  482TMC3     O 7225   3.030   0.064  14.103 -0.1684  0.3405 -0.1952
  482TMC3     H 7226   2.942   4.633  13.949 -0.4661  0.9370  1.6917
  482TMC3    H1 7227   3.072   0.284  13.824  0.0257  0.1783  1.1158
  482TMC3    H2 7228   2.771   0.068  13.607  1.5711  2.1245 -1.1303
  482TMC3    C7 7229   2.929   0.264  13.583 -0.0888  0.4529  0.3741
  482TMC3    C8 7230   2.780   4.592  13.772  0.0313  0.1656  1.0814
  482TMC3    O1 7231   2.823   0.263  13.519 -0.2095 -0.3046  0.0883
  482TMC3    O2 7232   2.818   4.493  13.833 -0.0863  0.2851 -0.0595
  483TMC3    C1 7233   0.656   3.343   0.349  0.8848  0.1646  0.1131
  483TMC3    C2 7234   0.723   3.448   0.284 -0.8258  0.0940 -0.3385
  483TMC3    C3 7235   0.843   3.492   0.345 -0.3474  0.0839  0.3114
  483TMC3    C4 7236   0.701   3.284   0.466 -0.8662  0.4855 -0.2452
  483TMC3    C5 7237   0.818   3.337   0.521 -0.9541 -0.4785  0.2727
  483TMC3    C6 7238   0.888   3.435   0.467  0.0878 -0.2191  0.5397
  483TMC3     C 7239   0.554   3.282   0.272 -0.1290  0.5403  0.5196
  483TMC3     O 7240   0.497   3.354   0.190 -0.1438  0.0749  0.0820
  483TMC3     H 7241   0.675   3.505   0.205 -0.9291  0.0989 -0.2718
  483TMC3    H1 7242   0.643   3.202   0.508 -1.9717  1.6539  0.5072
  483TMC3    H2 7243   0.969   3.484   0.519 -0.8651  1.7208  0.2129
  483TMC3    C7 7244   0.893   3.274   0.628 -0.5583 -0.5224  0.6558
  483TMC3    C8 7245   0.931   3.591   0.286  0.2519 -0.5975  0.3128
  483TMC3    O1 7246   0.974   3.334   0.699 -0.2161 -0.6967 -0.1490
  483TMC3    O2 7247   1.038   3.604   0.339 -0.5630  0.4439 -0.3996
  484MPD2     C 7248   3.353   2.257  12.459 -0.3508  0.1112  0.0257
  484MPD2    C1 7249   3.441   2.153  12.458 -0.1199  0.0605 -0.5155
  484MPD2    C2 7250   3.579   2.172  12.446 -0.4645  0.8148 -0.8331
  484MPD2    C3 7251   3.620   2.304  12.428  0.0064  0.1704  0.6748
  484MPD2    C4 7252   3.532   2.406  12.422  0.0909 -0.6486 -0.4769
  484MPD2    C5 7253   3.400   2.386  12.439  0.0222  0.3002 -0.5105
  484MPD2     H 7254   3.644   2.085  12.448 -1.3835  0.2017  1.9360
  484MPD2    H1 7255   3.570   2.502  12.390  1.4126 -1.2270 -0.6648
  484MPD2    H2 7256   3.246   2.240  12.470 -0.7570  0.1511 -3.7460
  484MPD2    H3 7257   3.331   2.466  12.412 -1.7082 -0.9433  0.2101
  484MPD2     N 7258   3.753   2.344  12.392 -0.4729 -0.1228  0.2133
  484MPD2    H5 7259   3.768   2.442  12.371 -1.9612 -0.1440 -0.9881
  484MPD2    N1 7260   3.386   2.023  12.482 -0.0167  0.0345  0.2483
  484MPD2    H7 7261   3.290   2.022  12.515  0.0105  2.0248  0.3810
  485TMC3    C1 7262   3.975   2.327  12.313  0.2289 -0.0291 -0.9107
  485TMC3    C2 7263   4.094   2.264  12.334  0.2624  0.2574 -0.0215
  485TMC3    C3 7264   4.203   2.343  12.302  0.5334 -0.2627 -0.6786
  485TMC3    C4 7265   3.958   2.447  12.255  0.1478  0.1910  0.1994
  485TMC3    C5 7266   4.070   2.518  12.229  0.5299  0.3936  0.4325
  485TMC3    C6 7267   4.189   2.467  12.258 -0.5260  0.3498 -0.5001
  485TMC3     C 7268   3.861   2.262  12.385 -0.5153  0.0105  0.5420
  485TMC3     O 7269   3.870   2.149  12.430 -0.1712  0.1629 -0.3361
  485TMC3     H 7270   4.110   2.161  12.365 -0.6180 -0.0723 -0.6828
  485TMC3    H1 7271   3.866   2.481  12.211 -0.3956 -3.0509 -1.2310
  485TMC3    H2 7272   4.271   2.536  12.241 -0.0813 -0.0160  0.2102
  485TMC3    C7 7273   4.074   2.577  12.098 -0.9854 -0.3107 -0.2780
  485TMC3    C8 7274   4.290   2.274  12.203  0.3243 -0.1432  0.4309
  485TMC3    O1 7275   3.980   2.641  12.054  0.0403 -0.0655 -0.3834
  485TMC3    O2 7276   4.343   2.342  12.121 -0.0760 -0.0226 -0.0511
  486MPD2     C 7277   0.529   0.915  12.098 -0.3442  0.0440 -0.5521
  486MPD2    C1 7278   0.504   1.000  12.202 -0.1273  0.7519 -0.4482
  486MPD2    C2 7279   0.404   1.092  12.185  0.0155 -0.1384  0.3488
  486MPD2    C3 7280   0.339   1.103  12.064  0.3568  0.0086  0.5078
  486MPD2    C4 7281   0.385   1.034  11.957 -0.0879  0.2184  0.7234
  486MPD2    C5 7282   0.474   0.935  11.973  0.1359  0.2657  0.8057
  486MPD2     H 7283   0.377   1.160  12.265  0.4017  2.8905 -2.0763
  486MPD2    H1 7284   0.361   1.050  11.852  1.4279  0.2288  0.3776
  486MPD2    H2 7285   0.605   0.839  12.113 -2.3613 -2.1957 -1.5079
  486MPD2    H3 7286   0.507   0.872  11.892  1.1964  1.5185  0.2648
  486MPD2     N 7287   0.246   1.213  12.046 -0.8811  0.1238  0.4794
  486MPD2    H5 7288   0.264   1.278  12.122  1.4409 -1.6872  1.4848
  486MPD2    N1 7289   0.574   0.962  12.322  0.3055 -0.4560 -0.3904
  486MPD2    H7 7290   0.642   0.887  12.313 -0.1421 -0.6691 -2.0270
  487TMC3    C1 7291   0.643   0.970  12.541 -0.6394 -0.8119  0.2128
  487TMC3    C2 7292   0.731   0.876  12.510  1.0001 -0.1876 -0.4610
  487TMC3    C3 7293   0.853   0.881  12.571 -0.1774 -0.3651 -0.7387
  487TMC3    C4 7294   0.654   1.049  12.656  0.3544  0.7130 -0.2925
  487TMC3    C5 7295   0.782   1.057  12.712 -0.5018 -0.7405 -0.5214
  487TMC3    C6 7296   0.883   0.985  12.658 -0.5815 -0.1768  0.1628
  487TMC3     C 7297   0.545   1.009  12.441 -0.2667 -0.2489 -0.3062
  487TMC3     O 7298   0.459   1.094  12.464 -0.7700 -0.3179 -0.2811
  487TMC3     H 7299   0.702   0.787  12.454 -1.7140 -0.1066  0.8530
  487TMC3    H1 7300   0.575   1.118  12.680  0.7330  0.6276  1.2005
  487TMC3    H2 7301   0.975   0.973  12.714 -0.0038 -0.4929 -0.8652
  487TMC3    C7 7302   0.776   1.045  12.863 -0.5554 -0.3579 -0.0786
  487TMC3    C8 7303   0.923   0.761  12.603  0.2981  0.2905  0.0090
  487TMC3    O1 7304   0.885   1.016  12.915 -0.1557  0.3490 -0.1709
  487TMC3    O2 7305   1.046   0.760  12.575  0.2876  0.8649  0.5171
  488MPD2     C 7306   1.523   2.095  16.390  0.0985 -0.2444 -0.5045
  488MPD2    C1 7307   1.596   2.179  16.472 -0.5278  0.4655  0.6190
  488MPD2    C2 7308   1.589   2.172  16.613  0.8918  0.2676 -0.3117
  488MPD2    C3 7309   1.508   2.079  16.671 -0.3772 -0.4521  0.0376
  488MPD2    C4 7310   1.456   1.975  16.590  0.2664  0.3458 -0.3539
  488MPD2    C5 7311   1.454   1.989  16.453  0.6411 -0.3442  0.2796
  488MPD2     H 7312   1.630   2.247  16.680  2.1209  0.1720 -0.9590
  488MPD2    H1 7313   1.390   1.901  16.633  2.3215 -0.0816  2.0405
  488MPD2    H2 7314   1.514   2.104  16.282 -0.6354  1.7331 -0.2670
  488MPD2    H3 7315   1.412   1.919  16.382 -0.6036  0.7728 -0.0657
  488MPD2     N 7316   1.486   2.076  16.811 -0.1536 -0.3051 -0.0502
  488MPD2    H5 7317   1.524   2.155  16.862  0.6836  1.7176 -3.7704
  488MPD2    N1 7318   1.673   2.289  16.423  0.2828 -0.3126  0.3084
  488MPD2    H7 7319   1.705   2.357  16.491  0.7451 -0.3309  0.1106
  489TMC3    C1 7320   1.397   2.041  17.028 -0.0235 -0.4214  0.1397
  489TMC3    C2 7321   1.505   2.094  17.088  0.0273 -0.1801  0.0544
  489TMC3    C3 7322   1.518   2.098  17.225  0.0160 -0.0608  0.4579
  489TMC3    C4 7323   1.300   1.990  17.112 -0.2999 -0.0887 -0.1999
  489TMC3    C5 7324   1.307   2.016  17.248 -0.0363 -0.4783 -0.3087
  489TMC3    C6 7325   1.419   2.057  17.307  0.1845 -0.1392  0.2330
  489TMC3     C 7326   1.387   2.015  16.886  0.2081  0.1400 -0.5940
  489TMC3     O 7327   1.305   1.934  16.849 -0.2957 -0.1926  0.4487
  489TMC3     H 7328   1.596   2.117  17.033 -0.3854  1.4856  0.0452
  489TMC3    H1 7329   1.212   1.947  17.067  1.7599 -0.0833 -4.2536
  489TMC3    H2 7330   1.438   2.070  17.413 -2.1197 -1.9296  0.8564
  489TMC3    C7 7331   1.228   1.920  17.326 -0.1934  0.4945  1.0138
  489TMC3    C8 7332   1.625   2.181  17.278  0.1533 -0.1627 -0.7719
  489TMC3    O1 7333   1.288   1.848  17.397  0.2100 -0.0932  0.1180
  489TMC3    O2 7334   1.734   2.169  17.224 -0.0195 -0.5306 -0.5585
  490MPD2     C 7335   1.990   1.708   0.051  0.0038  0.3089  0.8990
  490MPD2    C1 7336   1.995   1.582  17.711  0.3045 -0.1533  0.2555
  490MPD2    C2 7337   2.111   1.533  17.654 -0.0859  0.0394 -0.7530
  490MPD2    C3 7338   2.226   1.604  17.686  0.4475  0.3372 -0.4825
  490MPD2    C4 7339   2.231   1.721   0.033  0.5250 -0.6922 -0.7135
  490MPD2    C5 7340   2.107   1.772   0.077  0.5106  0.2103 -0.8841
  490MPD2     H 7341   2.108   1.443  17.593  0.7379 -1.2221  1.0533
  490MPD2    H1 7342   2.325   1.771   0.051  0.1682 -0.2779 -0.0289
  490MPD2    H2 7343   1.894   1.750   0.077  1.4046  1.3292  4.3839
  490MPD2    H3 7344   2.109   1.866   0.131 -0.9416  0.6002 -1.4957
  490MPD2     N 7345   2.351   1.551  17.642  0.1132 -0.2861 -0.3238
  490MPD2    H5 7346   2.434   1.609  17.633 -0.7986  0.9228 -0.9864
  490MPD2    N1 7347   1.885   1.501  17.681 -0.1553 -0.2948 -0.4585
  490MPD2    H7 7348   1.906   1.418  17.627 -0.6862 -0.8314  0.1603
  491TMC3    C1 7349   1.679   1.401  17.700 -0.3528 -0.0954  0.4765
  491TMC3    C2 7350   1.622   1.332   0.067  0.2388  0.4458 -0.2204
  491TMC3    C3 7351   1.565   1.214   0.026 -0.1694 -0.5978  0.3098
  491TMC3    C4 7352   1.667   1.380  17.569  0.2039  0.3510 -0.3108
  491TMC3    C5 7353   1.598   1.273  17.532  0.1747  0.5598  0.3930
  491TMC3    C6 7354   1.551   1.177  17.619 -0.0535 -0.1395 -0.0812
  491TMC3     C 7355   1.763   1.508   0.012 -0.1216  0.2593  0.2790
  491TMC3     O 7356   1.725   1.572   0.105 -0.0828 -0.6738  0.1807
  491TMC3     H 7357   1.629   1.355   0.173 -1.8013  0.7609 -0.1434
  491TMC3    H1 7358   1.710   1.457  17.505  2.5733 -1.3268 -0.7397
  491TMC3    H2 7359   1.500   1.089  17.584 -0.0131 -0.2940  0.2472
  491TMC3    C7 7360   1.584   1.240  17.393  0.0541 -0.0251  0.0731
  491TMC3    C8 7361   1.517   1.129   0.132  0.4259  0.0241  0.3032
  491TMC3    O1 7362   1.553   1.122  17.365  0.5320 -0.0682  0.0381
  491TMC3    O2 7363   1.492   1.184   0.237  0.4489 -0.0311  0.0058
  492MPD2     C 7364   2.191   2.039  10.420  0.4602 -0.3683 -0.0943
  492MPD2    C1 7365   2.088   1.947  10.401 -0.2144 -0.0096 -0.0204
  492MPD2    C2 7366   2.035   1.880  10.511 -0.1432 -0.7609  0.5760
  492MPD2    C3 7367   2.098   1.894  10.632 -0.0958 -1.0188 -0.3403
  492MPD2    C4 7368   2.192   1.995  10.646 -0.1965 -0.2462  0.0719
  492MPD2    C5 7369   2.237   2.065  10.539  0.2809  0.0098 -0.8939
  492MPD2     H 7370   1.946   1.818  10.507 -0.4914 -0.1439 -1.4215
  492MPD2    H1 7371   2.235   2.010  10.744  2.3016  1.8111 -1.3186
  492MPD2    H2 7372   2.230   2.097  10.337  0.0417  1.0457  0.6983
  492MPD2    H3 7373   2.313   2.143  10.544  1.1922 -1.0983  2.5624
  492MPD2     N 7374   2.053   1.826  10.751 -0.1216 -0.0151 -0.1451
  492MPD2    H5 7375   2.111   1.840  10.833  2.0312  0.1264 -1.7209
  492MPD2    N1 7376   2.051   1.929  10.263 -0.0164 -0.4096 -0.1391
  492MPD2    H7 7377   2.102   1.989  10.199  0.6646  0.4280  1.1673
  493TMC3    C1 7378   1.959   1.836  10.065 -0.0813  0.4639  0.4295
  493TMC3    C2 7379   2.005   1.946   9.997  0.5130 -0.3212  0.3580
  493TMC3    C3 7380   2.016   1.934   9.865 -0.1220 -0.4264  0.1070
  493TMC3    C4 7381   1.942   1.714  10.009  0.0305  0.6541  0.7521
  493TMC3    C5 7382   1.959   1.708   9.871 -0.5682 -0.5895  0.0966
  493TMC3    C6 7383   1.987   1.818   9.795 -0.2152  0.2718 -1.0386
  493TMC3     C 7384   1.960   1.838  10.212  0.2616  0.5729  0.1470
  493TMC3     O 7385   1.905   1.742  10.267  0.0093 -0.1336 -0.5280
  493TMC3     H 7386   2.009   2.044  10.045 -0.2157 -1.3408  2.5127
  493TMC3    H1 7387   1.931   1.621  10.062  0.5480  0.1553 -0.0188
  493TMC3    H2 7388   1.990   1.814   9.687 -0.0075 -0.1851 -1.0165
  493TMC3    C7 7389   1.875   1.608   9.805  0.6430  0.4062  0.0036
  493TMC3    C8 7390   2.040   2.053   9.777  0.0304 -0.1372 -0.5160
  493TMC3    O1 7391   1.814   1.643   9.704 -0.1106 -0.2315  0.3929
  493TMC3    O2 7392   2.015   2.053   9.658  0.6670  0.0367 -0.2315
  494TMC3    C1 7393   2.319   3.629   0.417  0.5300 -0.5828  0.0777
  494TMC3    C2 7394   2.321   3.500   0.457 -0.4327  0.5035 -0.2821
  494TMC3    C3 7395   2.349   3.405   0.359 -0.5114  0.6308 -0.0065
  494TMC3    C4 7396   2.379   3.666   0.302  0.5843  0.6492 -0.8164
  494TMC3    C5 7397   2.424   3.573   0.215  0.2792  0.3187  0.1367
  494TMC3    C6 7398   2.400   3.441   0.239 -0.5295  0.5468  0.4010
  494TMC3     C 7399   2.254   3.723   0.496  0.4305 -0.2781 -0.4417
  494TMC3     O 7400   2.240   3.696   0.614 -0.5761 -0.0555  0.1053
  494TMC3     H 7401   2.281   3.461   0.550 -0.3835 -3.4370 -1.9236
  494TMC3    H1 7402   2.403   3.768   0.274 -2.2214  1.2288 -1.1768
  494TMC3    H2 7403   2.435   3.370   0.165  3.5002  2.7753  0.1136
  494TMC3    C7 7404   2.504   3.604   0.096  0.4399 -0.4371  0.2554
  494TMC3    C8 7405   2.326   3.272   0.384 -0.4281 -0.2278  0.6424
  494TMC3    O1 7406   2.512   3.517   0.012  0.1017 -1.1297 -0.3902
  494TMC3    O2 7407   2.320   3.242   0.506 -0.7279  0.1715  0.1332
  495TMC3    C1 7408   1.553   0.868  14.519 -0.4297 -0.3112 -0.5720
  495TMC3    C2 7409   1.469   0.777  14.462 -0.1140  0.3895 -0.8884
  495TMC3    C3 7410   1.495   0.642  14.471 -0.4206  0.3121 -0.0748
  495TMC3    C4 7411   1.651   0.820  14.599 -0.2024  0.3806  0.5058
  495TMC3    C5 7412   1.663   0.689  14.632  0.2911 -0.2636  0.3983
  495TMC3    C6 7413   1.591   0.596  14.558 -0.4285 -0.7852  0.8757
  495TMC3     C 7414   1.502   0.997  14.557 -0.6635  0.0984  0.1230
  495TMC3     O 7415   1.456   1.002  14.672 -0.2265  0.3177  0.5459
  495TMC3     H 7416   1.381   0.794  14.401  0.6552 -0.7492 -2.3139
  495TMC3    H1 7417   1.702   0.895  14.659  3.0863  1.1055 -3.1885
  495TMC3    H2 7418   1.606   0.489  14.567  1.9712 -0.5385 -0.2128
  495TMC3    C7 7419   1.672   0.650  14.769  1.2454 -0.2062 -0.0329
  495TMC3    C8 7420   1.413   0.542  14.399 -0.5930  0.6283 -0.4219
  495TMC3    O1 7421   1.666   0.526  14.786 -0.7072 -0.3425 -0.2829
  495TMC3    O2 7422   1.417   0.428  14.439  0.5205 -0.2989  0.7116
  496MPD2     C 7423   3.360   0.276  14.872  0.6999  0.1434 -0.0722
  496MPD2    C1 7424   3.423   0.233  14.985  0.3631 -0.9159 -0.0937
  496MPD2    C2 7425   3.347   0.254  15.099 -0.6055 -1.2741 -0.2801
  496MPD2    C3 7426   3.220   0.307  15.095 -0.3052  0.1895 -0.0227
  496MPD2    C4 7427   3.159   0.341  14.979 -0.2664  0.0175  0.2981
  496MPD2    C5 7428   3.234   0.334  14.863 -0.1438 -0.4175 -0.0213
  496MPD2     H 7429   3.380   0.206  15.191  2.1850  2.6730  0.8221
  496MPD2    H1 7430   3.056   0.375  14.975 -0.6170 -0.9791  1.0136
  496MPD2    H2 7431   3.411   0.257  14.778  0.2831 -0.3006 -0.2051
  496MPD2    H3 7432   3.186   0.355  14.768 -0.5316 -2.0621 -0.2025
  496MPD2     N 7433   3.156   0.333  15.218  0.6874 -0.1654  1.0238
  496MPD2    H5 7434   3.056   0.348  15.214  0.9895  1.0337 -1.4840
  496MPD2    N1 7435   3.545   0.162  14.971  0.2365 -0.4010  0.0754
  496MPD2    H7 7436   3.578   0.127  14.881  1.9265  1.4371 -0.0242
  497TMC3    C1 7437   3.113   0.376  15.423 -0.4529 -0.3650 -0.4814
  497TMC3    C2 7438   2.984   0.323  15.386 -0.1833  0.4049  0.7146
  497TMC3    C3 7439   2.907   0.279  15.489 -0.7277  0.1301  0.5321
  497TMC3    C4 7440   3.160   0.381  15.548 -0.2891  1.0293 -0.0641
  497TMC3    C5 7441   3.079   0.321  15.637  0.2419  0.0397 -0.1940
  497TMC3    C6 7442   2.948   0.277  15.610  1.0569 -0.9164  0.8378
  497TMC3     C 7443   3.219   0.365  15.334 -0.5720 -0.7033 -0.3142
  497TMC3     O 7444   3.340   0.397  15.356  0.6084 -0.0365 -0.0917
  497TMC3     H 7445   2.936   0.347  15.293 -0.9287 -1.4673  0.6164
  497TMC3    H1 7446   3.261   0.399  15.583 -0.5277  2.4026 -0.0983
  497TMC3    H2 7447   2.885   0.227  15.682  0.6028  1.1978  1.9090
  497TMC3    C7 7448   3.133   0.262  15.762 -0.0241  0.0770  0.7034
  497TMC3    C8 7449   2.768   0.286  15.458  0.1135 -0.0495 -0.2698
  497TMC3    O1 7450   3.073   0.164  15.804 -0.1518  0.6785 -0.2435
  497TMC3    O2 7451   2.741   0.274  15.340 -0.3834 -0.1524  0.0203
  498MPD2     C 7452   0.012   1.888   9.846 -0.0605  0.7939  0.2994
  498MPD2    C1 7453   4.689   1.919   9.972  0.0734 -0.2494  0.1572
  498MPD2    C2 7454   4.588   1.843  10.023 -0.2928  0.4906 -0.2212
  498MPD2    C3 7455   4.539   1.735   9.954  0.1614 -0.8412  0.2032
  498MPD2    C4 7456   4.593   1.700   9.836 -0.2714 -0.2545 -0.2677
  498MPD2    C5 7457   4.697   1.773   9.782  0.2772 -0.5130  0.3188
  498MPD2     H 7458   4.542   1.872  10.117  0.2998 -1.8747  0.8104
  498MPD2    H1 7459   4.550   1.621   9.776  2.5288 -1.7364 -0.3305
  498MPD2    H2 7460   0.090   1.941   9.792 -1.3106  1.4315 -0.8561
  498MPD2    H3 7461   4.731   1.756   9.681 -3.4491 -2.7686 -0.5708
  498MPD2     N 7462   4.435   1.665  10.016 -0.5889  0.2499  0.4878
  498MPD2    H5 7463   4.408   1.704  10.105 -2.1476  3.8190 -1.5350
  498MPD2    N1 7464   4.721   2.040  10.034  0.5636  0.0930 -0.1068
  498MPD2    H7 7465   4.677   2.054  10.124  1.6314  1.1994  0.2536
  499TMC3    C1 7466   0.081   2.252  10.079  0.3005 -0.2349  0.3708
  499TMC3    C2 7467   0.197   2.312  10.122  0.3744  0.2914 -0.5003
  499TMC3    C3 7468   0.184   2.443  10.153  0.3557 -0.1986  0.2132
  499TMC3    C4 7469   4.698   2.319  10.065 -0.8300  0.0611 -0.4941
  499TMC3    C5 7470   4.693   2.451  10.103 -0.0892 -0.1282 -0.1608
  499TMC3    C6 7471   0.076   2.513  10.138  0.1226 -0.5533  0.2383
  499TMC3     C 7472   0.093   2.126  10.006 -0.9721 -0.1691  0.4875
  499TMC3     O 7473   0.190   2.112   9.932 -0.2305 -0.2152 -0.2339
  499TMC3     H 7474   0.290   2.259  10.136  1.0488  1.4168 -0.7156
  499TMC3    H1 7475   4.603   2.273  10.039  0.5904 -3.4691  0.5131
  499TMC3    H2 7476   0.070   2.620  10.151  0.1098 -0.9617  3.7040
  499TMC3    C7 7477   4.601   2.536  10.027 -0.3112  1.0609  0.1883
  499TMC3    C8 7478   0.304   2.528  10.174  0.4675 -0.2470  0.7119
  499TMC3    O1 7479   4.649   2.633   9.969  0.6160  0.0240  0.2270
  499TMC3    O2 7480   0.274   2.634  10.228 -0.0659  0.0450 -0.5197
  500MPD2     C 7481   0.872   3.045  10.900 -0.2301  0.3709  0.3649
  500MPD2    C1 7482   0.905   3.031  10.769 -0.9127 -0.1267  0.7542
  500MPD2    C2 7483   0.807   3.025  10.673 -0.6609 -0.0875 -0.4252
  500MPD2    C3 7484   0.675   3.043  10.712 -0.0793  0.0524 -0.2240
  500MPD2    C4 7485   0.639   3.057  10.844  0.4953 -0.4978 -0.2668
  500MPD2    C5 7486   0.740   3.057  10.938  0.1351 -0.4221 -0.8695
  500MPD2     H 7487   0.836   3.025  10.568 -1.4516  0.9763 -0.6388
  500MPD2    H1 7488   0.535   3.076  10.866  0.1379 -0.4343 -2.0185
  500MPD2    H2 7489   0.936   3.051  10.987 -0.1301 -2.9221  0.5216
  500MPD2    H3 7490   0.728   3.075  11.044 -0.6735 -1.7736 -0.7208
  500MPD2     N 7491   0.568   3.056  10.612  0.9319 -0.5942 -0.3636
  500MPD2    H5 7492   0.483   3.094  10.654  1.2688  1.2680 -1.3556
  500MPD2    N1 7493   1.042   3.028  10.726  0.0312  0.3135  0.4715
  500MPD2    H7 7494   1.057   2.994  10.631 -1.6819  2.7706 -0.6823
  501TMC3    C1 7495   1.275   3.041  10.735  0.1037 -0.6186 -0.0296
  501TMC3    C2 7496   1.283   3.048  10.601  0.1778 -0.7675  0.1274
  501TMC3    C3 7497   1.401   3.016  10.534 -0.4571  0.6967  0.0795
  501TMC3    C4 7498   1.379   3.002  10.810 -0.6893  0.5060 -0.6567
  501TMC3    C5 7499   1.490   2.955  10.740  0.1005 -0.8878 -0.0339
  501TMC3    C6 7500   1.505   2.957  10.608  0.4737 -0.2645  0.1860
  501TMC3     C 7501   1.151   3.048  10.806  0.9749  0.0501  0.2784
  501TMC3     O 7502   1.151   3.078  10.923  0.4178 -0.7005  0.2657
  501TMC3     H 7503   1.198   3.084  10.545  0.9606  1.9867  0.7228
  501TMC3    H1 7504   1.373   2.991  10.918 -0.8843  0.4232 -0.6759
  501TMC3    H2 7505   1.589   2.909  10.559  1.0920  3.3765 -2.3421
  501TMC3    C7 7506   1.588   2.886  10.823 -0.0502 -0.1315  0.6262
  501TMC3    C8 7507   1.387   2.965  10.397  0.5099 -0.0936  0.8020
  501TMC3    O1 7508   1.541   2.832  10.928 -0.3981  0.5084  0.0429
  501TMC3    O2 7509   1.436   2.855  10.374  0.1590 -0.1779 -0.1537
  502TMC3    C1 7510   0.993   0.967  14.929  0.1347  0.5617 -0.3405
  502TMC3    C2 7511   0.998   1.032  14.813  0.7059  0.3863  0.0526
  502TMC3    C3 7512   0.887   1.097  14.761  0.1806  0.0595 -0.6931
  502TMC3    C4 7513   0.875   0.967  14.998 -1.0036  0.1448 -0.2311
  502TMC3    C5 7514   0.766   1.036  14.951  0.2045 -0.2235  0.2911
  502TMC3    C6 7515   0.769   1.089  14.824  0.7821  0.4667 -0.3576
  502TMC3     C 7516   1.114   0.968  15.005 -0.0838 -0.0635  0.8936
  502TMC3     O 7517   1.223   0.959  14.946 -0.0437 -0.0466 -0.2283
  502TMC3     H 7518   1.097   1.036  14.769  1.4479  1.1883  1.8156
  502TMC3    H1 7519   0.863   0.907  15.088 -0.1170  0.4667  0.1010
  502TMC3    H2 7520   0.685   1.141  14.780  0.0621 -0.6691 -0.3078
  502TMC3    C7 7521   0.717   1.128  15.055  0.4871  0.0096 -0.7387
  502TMC3    C8 7522   0.909   1.239  14.737  0.1744 -0.0532  0.0889
  502TMC3    O1 7523   0.780   1.137  15.159 -0.1530  0.1199 -0.4757
  502TMC3    O2 7524   0.832   1.318  14.794 -0.1621 -0.0396 -0.4646
  503MPD2     C 7525   2.882   1.899  17.337 -0.4695 -0.3741 -0.2537
  503MPD2    C1 7526   2.942   1.959  17.453  0.1064  0.3199  0.7729
  503MPD2    C2 7527   2.983   1.877  17.549 -0.2807 -0.0191  0.0649
  503MPD2    C3 7528   2.981   1.738  17.530  0.6645  0.4351 -0.1014
  503MPD2    C4 7529   2.936   1.677  17.413 -0.8318 -0.3029  0.3505
  503MPD2    C5 7530   2.881   1.758  17.318  0.2235  0.6082  0.3335
  503MPD2     H 7531   3.020   1.915  17.643  0.6764 -1.8612  0.4418
  503MPD2    H1 7532   2.949   1.571  17.392  0.4022 -0.5353  2.3487
  503MPD2    H2 7533   2.831   1.959  17.263  0.7668  0.2806 -0.5758
  503MPD2    H3 7534   2.841   1.732  17.221  0.3418 -0.7372  0.6361
  503MPD2     N 7535   3.026   1.666  17.643  0.4283 -0.0593  0.3386
  503MPD2    H5 7536   3.059   1.720  17.722  0.5866 -0.5961  0.6382
  503MPD2    N1 7537   2.955   2.098  17.469 -0.2082 -0.0284 -0.5706
  503MPD2    H7 7538   2.997   2.125  17.558  1.5277 -0.8104 -1.1579
  504TMC3    C1 7539   3.115   1.498   0.047 -1.1721  0.1086 -0.0747
  504TMC3    C2 7540   3.076   1.389   0.117 -0.5239  0.4243 -0.1397
  504TMC3    C3 7541   3.170   1.323   0.193 -0.8429 -0.9537 -0.5656
  504TMC3    C4 7542   3.245   1.538   0.038 -0.7691 -0.3079 -0.3509
  504TMC3    C5 7543   3.339   1.463   0.106 -0.1478 -0.0856  0.1808
  504TMC3    C6 7544   3.305   1.345   0.182 -0.5407 -0.1223 -0.5827
  504TMC3     C 7545   3.026   1.535  17.668 -0.1809 -0.4826 -0.2113
  504TMC3     O 7546   2.974   1.445  17.603 -0.5058  0.1327  0.1182
  504TMC3     H 7547   2.972   1.359   0.122  0.1451 -1.8381  0.1096
  504TMC3    H1 7548   3.270   1.634  17.723  1.5716 -0.5957  0.3326
  504TMC3    H2 7549   3.384   1.290   0.231 -2.5423 -1.0425  1.6359
  504TMC3    C7 7550   3.474   1.466   0.048  0.3500  0.2236  0.3995
  504TMC3    C8 7551   3.135   1.191   0.246  0.0146 -0.0769 -0.2745
  504TMC3    O1 7552   3.475   1.528  17.673  0.0974 -0.5364  0.1667
  504TMC3    O2 7553   3.049   1.132   0.184  0.0908 -0.4814  0.2191
  505MPD2     C 7554   3.125   1.339  10.633 -0.2053 -0.1672 -0.0897
  505MPD2    C1 7555   3.216   1.274  10.712 -0.4559  0.4301 -0.5105
  505MPD2    C2 7556   3.298   1.348  10.801  0.5394  0.0557 -0.4701
  505MPD2    C3 7557   3.266   1.480  10.822  0.5162 -0.0067  0.0160
  505MPD2    C4 7558   3.158   1.541  10.749 -0.5026 -0.1032 -0.4138
  505MPD2    C5 7559   3.092   1.470  10.651 -0.0169 -0.7122 -0.1344
  505MPD2     H 7560   3.379   1.295  10.849 -0.7927  1.0686  2.9210
  505MPD2    H1 7561   3.134   1.646  10.749  1.9175  0.4502  0.3650
  505MPD2    H2 7562   3.064   1.286  10.560  0.9881 -2.5636  0.6641
  505MPD2    H3 7563   3.015   1.514  10.589 -0.5865 -0.3424  0.8435
  505MPD2     N 7564   3.342   1.550  10.915  0.5874 -0.0980 -0.4207
  505MPD2    H5 7565   3.411   1.499  10.970  0.9145  0.4775 -0.3004
  505MPD2    N1 7566   3.232   1.138  10.699  1.0411 -0.4234 -0.1038
  505MPD2    H7 7567   3.173   1.095  10.628  0.8112 -2.7277  1.4710
  506TMC3    C1 7568   3.319   0.918  10.721 -0.6079 -0.0740  0.9505
  506TMC3    C2 7569   3.332   0.921  10.584  0.2563 -0.1466  0.4622
  506TMC3    C3 7570   3.444   0.865  10.524  0.0933  0.8683  0.0245
  506TMC3    C4 7571   3.410   0.843  10.785  0.6546  0.6775 -0.8523
  506TMC3    C5 7572   3.526   0.788  10.735 -0.3688  0.9889 -0.2268
  506TMC3    C6 7573   3.541   0.799  10.602  0.0015  0.7121  0.0317
  506TMC3     C 7574   3.310   1.054  10.779  0.2338  0.7659  0.2252
  506TMC3     O 7575   3.373   1.067  10.885 -0.3453 -0.1456  0.3959
  506TMC3     H 7576   3.278   0.992  10.523  1.2882  0.5330  0.3495
  506TMC3    H1 7577   3.400   0.833  10.892 -0.1281  2.0584 -0.8019
  506TMC3    H2 7578   3.626   0.752  10.555 -0.3690  0.2887 -0.2078
  506TMC3    C7 7579   3.651   0.826  10.805 -0.5103 -0.2723  0.4881
  506TMC3    C8 7580   3.478   0.900  10.386  0.0196  0.1103  0.1108
  506TMC3    O1 7581   3.763   0.791  10.769 -0.0605 -0.2698  0.3354
  506TMC3    O2 7582   3.392   0.923  10.301  0.0658  0.3556 -0.0174
  507TMC3    C1 7583   4.045   1.210  14.603  0.7079  0.7358 -0.2087
  507TMC3    C2 7584   4.121   1.214  14.493  0.4152 -0.5819 -0.0217
  507TMC3    C3 7585   4.238   1.284  14.495 -0.6233 -0.6393 -0.3908
  507TMC3    C4 7586   4.080   1.271  14.722  0.9067  0.3382  0.0557
  507TMC3    C5 7587   4.198   1.343  14.722 -0.8858 -1.1805 -0.1445
  507TMC3    C6 7588   4.280   1.341  14.614  0.4660 -0.8483  0.7468
  507TMC3     C 7589   3.903   1.186  14.591 -0.8173  0.1111  0.5764
  507TMC3     O 7590   3.854   1.164  14.700 -0.2987 -0.2947  0.1578
  507TMC3     H 7591   4.083   1.165  14.404 -0.0277 -0.4766  0.1102
  507TMC3    H1 7592   4.027   1.287  14.815 -0.9754  0.2113 -0.9831
  507TMC3    H2 7593   4.366   1.408  14.613 -0.7102  0.6103 -3.2630
  507TMC3    C7 7594   4.169   1.483  14.754 -0.0390  0.3312  0.4390
  507TMC3    C8 7595   4.253   1.369  14.377  0.1877  0.0744  0.4505
  507TMC3    O1 7596   4.181   1.549  14.655  0.5351 -0.6272  0.4165
  507TMC3    O2 7597   4.234   1.310  14.271  0.1253  0.4472  0.4607
  508MPD2     C 7598   0.512   3.825  15.981  0.0248  0.9533 -0.3031
  508MPD2    C1 7599   0.525   3.901  16.095 -0.4674 -0.4604  0.3695
  508MPD2    C2 7600   0.485   4.034  16.097 -0.4275 -0.8806  0.5891
  508MPD2    C3 7601   0.450   4.099  15.975  0.0625 -0.1213  0.6723
  508MPD2    C4 7602   0.436   4.017  15.865 -0.2976  0.3838 -0.0586
  508MPD2    C5 7603   0.461   3.885  15.869 -0.2342  0.2720 -0.0592
  508MPD2     H 7604   0.482   4.094  16.186 -1.0708 -0.9367  0.6039
  508MPD2    H1 7605   0.403   4.057  15.770  0.6628  2.9006  0.6633
  508MPD2    H2 7606   0.523   3.717  15.970 -1.1054  1.0282 -2.2574
  508MPD2    H3 7607   0.442   3.822  15.783 -0.4910  1.2917 -0.7327
  508MPD2     N 7608   0.439   4.235  15.977 -0.1055 -0.1853  0.2966
  508MPD2    H5 7609   0.455   4.285  16.064  1.3303 -0.3015  0.0972
  508MPD2    N1 7610   0.556   3.852  16.222  0.0990 -0.4338  0.1310
  508MPD2    H7 7611   0.556   3.916  16.300 -0.9339 -0.4220  0.1215
  509TMC3    C1 7612   0.402   4.674  15.839  0.4325  0.2461 -0.1483
  509TMC3    C2 7613   0.492   4.712  15.929 -0.3037  0.3924  0.1476
  509TMC3    C3 7614   0.551   4.623  16.008  0.4214  0.3751 -0.3076
  509TMC3    C4 7615   0.382   4.539  15.808  0.1515  0.2412  0.1942
  509TMC3    C5 7616   0.434   4.452  15.895 -0.4744  0.2597 -0.6057
  509TMC3    C6 7617   0.510   4.496  16.004  0.9447  0.5748 -0.1216
  509TMC3     C 7618   0.318   0.039  15.777 -0.3745  0.3523 -0.4359
  509TMC3     O 7619   0.273   0.122  15.855 -0.6585 -0.0681 -0.0874
  509TMC3     H 7620   0.507   0.085  15.949  0.5337 -0.1227  2.2615
  509TMC3    H1 7621   0.300   4.502  15.748 -0.4665  1.1476  0.4904
  509TMC3    H2 7622   0.560   4.427  16.071  1.2983 -0.0873 -1.0662
  509TMC3    C7 7623   0.411   4.311  15.864 -0.0022 -0.3445  0.7644
  509TMC3    C8 7624   0.683   4.647  16.063 -0.5615 -0.6302  0.7735
  509TMC3    O1 7625   0.379   4.277  15.752 -0.0955 -0.3922 -0.1502
  509TMC3    O2 7626   0.726   4.567  16.145 -0.5030 -0.1576 -0.8863
  510MPD2     C 7627   2.951   0.866  14.175  0.4258 -0.1982  0.0988
  510MPD2    C1 7628   2.999   0.877  14.302 -1.0450 -0.2449 -0.8521
  510MPD2    C2 7629   3.132   0.915  14.327  0.6211 -0.1110 -0.3066
  510MPD2    C3 7630   3.218   0.939  14.219 -0.6003 -0.0473 -0.2253
  510MPD2    C4 7631   3.173   0.908  14.093 -0.8724 -0.6865 -0.3036
  510MPD2    C5 7632   3.038   0.872  14.071  0.6456  0.0556 -0.4453
  510MPD2     H 7633   3.173   0.914  14.427  0.2381  1.1937 -0.1313
  510MPD2    H1 7634   3.238   0.913  14.006  0.8757  0.4208  1.0488
  510MPD2    H2 7635   2.853   0.824  14.156 -0.4575  2.7897 -1.8469
  510MPD2    H3 7636   3.007   0.853  13.969 -0.8619 -2.1038  0.4109
  510MPD2     N 7637   3.351   0.976  14.249  0.1653 -0.5075  0.1132
  510MPD2    H5 7638   3.379   0.983  14.346  3.4684 -0.1736 -0.8668
  510MPD2    N1 7639   2.903   0.846  14.404  0.3188 -0.6233  0.4960
  510MPD2    H7 7640   2.813   0.812  14.371  1.5311 -1.4386 -1.9945
  511TMC3    C1 7641   2.810   0.767  14.599  0.7226 -0.6390  0.4852
  511TMC3    C2 7642   2.738   0.804  14.710 -0.0697  0.8935 -0.3578
  511TMC3    C3 7643   2.625   0.736  14.735  0.6261 -0.9534  0.5744
  511TMC3    C4 7644   2.771   0.669  14.516  0.4986  0.2798  0.2295
  511TMC3    C5 7645   2.660   0.605  14.546 -0.2192  0.4078  0.0485
  511TMC3    C6 7646   2.581   0.637  14.657  0.2929 -0.4499  0.5149
  511TMC3     C 7647   2.910   0.862  14.540 -0.3786  0.4381 -0.0923
  511TMC3     O 7648   2.986   0.922  14.615 -0.3918 -0.4493 -0.9887
  511TMC3     H 7649   2.758   0.894  14.766 -0.4538  0.8263 -0.1158
  511TMC3    H1 7650   2.845   0.625  14.451  1.5562  2.6710 -0.1944
  511TMC3    H2 7651   2.497   0.572  14.681  0.5324 -0.6810  0.7228
  511TMC3    C7 7652   2.619   0.512  14.439  0.5666 -0.1046  0.4634
  511TMC3    C8 7653   2.571   0.758  14.870  0.7237 -0.3730 -0.0117
  511TMC3    O1 7654   2.658   0.542  14.324  0.2066 -0.1040 -0.0855
  511TMC3    O2 7655   2.593   0.865  14.921 -0.6248  0.1682  0.0866
  512TMC3    C1 7656   1.918   0.441  12.983 -0.0702  0.0669 -0.4572
  512TMC3    C2 7657   2.013   0.438  13.076  0.7222  0.0808  1.0066
  512TMC3    C3 7658   2.004   0.356  13.183  0.3539  0.1008 -0.6312
  512TMC3    C4 7659   1.812   0.355  12.991  0.2603  0.7277 -0.2119
  512TMC3    C5 7660   1.810   0.262  13.092 -0.7732 -0.0131 -0.6149
  512TMC3    C6 7661   1.904   0.259  13.189 -0.5990  0.5285 -0.1327
  512TMC3     C 7662   1.944   0.509  12.861 -0.3949  0.0457  0.1587
  512TMC3     O 7663   2.064   0.496  12.831 -0.0327  0.4597  0.5299
  512TMC3     H 7664   2.108   0.487  13.057  0.8666 -1.2426 -1.5865
  512TMC3    H1 7665   1.738   0.353  12.912  1.1358 -1.4388 -0.9765
  512TMC3    H2 7666   1.904   0.200  13.280 -3.1614  0.5068 -0.1369
  512TMC3    C7 7667   1.686   0.181  13.101 -0.7239  0.2328  0.4046
  512TMC3    C8 7668   2.098   0.354  13.287 -0.4048 -0.5630  0.0028
  512TMC3    O1 7669   1.598   0.206  13.020 -0.1696 -0.5187  0.0034
  512TMC3    O2 7670   2.121   0.240  13.342 -0.3205  0.3332 -0.3052
  513MPD2     C 7671   3.566   0.429  13.465 -0.7895  0.4344 -0.0177
  513MPD2    C1 7672   3.641   0.436  13.352  0.3686 -0.5688  0.5404
  513MPD2    C2 7673   3.772   0.489  13.369 -0.0026  0.3121 -0.4195
  513MPD2    C3 7674   3.818   0.511  13.499  0.8824 -0.4232 -0.9212
  513MPD2    C4 7675   3.732   0.507  13.603  1.1450 -0.4263 -0.3926
  513MPD2    C5 7676   3.608   0.467  13.587 -0.7841  0.2468  0.8424
  513MPD2     H 7677   3.849   0.508  13.296 -0.1636 -2.2102 -1.2338
  513MPD2    H1 7678   3.769   0.525  13.704  0.6676 -0.2349 -0.2521
  513MPD2    H2 7679   3.465   0.393  13.447  0.0357 -1.2999 -1.1487
  513MPD2    H3 7680   3.535   0.462  13.667 -1.4206 -1.5711  0.1573
  513MPD2     N 7681   3.958   0.535  13.513  0.0766 -0.0296  0.4414
  513MPD2    H5 7682   4.012   0.526  13.427  0.7554 -2.3878  1.1290
  513MPD2    N1 7683   3.593   0.391  13.222  0.2380  0.1402 -0.2294
  513MPD2    H7 7684   3.501   0.349  13.211 -0.0838  0.9293 -0.5662
  514TMC3    C1 7685   3.599   0.305  13.007 -0.0819 -0.2484  0.3941
  514TMC3    C2 7686   3.538   0.388  12.916  0.5009  0.1024 -0.5997
  514TMC3    C3 7687   3.573   0.383  12.791 -0.0162 -0.2373 -0.0564
  514TMC3    C4 7688   3.677   0.204  12.970 -0.2728  0.0283  0.3102
  514TMC3    C5 7689   3.708   0.201  12.841 -0.3878 -0.1868  0.0355
  514TMC3    C6 7690   3.658   0.288  12.747  0.1478  0.0723  0.3880
  514TMC3     C 7691   3.664   0.382  13.107  0.0361 -0.1349  0.5079
  514TMC3     O 7692   3.781   0.415  13.084 -0.6267 -0.2255 -0.3188
  514TMC3     H 7693   3.466   0.457  12.958 -0.3914 -1.6816  0.7894
  514TMC3    H1 7694   3.730   0.156  13.052 -3.1479 -3.0367  0.3685
  514TMC3    H2 7695   3.677   0.268  12.643 -0.7965 -0.7901  0.3926
  514TMC3    C7 7696   3.847   0.153  12.835  0.6721  0.1904  0.6149
  514TMC3    C8 7697   3.491   0.458  12.693 -0.2037 -0.2157 -0.0043
  514TMC3    O1 7698   3.877   0.089  12.738  0.4870 -0.2387 -0.2350
  514TMC3    O2 7699   3.386   0.503  12.742  0.5821  0.3918  0.3161
  515MPD2     C 7700   1.531   1.938  15.470  0.4593 -0.3454 -0.4342
  515MPD2    C1 7701   1.642   1.872  15.437  0.3161 -0.0887  0.6464
  515MPD2    C2 7702   1.754   1.888  15.517  0.7224  0.6253 -0.0669
  515MPD2    C3 7703   1.756   1.969  15.631 -0.1689  0.5663  0.1289
  515MPD2    C4 7704   1.641   2.030  15.662  0.7262 -0.7580  0.1591
  515MPD2    C5 7705   1.535   2.022  15.580 -0.2105  0.1127  0.0406
  515MPD2     H 7706   1.845   1.837  15.485 -0.7372 -2.9547  1.4352
  515MPD2    H1 7707   1.636   2.099  15.745 -0.6558  0.1115 -0.6394
  515MPD2    H2 7708   1.442   1.922  15.410  0.9652  2.8122 -2.0703
  515MPD2    H3 7709   1.447   2.081  15.605  0.7990  1.0319  1.4761
  515MPD2     N 7710   1.864   1.984  15.723 -0.1021  0.8086 -0.1185
  515MPD2    H5 7711   1.848   2.053  15.796 -0.6753 -1.3042  1.7555
  515MPD2    N1 7712   1.665   1.799  15.318  1.0750  0.2587 -0.5713
  515MPD2    H7 7713   1.758   1.762  15.305  0.4482 -0.8248 -1.9777
  516TMC3    C1 7714   1.614   1.697  15.116 -0.2469  0.0773  0.3182
  516TMC3    C2 7715   1.575   1.729  14.990  0.0088 -0.1726 -0.3600
  516TMC3    C3 7716   1.622   1.653  14.880 -0.1688 -0.4821 -0.4908
  516TMC3    C4 7717   1.697   1.593  15.140  0.1628 -0.6026  0.2551
  516TMC3    C5 7718   1.747   1.527  15.034  0.7477  0.9779 -0.2902
  516TMC3    C6 7719   1.712   1.548  14.904  0.6220  0.5576 -0.6534
  516TMC3     C 7720   1.566   1.780  15.218 -0.4359  0.1512 -0.1270
  516TMC3     O 7721   1.450   1.800  15.210 -0.0924  0.4359 -0.0123
  516TMC3     H 7722   1.520   1.821  14.977 -1.9585 -1.4874 -1.2569
  516TMC3    H1 7723   1.717   1.563  15.243  1.5702 -0.0576  0.1457
  516TMC3    H2 7724   1.747   1.484  14.823 -1.8820 -0.7531 -0.7222
  516TMC3    C7 7725   1.846   1.428  15.063 -0.4066 -0.3773 -0.1739
  516TMC3    C8 7726   1.594   1.710  14.751 -0.1024  0.0578  0.2104
  516TMC3    O1 7727   1.866   1.396  15.181 -0.0028  0.3812 -0.3354
  516TMC3    O2 7728   1.521   1.804  14.747 -0.4740  0.3907  0.0836
  517MPD2     C 7729   1.902   3.449   0.570  0.3119 -0.1702  0.0981
  517MPD2    C1 7730   1.869   3.449   0.432  0.0840  0.2319 -0.4903
  517MPD2    C2 7731   1.844   3.573   0.369  0.1999  0.9789  0.4234
  517MPD2    C3 7732   1.829   3.692   0.440  0.1509  0.2728  0.5286
  517MPD2    C4 7733   1.842   3.686   0.579 -0.5567 -0.2272  0.1176
  517MPD2    C5 7734   1.884   3.571   0.636 -0.6299  0.0118  0.1021
  517MPD2     H 7735   1.846   3.561   0.261 -1.2620  0.8427  0.4099
  517MPD2    H1 7736   1.817   3.771   0.642  0.1509 -1.2514  1.7951
  517MPD2    H2 7737   1.940   3.361   0.621 -0.8371  1.0427  3.0442
  517MPD2    H3 7738   1.904   3.569   0.743 -4.1218  0.2702  0.7753
  517MPD2     N 7739   1.785   3.809   0.369  0.3446  0.0613  0.1490
  517MPD2    H5 7740   1.770   3.893   0.424  0.3908  0.5228 -0.5476
  517MPD2    N1 7741   1.881   3.329   0.359  0.5880 -0.1451  0.7368
  517MPD2    H7 7742   1.869   3.339   0.259 -0.5852  1.4544  1.0290
  518TMC3    C1 7743   1.879   3.093   0.309 -0.8595  0.1490 -0.2450
  518TMC3    C2 7744   1.816   2.982   0.348  0.5609 -0.1278 -0.9432
  518TMC3    C3 7745   1.826   2.872   0.262 -0.1232 -0.7939 -0.2051
  518TMC3    C4 7746   1.960   3.102   0.199  0.4013 -0.2359  0.2330
  518TMC3    C5 7747   1.973   2.991   0.121 -0.0961 -0.7788 -0.2645
  518TMC3    C6 7748   1.900   2.877   0.147  0.1552  0.1976  0.3070
  518TMC3     C 7749   1.872   3.195   0.407  0.1518 -0.4287  0.0322
  518TMC3     O 7750   1.876   3.144   0.517 -0.1589 -0.3641 -0.4694
  518TMC3     H 7751   1.743   2.980   0.428  0.8612  1.0319 -0.6363
  518TMC3    H1 7752   2.026   3.187   0.182  1.3295 -1.0435 -0.2397
  518TMC3    H2 7753   1.891   2.798   0.073  0.1276  0.8789 -0.4102
  518TMC3    C7 7754   2.063   2.993   0.004 -0.3729  0.7736  0.3612
  518TMC3    C8 7755   1.737   2.756   0.294  0.4468 -0.3667  0.0939
  518TMC3    O1 7756   2.112   3.101  17.706 -0.2515  0.2309 -0.2787
  518TMC3    O2 7757   1.659   2.779   0.384 -0.3334 -0.3914 -0.2486
  519MPD2     C 7758   3.694   1.988  14.633  0.4513  0.4821  0.0698
  519MPD2    C1 7759   3.609   2.035  14.534  0.1453  0.7516  0.6595
  519MPD2    C2 7760   3.629   1.976  14.407 -0.2153 -0.5310  0.0867
  519MPD2    C3 7761   3.732   1.893  14.380  0.2887 -0.1897 -0.1784
  519MPD2    C4 7762   3.816   1.846  14.476 -0.2424 -0.4168 -0.1020
  519MPD2    C5 7763   3.789   1.895  14.598 -0.6654 -0.9431  0.3778
  519MPD2     H 7764   3.559   2.003  14.329 -1.1713  0.4649  1.3039
  519MPD2    H1 7765   3.904   1.790  14.446  0.3027  0.2418  0.2657
  519MPD2    H2 7766   3.689   2.036  14.730 -1.5942  2.2076 -0.9010
  519MPD2    H3 7767   3.853   1.855  14.676  0.0586 -0.2936  0.1108
  519MPD2     N 7768   3.750   1.831  14.251 -0.6293  0.5221 -0.5312
  519MPD2    H5 7769   3.820   1.759  14.246 -2.3044 -1.1991  0.6982
  519MPD2    N1 7770   3.510   2.119  14.573 -0.4171  0.1599  0.3148
  519MPD2    H7 7771   3.492   2.146  14.670  2.0657  1.7241  0.3363
  520TMC3    C1 7772   3.746   1.819  14.017  0.2270 -0.3225  0.4216
  520TMC3    C2 7773   3.698   1.859  13.898  0.1719 -0.1611  0.4024
  520TMC3    C3 7774   3.739   1.805  13.782 -0.0832 -0.6269  0.6062
  520TMC3    C4 7775   3.847   1.719  14.020 -0.0937  0.1388  0.2863
  520TMC3    C5 7776   3.891   1.674  13.897  0.4073  0.6568  0.1312
  520TMC3    C6 7777   3.844   1.715  13.776 -0.7029  0.2549 -0.0715
  520TMC3     C 7778   3.706   1.888  14.136  0.0789  0.2730 -0.3736
  520TMC3     O 7779   3.640   1.990  14.111 -0.0178  0.2914  0.3231
  520TMC3     H 7780   3.633   1.946  13.894 -1.5921 -1.5512 -0.8707
  520TMC3    H1 7781   3.904   1.699  14.110 -0.6188  1.0000  0.8168
  520TMC3    H2 7782   3.858   1.668  13.679  0.6145  1.5657 -0.5117
  520TMC3    C7 7783   3.948   1.539  13.906 -0.1463 -0.1820  1.3437
  520TMC3    C8 7784   3.631   1.786  13.685  0.1424 -0.2222 -0.1015
  520TMC3    O1 7785   3.928   1.481  14.009 -0.2049  0.1255  0.5417
  520TMC3    O2 7786   3.650   1.728  13.578  0.5665  0.6605 -0.2723
  521MPD2     C 7787   4.005   4.539  17.421 -0.6800 -0.1937 -0.8210
  521MPD2    C1 7788   3.956   4.471  17.311  0.4451 -0.1827 -0.0885
  521MPD2    C2 7789   4.042   4.388  17.242  0.3360  0.1217  0.4010
  521MPD2    C3 7790   4.168   4.366  17.293 -0.0953 -0.6311 -0.6466
  521MPD2    C4 7791   4.213   4.423  17.401  0.8273 -0.8494 -0.1514
  521MPD2    C5 7792   4.131   4.517  17.467  0.4222 -0.0404  0.1860
  521MPD2     H 7793   4.013   4.342  17.149 -1.0161  1.8433 -0.0383
  521MPD2    H1 7794   4.318   4.415  17.427  0.6090  0.0239  1.0308
  521MPD2    H2 7795   3.940   4.609  17.472  1.4832  1.3845 -0.2214
  521MPD2    H3 7796   4.169   4.585  17.544 -2.3826  1.6479  0.0839
  521MPD2     N 7797   4.252   4.289  17.214  0.7368 -0.1348 -0.0367
  521MPD2    H5 7798   4.216   4.261  17.124  0.4620 -0.0449  0.0461
  521MPD2    N1 7799   3.826   4.511  17.271 -0.9015 -0.0419  0.6483
  521MPD2    H7 7800   3.778   4.569  17.338 -1.0542  1.6484 -0.9215
  522TMC3    C1 7801   4.456   4.200  17.127 -0.0013  0.3087  0.5446
  522TMC3    C2 7802   4.567   4.134  17.161  0.7894 -0.2451  0.1667
  522TMC3    C3 7803   4.667   4.134  17.075  0.6818 -0.8267 -0.7154
  522TMC3    C4 7804   4.442   4.261  17.005  0.0310  0.5248 -1.0107
  522TMC3    C5 7805   4.545   4.261  16.920 -0.3852 -0.5592 -0.3550
  522TMC3    C6 7806   4.665   4.193  16.950  0.0332 -0.7637  0.0533
  522TMC3     C 7807   4.380   4.252  17.246 -0.5663 -0.3704  0.2452
  522TMC3     O 7808   4.443   4.249  17.351  0.8320  0.0792 -0.4210
  522TMC3     H 7809   4.582   4.086  17.257 -5.3316 -2.7964 -0.1314
  522TMC3    H1 7810   4.354   4.320  16.981 -0.7887 -0.7263 -1.0907
  522TMC3    H2 7811   0.020   4.201  16.887 -0.7830 -0.6525 -1.0720
  522TMC3    C7 7812   4.538   4.310  16.787 -0.1643  0.2089 -1.3706
  522TMC3    C8 7813   0.064   4.083  17.125 -0.3520 -0.0587  0.2457
  522TMC3    O1 7814   4.635   4.269  16.718  0.2693  0.0131  0.2385
  522TMC3    O2 7815   0.083   4.072  17.245 -0.3075  0.1489  0.1903
  523MPD2     C 7816   2.171   0.258  10.122  0.1516  0.3554  0.2826
  523MPD2    C1 7817   2.106   0.159  10.058  0.0723  0.1899  0.2347
  523MPD2    C2 7818   2.037   0.185   9.939  0.0243 -0.0030  0.0923
  523MPD2    C3 7819   2.050   0.315   9.896  0.3708 -0.4561  0.2685
  523MPD2    C4 7820   2.134   0.409   9.959 -0.4522 -0.1421  0.4011
  523MPD2    C5 7821   2.184   0.382  10.081  0.0459  0.7052 -0.3850
  523MPD2     H 7822   1.968   0.109   9.905  1.1111  0.4982 -3.2194
  523MPD2    H1 7823   2.149   0.508   9.917  0.5618 -0.1307  0.7808
  523MPD2    H2 7824   2.210   0.235  10.220  3.3627  1.6796 -0.7051
  523MPD2    H3 7825   2.239   0.453  10.141  0.7532  0.7167 -1.0356
  523MPD2     N 7826   1.986   0.358   9.781  0.4366  0.8057 -0.5032
  523MPD2    H5 7827   1.983   0.459   9.771  0.4096  0.8115 -0.4415
  523MPD2    N1 7828   2.093   0.044  10.137  0.8192 -0.1073 -0.4689
  523MPD2    H7 7829   2.129   0.043  10.232  0.6574 -0.0260 -0.4062
  524TMC3    C1 7830   1.837   0.354   9.590 -0.8049  0.6953 -0.3372
  524TMC3    C2 7831   1.749   0.283   9.509 -0.1634 -0.4449 -0.1610
  524TMC3    C3 7832   1.657   0.348   9.438 -0.1006  0.3975  0.3772
  524TMC3    C4 7833   1.853   0.486   9.577  0.4431  0.4654  0.0033
  524TMC3    C5 7834   1.762   0.547   9.487 -0.2247  0.1210  0.3382
  524TMC3    C6 7835   1.662   0.482   9.418 -0.7540  0.3483 -0.1547
  524TMC3     C 7836   1.909   0.284   9.687  0.2376  0.2460  0.3275
  524TMC3     O 7837   1.898   0.160   9.678 -0.6839 -0.1472  0.1873
  524TMC3     H 7838   1.732   0.179   9.532 -0.5981 -0.4963 -0.7344
  524TMC3    H1 7839   1.934   0.543   9.621  0.5598  0.5533 -0.3321
  524TMC3    H2 7840   1.568   0.527   9.390 -2.1131 -1.4827  1.4457
  524TMC3    C7 7841   1.765   0.696   9.497 -0.2008  1.6633 -0.9062
  524TMC3    C8 7842   1.546   0.274   9.374 -0.4241  0.0269 -0.1997
  524TMC3    O1 7843   1.847   0.741   9.574  0.3230  0.4499 -0.8208
  524TMC3    O2 7844   1.521   0.163   9.420  0.5253  0.0766  0.4393
  525MPD2     C 7845   4.673   1.152  14.401 -0.2136 -0.3351  0.4872
  525MPD2    C1 7846   4.662   1.165  14.538 -0.1695  0.4150  0.3338
  525MPD2    C2 7847   4.629   1.287  14.584 -0.5299  0.3100 -0.3391
  525MPD2    C3 7848   4.608   1.398  14.505 -0.2589  0.5768 -0.2709
  525MPD2    C4 7849   4.629   1.390  14.368 -0.3636 -0.2651  0.2109
  525MPD2    C5 7850   4.649   1.261  14.319  0.1774  0.0946 -0.4840
  525MPD2     H 7851   4.619   1.301  14.691 -0.9947 -2.3862 -0.0315
  525MPD2    H1 7852   4.605   1.471  14.300 -1.3683  0.2575  1.1912
  525MPD2    H2 7853   4.722   1.065  14.359 -1.5750 -0.3370 -1.1222
  525MPD2    H3 7854   4.673   1.259  14.214 -2.4825 -3.9527 -1.0002
  525MPD2     N 7855   4.602   1.529  14.559  0.5777 -0.1551 -0.1702
  525MPD2    H5 7856   4.595   1.608  14.495  0.6078 -1.5637 -1.8993
  525MPD2    N1 7857   4.691   1.066  14.634 -0.8293 -0.5123  0.2132
  525MPD2    H7 7858   4.672   1.096  14.729 -3.2733 -1.6962  0.0843
  526TMC3    C1 7859   0.046   0.861  14.721  0.2574  0.7530  0.4982
  526TMC3    C2 7860   4.690   0.835  14.825 -0.1335 -0.3406 -0.7158
  526TMC3    C3 7861   4.725   0.751  14.928  0.1826  0.8788  0.0359
  526TMC3    C4 7862   0.153   0.781  14.706  0.4349 -0.7249 -0.3310
  526TMC3    C5 7863   0.172   0.683  14.798 -1.0909  0.2189 -0.4923
  526TMC3    C6 7864   0.094   0.661  14.909  0.3162 -0.0331  0.4866
  526TMC3     C 7865   0.009   0.941  14.604  0.4313 -0.3386 -0.1691
  526TMC3     O 7866   0.034   0.885  14.498 -0.2303 -0.0677  0.6625
  526TMC3     H 7867   4.605   0.902  14.839 -0.0279 -0.2810 -0.3530
  526TMC3    H1 7868   0.215   0.779  14.617 -1.2791  0.3216 -1.5556
  526TMC3    H2 7869   0.100   0.577  14.977  1.8888 -0.7850 -0.5626
  526TMC3    C7 7870   0.275   0.585  14.766  0.7479 -0.2259  0.2689
  526TMC3    C8 7871   4.705   0.806  15.068 -0.0071  0.6961 -0.3515
  526TMC3    O1 7872   0.296   0.569  14.649 -0.1047 -0.7307  0.3031
  526TMC3    O2 7873   0.071   0.800  15.144 -0.2573 -0.3369 -0.4240
  527MPD2     C 7874   2.180   4.410   0.917 -0.0524  0.1981  0.3391
  527MPD2    C1 7875   2.253   4.403   1.036  0.4176  0.1958 -0.1795
  527MPD2    C2 7876   2.372   4.335   1.037  0.0847  0.3705 -0.0908
  527MPD2    C3 7877   2.434   4.298   0.918  0.5556  0.9807 -0.2342
  527MPD2    C4 7878   2.365   4.312   0.799 -0.2073  0.1021  0.1872
  527MPD2    C5 7879   2.241   4.365   0.796 -0.1872 -0.1232  0.1687
  527MPD2     H 7880   2.420   4.331   1.134  0.9297  1.6323 -0.4599
  527MPD2    H1 7881   2.414   4.301   0.703 -1.7830 -0.7333 -0.5243
  527MPD2    H2 7882   2.086   4.462   0.904 -1.6641 -3.1072 -1.1071
  527MPD2    H3 7883   2.183   4.372   0.705 -2.7336 -0.1361  1.7918
  527MPD2     N 7884   2.573   4.263   0.925 -0.0704 -0.0082 -0.7925
  527MPD2    H5 7885   2.621   4.271   1.014 -2.4508  2.5281  0.2747
  527MPD2    N1 7886   2.211   4.458   1.157  0.4461 -0.2980  0.2109
  527MPD2    H7 7887   2.272   4.451   1.238  1.6029  1.7424 -0.4863
  528TMC3    C1 7888   2.059   4.561   1.318 -0.8250  0.1532 -0.1151
  528TMC3    C2 7889   2.163   4.583   1.404 -0.2547  0.1938  0.1493
  528TMC3    C3 7890   2.127   4.628   1.529  1.4302  0.1225 -0.3590
  528TMC3    C4 7891   1.929   4.601   1.344  0.6207 -0.2551  0.3943
  528TMC3    C5 7892   1.905   4.642   1.472  0.6367 -0.1476 -0.8294
  528TMC3    C6 7893   2.001   4.662   1.565  1.1311  0.1220  0.3486
  528TMC3     C 7894   2.085   4.512   1.183  0.4640  0.7275 -0.3275
  528TMC3     O 7895   1.991   4.516   1.106 -0.1885  0.2004 -0.5746
  528TMC3     H 7896   2.264   4.555   1.378 -0.1836 -0.3724  1.0221
  528TMC3    H1 7897   1.850   4.595   1.270  0.6304 -1.2296  0.4619
  528TMC3    H2 7898   1.958   4.678   1.663  1.1763  1.4315  0.1547
  528TMC3    C7 7899   1.766   4.683   1.496 -0.2021 -0.6506 -0.6499
  528TMC3    C8 7900   2.228   4.663   1.620  0.5306 -0.0254 -0.5498
  528TMC3    O1 7901   1.752   0.035   1.583 -0.0199 -0.0451  0.0620
  528TMC3    O2 7902   2.325   4.592   1.626 -0.5958  0.3037 -0.2183
  529MPD2     C 7903   0.010   2.553   1.158  0.1847  0.0283  0.4394
  529MPD2    C1 7904   0.066   2.507   1.045  0.9262 -0.1165  0.1966
  529MPD2    C2 7905   4.730   2.528   0.922  0.1105 -0.0124  0.0767
  529MPD2    C3 7906   4.629   2.618   0.911 -0.3003 -0.3636 -1.5253
  529MPD2    C4 7907   4.580   2.674   1.025  0.6640  0.1967 -0.2395
  529MPD2    C5 7908   4.636   2.643   1.148 -0.2773  0.4602 -0.2217
  529MPD2     H 7909   0.049   2.485   0.837 -1.6969  0.7889 -1.4408
  529MPD2    H1 7910   4.504   2.752   1.029  0.3171 -0.1728  0.4245
  529MPD2    H2 7911   0.059   2.546   1.254  1.2225  0.9063 -0.0173
  529MPD2    H3 7912   4.609   2.705   1.232  0.0896 -1.7054  1.5026
  529MPD2     N 7913   4.578   2.662   0.787 -0.3488 -0.2463  0.6084
  529MPD2    H5 7914   4.519   2.744   0.798  0.9179  0.3297  3.1250
  529MPD2    N1 7915   0.197   2.451   1.044  0.1873  0.2974 -0.1213
  529MPD2    H7 7916   0.214   2.414   0.951 -1.7375  0.8667 -0.6992
  530TMC3    C1 7917   0.408   2.362   1.128 -0.2089 -0.6644  0.9788
  530TMC3    C2 7918   0.527   2.402   1.193  0.1280  0.4652 -0.7283
  530TMC3    C3 7919   0.641   2.330   1.186  0.2752 -0.7701  0.2752
  530TMC3    C4 7920   0.414   2.254   1.045  0.1129 -0.1295 -0.4054
  530TMC3    C5 7921   0.525   2.179   1.049 -0.0730 -0.4661  0.2334
  530TMC3    C6 7922   0.639   2.215   1.108  0.2476 -0.3629 -0.4596
  530TMC3     C 7923   0.284   2.438   1.151  0.5948 -0.0626 -0.0893
  530TMC3     O 7924   0.280   2.501   1.258  0.1669 -0.4160  0.0196
  530TMC3     H 7925   0.531   2.498   1.242  2.0610  0.4617 -0.8639
  530TMC3    H1 7926   0.321   2.221   0.999  0.3765 -2.0122  0.4480
  530TMC3    H2 7927   0.733   2.162   1.095  0.4990  0.2300 -1.0757
  530TMC3    C7 7928   0.510   2.036   1.048  0.2354 -0.0862 -0.5228
  530TMC3    C8 7929   0.741   2.350   1.290 -0.4283 -0.9808  0.5525
  530TMC3    O1 7930   0.609   1.965   1.056 -0.4482  0.2307  0.3278
  530TMC3    O2 7931   0.718   2.433   1.377 -0.2761 -0.3855  0.1713
  531MPD2     C 7932   4.309   0.187  13.061  0.7723  0.2873  0.6028
  531MPD2    C1 7933   4.224   0.281  13.106 -0.3738 -0.1200  0.0825
  531MPD2    C2 7934   4.100   0.302  13.055  0.0499  0.4223  0.0587
  531MPD2    C3 7935   4.044   0.217  12.965  0.9205 -0.0176  0.9163
  531MPD2    C4 7936   4.124   0.114  12.921 -0.3015  0.0446  0.3335
  531MPD2    C5 7937   4.260   0.109  12.960  0.6064  0.1208 -0.0375
  531MPD2     H 7938   4.035   0.381  13.090 -0.1883  0.2361  0.0424
  531MPD2    H1 7939   4.089   0.052  12.839  0.2199 -2.2860  1.8902
  531MPD2    H2 7940   4.406   0.167  13.105  0.0002 -2.9651  0.8136
  531MPD2    H3 7941   4.316   0.026  12.918  0.4224 -0.3396  0.6323
  531MPD2     N 7942   3.912   0.232  12.924 -0.3967  0.0204 -0.0806
  531MPD2    H5 7943   3.856   0.291  12.985  0.9347  0.9448  0.2460
  531MPD2    N1 7944   4.281   0.354  13.216 -0.3419  0.1702 -0.2008
  531MPD2    H7 7945   4.376   0.331  13.246 -0.6907  0.6627  1.2695
  532TMC3    C1 7946   4.275   0.482  13.414  0.1707  0.2637  0.2728
  532TMC3    C2 7947   4.201   0.579  13.478  0.1540  0.2560 -0.0962
  532TMC3    C3 7948   4.162   0.560  13.613  0.0588  0.8151  0.0576
  532TMC3    C4 7949   4.326   0.376  13.483  0.0267 -0.7967 -0.3101
  532TMC3    C5 7950   4.299   0.368  13.618  0.6754  0.3773 -0.0681
  532TMC3    C6 7951   4.213   0.456  13.687  0.8975  0.3846 -0.4443
  532TMC3     C 7952   4.210   0.445  13.293  0.7262  0.7620  0.1411
  532TMC3     O 7953   4.102   0.500  13.277 -0.1540 -0.1457  0.4214
  532TMC3     H 7954   4.161   0.663  13.423 -1.4380 -0.3431  0.1515
  532TMC3    H1 7955   4.417   0.333  13.443  1.8440  1.5027  1.2969
  532TMC3    H2 7956   4.192   0.449  13.793  1.3407 -0.7434 -0.4376
  532TMC3    C7 7957   4.359   0.260  13.696  0.0017  0.3113 -0.3619
  532TMC3    C8 7958   4.026   0.552  13.634 -0.1385  0.3097  0.5430
  532TMC3    O1 7959   4.383   0.275  13.810 -0.7048  0.5919 -0.4742
  532TMC3    O2 7960   3.990   0.556  13.748  0.2603  0.1777 -0.4421
  533TMC3    C1 7961   4.634   1.708  14.699 -0.6574 -0.3435 -0.2843
  533TMC3    C2 7962   0.001   1.766  14.769 -0.2570 -0.0552  0.7942
  533TMC3    C3 7963   0.020   1.898  14.754  0.2273  0.2017 -0.7656
  533TMC3    C4 7964   4.549   1.782  14.625  0.0162 -0.1118  0.0552
  533TMC3    C5 7965   4.566   1.922  14.622  0.2781 -0.0779 -0.5621
  533TMC3    C6 7966   4.669   1.982  14.683 -0.7042 -0.2137 -0.0330
  533TMC3     C 7967   4.636   1.563  14.690 -0.9051 -0.2236 -0.1813
  533TMC3     O 7968   4.701   1.494  14.767  0.3096  0.0177 -0.3300
  533TMC3     H 7969   0.080   1.702  14.807 -0.5544 -1.1287 -0.3833
  533TMC3    H1 7970   4.469   1.739  14.566  1.1651 -1.7043 -0.3524
  533TMC3    H2 7971   4.694   2.084  14.659 -1.1046 -0.0126  0.4044
  533TMC3    C7 7972   4.438   1.990  14.613 -0.0968 -0.5035 -0.1709
  533TMC3    C8 7973   0.131   1.951  14.830  0.0043  0.2364 -0.5224
  533TMC3    O1 7974   4.344   1.914  14.595  0.3333  0.3603 -0.8421
  533TMC3    O2 7975   0.173   1.879  14.924 -0.5177  0.0555 -0.0623
  534MPD2     C 7976   2.670   2.839   1.637  0.0006 -0.3447  0.0187
  534MPD2    C1 7977   2.592   2.944   1.585 -0.1633 -0.1309  0.7063
  534MPD2    C2 7978   2.485   2.904   1.501 -0.0295 -0.6215  0.2043
  534MPD2    C3 7979   2.462   2.769   1.470  0.2267 -0.6267 -0.7297
  534MPD2    C4 7980   2.551   2.677   1.516 -0.6679  0.6932 -0.2721
  534MPD2    C5 7981   2.658   2.709   1.600 -0.5654 -0.2943  0.0866
  534MPD2     H 7982   2.417   2.979   1.461 -0.1313 -0.9441 -0.2309
  534MPD2    H1 7983   2.544   2.576   1.478  1.1302 -0.0385  1.3293
  534MPD2    H2 7984   2.754   2.860   1.702 -1.3751 -0.2409  1.7623
  534MPD2    H3 7985   2.732   2.634   1.627  0.1261 -0.2290 -1.5679
  534MPD2     N 7986   2.347   2.717   1.389 -0.3758  0.0723  0.1476
  534MPD2    H5 7987   2.336   2.617   1.374  2.0975  0.2624 -2.9587
  534MPD2    N1 7988   2.603   3.085   1.612 -0.0529 -0.0170  0.2093
  534MPD2    H7 7989   2.537   3.150   1.569  0.9213  0.1255 -1.0776
  535TMC3    C1 7990   2.161   2.729   1.253 -0.1466 -0.6327 -0.7186
  535TMC3    C2 7991   2.039   2.787   1.224  0.5753  0.2621  0.1480
  535TMC3    C3 7992   1.973   2.738   1.110  0.0125  0.5407  0.0815
  535TMC3    C4 7993   2.216   2.631   1.174  0.0164 -0.0900  0.1969
  535TMC3    C5 7994   2.143   2.587   1.065  0.6703  0.0138  1.0182
  535TMC3    C6 7995   2.020   2.636   1.037  0.3085  0.7361  0.3789
  535TMC3     C 7996   2.240   2.795   1.348 -0.1351 -0.0803  0.2912
  535TMC3     O 7997   2.207   2.913   1.372  0.0887  0.5005 -0.2415
  535TMC3     H 7998   2.004   2.863   1.292  0.8132  0.0209  0.5343
  535TMC3    H1 7999   2.318   2.595   1.186  0.2806  0.3299 -0.8066
  535TMC3    H2 8000   1.985   2.620   0.936 -0.8457  0.8904  0.7579
  535TMC3    C7 8001   2.179   2.456   1.023  0.0316 -0.4955 -1.1147
  535TMC3    C8 8002   1.839   2.782   1.084 -0.6267  0.2208 -0.7421
  535TMC3    O1 8003   2.301   2.438   1.018 -0.3818  0.0191 -0.2616
  535TMC3    O2 8004   1.773   2.699   1.030  0.0718  0.5685  0.4108
  536MPD2     C 8005   1.623   1.246  16.322  0.2492  0.8950 -0.4438
  536MPD2    C1 8006   1.508   1.175  16.343 -0.3643  0.0977  0.2179
  536MPD2    C2 8007   1.400   1.185  16.256  0.1343 -0.5114  1.2541
  536MPD2    C3 8008   1.403   1.266  16.149 -0.3222  0.1607  0.1282
  536MPD2    C4 8009   1.521   1.345  16.133 -0.3228  0.0289  0.1506
  536MPD2    C5 8010   1.625   1.341  16.225 -0.1729 -0.4414 -0.3677
  536MPD2     H 8011   1.311   1.127  16.278  0.0584  0.0448  2.4079
  536MPD2    H1 8012   1.534   1.413  16.051 -1.8785  0.8875  0.6218
  536MPD2    H2 8013   1.722   1.217  16.355 -0.6090 -2.6075 -0.9110
  536MPD2    H3 8014   1.715   1.398  16.206 -1.1624  1.2669  0.0333
  536MPD2     N 8015   1.300   1.286  16.055  0.6023 -0.0284  0.3296
  536MPD2    H5 8016   1.327   1.337  15.972 -1.4327  1.6537  0.7081
  536MPD2    N1 8017   1.515   1.089  16.449  0.5951 -0.0833  0.4360
  536MPD2    H7 8018   1.595   1.099  16.510 -0.2644 -1.2805  1.7691
  537TMC3    C1 8019   1.450   0.916  16.597 -0.1900 -0.0794 -1.1586
  537TMC3    C2 8020   1.495   0.992  16.693  0.1078  0.5341  0.2382
  537TMC3    C3 8021   1.529   0.912  16.806 -0.6805 -1.0222 -0.2932
  537TMC3    C4 8022   1.432   0.778  16.586  0.3220  0.7580 -0.0485
  537TMC3    C5 8023   1.456   0.711  16.701  0.5723  0.0481 -0.2226
  537TMC3    C6 8024   1.518   0.775  16.811  0.6578 -0.6843  0.0398
  537TMC3     C 8025   1.420   0.985  16.473 -0.0101  0.1496 -0.6371
  537TMC3     O 8026   1.338   0.940  16.396  0.7990  0.4914  0.4274
  537TMC3     H 8027   1.474   1.097  16.687  0.5443  0.7429  2.1521
  537TMC3    H1 8028   1.382   0.729  16.503  0.1358  1.9343 -0.6314
  537TMC3    H2 8029   1.534   0.719  16.903  1.1231 -0.8073 -0.1183
  537TMC3    C7 8030   1.397   0.578  16.717 -0.9872 -0.0197  0.3725
  537TMC3    C8 8031   1.575   0.980  16.924 -0.8941 -0.6568 -0.2984
  537TMC3    O1 8032   1.311   0.551  16.640 -0.5098 -0.4038 -0.0257
  537TMC3    O2 8033   1.570   0.919  17.031 -0.1992  0.3974  0.2229
  538TMC3    C1 8034   2.472   4.533  11.256 -0.1871  0.1346 -0.5079
  538TMC3    C2 8035   2.563   4.628  11.245 -0.2215  0.4039  0.2904
  538TMC3    C3 8036   2.515   0.024  11.235  0.1537 -0.3128  0.0465
  538TMC3    C4 8037   2.341   4.545  11.258 -0.5081 -0.2676  0.9149
  538TMC3    C5 8038   2.295   4.675  11.246  0.2532  0.3313 -0.0087
  538TMC3    C6 8039   2.379   0.051  11.230 -0.4417  0.4779 -0.2590
  538TMC3     C 8040   2.523   4.402  11.262  0.0742 -0.0069  0.3938
  538TMC3     O 8041   2.628   4.383  11.200  0.5050 -0.1478 -0.1024
  538TMC3     H 8042   2.668   4.616  11.270 -0.2972 -0.3072  0.2711
  538TMC3    H1 8043   2.272   4.461  11.264 -0.7912 -0.0703  0.4443
  538TMC3    H2 8044   2.345   0.153  11.217 -0.5918  0.4017 -0.4517
  538TMC3    C7 8045   2.154   4.702  11.235  0.3075 -0.3206  0.4992
  538TMC3    C8 8046   2.608   0.133  11.198  1.1172  0.2868  0.4081
  538TMC3    O1 8047   2.087   4.610  11.183 -0.2462 -0.1477  0.0797
  538TMC3    O2 8048   2.589   0.237  11.258 -0.3717 -0.6045  0.6670
  539MPD2     C 8049   1.951   3.429  11.974 -0.3342  0.2371  1.2049
  539MPD2    C1 8050   1.980   3.492  11.853  0.2100  0.7452 -0.4396
  539MPD2    C2 8051   1.966   3.622  11.837 -0.2775 -0.4015 -0.1143
  539MPD2    C3 8052   1.886   3.691  11.922  0.5060 -0.2884  0.4489
  539MPD2    C4 8053   1.853   3.634  12.044 -0.0580  0.4009  0.4197
  539MPD2    C5 8054   1.886   3.505  12.068 -0.6461 -0.1542 -1.2115
  539MPD2     H 8055   1.989   3.665  11.741  3.7095  0.8843  1.4334
  539MPD2    H1 8056   1.797   3.685  12.121  1.9659  1.8146  0.9667
  539MPD2    H2 8057   1.958   3.323  11.993  2.7410  0.7627  3.0294
  539MPD2    H3 8058   1.860   3.465  12.165 -1.3667  1.3856 -0.7658
  539MPD2     N 8059   1.830   3.821  11.896 -0.0836 -1.1625 -0.8487
  539MPD2    H5 8060   1.782   3.879  11.964  1.2785 -0.2537 -0.6529
  539MPD2    N1 8061   2.040   3.405  11.764 -0.4817 -0.2392  0.1282
  539MPD2    H7 8062   2.041   3.310  11.801 -0.0199  0.1990  1.2413
  540TMC3    C1 8063   1.738   3.986  11.753 -0.1682 -0.3657 -0.9132
  540TMC3    C2 8064   1.733   4.032  11.620 -1.0736  0.0515 -0.5437
  540TMC3    C3 8065   1.685   4.156  11.606  0.1116 -0.0136 -0.4025
  540TMC3    C4 8066   1.689   4.044  11.868  1.0439  0.0717 -0.3721
  540TMC3    C5 8067   1.632   4.167  11.840 -0.4092 -0.3894  0.2129
  540TMC3    C6 8068   1.643   4.222  11.717  0.5508 -0.5352  0.0335
  540TMC3     C 8069   1.844   3.886  11.779  0.1361  0.1606 -0.1395
  540TMC3     O 8070   1.928   3.866  11.692 -0.4516 -0.2209  0.5499
  540TMC3     H 8071   1.775   3.964  11.547 -0.7227 -0.4273  0.1124
  540TMC3    H1 8072   1.685   3.999  11.966  0.9620  0.0088 -0.4047
  540TMC3    H2 8073   1.596   4.317  11.694 -1.9711 -1.0877  2.8829
  540TMC3    C7 8074   1.556   4.230  11.943 -0.4329 -0.3288  0.0085
  540TMC3    C8 8075   1.691   4.222  11.478 -0.1561  0.2374  0.1751
  540TMC3    O1 8076   1.506   4.155  12.026  0.2305  0.3092 -0.2077
  540TMC3    O2 8077   1.722   4.345  11.475  0.4561 -0.2072 -0.5445
  541MPD2     C 8078   0.049   0.590  13.317 -0.3222 -0.4081  0.3765
  541MPD2    C1 8079   0.151   0.559  13.226 -0.4590  0.0929 -0.0611
  541MPD2    C2 8080   0.180   0.650  13.124  0.1684  0.3416 -0.2903
  541MPD2    C3 8081   0.106   0.770  13.107 -0.2467  0.2571 -0.1202
  541MPD2    C4 8082   0.002   0.800  13.190  0.1472  0.0763 -0.4172
  541MPD2    C5 8083   4.715   0.714  13.298 -0.4800 -0.2487  0.0047
  541MPD2     H 8084   0.262   0.630  13.056  1.1601  0.5855  0.8374
  541MPD2    H1 8085   4.657   0.874  13.169  0.6867  0.9243  0.5553
  541MPD2    H2 8086   0.024   0.520  13.395  3.7018 -1.8210  0.3404
  541MPD2    H3 8087   4.637   0.736  13.370 -0.6684  1.4562 -0.7244
  541MPD2     N 8088   0.113   0.863  12.995  0.2673  0.1834  0.6779
  541MPD2    H5 8089   0.045   0.939  12.998  2.7661  2.5125 -1.6825
  541MPD2    N1 8090   0.232   0.440  13.237 -0.5133 -0.8388  0.2377
  541MPD2    H7 8091   0.219   0.379  13.317 -1.9106 -2.0825 -0.9234
  542TMC3    C1 8092   0.136   0.908  12.769 -0.0769 -0.0438 -0.6143
  542TMC3    C2 8093   0.132   0.838  12.652 -0.4105  0.4798  0.5521
  542TMC3    C3 8094   0.156   0.916  12.543  0.1533  0.4416  0.2647
  542TMC3    C4 8095   0.161   1.038  12.782  0.7470  0.4142  0.2793
  542TMC3    C5 8096   0.186   1.105  12.672 -0.1484  0.1364  0.5361
  542TMC3    C6 8097   0.180   1.043  12.548 -0.3813 -0.1291  0.2599
  542TMC3     C 8098   0.177   0.820  12.881  0.4698  0.4335  0.0309
  542TMC3     O 8099   0.235   0.717  12.848  0.3614  0.3726 -0.3838
  542TMC3     H 8100   0.093   0.737  12.650 -1.1612  0.7881 -0.3966
  542TMC3    H1 8101   0.146   1.088  12.877  4.8384 -0.1453  1.2070
  542TMC3    H2 8102   0.197   1.092  12.453  1.5102  1.0466  1.1968
  542TMC3    C7 8103   0.211   1.244  12.685  0.0705  0.0156 -0.0753
  542TMC3    C8 8104   0.210   0.850  12.430 -0.7093  0.8569  0.3712
  542TMC3    O1 8105   0.165   1.301  12.785 -0.8422 -0.0736  0.0236
  542TMC3    O2 8106   0.199   0.908  12.325  0.3834 -0.0764  0.2708
  543TMC3    C1 8107   4.494   1.606  17.061 -0.4304 -0.1796 -0.5250
  543TMC3    C2 8108   4.582   1.532  17.142 -0.1953 -0.5921  0.1530
  543TMC3    C3 8109   4.518   1.474  17.252 -0.6043  0.6835 -0.3925
  543TMC3    C4 8110   4.364   1.641  17.106 -1.1769 -0.2103 -0.0301
  543TMC3    C5 8111   4.318   1.594  17.226 -0.3583  0.0585 -0.3938
  543TMC3    C6 8112   4.393   1.505  17.296 -0.4678  0.0712 -0.1495
  543TMC3     C 8113   4.568   1.698  16.967  0.5309 -0.1550  0.2851
  543TMC3     O 8114   4.685   1.682  16.963 -0.1532 -0.2385 -0.0674
  543TMC3     H 8115   4.684   1.511  17.113 -0.3339 -1.1949  0.0914
  543TMC3    H1 8116   4.299   1.704  17.045 -1.9829 -1.8830 -0.8994
  543TMC3    H2 8117   4.347   1.464  17.385  0.1771 -1.7824 -0.6748
  543TMC3    C7 8118   4.180   1.624  17.258 -0.5089 -0.5211 -0.2360
  543TMC3    C8 8119   4.600   1.373  17.316 -0.9131  0.0541 -0.0046
  543TMC3    O1 8120   4.101   1.639  17.167  0.5023  0.0627 -0.1200
  543TMC3    O2 8121   4.701   1.338  17.255  0.3870 -0.1007 -0.3327
  544MPD2     C 8122   4.608   0.925  17.572  0.7981 -0.3706  0.0724
  544MPD2    C1 8123   4.625   0.949  17.437 -0.3655 -0.4035  0.2680
  544MPD2    C2 8124   4.615   1.084  17.388 -0.1651 -0.6746 -0.8432
  544MPD2    C3 8125   4.567   1.190  17.468  0.4536 -0.1977  0.3270
  544MPD2    C4 8126   4.557   1.155  17.604  0.2164 -0.2484 -0.9467
  544MPD2    C5 8127   4.569   1.026  17.649 -0.0341 -0.7754  0.3527
  544MPD2     H 8128   4.648   1.117  17.290 -0.2640 -0.7302 -0.8951
  544MPD2    H1 8129   4.534   1.234  17.674 -0.4524  0.1029 -1.5649
  544MPD2    H2 8130   4.610   0.833  17.630  0.9667 -0.3548  0.0913
  544MPD2    H3 8131   4.542   1.015   0.024 -0.4206 -0.1919  0.3181
  544MPD2     N 8132   4.544   1.319  17.425  0.9163 -0.7129  0.4412
  544MPD2    H5 8133   4.476   1.377  17.474  0.8581  0.4925 -1.0762
  544MPD2    N1 8134   4.667   0.845  17.346  0.6774 -0.1480  0.1466
  544MPD2    H7 8135   4.698   0.758  17.387  0.8062  0.2433  0.8816
  545TMC3    C1 8136   0.027   0.733  17.150 -0.1963  0.1107 -0.1662
  545TMC3    C2 8137   0.047   0.739  17.018  0.4232 -0.3037  0.1557
  545TMC3    C3 8138   0.136   0.653  16.963 -0.3091  0.7354  0.6445
  545TMC3    C4 8139   0.105   0.655  17.235  0.2655 -0.5242  0.6789
  545TMC3    C5 8140   0.201   0.574  17.172  0.2102  0.9098 -0.0358
  545TMC3    C6 8141   0.221   0.571  17.035  0.3543  0.0965  0.3885
  545TMC3     C 8142   4.685   0.848  17.210 -1.2119  0.2471  0.3869
  545TMC3     O 8143   4.661   0.943  17.133 -0.2892 -0.1089 -0.3908
  545TMC3     H 8144   4.712   0.801  16.959  0.3361 -2.0036 -1.5486
  545TMC3    H1 8145   0.086   0.644  17.341  0.6637  1.6925  0.9768
  545TMC3    H2 8146   0.294   0.508  16.987 -3.5004 -3.8941 -0.2676
  545TMC3    C7 8147   0.255   0.466  17.259 -0.4405 -1.2772  0.7207
  545TMC3    C8 8148   0.152   0.667  16.818 -0.0066  0.1007 -0.2042
  545TMC3    O1 8149   0.210   0.464  17.374  0.2509  0.0976  0.0003
  545TMC3    O2 8150   0.082   0.752  16.762  0.1948  0.0463  0.0096
  546MPD2     C 8151   1.249   1.321  17.666 -0.0412  0.5978 -0.0516
  546MPD2    C1 8152   1.262   1.367  17.536  0.1229  0.2260 -0.5033
  546MPD2    C2 8153   1.334   1.483  17.513  0.3811  0.1387  0.1860
  546MPD2    C3 8154   1.386   1.546  17.618  0.1446  0.1668 -0.0881
  546MPD2    C4 8155   1.345   1.515   0.017 -0.3994  0.8134  0.4053
  546MPD2    C5 8156   1.281   1.398   0.043  0.4123 -0.1782  0.8752
  546MPD2     H 8157   1.360   1.509  17.411  1.1190  0.0254  0.3385
  546MPD2    H1 8158   1.383   1.570   0.102 -0.0557  3.5025 -1.5186
  546MPD2    H2 8159   1.199   1.230  17.694 -1.2730  0.4602 -2.7334
  546MPD2    H3 8160   1.266   1.365   0.145 -1.2677  0.2277  0.7514
  546MPD2     N 8161   1.467   1.656  17.612 -0.6585 -0.4847 -0.5362
  546MPD2    H5 8162   1.481   1.707  17.698 -0.1111 -0.8027 -0.4434
  546MPD2    N1 8163   1.193   1.291  17.440 -0.0352 -0.4284 -0.8563
  546MPD2    H7 8164   1.141   1.211  17.475 -1.4951  0.4312 -1.0782
  547TMC3    C1 8165   1.068   1.246  17.243  0.4438 -0.1116  0.1384
  547TMC3    C2 8166   1.021   1.299  17.128 -0.3181 -0.5382  0.5526
  547TMC3    C3 8167   0.901   1.254  17.086  1.0745  0.1735  0.1473
  547TMC3    C4 8168   1.003   1.146  17.316  0.5962 -0.8921  0.7009
  547TMC3    C5 8169   0.880   1.111  17.277 -0.2081 -0.6288 -0.0806
  547TMC3    C6 8170   0.827   1.163  17.166 -0.8024 -0.6158 -0.3797
  547TMC3     C 8171   1.176   1.325  17.306 -0.2060  0.5978  0.3247
  547TMC3     O 8172   1.246   1.395  17.233  0.5363  0.4757 -0.4036
  547TMC3     H 8173   1.062   1.391  17.086  1.2982 -0.8863  1.3910
  547TMC3    H1 8174   1.041   1.104  17.409  0.8417  0.3830  1.1707
  547TMC3    H2 8175   0.728   1.124  17.146 -1.0487 -1.1534  1.9064
  547TMC3    C7 8176   0.791   1.113  17.392 -0.0361 -0.1273  0.2564
  547TMC3    C8 8177   0.817   1.357  17.029 -0.3373  0.1313 -0.4273
  547TMC3    O1 8178   0.711   1.208  17.390 -0.3446  0.1499  0.3389
  547TMC3    O2 8179   0.863   1.431  16.942 -0.7321  0.3903  0.4751
  548MPD2     C 8180   0.792   1.789  12.804  0.4654  0.0235  0.9517
  548MPD2    C1 8181   0.793   1.867  12.698  0.0214 -0.4463  0.3307
  548MPD2    C2 8182   0.878   1.833  12.590 -0.8749  0.2519 -0.0108
  548MPD2    C3 8183   0.960   1.724  12.582 -0.7096 -0.0947  1.0118
  548MPD2    C4 8184   0.956   1.647  12.701  0.2863  0.4304 -0.2790
  548MPD2    C5 8185   0.880   1.684  12.809  0.5031 -0.4070 -0.1976
  548MPD2     H 8186   0.877   1.888  12.496 -0.3986  3.2558  1.7292
  548MPD2    H1 8187   1.009   1.554  12.717  0.3793  0.7365  1.1774
  548MPD2    H2 8188   0.736   1.808  12.895  2.0105 -0.6493  2.0597
  548MPD2    H3 8189   0.893   1.635  12.905 -2.0293 -0.7086 -0.0078
  548MPD2     N 8190   1.015   1.694  12.449 -0.1509  0.3376  0.6660
  548MPD2    H5 8191   0.997   1.759  12.373 -0.7154  0.0963  0.5952
  548MPD2    N1 8192   0.708   1.979  12.703  0.2395  0.0635 -0.1614
  548MPD2    H7 8193   0.645   1.985  12.783  0.4471 -2.2468  0.1780
  549TMC3    C1 8194   0.598   2.185  12.646 -0.1173  0.2592 -0.2975
  549TMC3    C2 8195   0.594   2.310  12.595 -0.2520 -1.0241  0.6776
  549TMC3    C3 8196   0.486   2.387  12.624  0.6543  0.4316  0.6933
  549TMC3    C4 8197   0.487   2.128  12.704  0.5672 -0.5087 -0.3307
  549TMC3    C5 8198   0.376   2.203  12.717  0.3267 -0.2307 -0.1848
  549TMC3    C6 8199   0.373   2.332  12.684  0.2782  0.4432 -0.6009
  549TMC3     C 8200   0.704   2.088  12.608 -0.2327  0.2593 -0.1213
  549TMC3     O 8201   0.767   2.111  12.508  0.7293 -0.4566  0.0731
  549TMC3     H 8202   0.681   2.348  12.543  0.3213 -0.8626  1.7612
  549TMC3    H1 8203   0.477   2.020  12.705 -2.3554 -0.2603 -1.7296
  549TMC3    H2 8204   0.284   2.392  12.696  2.0419  2.8974  0.2166
  549TMC3    C7 8205   0.244   2.136  12.695  0.1912 -0.2210 -1.0160
  549TMC3    C8 8206   0.453   2.502  12.544 -0.2065  0.8649 -0.5234
  549TMC3    O1 8207   0.150   2.182  12.757 -0.7280  0.2987  0.2156
  549TMC3    O2 8208   0.360   2.568  12.591 -0.0203 -0.6925 -0.3637
  550TMC3    C1 8209   4.724   0.503  12.156 -0.2879  0.6164 -0.3325
  550TMC3    C2 8210   0.006   0.518  12.289 -0.5910 -0.2583  0.2295
  550TMC3    C3 8211   4.695   0.636  12.345 -0.4249 -0.0063 -0.2957
  550TMC3    C4 8212   4.665   0.601  12.080  0.0254  0.3466  0.1314
  550TMC3    C5 8213   4.614   0.716  12.139  0.0710 -0.2638  0.3912
  550TMC3    C6 8214   4.638   0.737  12.269 -1.0487  0.4622 -0.5781
  550TMC3     C 8215   0.059   0.389  12.104  0.0189  0.6208  0.3742
  550TMC3     O 8216   0.079   0.289  12.170  0.2093  0.3365 -0.3758
  550TMC3     H 8217   0.048   0.438  12.348  1.3480 -1.2444 -2.5084
  550TMC3    H1 8218   4.636   0.574  11.979  1.7316  1.5018 -0.6726
  550TMC3    H2 8219   4.598   0.829  12.310  0.8215  0.7834  0.4958
  550TMC3    C7 8220   4.493   0.778  12.087 -0.7265 -0.1294  0.1135
  550TMC3    C8 8221   4.633   0.615  12.470  0.0659 -0.0981  0.0410
  550TMC3    O1 8222   4.394   0.756  12.154 -0.4635 -0.1004 -0.8441
  550TMC3    O2 8223   4.626   0.718  12.531 -0.0151 -0.8535  0.4331
  551TMC3    C1 8224   2.237   2.514  13.740 -0.6674 -0.7974  0.1876
  551TMC3    C2 8225   2.350   2.446  13.715 -0.1551 -0.5470 -0.3132
  551TMC3    C3 8226   2.460   2.501  13.759  0.5131  0.0989 -0.9550
  551TMC3    C4 8227   2.236   2.622  13.830 -0.4840 -0.0608  0.1828
  551TMC3    C5 8228   2.353   2.668  13.878 -0.0768  0.2107 -0.4771
  551TMC3    C6 8229   2.470   2.605  13.849  0.1903 -0.0924 -0.2147
  551TMC3     C 8230   2.132   2.497  13.644 -0.0955  0.3167  0.0063
  551TMC3     O 8231   2.112   2.384  13.597  0.1649  0.3105 -0.7557
  551TMC3     H 8232   2.347   2.380  13.630 -0.3594  0.3068 -0.9655
  551TMC3    H1 8233   2.141   2.665  13.860  0.0299  0.4457  1.0844
  551TMC3    H2 8234   2.563   2.651  13.882  0.1200 -0.4270  0.4353
  551TMC3    C7 8235   2.345   2.752  13.998  0.4717  0.6301  0.1932
  551TMC3    C8 8236   2.562   2.483  13.660  0.1793  0.0487 -0.2206
  551TMC3    O1 8237   2.404   2.723  14.098  0.0263  0.0686 -0.0882
  551TMC3    O2 8238   2.582   2.376  13.603 -0.6966  0.2236  0.3900
  552MPD2     C 8239   4.292   4.617  14.026 -0.6538 -0.5278 -0.2453
  552MPD2    C1 8240   4.234   4.518  14.105  0.3440  0.8255  0.0569
  552MPD2    C2 8241   4.316   4.429  14.172  0.0417  0.1861 -0.3297
  552MPD2    C3 8242   4.452   4.428  14.156 -0.8427 -0.5092  0.3550
  552MPD2    C4 8243   4.503   4.530  14.075 -0.3121 -0.4150 -0.3281
  552MPD2    C5 8244   4.428   4.630  14.011 -0.0266 -0.8250  0.7197
  552MPD2     H 8245   4.270   4.358  14.240  0.0101  0.8367  0.3338
  552MPD2    H1 8246   4.611   4.536  14.069 -0.6470  2.8988 -3.1998
  552MPD2    H2 8247   4.231   4.689  13.972  0.3489  0.1858 -0.4182
  552MPD2    H3 8248   4.476   4.707  13.953 -2.7532 -1.7524 -2.7199
  552MPD2     N 8249   4.540   4.344  14.225 -0.3819  0.1344  0.1311
  552MPD2    H5 8250   4.640   4.357  14.216 -0.3110 -0.7134 -0.3896
  552MPD2    N1 8251   4.096   4.498  14.113  0.1495  0.3790 -0.5027
  552MPD2    H7 8252   4.064   4.404  14.136 -0.2126  0.5376 -0.3604
  553TMC3    C1 8253   3.888   4.499  14.020  0.1721 -0.8462  0.3871
  553TMC3    C2 8254   3.874   4.504  13.890 -0.3277 -0.2982 -1.2074
  553TMC3    C3 8255   3.862   4.377  13.830  0.2005 -0.4627 -0.8041
  553TMC3    C4 8256   3.870   4.377  14.092  0.7759 -0.3273 -0.8355
  553TMC3    C5 8257   3.877   4.256  14.029 -0.0840 -0.3648  0.3240
  553TMC3    C6 8258   3.881   4.258  13.893 -0.7160  0.0818  0.5361
  553TMC3     C 8259   4.002   4.577  14.066 -0.7717 -0.3537 -0.3674
  553TMC3     O 8260   4.021   4.692  14.023 -0.4590  0.0577  0.0721
  553TMC3     H 8261   3.871   4.592  13.828 -0.9091  0.0571 -0.6801
  553TMC3    H1 8262   3.876   4.381  14.201 -1.6611  0.1815 -0.7205
  553TMC3    H2 8263   3.896   4.165  13.839 -0.7312 -1.1222  2.6017
  553TMC3    C7 8264   3.967   4.160  14.080  0.3057  0.0533 -0.9737
  553TMC3    C8 8265   3.936   4.374  13.707  0.6810  0.6333  0.6719
  553TMC3    O1 8266   3.964   4.136  14.201  0.2677  0.0676 -0.3211
  553TMC3    O2 8267   4.041   4.308  13.714 -0.1350  0.1088  0.7529
  554TMC3    C1 8268   0.831   3.606  11.729  0.5207  0.6317 -0.2689
  554TMC3    C2 8269   0.777   3.608  11.601 -0.2265 -0.5086  0.2784
  554TMC3    C3 8270   0.862   3.655  11.504 -0.4863  0.1397  0.2913
  554TMC3    C4 8271   0.959   3.657  11.750  0.3711  1.1495 -0.2487
  554TMC3    C5 8272   1.034   3.699  11.645 -0.9242  0.5666 -0.2471
  554TMC3    C6 8273   0.987   3.704  11.523  0.1196 -0.2369 -0.5013
  554TMC3     C 8274   0.756   3.522  11.821  0.8256 -0.0442 -0.5752
  554TMC3     O 8275   0.638   3.517  11.801  0.4945  0.2837  0.0025
  554TMC3     H 8276   0.696   3.544  11.571  1.1694 -0.7923 -2.8443
  554TMC3    H1 8277   1.005   3.645  11.847  0.4547  0.7007 -0.3446
  554TMC3    H2 8278   1.044   3.726  11.434  0.9786  1.1332  0.3878
  554TMC3    C7 8279   1.144   3.790  11.666  0.2654 -0.2660  0.2371
  554TMC3    C8 8280   0.826   3.645  11.364 -0.1216 -0.6593  0.3754
  554TMC3    O1 8281   1.234   3.783  11.584  0.3073 -0.1336 -0.2141
  554TMC3    O2 8282   0.918   3.655  11.281  0.0667  0.7249  0.2441
  555TMC3    C1 8283   0.172   3.638  15.679  0.0692 -0.2423  0.7277
  555TMC3    C2 8284   0.193   3.700  15.799 -0.2285  0.0751 -1.0174
  555TMC3    C3 8285   0.199   3.620  15.904 -0.4173 -0.1311 -0.2844
  555TMC3    C4 8286   0.162   3.503  15.666  0.1428  0.2396 -0.1807
  555TMC3    C5 8287   0.158   3.426  15.779 -0.1187  0.4332 -0.4961
  555TMC3    C6 8288   0.157   3.487  15.907  0.4192 -0.5285 -0.6373
  555TMC3     C 8289   0.213   3.716  15.565  0.0666 -0.3486  0.0869
  555TMC3     O 8290   0.293   3.807  15.590 -0.2669  0.0743 -0.1554
  555TMC3     H 8291   0.214   3.806  15.805  1.9656 -0.3950 -0.2525
  555TMC3    H1 8292   0.136   3.459  15.571 -0.5356 -0.0885  0.1572
  555TMC3    H2 8293   0.155   3.425  15.996  0.4138 -1.5265 -1.3276
  555TMC3    C7 8294   0.215   3.291  15.762 -0.1292 -0.2596 -0.6040
  555TMC3    C8 8295   0.150   3.689  16.021 -0.2026  0.1528  0.2344
  555TMC3    O1 8296   0.233   3.220  15.860  0.1255 -0.3145 -0.3260
  555TMC3    O2 8297   0.064   3.769  15.992 -0.6481  0.0372  0.7057
  556MPD2     C 8298   3.794   0.566  10.983 -0.5781  0.6904 -0.1471
  556MPD2    C1 8299   3.660   0.548  11.003  0.1579 -0.1044 -0.3576
  556MPD2    C2 8300   3.577   0.473  10.923 -0.0830  0.3226 -0.4842
  556MPD2    C3 8301   3.629   0.407  10.815 -0.7262 -0.8933 -0.3327
  556MPD2    C4 8302   3.764   0.412  10.799 -1.2527 -0.1525  1.2590
  556MPD2    C5 8303   3.836   0.505  10.872  0.1651  0.3130  0.0072
  556MPD2     H 8304   3.473   0.461  10.951 -0.1127 -0.9406 -1.1407
  556MPD2    H1 8305   3.815   0.350  10.725 -1.2939  0.8545  0.3945
  556MPD2    H2 8306   3.858   0.639  11.032 -1.2937  3.0679 -2.7380
  556MPD2    H3 8307   3.940   0.527  10.850  0.3544  0.2097  0.7929
  556MPD2     N 8308   3.540   0.327  10.741 -0.0820 -0.0410 -0.3230
  556MPD2    H5 8309   3.443   0.326  10.771 -0.4054  1.3257 -1.3071
  556MPD2    N1 8310   3.601   0.604  11.123 -0.6680 -0.0486 -0.6599
  556MPD2    H7 8311   3.501   0.585  11.126 -0.5733 -0.5742 -0.9198
  557TMC3    C1 8312   3.452   0.153  10.620 -0.0803  0.9093 -0.2512
  557TMC3    C2 8313   3.445   0.114  10.489  0.0880  0.0822 -0.3690
  557TMC3    C3 8314   3.337   0.039  10.447 -0.0834 -0.0555 -0.1983
  557TMC3    C4 8315   3.344   0.147  10.698  0.7397  0.2921 -0.9957
  557TMC3    C5 8316   3.224   0.091  10.654 -0.0131 -0.1070  0.2635
  557TMC3    C6 8317   3.220   0.030  10.527  0.5431  0.5036  0.5612
  557TMC3     C 8318   3.570   0.227  10.649  0.0012  0.2303 -0.4069
  557TMC3     O 8319   3.677   0.193  10.601 -0.9264  0.0009 -0.2879
  557TMC3     H 8320   3.532   0.134  10.427 -0.3326  3.3299  0.0989
  557TMC3    H1 8321   3.358   0.164  10.804 -1.9662  1.2951 -0.7962
  557TMC3    H2 8322   3.137   4.699  10.500  0.2574  0.5848  1.2652
  557TMC3    C7 8323   3.114   0.079  10.752  0.1052 -0.4725 -0.3870
  557TMC3    C8 8324   3.334   0.032  10.300 -0.1579 -0.5339 -0.2288
  557TMC3    O1 8325   3.011   0.018  10.720 -0.1915  0.5178 -0.4374
  557TMC3    O2 8326   3.421   0.098  10.241  0.0791 -0.4437 -0.4632
  558TMC3    C1 8327   0.453   3.049  10.406 -0.6301  1.0932  0.3297
  558TMC3    C2 8328   0.352   3.113  10.469 -0.4618 -0.0011  0.2302
  558TMC3    C3 8329   0.250   3.172  10.397  0.3302 -0.9916 -0.1274
  558TMC3    C4 8330   0.452   3.037  10.270  0.5673  0.4444  0.2750
  558TMC3    C5 8331   0.361   3.108  10.205  0.6321  0.2581  0.4259
  558TMC3    C6 8332   0.252   3.167  10.262  0.3436 -0.5078 -0.2543
  558TMC3     C 8333   0.578   3.019  10.480 -0.1349 -0.2770  0.0518
  558TMC3     O 8334   0.664   2.962  10.415 -0.3152 -0.0310  0.3165
  558TMC3     H 8335   0.346   3.111  10.577 -1.0413  1.6705  0.2266
  558TMC3    H1 8336   0.525   2.988  10.206  0.2547  0.6455 -0.2322
  558TMC3    H2 8337   0.188   3.236  10.207 -0.5328 -0.3631  0.9579
  558TMC3    C7 8338   0.361   3.102  10.056 -0.0356 -0.5743 -0.0456
  558TMC3    C8 8339   0.117   3.207  10.462  0.3632 -0.7045  0.0009
  558TMC3    O1 8340   0.472   3.101  10.003  0.3130 -0.1187 -0.0410
  558TMC3    O2 8341   0.016   3.194  10.393 -0.1108  0.1538  0.0444
  559MPD2     C 8342   0.481   3.437  10.192 -0.4387 -0.1207  0.2043
  559MPD2    C1 8343   0.431   3.472  10.316  0.2887 -0.0794 -0.7538
  559MPD2    C2 8344   0.517   3.476  10.427  0.1797  0.0469  0.4067
  559MPD2    C3 8345   0.644   3.424  10.413  0.3936  1.1852  0.0818
  559MPD2    C4 8346   0.697   3.385  10.290  0.2500 -0.3273 -0.5151
  559MPD2    C5 8347   0.610   3.387  10.180 -0.2733 -0.2777 -0.4726
  559MPD2     H 8348   0.481   3.511  10.523 -1.5477 -1.8171  0.4487
  559MPD2    H1 8349   0.800   3.359  10.269  0.8930  3.1212 -1.5854
  559MPD2    H2 8350   0.420   3.441  10.103  1.2724 -0.6472 -1.0089
  559MPD2    H3 8351   0.633   3.359  10.078 -0.2476 -2.5969  0.1824
  559MPD2     N 8352   0.728   3.417  10.532 -0.4338  0.5267  0.3025
  559MPD2    H5 8353   0.689   3.461  10.615 -0.9809  0.5773  0.0167
  559MPD2    N1 8354   0.289   3.502  10.322  0.0744  0.0142  0.0100
  559MPD2    H7 8355   0.246   3.506  10.230 -3.8359 -0.0829  1.8240
  560TMC3    C1 8356   0.898   3.387  10.683 -0.7726 -0.6874 -0.4975
  560TMC3    C2 8357   0.809   3.399  10.781  0.5695 -0.0144  0.1954
  560TMC3    C3 8358   0.857   3.416  10.909 -0.3057  0.3298 -0.9501
  560TMC3    C4 8359   1.035   3.403  10.693  0.2151  0.2055  0.3903
  560TMC3    C5 8360   1.079   3.443  10.817  0.8937  0.6139 -0.3166
  560TMC3    C6 8361   0.987   3.454  10.922 -0.2190 -0.8142 -0.1106
  560TMC3     C 8362   0.852   3.363  10.547 -0.1520  0.1033  0.7902
  560TMC3     O 8363   0.915   3.297  10.462  0.1697 -0.7195  0.2496
  560TMC3     H 8364   0.717   3.344  10.766  0.5877  1.1633 -4.2267
  560TMC3    H1 8365   1.097   3.397  10.604 -0.2617  0.3625  0.0442
  560TMC3    H2 8366   1.027   3.471  11.022 -0.2867 -0.1261 -0.2036
  560TMC3    C7 8367   1.226   3.434  10.837 -0.1434  0.2834 -0.0037
  560TMC3    C8 8368   0.768   3.381  11.025 -0.5261 -0.8784  0.0716
  560TMC3    O1 8369   1.275   3.363  10.751  0.8663 -0.3877  0.3668
  560TMC3    O2 8370   0.651   3.382  11.003  0.0840 -0.0268  0.4173
  561TMC3    C1 8371   3.391   2.362  11.128  0.1315  0.4366  0.0723
  561TMC3    C2 8372   3.313   2.283  11.211  0.2345  0.4321 -0.1473
  561TMC3    C3 8373   3.261   2.331  11.332 -0.7690 -0.0230 -0.3755
  561TMC3    C4 8374   3.420   2.488  11.164 -0.2131 -0.2644 -0.3776
  561TMC3    C5 8375   3.368   2.532  11.283  0.1170 -0.2684  0.1894
  561TMC3    C6 8376   3.294   2.464  11.372 -0.1348  0.5407  0.0256
  561TMC3     C 8377   3.423   2.323  10.991 -0.8260  0.4906 -0.0935
  561TMC3     O 8378   3.438   2.208  10.966  0.0806 -0.2475  0.2772
  561TMC3     H 8379   3.303   2.179  11.182  0.6404  0.2581  0.3299
  561TMC3    H1 8380   3.485   2.548  11.102 -0.4497  0.3665 -0.0272
  561TMC3    H2 8381   3.263   2.499  11.469  0.0577 -0.6972  0.5419
  561TMC3    C7 8382   3.419   2.661  11.324 -0.2186  0.2335 -0.4787
  561TMC3    C8 8383   3.165   2.239  11.400  0.2834  0.2552  0.1779
  561TMC3    O1 8384   3.439   2.677  11.443  0.2139  0.2207  0.2683
  561TMC3    O2 8385   3.163   2.118  11.375 -0.7160 -0.0936 -0.3580
  562TMC3    C1 8386   4.580   3.502  16.602  0.6954  0.1691  0.6181
  562TMC3    C2 8387   4.521   3.616  16.534 -0.0846  0.6051 -0.6657
  562TMC3    C3 8388   4.534   3.633  16.401  0.4173 -0.0635  0.5722
  562TMC3    C4 8389   4.648   3.414  16.524 -0.4303  0.0983 -0.3028
  562TMC3    C5 8390   4.665   3.449  16.393 -0.6211 -0.4790  0.1148
  562TMC3    C6 8391   4.616   3.556  16.325  0.4691  0.2254  0.1574
  562TMC3     C 8392   4.560   3.480  16.746  0.6896 -0.0013 -0.1615
  562TMC3     O 8393   4.506   3.578  16.802  0.0772 -0.8022  0.2899
  562TMC3     H 8394   4.474   3.698  16.587  0.3977 -1.4452  2.9499
  562TMC3    H1 8395   4.677   3.321  16.571 -1.6916 -0.7889 -1.2311
  562TMC3    H2 8396   4.651   3.571  16.223 -0.8231  0.1234 -0.3081
  562TMC3    C7 8397   0.018   3.367  16.313 -0.5328  0.1461  0.0740
  562TMC3    C8 8398   4.486   3.759  16.338  0.2965 -0.0537 -0.1153
  562TMC3    O1 8399   0.009   3.364  16.190  0.0921  0.3656 -0.5589
  562TMC3    O2 8400   4.405   3.825  16.399 -0.1758  0.1182  0.3184
  563MPD2     C 8401   2.331   4.617  15.495 -0.2855 -0.0579  0.7214
  563MPD2    C1 8402   2.364   4.663  15.615 -0.1422  0.6086  0.3391
  563MPD2    C2 8403   2.499   4.686  15.655 -0.6723 -0.0351  0.4725
  563MPD2    C3 8404   2.601   4.653  15.571  1.0644 -0.3032 -0.4672
  563MPD2    C4 8405   2.576   4.581  15.459  0.3826 -0.2840  0.8643
  563MPD2    C5 8406   2.440   4.568  15.422  0.1387 -0.1694 -0.3423
  563MPD2     H 8407   2.529   4.729  15.749  1.9322 -0.1564 -0.3229
  563MPD2    H1 8408   2.650   4.545  15.389 -0.8089 -3.7704  1.4317
  563MPD2    H2 8409   2.231   4.613  15.453 -0.2754 -1.5161  0.8313
  563MPD2    H3 8410   2.410   4.529  15.325  1.1230 -1.0009 -0.3157
  563MPD2     N 8411   2.729   4.676  15.623  0.3064 -0.1045 -0.2390
  563MPD2    H5 8412   2.735   0.007  15.702 -0.0457  1.5569 -1.5432
  563MPD2    N1 8413   2.271   4.701  15.713 -0.3832  0.4644  0.7892
  563MPD2    H7 8414   2.308   0.002  15.801  0.3930 -0.5460  0.8493
  564TMC3    C1 8415   2.065   4.722  15.834 -0.4965  0.1202  0.1527
  564TMC3    C2 8416   1.951   4.645  15.836 -0.2459  0.2114 -0.4904
  564TMC3    C3 8417   1.923   4.574  15.949 -0.0767 -0.1254 -0.0568
  564TMC3    C4 8418   2.148   4.723  15.943 -0.4346 -0.2183 -0.1078
  564TMC3    C5 8419   2.126   4.646  16.050  0.8357  0.6517 -0.2047
  564TMC3    C6 8420   2.007   4.579  16.057  0.7033 -0.4346 -0.1053
  564TMC3     C 8421   2.134   4.692  15.706 -0.0654  0.7413 -0.5122
  564TMC3     O 8422   2.062   4.641  15.619  0.3681 -0.1823 -0.2800
  564TMC3     H 8423   1.878   4.662  15.757 -0.7306 -2.5331 -0.6185
  564TMC3    H1 8424   2.241   0.046  15.937  1.1028 -3.0991 -2.9629
  564TMC3    H2 8425   1.989   4.512  16.140 -0.9810  1.8283  1.3764
  564TMC3    C7 8426   2.241   4.586  16.099 -0.1000  0.2418 -0.5516
  564TMC3    C8 8427   1.881   4.442  15.925 -0.0996  0.1585  0.2685
  564TMC3    O1 8428   2.284   4.633  16.203  0.3220 -0.0223  0.3266
  564TMC3    O2 8429   1.869   4.370  16.025  0.2791  0.5513  0.2162
  565TMC3    C1 8430   2.929   2.693   9.507 -0.4039 -0.1287 -0.3451
  565TMC3    C2 8431   2.957   2.600   9.604 -0.1411 -0.6719 -0.7036
  565TMC3    C3 8432   2.863   2.488   9.610  0.0823 -0.1910 -0.2947
  565TMC3    C4 8433   2.821   2.686   9.424 -0.1895  0.3944  0.2751
  565TMC3    C5 8434   2.726   2.589   9.440 -1.0610  0.4604  0.3859
  565TMC3    C6 8435   2.750   2.485   9.530 -0.3230  0.3640  0.0628
  565TMC3     C 8436   3.018   2.806   9.481 -0.3635 -0.5052  0.5728
  565TMC3     O 8437   3.087   2.838   9.575  0.5431  0.3809 -0.3110
  565TMC3     H 8438   3.050   2.593   9.659 -1.2110  1.7029  1.3651
  565TMC3    H1 8439   2.793   2.768   9.359 -1.0703 -1.7272 -2.0128
  565TMC3    H2 8440   2.673   2.421   9.573  0.4114  0.0326  0.8899
  565TMC3    C7 8441   2.593   2.592   9.367 -0.4896  0.5420  0.2869
  565TMC3    C8 8442   2.892   2.389   9.708  1.0509 -1.0456  0.6127
  565TMC3    O1 8443   2.577   2.692   9.294 -0.5279  0.3360 -0.0291
  565TMC3    O2 8444   2.964   2.424   9.800 -0.1919 -0.5465 -0.3822
  566MPD2     C 8445   4.678   3.314  14.589  0.0605 -1.0958  0.2092
  566MPD2    C1 8446   4.645   3.346  14.458 -0.1019 -0.0291 -0.2182
  566MPD2    C2 8447   4.515   3.370  14.431  0.0896  0.0858 -1.0601
  566MPD2    C3 8448   4.421   3.382  14.531 -0.5620 -0.6345  0.0253
  566MPD2    C4 8449   4.454   3.361  14.661  0.2336 -0.5208 -0.0921
  566MPD2    C5 8450   4.581   3.321  14.691  0.1264 -0.4521  0.5096
  566MPD2     H 8451   4.474   3.376  14.331  1.3006  0.2132 -1.5581
  566MPD2    H1 8452   4.384   3.376  14.743  0.9627  0.6956  0.3037
  566MPD2    H2 8453   0.047   3.287  14.615  0.4547  2.3462  2.1164
  566MPD2    H3 8454   4.616   3.311  14.794 -0.0860 -2.2231  0.4139
  566MPD2     N 8455   4.286   3.405  14.503 -0.1788  0.2676  0.5431
  566MPD2    H5 8456   4.227   3.374  14.580  0.1886 -1.6184  0.0649
  566MPD2    N1 8457   0.012   3.331  14.365 -0.0183  0.7043 -0.1855
  566MPD2    H7 8458   0.105   3.306  14.398  0.2663  1.3811 -0.4743
  567TMC3    C1 8459   0.097   3.280  14.161 -0.5565  0.0962  0.1961
  567TMC3    C2 8460   0.083   3.295  14.027  0.1373 -0.0894  0.8544
  567TMC3    C3 8461   0.066   3.176  13.952  0.1756 -0.1302  0.4459
  567TMC3    C4 8462   0.122   3.160  14.223 -0.1330 -0.1919  0.8009
  567TMC3    C5 8463   0.089   3.050  14.151  0.2032  0.3868 -0.0266
  567TMC3    C6 8464   0.071   3.052  14.017  0.2382  0.6631 -0.2997
  567TMC3     C 8465   4.720   3.345  14.231 -0.1347 -0.6489 -0.2813
  567TMC3     O 8466   4.622   3.373  14.167  0.6859  0.0350  0.0399
  567TMC3     H 8467   0.048   3.390  13.988 -1.5981 -0.9007  0.4063
  567TMC3    H1 8468   0.162   3.139  14.322  1.9954  0.4209  0.0856
  567TMC3    H2 8469   0.020   2.966  13.976  2.1532  0.2207 -1.7846
  567TMC3    C7 8470   0.049   2.927  14.217  0.1236 -0.1916 -0.4175
  567TMC3    C8 8471   4.715   3.179  13.832  0.2338  0.3335  0.0186
  567TMC3    O1 8472   0.010   2.832  14.151 -0.0680  0.1538  0.3280
  567TMC3    O2 8473   4.640   3.270  13.815  0.3039  0.1061 -0.3104
  568MPD2     C 8474   2.780   3.423  16.194 -0.0987 -0.7033 -0.1187
  568MPD2    C1 8475   2.674   3.408  16.288 -0.5353 -0.5403  0.7246
  568MPD2    C2 8476   2.552   3.465  16.257  0.1375 -0.5600 -0.0124
  568MPD2    C3 8477   2.536   3.532  16.132  0.4717  0.6336  0.6959
  568MPD2    C4 8478   2.646   3.541  16.045  0.1882  0.6559  0.3580
  568MPD2    C5 8479   2.769   3.498  16.077  0.4627 -0.2554  0.3128
  568MPD2     H 8480   2.470   3.452  16.326  0.5693  1.7665  0.9509
  568MPD2    H1 8481   2.646   3.591  15.949  0.9260  1.1843  0.6348
  568MPD2    H2 8482   2.876   3.380  16.218 -0.3712 -0.9738  0.4727
  568MPD2    H3 8483   2.851   3.500  16.006 -0.9829  1.5203 -1.2819
  568MPD2     N 8484   2.418   3.595  16.100 -0.4077  0.1417 -0.1391
  568MPD2    H5 8485   2.339   3.600  16.164 -0.6900 -3.2450 -0.2408
  568MPD2    N1 8486   2.706   3.336  16.413 -0.6264  0.2766  0.0952
  568MPD2    H7 8487   2.793   3.285  16.416 -0.8635 -0.1489 -0.2723
  569TMC3    C1 8488   2.254   3.714  15.983  0.3860 -0.0070 -0.4487
  569TMC3    C2 8489   2.211   3.772  16.098 -0.6078 -0.1584 -0.2022
  569TMC3    C3 8490   2.078   3.802  16.105 -0.4601 -0.0016  0.5832
  569TMC3    C4 8491   2.176   3.712  15.875  0.0852  0.0344 -0.0491
  569TMC3    C5 8492   2.048   3.748  15.883 -0.8175 -0.0423  0.3027
  569TMC3    C6 8493   1.992   3.788  16.000 -0.7946 -0.5257  0.3238
  569TMC3     C 8494   2.386   3.645  15.977 -0.1448  0.6303 -0.3191
  569TMC3     O 8495   2.447   3.633  15.871  0.0972  0.2761  0.2537
  569TMC3     H 8496   2.278   3.803  16.177 -1.5875  0.5966  0.3303
  569TMC3    H1 8497   2.209   3.660  15.786  1.8558  0.9811  0.0601
  569TMC3    H2 8498   1.885   3.807  15.996 -0.5423  0.6706 -1.0938
  569TMC3    C7 8499   2.013   3.830  15.769  0.1462 -0.3236 -0.0647
  569TMC3    C8 8500   2.040   3.917  16.184 -0.2115  1.1652  0.2635
  569TMC3    O1 8501   2.058   3.789  15.663  0.1519 -0.3852 -0.5936
  569TMC3    O2 8502   1.956   3.984  16.125  0.2393 -0.5874 -0.1272
  570TMC3    C1 8503   1.742   2.446  16.254 -0.9721 -0.6174 -0.3262
  570TMC3    C2 8504   1.771   2.472  16.122  0.7296 -0.0257 -0.2808
  570TMC3    C3 8505   1.835   2.589  16.095  0.8968  0.6336  0.1540
  570TMC3    C4 8506   1.758   2.543  16.347 -0.7485 -0.6756 -0.0611
  570TMC3    C5 8507   1.819   2.657  16.312  0.1231  0.4425  0.2016
  570TMC3    C6 8508   1.862   2.687  16.187 -0.1312 -0.2726 -0.2690
  570TMC3     C 8509   1.689   2.314  16.285 -0.5809 -0.3641 -0.3485
  570TMC3     O 8510   1.674   2.243  16.183  0.4183 -0.3627 -0.5390
  570TMC3     H 8511   1.748   2.402  16.043 -1.4433  1.1232 -0.6623
  570TMC3    H1 8512   1.725   2.515  16.447  1.3223 -1.8094  0.3057
  570TMC3    H2 8513   1.910   2.780  16.157  2.2289 -1.1105  1.0070
  570TMC3    C7 8514   1.865   2.736  16.420 -0.0261  0.7019 -0.1273
  570TMC3    C8 8515   1.896   2.610  15.964 -0.0416 -0.0090  0.1143
  570TMC3    O1 8516   1.805   2.726  16.525 -0.4472 -0.1471 -0.2144
  570TMC3    O2 8517   1.897   2.725  15.931 -0.8724 -1.1052  0.8981
  571MPD2     C 8518   3.885   4.199  17.712 -0.6976 -0.1970  0.5207
  571MPD2    C1 8519   3.898   4.167   0.117  0.8330 -0.1191 -0.2272
  571MPD2    C2 8520   3.974   4.244   0.198  0.0280 -0.1827  0.0494
  571MPD2    C3 8521   4.020   4.365   0.155  0.8399 -0.2813 -0.0210
  571MPD2    C4 8522   3.997   4.408   0.021  0.3438 -0.4247  0.9171
  571MPD2    C5 8523   3.937   4.316  17.667  0.1664 -0.3824  0.0667
  571MPD2     H 8524   3.989   4.213   0.301  0.9323  1.6014  0.4673
  571MPD2    H1 8525   4.035   4.502  17.713  1.9984 -1.1302  0.8649
  571MPD2    H2 8526   3.832   4.127  17.652  1.3861 -2.1760  1.0277
  571MPD2    H3 8527   3.934   4.340  17.561 -1.6349 -0.5369  0.0875
  571MPD2     N 8528   4.082   4.448   0.245 -0.2229 -0.3836 -1.4973
  571MPD2    H5 8529   4.089   4.544   0.212  2.8459 -0.7346 -1.8059
  571MPD2    N1 8530   3.832   4.056   0.175  0.0510 -0.1196 -0.2300
  571MPD2    H7 8531   3.868   4.010   0.258  0.0898 -0.8288 -0.6334
  572TMC3    C1 8532   4.164   4.555   0.442  0.3604 -0.7997  0.3529
  572TMC3    C2 8533   4.259   4.569   0.534 -0.3374  0.9934 -0.0782
  572TMC3    C3 8534   4.280   4.690   0.595  0.3459 -0.2305  0.5690
  572TMC3    C4 8535   4.071   4.650   0.429 -0.3509 -0.7962 -0.7123
  572TMC3    C5 8536   4.090   0.038   0.489 -0.2959 -0.3227 -0.5864
  572TMC3    C6 8537   4.200   0.061   0.573  0.1291  0.4129  0.1547
  572TMC3     C 8538   4.142   4.430   0.369 -0.1823 -0.3684  0.3229
  572TMC3     O 8539   4.185   4.329   0.423  0.0055 -0.1790  0.1116
  572TMC3     H 8540   4.327   4.486   0.549 -3.3110 -1.3086  0.7461
  572TMC3    H1 8541   3.991   4.644   0.356  1.2759  0.5456 -2.5876
  572TMC3    H2 8542   4.213   0.161   0.612  0.5775  0.6639 -0.6287
  572TMC3    C7 8543   4.011   0.149   0.446 -0.0054 -0.2990  0.2829
  572TMC3    C8 8544   4.377   4.695   0.701 -0.6460 -0.1064  0.4659
  572TMC3    O1 8545   3.985   0.160   0.328 -0.0912 -1.0334 -0.3993
  572TMC3    O2 8546   4.472   4.622   0.683  0.2337 -0.4257  0.3027
  573MPD2     C 8547   1.113   4.691   0.131  0.3817  0.4304 -0.3801
  573MPD2    C1 8548   1.000   4.700   0.045 -0.3410  0.3101  0.3154
  573MPD2    C2 8549   1.020   4.722  17.642 -0.6109  0.4738  0.5930
  573MPD2    C3 8550   1.152   0.005  17.589 -0.0300  0.8888  0.2344
  573MPD2    C4 8551   1.259   4.728  17.671  0.9895 -0.5080 -0.5282
  573MPD2    C5 8552   1.241   4.690   0.076  0.9753  0.2458 -0.1066
  573MPD2     H 8553   0.936   4.728  17.573 -2.2614  1.0560  2.6798
  573MPD2    H1 8554   1.364   0.012  17.647  0.6074 -0.0020 -1.8079
  573MPD2    H2 8555   1.100   4.678   0.238 -3.2736 -3.0721 -1.2487
  573MPD2    H3 8556   1.326   4.688   0.143  0.7569 -2.6421  0.0679
  573MPD2     N 8557   1.161   0.038  17.454  0.4780  0.3121  0.3275
  573MPD2    H5 8558   1.077   0.037  17.396  0.3931 -1.9861  0.4941
  573MPD2    N1 8559   0.874   4.688   0.106  0.2594 -0.0596  0.3050
  573MPD2    H7 8560   0.862   4.698   0.206 -0.7800  3.1245 -0.1631
  574TMC3    C1 8561   1.236   0.135  17.266 -0.1828 -0.2951  0.8880
  574TMC3    C2 8562   1.114   0.088  17.220  0.3315 -0.0562  0.3309
  574TMC3    C3 8563   1.028   0.178  17.173  0.3824  0.0766 -0.5384
  574TMC3    C4 8564   1.280   0.264  17.250 -0.0179 -0.8365 -0.3225
  574TMC3    C5 8565   1.192   0.349  17.191 -0.4254 -0.1928  0.6558
  574TMC3    C6 8566   1.063   0.308  17.162  0.7319 -0.3205 -0.1505
  574TMC3     C 8567   1.280   0.074  17.387  0.0312 -1.3393 -0.6171
  574TMC3     O 8568   1.383   0.105  17.441 -0.2354  0.4641 -0.6743
  574TMC3     H 8569   1.090   4.715  17.230  0.1479 -0.3451 -3.4163
  574TMC3    H1 8570   1.369   0.296  17.304 -0.9686  0.3421  0.5383
  574TMC3    H2 8571   0.989   0.383  17.136  0.5176 -0.6615 -0.5207
  574TMC3    C7 8572   1.228   0.487  17.181  0.0803  0.0690 -0.4148
  574TMC3    C8 8573   0.905   0.154  17.247 -0.1480 -0.5861  0.2189
  574TMC3    O1 8574   1.330   0.528  17.235  0.0762 -0.1577 -0.3129
  574TMC3    O2 8575   0.913   0.065  17.336 -0.3100  0.5096 -0.6140
  575TMC3    C1 8576   3.001   1.900  10.455  0.6990  0.4874 -0.3046
  575TMC3    C2 8577   3.100   1.807  10.447  0.2476  0.0534 -0.0028
  575TMC3    C3 8578   3.159   1.790  10.325 -0.1728  0.3155  0.4808
  575TMC3    C4 8579   2.964   1.983  10.345 -0.1011  0.1280 -0.0979
  575TMC3    C5 8580   3.031   1.970  10.233 -0.3330 -0.3888 -0.5534
  575TMC3    C6 8581   3.130   1.871  10.222  0.0778  0.1025  0.1210
  575TMC3     C 8582   2.922   1.897  10.577  1.1981 -0.4767  0.2648
  575TMC3     O 8583   2.965   1.853  10.684  0.0687 -0.4098  0.5275
  575TMC3     H 8584   3.123   1.752  10.537 -1.8180 -0.2871  0.3166
  575TMC3    H1 8585   2.897   2.068  10.349  0.2063  0.2784  1.7511
  575TMC3    H2 8586   3.186   1.855  10.130 -0.2301 -0.1787 -0.0172
  575TMC3    C7 8587   3.012   2.047  10.114 -0.2559 -0.3471 -0.1332
  575TMC3    C8 8588   3.267   1.700  10.305 -0.1098  0.0378 -0.9003
  575TMC3    O1 8589   2.965   2.162  10.127 -0.2651  0.7748  0.1951
  575TMC3    O2 8590   3.292   1.679  10.186 -0.0358  0.3714 -0.4955
  576MPD2     C 8591   2.561   2.315  12.686 -0.1046  0.2916 -0.1186
  576MPD2    C1 8592   2.570   2.442  12.646 -0.0109  0.2840 -0.3415
  576MPD2    C2 8593   2.569   2.543  12.742  0.0707  0.0633  0.0424
  576MPD2    C3 8594   2.540   2.520  12.871  0.4595  0.3761 -0.2917
  576MPD2    C4 8595   2.531   2.387  12.914 -0.4367 -0.6317  0.4693
  576MPD2    C5 8596   2.552   2.287  12.818 -0.7914 -0.3515 -0.0021
  576MPD2     H 8597   2.600   2.643  12.713  1.1715 -0.3314 -0.1216
  576MPD2    H1 8598   2.533   2.356  13.018 -2.3511 -0.1725  0.6498
  576MPD2    H2 8599   2.582   2.227  12.625 -0.7520  0.2136 -0.2362
  576MPD2    H3 8600   2.565   2.183  12.845  2.3434  0.1823  0.5281
  576MPD2     N 8601   2.535   2.633  12.962 -0.2680 -0.3468 -0.1453
  576MPD2    H5 8602   2.552   2.725  12.925 -1.0931  0.0064  0.3631
  576MPD2    N1 8603   2.596   2.477  12.509  0.6393  0.2519  0.3760
  576MPD2    H7 8604   2.607   2.577  12.494 -1.5922  0.5538  0.7918
  577TMC3    C1 8605   2.633   2.466  12.280 -0.5411  0.1737 -0.1609
  577TMC3    C2 8606   2.623   2.391  12.170  0.3682 -0.2573 -0.7203
  577TMC3    C3 8607   2.647   2.449  12.050  0.2770 -0.6188  0.2499
  577TMC3    C4 8608   2.667   2.598  12.285  0.0079 -0.1835  0.1882
  577TMC3    C5 8609   2.671   2.655  12.157  0.6618 -0.0820 -0.2500
  577TMC3    C6 8610   2.674   2.585  12.039 -0.4095 -0.6710 -0.9819
  577TMC3     C 8611   2.605   2.391  12.406  0.2053 -0.2411 -0.4842
  577TMC3     O 8612   2.569   2.274  12.401  0.6448  0.0321 -0.1394
  577TMC3     H 8613   2.588   2.288  12.170 -0.9464  0.1939 -2.0919
  577TMC3    H1 8614   2.695   2.662  12.368  0.9709  0.8929 -0.9534
  577TMC3    H2 8615   2.678   2.637  11.943  0.0517 -0.1215 -0.6634
  577TMC3    C7 8616   2.653   2.799  12.152  0.9647 -0.8998  0.1583
  577TMC3    C8 8617   2.672   2.360  11.936  0.2382  0.1555 -0.5302
  577TMC3    O1 8618   2.660   2.853  12.260 -0.5036  0.0630 -0.2087
  577TMC3    O2 8619   2.609   2.258  11.943 -0.0477 -0.1011 -0.0897
  578MPD2     C 8620   0.260   2.793   0.911  0.1293 -0.2600 -0.6551
  578MPD2    C1 8621   0.323   2.684   0.854 -0.8476 -0.4305 -0.1600
  578MPD2    C2 8622   0.453   2.657   0.894  0.0023 -0.2239 -0.4740
  578MPD2    C3 8623   0.514   2.729   0.994 -0.3824  0.0763  0.8184
  578MPD2    C4 8624   0.442   2.823   1.062  0.5952  0.4150  0.0993
  578MPD2    C5 8625   0.314   2.863   1.015 -0.1484 -0.8581  0.6802
  578MPD2     H 8626   0.505   2.580   0.838 -0.6143 -0.5249 -0.6225
  578MPD2    H1 8627   0.472   2.882   1.148 -1.8595  2.9234 -0.7863
  578MPD2    H2 8628   0.159   2.819   0.883  0.0871  0.9615  0.6753
  578MPD2    H3 8629   0.255   2.939   1.064 -0.1395 -1.5498  1.7609
  578MPD2     N 8630   0.656   2.715   1.021  0.0981  0.1775  0.5948
  578MPD2    H5 8631   0.704   2.639   0.974 -2.4768 -0.0500 -1.6857
  578MPD2    N1 8632   0.265   2.619   0.738  0.5577  0.2389  0.3748
  578MPD2    H7 8633   0.196   2.674   0.689 -0.4562 -0.9055  0.5142
  579TMC3    C1 8634   0.875   2.761   1.110  0.1415 -0.5842  0.2097
  579TMC3    C2 8635   0.966   2.859   1.149  0.0394  0.0061  0.0857
  579TMC3    C3 8636   1.097   2.824   1.156 -0.2886  0.4967  0.4623
  579TMC3    C4 8637   0.908   2.630   1.087  0.3284 -0.6411  0.2378
  579TMC3    C5 8638   1.043   2.600   1.100  0.5871  0.5951 -0.3114
  579TMC3    C6 8639   1.133   2.695   1.135  1.0471  0.1801 -0.1792
  579TMC3     C 8640   0.732   2.804   1.095 -0.4812 -0.0074 -0.0112
  579TMC3     O 8641   0.697   2.912   1.142 -0.1608 -0.4973 -0.4942
  579TMC3     H 8642   0.938   2.962   1.167 -1.5630  0.0077 -2.3692
  579TMC3    H1 8643   0.840   2.547   1.071 -1.8318  0.8990  1.4531
  579TMC3    H2 8644   1.230   2.656   1.162  0.7368  0.2703  1.0970
  579TMC3    C7 8645   1.092   2.460   1.067 -1.5239 -0.0718  0.1437
  579TMC3    C8 8646   1.194   2.929   1.189 -0.5460 -0.0923  0.4906
  579TMC3    O1 8647   1.206   2.433   1.106  0.2768  0.1496  0.3082
  579TMC3    O2 8648   1.146   3.034   1.224 -0.2304  0.0538 -0.2815
  580TMC3    C1 8649   0.616   2.589  11.911 -0.2163 -0.7939  0.4560
  580TMC3    C2 8650   0.746   2.625  11.913  0.9440  0.2229 -0.1358
  580TMC3    C3 8651   0.837   2.549  11.848 -0.0834 -0.0514  0.4956
  580TMC3    C4 8652   0.586   2.457  11.877 -0.4089  0.0285  0.2046
  580TMC3    C5 8653   0.682   2.378  11.821  0.2540  1.1103  0.3643
  580TMC3    C6 8654   0.806   2.427  11.796  0.5449  0.3777 -0.6098
  580TMC3     C 8655   0.529   2.671  11.824 -0.3502  0.2409 -0.0145
  580TMC3     O 8656   0.416   2.634  11.789 -0.3592 -0.3378 -0.0245
  580TMC3     H 8657   0.773   2.717  11.964 -0.2131  0.2934  0.3563
  580TMC3    H1 8658   0.481   2.429  11.881 -0.9866  2.1421 -0.0416
  580TMC3    H2 8659   0.886   2.357  11.778  1.2426  1.1404 -0.4484
  580TMC3    C7 8660   0.624   2.266  11.744  0.1927 -0.4605 -0.2965
  580TMC3    C8 8661   0.962   2.607  11.822  0.3334  0.3467 -0.3777
  580TMC3    O1 8662   0.667   2.246  11.631  0.3140 -0.5811 -0.0208
  580TMC3    O2 8663   0.997   2.704  11.890  0.8047  0.3760  0.4901
  581MPD2     C 8664   3.493   1.087  14.981 -0.2043  1.1317 -0.2725
  581MPD2    C1 8665   3.493   1.192  15.069  0.5251 -0.4896  0.2363
  581MPD2    C2 8666   3.414   1.306  15.039  0.2493  0.1706 -0.0634
  581MPD2    C3 8667   3.323   1.300  14.932  0.6849 -0.5042  0.5428
  581MPD2    C4 8668   3.330   1.195  14.840  0.1832  0.4387 -0.5334
  581MPD2    C5 8669   3.417   1.088  14.866  0.0610  0.1460  0.0080
  581MPD2     H 8670   3.399   1.374  15.122 -0.2983 -0.9810  0.7757
  581MPD2    H1 8671   3.269   1.184  14.752  1.4852  0.7068 -1.4663
  581MPD2    H2 8672   3.544   0.993  14.994 -0.0533  1.1163 -0.9750
  581MPD2    H3 8673   3.416   1.000  14.802 -1.8989 -0.1920  0.5046
  581MPD2     N 8674   3.221   1.399  14.924  0.0892 -0.5676  0.0153
  581MPD2    H5 8675   3.232   1.475  14.990  1.7126 -1.5804  0.9226
  581MPD2    N1 8676   3.554   1.173  15.197 -0.1829 -0.5093  1.0496
  581MPD2    H7 8677   3.595   1.081  15.205  1.5760  0.1244 -0.5352
  582TMC3    C1 8678   3.548   1.165  15.428  0.3190 -0.0477 -0.4343
  582TMC3    C2 8679   3.577   1.226  15.538  0.2241  0.6208  0.1445
  582TMC3    C3 8680   3.493   1.214  15.648  0.2292 -0.3592 -0.1915
  582TMC3    C4 8681   3.438   1.087  15.420  0.0002 -0.0718 -0.0960
  582TMC3    C5 8682   3.340   1.088  15.519  0.3387  0.5684 -0.1505
  582TMC3    C6 8683   3.375   1.143  15.639 -0.1129 -0.1053 -0.2086
  582TMC3     C 8684   3.559   1.254  15.309 -0.1086 -0.2534  0.1948
  582TMC3     O 8685   3.528   1.372  15.318  0.3424  0.5954  0.1639
  582TMC3     H 8686   3.656   1.300  15.532  0.3196  0.5929  0.9855
  582TMC3    H1 8687   3.402   1.064  15.321  0.3024 -1.5015  0.1296
  582TMC3    H2 8688   3.298   1.137  15.716 -0.4918 -0.6531 -0.6232
  582TMC3    C7 8689   3.216   1.131  15.460  0.4382  0.9533 -0.5295
  582TMC3    C8 8690   3.523   1.261  15.777 -0.2434 -0.8207  0.1611
  582TMC3    O1 8691   3.168   1.052  15.381 -0.2583  0.4942  0.5741
  582TMC3    O2 8692   3.436   1.258  15.860 -0.2284 -0.3308  0.0931
  583MPD2     C 8693   3.178   3.010  16.883 -0.0242 -0.0546  0.2044
  583MPD2    C1 8694   3.168   3.107  16.783 -0.1047 -1.1446 -0.2879
  583MPD2    C2 8695   3.066   3.197  16.790 -0.5121 -0.7693  0.0975
  583MPD2    C3 8696   2.982   3.207  16.899 -0.4992 -0.5119 -0.1422
  583MPD2    C4 8697   2.985   3.107  16.988 -0.2681 -0.0563  0.1250
  583MPD2    C5 8698   3.090   3.014  16.983  0.0264  0.2955  0.7174
  583MPD2     H 8699   3.066   3.279  16.718 -1.5592 -0.5402  0.3632
  583MPD2    H1 8700   2.915   3.106  17.070 -0.0200 -2.2126  0.2963
  583MPD2    H2 8701   3.259   2.938  16.883  0.2080  0.2157 -1.1410
  583MPD2    H3 8702   3.096   2.928  17.048 -2.7030 -0.8115 -0.4598
  583MPD2     N 8703   2.892   3.320  16.903 -0.3357  0.6594  0.0486
  583MPD2    H5 8704   2.901   3.385  16.826  0.5264 -0.0864 -0.4820
  583MPD2    N1 8705   3.272   3.127  16.689 -0.4465 -0.6291  0.0302
  583MPD2    H7 8706   3.250   3.212  16.636  0.4071  0.1557  0.9463
  584TMC3    C1 8707   2.765   3.484  17.026 -0.9311  0.2298  0.4103
  584TMC3    C2 8708   2.827   3.583  16.951 -0.0240 -0.3067 -0.1820
  584TMC3    C3 8709   2.830   3.709  16.995  0.6343 -0.1506 -0.3721
  584TMC3    C4 8710   2.725   3.511  17.153 -1.0289 -0.2088  0.1437
  584TMC3    C5 8711   2.728   3.640  17.190 -0.0896 -0.4385 -0.0402
  584TMC3    C6 8712   2.781   3.743  17.117 -0.3596 -0.5276  0.6316
  584TMC3     C 8713   2.799   3.345  17.005 -0.3911  0.1333  0.2776
  584TMC3     O 8714   2.758   3.267  17.084  0.7188 -0.1346 -0.1893
  584TMC3     H 8715   2.858   3.562  16.850  0.4232 -3.4816  0.6290
  584TMC3    H1 8716   2.672   3.442  17.218 -1.2009  0.8075  1.0753
  584TMC3    H2 8717   2.781   3.847  17.148  0.1530  0.2855 -2.1732
  584TMC3    C7 8718   2.699   3.658  17.329  0.6831 -0.0019 -0.9298
  584TMC3    C8 8719   2.879   3.810  16.907 -0.6032 -0.0070 -0.3940
  584TMC3    O1 8720   2.604   3.591  17.372  0.3949 -0.1342  0.1467
  584TMC3    O2 8721   2.885   3.782  16.792 -0.1275  0.2879 -0.5335
  585MPD2     C 8722   2.557   1.242   0.588  0.3093 -0.4944 -0.0257
  585MPD2    C1 8723   2.594   1.360   0.524 -0.2376  0.1280  0.9312
  585MPD2    C2 8724   2.652   1.345   0.402 -1.1267  0.5280 -0.8301
  585MPD2    C3 8725   2.627   1.231   0.327 -0.0416 -0.3053 -0.6600
  585MPD2    C4 8726   2.577   1.117   0.387  0.4980 -0.3747 -0.4918
  585MPD2    C5 8727   2.558   1.123   0.520  0.2893  0.5040  0.6987
  585MPD2     H 8728   2.697   1.428   0.349  3.3494 -1.0993  0.3298
  585MPD2    H1 8729   2.575   1.017   0.344 -1.1681 -0.8040  0.5940
  585MPD2    H2 8730   2.517   1.238   0.689  1.0545  3.2652  0.4208
  585MPD2    H3 8731   2.521   1.034   0.568 -1.1828  0.5189 -0.4313
  585MPD2     N 8732   2.655   1.225   0.189  0.7386  0.1356 -0.1859
  585MPD2    H5 8733   2.623   1.143   0.138  0.4397  0.3176 -0.2913
  585MPD2    N1 8734   2.575   1.482   0.591 -0.2446 -0.4799  0.6779
  585MPD2    H7 8735   2.510   1.477   0.669  2.2607  0.9329  2.8219
  586TMC3    C1 8736   2.650   1.308  17.703  0.3481  0.5983 -0.0149
  586TMC3    C2 8737   2.648   1.183  17.648  0.2032  0.4922  0.9219
  586TMC3    C3 8738   2.577   1.178  17.529  0.3450 -0.3962 -0.0120
  586TMC3    C4 8739   2.588   1.410  17.649  0.3564  0.9660  0.2271
  586TMC3    C5 8740   2.498   1.394  17.544  0.3708  0.2922  0.0561
  586TMC3    C6 8741   2.490   1.275  17.481 -0.2477 -0.8795 -0.5660
  586TMC3     C 8742   2.695   1.332   0.110  0.7829 -0.4749  0.5602
  586TMC3     O 8743   2.729   1.449   0.136 -0.8463 -0.1524 -0.6922
  586TMC3     H 8744   2.709   1.103  17.689 -0.6161 -0.3827  0.4255
  586TMC3    H1 8745   2.578   1.503  17.703 -0.1081  0.6396  0.7122
  586TMC3    H2 8746   2.447   1.264  17.382  0.0204 -0.1790 -0.7653
  586TMC3    C7 8747   2.370   1.433  17.571 -0.1155  0.2989 -0.1180
  586TMC3    C8 8748   2.641   1.087  17.436 -0.4512 -0.2016  0.6263
  586TMC3    O1 8749   2.289   1.351  17.528  0.0092 -0.3525 -0.7893
  586TMC3    O2 8750   2.759   1.056  17.461 -0.4209 -0.0177  0.2527
  587TMC3    C1 8751   4.438   1.475  16.264  0.0865  0.5252 -0.2341
  587TMC3    C2 8752   4.436   1.472  16.398  0.2046 -0.0406  0.2401
  587TMC3    C3 8753   4.535   1.549  16.463 -0.0908  0.0836  0.0639
  587TMC3    C4 8754   4.543   1.537  16.199 -0.5059  0.6838 -0.0293
  587TMC3    C5 8755   4.637   1.609  16.268  0.6517 -0.5159 -0.4097
  587TMC3    C6 8756   4.628   1.624  16.401  0.4259  1.4561  0.4807
  587TMC3     C 8757   4.331   1.430  16.182  0.6066 -0.3985  0.3325
  587TMC3     O 8758   4.320   1.481  16.071  0.0717  0.2525  0.4646
  587TMC3     H 8759   4.356   1.417  16.446  1.7335 -1.6197  0.9600
  587TMC3    H1 8760   4.561   1.507  16.097  1.5072  0.1994  0.4591
  587TMC3    H2 8761   4.701   1.681  16.458  2.9896  0.6120 -1.9439
  587TMC3    C7 8762   0.041   1.579  16.236  0.6822 -0.1959  0.5116
  587TMC3    C8 8763   4.589   1.486  16.585 -0.0258  0.0442  0.1530
  587TMC3    O1 8764   0.076   1.620  16.126 -0.3626  0.3457 -0.5765
  587TMC3    O2 8765   4.711   1.484  16.601 -0.6072 -0.7987  0.4367
  588TMC3    C1 8766   2.251   4.018  10.020 -0.2522 -0.6719  0.3247
  588TMC3    C2 8767   2.176   3.904  10.008  0.5218  0.1845 -0.4426
  588TMC3    C3 8768   2.201   3.797  10.086 -0.7628  1.1696  0.7640
  588TMC3    C4 8769   2.355   4.028  10.104  0.3951 -0.0856  0.4891
  588TMC3    C5 8770   2.382   3.918  10.183  0.3814  0.3169  0.3163
  588TMC3    C6 8771   2.301   3.803  10.178 -0.4904 -0.4053  0.3313
  588TMC3     C 8772   2.210   4.133   9.941 -0.3708  0.2662  0.2566
  588TMC3     O 8773   2.174   4.121   9.825 -0.1285  0.4168 -0.0271
  588TMC3     H 8774   2.090   3.909   9.943  1.6492 -1.5329 -2.0480
  588TMC3    H1 8775   2.423   4.111  10.088  1.6946 -0.5885  3.4168
  588TMC3    H2 8776   2.328   3.718  10.240 -0.7921  0.1477  1.2149
  588TMC3    C7 8777   2.491   3.929  10.281 -0.0289  0.3713  0.3052
  588TMC3    C8 8778   2.108   3.693  10.069  0.6460  0.4937 -0.1887
  588TMC3    O1 8779   2.491   3.848  10.373  0.8905 -0.4326  0.6514
  588TMC3    O2 8780   1.999   3.725  10.025  0.5430  0.4844  0.1880
  589TMC3    C1 8781   1.443   0.755   1.085  0.4480  0.0832 -0.6636
  589TMC3    C2 8782   1.564   0.813   1.103 -0.2280 -0.1819  0.6573
  589TMC3    C3 8783   1.679   0.740   1.057  0.6007 -0.5431 -0.1783
  589TMC3    C4 8784   1.436   0.638   1.011  0.6238  0.1635  0.1430
  589TMC3    C5 8785   1.538   0.594   0.943  0.1076 -0.0978 -0.2241
  589TMC3    C6 8786   1.663   0.643   0.964  0.0645  0.0460 -0.2204
  589TMC3     C 8787   1.320   0.820   1.111 -0.7552  0.0542 -0.6382
  589TMC3     O 8788   1.218   0.761   1.082  0.7247  0.1443  0.1355
  589TMC3     H 8789   1.585   0.895   1.170 -0.7729 -0.4144  1.1023
  589TMC3    H1 8790   1.339   0.590   1.014  0.3279  0.6913 -0.9864
  589TMC3    H2 8791   1.750   0.599   0.916  0.0420  0.2695 -0.4649
  589TMC3    C7 8792   1.528   0.452   0.913 -0.1335  0.2625 -0.1607
  589TMC3    C8 8793   1.763   0.702   1.175 -0.2911 -1.0724 -0.2659
  589TMC3    O1 8794   1.417   0.401   0.879  0.1634  0.0340 -0.0266
  589TMC3    O2 8795   1.719   0.717   1.289  0.4316 -0.4123  0.0296
  590MPD2     C 8796   1.202   3.508  16.484  0.7624 -0.3257 -0.6096
  590MPD2    C1 8797   1.140   3.630  16.479 -0.3164  0.9415 -0.9713
  590MPD2    C2 8798   1.198   3.736  16.406 -0.5315 -0.1292 -0.1306
  590MPD2    C3 8799   1.312   3.716  16.337  0.7173  0.3772  0.2821
  590MPD2    C4 8800   1.380   3.594  16.343  0.1301  0.5946 -0.1485
  590MPD2    C5 8801   1.327   3.494  16.429 -0.4193 -0.2228 -0.3848
  590MPD2     H 8802   1.165   3.838  16.421  0.7725  0.3090 -0.2717
  590MPD2    H1 8803   1.473   3.580  16.289  0.5069  1.7888  0.1784
  590MPD2    H2 8804   1.152   3.424  16.532  1.4195 -0.2064  0.2747
  590MPD2    H3 8805   1.378   3.399  16.419  0.3690  0.1385  0.2731
  590MPD2     N 8806   1.379   3.817  16.265  0.2017  0.0877 -0.2507
  590MPD2    H5 8807   1.474   3.805  16.230 -0.3811  1.1036 -2.2171
  590MPD2    N1 8808   1.008   3.639  16.527 -0.4735  0.2348  0.1400
  590MPD2    H7 8809   0.964   3.549  16.540  1.6252 -0.8407 -0.1925
  591TMC3    C1 8810   1.422   4.019  16.175  0.1043  0.1068  0.2859
  591TMC3    C2 8811   1.504   3.962  16.080 -0.0524  0.0436  0.0796
  591TMC3    C3 8812   1.564   4.033  15.980 -0.0297  0.1073 -0.0019
  591TMC3    C4 8813   1.408   4.152  16.177 -0.3566  0.4347  0.5302
  591TMC3    C5 8814   1.485   4.224  16.090  0.3637 -1.0145  0.8259
  591TMC3    C6 8815   1.567   4.172  15.991 -0.2057  0.1159  0.7614
  591TMC3     C 8816   1.331   3.941  16.246 -0.6905  0.7115 -0.3418
  591TMC3     O 8817   1.231   3.997  16.286  0.0241  0.0555  0.0558
  591TMC3     H 8818   1.506   3.855  16.066  1.1909  0.4196 -2.5431
  591TMC3    H1 8819   1.339   4.198  16.246 -1.7666  0.2510 -0.7592
  591TMC3    H2 8820   1.633   4.227  15.925 -0.4030 -1.0113 -0.3821
  591TMC3    C7 8821   1.483   4.365  16.119  0.2155  0.1259  0.0844
  591TMC3    C8 8822   1.600   3.973  15.856  0.3495 -0.5842  0.1186
  591TMC3    O1 8823   1.435   4.397  16.225  0.5129  0.0560  0.1632
  591TMC3    O2 8824   1.636   3.857  15.854 -0.2867  0.4924  0.2148
  592MPD2     C 8825   1.107   1.196  11.061  0.1180 -0.2439 -0.0869
  592MPD2    C1 8826   1.031   1.218  11.175 -0.0697 -0.3015 -0.6152
  592MPD2    C2 8827   0.989   1.118  11.257 -0.6603  0.3637 -0.1823
  592MPD2    C3 8828   1.040   0.991  11.231 -0.1307  0.1126 -0.6162
  592MPD2    C4 8829   1.114   0.966  11.116 -0.3065 -0.4303 -0.0247
  592MPD2    C5 8830   1.140   1.068  11.027 -0.0625 -0.0198  0.1162
  592MPD2     H 8831   0.925   1.132  11.344  1.1583 -0.6575  1.3292
  592MPD2    H1 8832   1.154   0.868  11.094  1.4906 -0.0909  1.7616
  592MPD2    H2 8833   1.137   1.275  10.993  0.5812  1.0155  1.5791
  592MPD2    H3 8834   1.203   1.053  10.939  1.2649 -0.3572  1.1268
  592MPD2     N 8835   0.990   0.888  11.327 -0.1963  0.2658 -0.0842
  592MPD2    H5 8836   0.934   0.912  11.408  1.9235  1.1658  1.1261
  592MPD2    N1 8837   1.005   1.354  11.207  0.0282 -0.0942  0.1594
  592MPD2    H7 8838   1.021   1.421  11.133 -3.4548 -1.0827 -1.4616
  593TMC3    C1 8839   0.963   1.546  11.343 -0.9630  0.0366  0.6659
  593TMC3    C2 8840   0.877   1.616  11.428 -0.0491  0.2883  0.4933
  593TMC3    C3 8841   0.884   1.750  11.443 -0.8210  0.1021  0.5783
  593TMC3    C4 8842   1.063   1.614  11.277  0.2914  0.1628  0.0096
  593TMC3    C5 8843   1.069   1.750  11.295  0.3165  0.7526 -0.1330
  593TMC3    C6 8844   0.981   1.819  11.379  0.2805  0.1253  0.0309
  593TMC3     C 8845   0.950   1.400  11.328 -0.4158 -0.5460 -0.1940
  593TMC3     O 8846   0.903   1.336  11.420 -0.0001 -0.0825  0.5218
  593TMC3     H 8847   0.821   1.557  11.499 -3.1586 -0.9305 -2.9736
  593TMC3    H1 8848   1.145   1.558  11.234 -0.7670 -1.0930 -0.3642
  593TMC3    H2 8849   0.976   1.928  11.378 -0.5725  0.0713 -1.6878
  593TMC3    C7 8850   1.184   1.821  11.261  0.4753  0.7590 -0.7546
  593TMC3    C8 8851   0.820   1.808  11.564 -0.0336 -0.2878  0.7084
  593TMC3    O1 8852   1.221   1.917  11.329 -0.0145 -0.3938  0.4456
  593TMC3    O2 8853   0.717   1.757  11.609 -0.6584  0.3099  0.3458
  594MPD2     C 8854   0.456   4.229  14.057 -0.7231 -0.0106 -0.1795
  594MPD2    C1 8855   0.384   4.277  14.163 -0.9975 -0.3042 -0.7029
  594MPD2    C2 8856   0.407   4.411  14.188 -0.5538  0.4807 -0.7383
  594MPD2    C3 8857   0.509   4.488  14.127  0.1539  1.1349  0.6345
  594MPD2    C4 8858   0.592   4.427  14.044  0.6470 -0.7647 -0.3149
  594MPD2    C5 8859   0.562   4.297  13.993 -0.2151  0.4172  0.2005
  594MPD2     H 8860   0.341   4.454  14.263  0.5429 -0.8429  0.9907
  594MPD2    H1 8861   0.677   4.470  13.992  0.7249 -0.5644 -0.0197
  594MPD2    H2 8862   0.438   4.124  14.034  0.8751 -0.0992 -1.0635
  594MPD2    H3 8863   0.604   4.245  13.907 -0.1502 -0.0440  0.5112
  594MPD2     N 8864   0.531   4.622  14.155 -0.5729  0.4611 -0.1204
  594MPD2    H5 8865   0.462   4.667  14.214  0.5859  0.9655  0.8464
  594MPD2    N1 8866   0.287   4.199  14.222  0.3359  0.5948 -0.1983
  594MPD2    H7 8867   0.266   4.114  14.169 -1.3970  0.6807  0.3336
  595TMC3    C1 8868   0.828   0.184  14.320 -0.6980 -0.2504 -0.4617
  595TMC3    C2 8869   0.783   0.127  14.206 -0.3981  0.1741 -0.1098
  595TMC3    C3 8870   0.658   0.078  14.208  1.0126 -0.7683  0.7523
  595TMC3    C4 8871   0.771   0.175  14.443 -0.1063 -0.5354  0.2697
  595TMC3    C5 8872   0.642   0.118  14.441  0.5324  0.8244  0.4484
  595TMC3    C6 8873   0.586   0.077  14.322 -0.0237 -0.3891 -0.6544
  595TMC3     C 8874   0.952   0.272  14.316 -0.4688  0.0557 -0.1847
  595TMC3     O 8875   1.027   0.266  14.412  1.0215  0.1198  0.2101
  595TMC3     H 8876   0.846   0.129  14.117  0.5823 -1.3298  0.5377
  595TMC3    H1 8877   0.806   0.226  14.532  1.3179  0.9266 -1.1405
  595TMC3    H2 8878   0.479   0.060  14.326  0.0177 -0.4364  0.3840
  595TMC3    C7 8879   0.557   0.164  14.546 -0.8855  0.1280  0.1045
  595TMC3    C8 8880   0.642   4.697  14.119  0.3276 -0.2763 -0.4947
  595TMC3    O1 8881   0.439   0.189  14.518  0.3937 -0.2555  0.3461
  595TMC3    O2 8882   0.741   4.673  14.045  0.2296  0.4259  0.2356
  596MPD2     C 8883   3.934   2.816  17.096  0.5928  0.7992 -0.2088
  596MPD2    C1 8884   3.950   2.944  17.032 -0.9140 -0.6941  0.0546
  596MPD2    C2 8885   4.004   2.940  16.907  0.1302  0.2125 -0.1267
  596MPD2    C3 8886   4.032   2.819  16.844  0.9638  0.0203  0.1941
  596MPD2    C4 8887   4.017   2.695  16.913 -0.0651 -0.3740  0.2239
  596MPD2    C5 8888   3.959   2.693  17.035 -0.2606 -0.5108  0.0395
  596MPD2     H 8889   4.018   3.031  16.849 -0.0948 -0.0104 -0.5263
  596MPD2    H1 8890   4.036   2.602  16.861  0.5865 -0.9987  1.5609
  596MPD2    H2 8891   3.909   2.811  17.201  0.5912  0.4963 -0.2255
  596MPD2    H3 8892   3.931   2.599  17.082 -1.7384 -1.0482 -1.9405
  596MPD2     N 8893   4.100   2.811  16.722  0.3190 -0.0580 -0.4693
  596MPD2    H5 8894   4.122   2.719  16.684 -0.3493  0.4131 -1.9763
  596MPD2    N1 8895   3.928   3.073  17.087  0.3499  0.4022  0.0937
  596MPD2    H7 8896   3.950   3.150  17.025 -0.7777 -0.9863 -2.0330
  597TMC3    C1 8897   3.846   3.230  17.240  0.3478 -0.3083  0.4908
  597TMC3    C2 8898   3.911   3.326  17.165 -1.0340  0.4270  0.2666
  597TMC3    C3 8899   3.874   3.452  17.176 -0.4078  0.3196 -0.0502
  597TMC3    C4 8900   3.735   3.254  17.318 -0.0759  0.0542  0.8001
  597TMC3    C5 8901   3.691   3.384  17.306 -0.6217 -0.0179 -0.6640
  597TMC3    C6 8902   3.762   3.483  17.238  0.7049 -0.3707  0.0728
  597TMC3     C 8903   3.878   3.090  17.213  0.2419 -0.1891  0.0025
  597TMC3     O 8904   3.844   3.011  17.298  0.2037  0.3733  0.4763
  597TMC3     H 8905   4.009   3.309  17.123  0.8767  3.5220  3.4129
  597TMC3    H1 8906   3.676   3.166  17.336 -2.7018  1.3959 -1.3371
  597TMC3    H2 8907   3.738   3.588  17.236  1.2161 -0.2258  1.3610
  597TMC3    C7 8908   3.564   3.415  17.359 -0.3181  0.3933 -0.1139
  597TMC3    C8 8909   3.952   3.562  17.112 -0.0355  0.0072 -0.1201
  597TMC3    O1 8910   3.518   3.327  17.428 -0.4574  0.5077 -0.1939
  597TMC3    O2 8911   3.927   3.678  17.143 -0.3705  0.5165 -0.0758
  598TMC3    C1 8912   2.028   4.490  14.658  0.6321  0.3124  0.2391
  598TMC3    C2 8913   1.906   4.449  14.621 -0.0533 -0.0697 -0.3019
  598TMC3    C3 8914   1.848   4.498  14.504  0.1534 -0.2248 -0.7620
  598TMC3    C4 8915   2.091   4.596  14.592 -0.3125  1.2870  1.0384
  598TMC3    C5 8916   2.033   4.635  14.471 -0.0182 -0.0281 -0.2370
  598TMC3    C6 8917   1.906   4.600  14.433 -0.1054  0.7543 -0.2623
  598TMC3     C 8918   2.087   4.432  14.776 -0.1608  0.0982 -0.3481
  598TMC3     O 8919   2.032   4.332  14.815 -0.6658  0.7373 -0.0981
  598TMC3     H 8920   1.850   4.382  14.684  2.0168 -0.1777  1.4292
  598TMC3    H1 8921   2.195   4.626  14.604 -0.2246  0.9144  1.1933
  598TMC3    H2 8922   1.860   4.627  14.339 -0.2751  1.5813  0.0567
  598TMC3    C7 8923   2.091   0.010  14.390 -0.1825 -0.7762  0.4295
  598TMC3    C8 8924   1.720   4.445  14.468 -0.2497 -0.9721  0.1554
  598TMC3    O1 8925   2.049   0.018  14.273  0.4528 -0.4895 -0.3319
  598TMC3    O2 8926   1.652   4.514  14.393 -0.6384  0.3997 -0.3191
  599MPD2     C 8927   2.514   1.710  15.795  0.3013  0.8618  0.4901
  599MPD2    C1 8928   2.552   1.802  15.885 -0.3088  0.6509 -0.8782
  599MPD2    C2 8929   2.462   1.838  15.985  0.4063  0.0951 -0.2588
  599MPD2    C3 8930   2.330   1.794  15.982 -0.4834 -0.6665  0.2038
  599MPD2    C4 8931   2.292   1.711  15.879 -0.0012  0.1881  0.3258
  599MPD2    C5 8932   2.385   1.660  15.790 -0.9084  0.2727  0.5092
  599MPD2     H 8933   2.488   1.908  16.064 -0.1693 -0.7486  0.6721
  599MPD2    H1 8934   2.194   1.665  15.875  0.0928 -0.0399  0.6128
  599MPD2    H2 8935   2.587   1.690  15.717 -0.2335  0.3880  0.1106
  599MPD2    H3 8936   2.351   1.593  15.711  1.0874 -0.9079  0.6373
  599MPD2     N 8937   2.243   1.846  16.084  0.1075  0.1106  0.6105
  599MPD2    H5 8938   2.282   1.885  16.169 -1.0992  0.2395  1.1066
  599MPD2    N1 8939   2.689   1.838  15.890 -0.3652 -0.0511 -0.2266
  599MPD2    H7 8940   2.755   1.794  15.827 -0.8032 -0.9891 -0.0343
  600TMC3    C1 8941   2.053   1.841  16.221  0.0897  0.5747  0.3498
  600TMC3    C2 8942   1.933   1.786  16.241  0.0503  0.2078 -0.0939
  600TMC3    C3 8943   1.874   1.812  16.365  0.1397  0.1056 -0.5586
  600TMC3    C4 8944   2.102   1.938  16.300 -0.1485 -0.1361 -0.7986
  600TMC3    C5 8945   2.034   1.969  16.415  0.3352  0.0576  0.1671
  600TMC3    C6 8946   1.919   1.906  16.454 -0.9495 -0.4035  0.3205
  600TMC3     C 8947   2.112   1.817  16.097 -0.1059  0.0530  0.4120
  600TMC3     O 8948   2.038   1.761  16.019 -0.4800 -0.1979  0.4075
  600TMC3     H 8949   1.901   1.706  16.175 -0.6941  1.5274 -1.3326
  600TMC3    H1 8950   2.192   1.991  16.272 -0.8208  0.1202 -2.4509
  600TMC3    H2 8951   1.854   1.947  16.530  0.7188 -0.5660  1.8168
  600TMC3    C7 8952   2.099   2.063  16.508 -0.2773  0.2330 -0.0843
  600TMC3    C8 8953   1.756   1.747  16.406  0.1603  0.1844 -0.1750
  600TMC3    O1 8954   2.038   2.100  16.604  0.2877  0.2614  0.3440
  600TMC3    O2 8955   1.739   1.728  16.522  0.1532  0.1004  0.2692
  601MPD2     C 8956   3.875   0.643   0.524  0.0188 -0.4976  0.1230
  601MPD2    C1 8957   3.900   0.570   0.407  0.3460  0.3752  0.0973
  601MPD2    C2 8958   3.937   0.436   0.416 -0.1013 -0.6391 -0.1328
  601MPD2    C3 8959   3.957   0.379   0.541  0.1190  0.6823 -0.2932
  601MPD2    C4 8960   3.934   0.451   0.656 -0.2480  0.7953 -0.0647
  601MPD2    C5 8961   3.895   0.584   0.647  0.8304  0.2949  0.5509
  601MPD2     H 8962   3.961   0.385   0.322 -0.3240  0.9749 -1.0615
  601MPD2    H1 8963   3.946   0.402   0.752 -0.2665 -2.0329 -1.5030
  601MPD2    H2 8964   3.831   0.742   0.533  1.3883  0.0586  0.6603
  601MPD2    H3 8965   3.890   0.644   0.737 -1.6235 -2.7416  2.4126
  601MPD2     N 8966   3.993   0.244   0.549 -0.4115 -1.0719 -0.2052
  601MPD2    H5 8967   4.007   0.207   0.643 -1.7038  0.8629  0.7492
  601MPD2    N1 8968   3.882   0.627   0.276  0.4557 -0.4011  0.7266
  601MPD2    H7 8969   3.856   0.557   0.207  0.4081  0.0755  0.2654
  602TMC3    C1 8970   3.828   0.795   0.124 -1.1581  0.1612  0.3395
  602TMC3    C2 8971   3.760   0.911   0.115  0.5016  0.1258 -0.3853
  602TMC3    C3 8972   3.673   0.923   0.016 -0.8248 -0.0662 -0.5484
  602TMC3    C4 8973   3.817   0.699   0.023  0.4914 -0.3242  0.1539
  602TMC3    C5 8974   3.734   0.720  17.650 -0.6414 -0.2894  0.1371
  602TMC3    C6 8975   3.657   0.833  17.646  0.0641  0.1930  0.2931
  602TMC3     C 8976   3.881   0.762   0.256  0.3611 -0.2442  0.2683
  602TMC3     O 8977   3.889   0.848   0.344  0.0419  0.5510  0.2941
  602TMC3     H 8978   3.761   0.979   0.199  1.4931  0.6108 -0.7991
  602TMC3    H1 8979   3.865   0.602   0.033 -2.5291 -2.0003 -1.4517
  602TMC3    H2 8980   3.574   0.845  17.578  0.2640  1.2144  0.2213
  602TMC3    C7 8981   3.731   0.634  17.534  0.3005 -0.0178  0.1702
  602TMC3    C8 8982   3.583   1.035   0.007  0.4680  0.3879 -0.1674
  602TMC3    O1 8983   3.794   0.529  17.539  0.6636 -0.2763  0.5484
  602TMC3    O2 8984   3.515   1.059   0.104  0.1959 -0.0934  0.7747
  603TMC3    C1 8985   2.930   1.201  10.919 -0.0061 -0.0315 -1.0753
  603TMC3    C2 8986   2.963   1.217  11.046  0.2073  0.5812  0.1858
  603TMC3    C3 8987   2.928   1.335  11.107  0.8434  0.2988  0.0872
  603TMC3    C4 8988   2.858   1.296  10.846  0.9942  0.1227  0.0810
  603TMC3    C5 8989   2.809   1.400  10.918 -0.0305  0.5149 -0.3125
  603TMC3    C6 8990   2.858   1.433  11.045 -0.4196 -0.0700  0.2384
  603TMC3     C 8991   2.958   1.072  10.861 -0.4384 -0.1346  0.0347
  603TMC3     O 8992   3.043   1.009  10.918  0.1041 -0.5268  0.3680
  603TMC3     H 8993   3.024   1.145  11.099  1.4420  1.3236 -0.2438
  603TMC3    H1 8994   2.861   1.301  10.738 -0.3069 -1.1693 -0.0217
  603TMC3    H2 8995   2.797   1.492  11.113 -1.8770  1.4227 -2.3819
  603TMC3    C7 8996   2.737   1.503  10.844 -0.2789  0.3258 -0.8669
  603TMC3    C8 8997   2.918   1.324  11.255  0.1625  0.2375  0.1729
  603TMC3    O1 8998   2.746   1.619  10.870 -0.4563  0.1315 -0.4883
  603TMC3    O2 8999   2.948   1.217  11.311 -0.3010  0.3753 -0.4294
  604MPD2     C 9000   3.375   4.255  16.419 -0.1968  0.6945 -0.2930
  604MPD2    C1 9001   3.264   4.183  16.385 -0.6167 -0.3639  0.3908
  604MPD2    C2 9002   3.276   4.085  16.284  0.6646 -0.0290  0.1653
  604MPD2    C3 9003   3.386   4.074  16.207 -0.8271 -0.7116  0.3695
  604MPD2    C4 9004   3.488   4.164  16.225  0.4845  0.3934  0.7368
  604MPD2    C5 9005   3.484   4.250  16.336  0.1755  0.7264 -0.2033
  604MPD2     H 9006   3.190   4.021  16.269 -0.0116  0.4491  2.0606
  604MPD2    H1 9007   3.560   4.184  16.146  1.2384  0.3082  1.4027
  604MPD2    H2 9008   3.369   4.327  16.500 -1.3306  0.5577 -0.2527
  604MPD2    H3 9009   3.566   4.319  16.352  1.2487 -0.6995  0.4675
  604MPD2     N 9010   3.383   3.980  16.100  0.2464 -0.2043  0.3328
  604MPD2    H5 9011   3.293   3.937  16.081 -1.1177  3.4178 -1.4470
  604MPD2    N1 9012   3.146   4.208  16.460  0.3499 -0.1967 -0.1112
  604MPD2    H7 9013   3.158   4.272  16.538 -2.5926 -0.4538  0.5624
  605TMC3    C1 9014   2.906   4.247  16.493  0.2231 -0.7098  0.1284
  605TMC3    C2 9015   2.960   4.331  16.585  0.1046  0.1676  0.7565
  605TMC3    C3 9016   2.955   4.463  16.574 -0.1434 -1.4585 -0.4363
  605TMC3    C4 9017   2.824   4.302  16.393  0.0572  0.9350  0.0319
  605TMC3    C5 9018   2.801   4.433  16.401  0.3301 -0.3143  0.3380
  605TMC3    C6 9019   2.867   4.515  16.491  0.1902 -0.1015  0.1258
  605TMC3     C 9020   3.015   4.170  16.426  0.0481  0.1350 -0.4707
  605TMC3     O 9021   2.981   4.105  16.327  0.5360 -0.4985  0.0948
  605TMC3     H 9022   3.026   4.287  16.658  2.2605  0.7012 -0.8906
  605TMC3    H1 9023   2.785   4.243  16.310  2.4610 -1.6264  0.7339
  605TMC3    H2 9024   2.851   4.622  16.491 -1.4272 -0.3325  2.8980
  605TMC3    C7 9025   2.713   4.490  16.303 -0.0181 -0.0488  0.2997
  605TMC3    C8 9026   3.075   4.536  16.606 -1.0456 -0.4188  0.0734
  605TMC3    O1 9027   2.654   4.590  16.331 -0.0491  0.2590 -0.2327
  605TMC3    O2 9028   3.170   4.466  16.629 -0.4700 -0.0251 -0.0152
  606TMC3    C1 9029   3.942   3.610   0.143 -0.0657  0.7107 -0.7930
  606TMC3    C2 9030   3.944   3.610   0.278 -0.5857  0.1783  0.6631
  606TMC3    C3 9031   3.871   3.518   0.339  0.4604  0.3932 -0.3478
  606TMC3    C4 9032   3.881   3.516   0.067 -0.2156 -0.0031  0.1155
  606TMC3    C5 9033   3.824   3.414   0.137 -0.4196  0.1969 -0.2498
  606TMC3    C6 9034   3.818   3.414   0.274  0.4880 -0.5094  0.5333
  606TMC3     C 9035   4.008   3.727   0.077 -0.3485  0.7617 -0.0549
  606TMC3     O 9036   4.086   3.787   0.148 -0.1574  0.2830  0.3028
  606TMC3     H 9037   4.018   3.671   0.327 -0.5172  0.2345  0.4875
  606TMC3    H1 9038   3.894   3.505  17.689 -0.0116 -1.6884  0.3038
  606TMC3    H2 9039   3.771   3.345   0.343 -1.4301 -0.8030 -1.0519
  606TMC3    C7 9040   3.876   3.287   0.086 -0.6520 -0.8665 -0.4057
  606TMC3    C8 9041   3.906   3.467   0.473 -0.1614  0.1236 -0.1998
  606TMC3    O1 9042   3.976   3.296   0.013 -0.3909 -0.0007 -0.5910
  606TMC3    O2 9043   3.847   3.519   0.569 -0.1026  0.0413  0.1060
  607MPD2     C 9044   1.445   1.324  11.203  0.0861  1.5264 -0.3163
  607MPD2    C1 9045   1.510   1.438  11.250 -0.2812 -0.1579  0.1869
  607MPD2    C2 9046   1.499   1.467  11.381  0.7437 -0.3717 -0.3760
  607MPD2    C3 9047   1.446   1.385  11.472  0.1277  0.3429  0.6527
  607MPD2    C4 9048   1.374   1.268  11.424 -0.5684 -0.9571  0.2014
  607MPD2    C5 9049   1.390   1.236  11.289 -0.3589 -0.1373  0.0576
  607MPD2     H 9050   1.524   1.568  11.414 -0.6060 -0.6005  1.2855
  607MPD2    H1 9051   1.308   1.213  11.490 -2.3571  1.3224  0.3134
  607MPD2    H2 9052   1.445   1.295  11.099 -0.5168 -0.3032  0.2005
  607MPD2    H3 9053   1.343   1.149  11.244  1.2697 -0.8817 -0.2179
  607MPD2     N 9054   1.444   1.421  11.613  0.3188 -0.4746  0.6250
  607MPD2    H5 9055   1.491   1.508  11.635 -0.7158 -0.1396  1.5231
  607MPD2    N1 9056   1.585   1.527  11.175 -0.1615 -1.3832 -0.1016
  607MPD2    H7 9057   1.609   1.610  11.228 -0.3588 -1.0789 -0.4915
  608TMC3    C1 9058   1.747   1.600  11.022 -0.2072 -0.9079 -0.0341
  608TMC3    C2 9059   1.803   1.654  11.134  0.4483 -0.6756  0.2386
  608TMC3    C3 9060   1.910   1.732  11.116  0.2376  0.4999 -0.0038
  608TMC3    C4 9061   1.797   1.611  10.897 -0.4323  0.3130 -1.0660
  608TMC3    C5 9062   1.906   1.694  10.886  0.3762  0.0533  0.1575
  608TMC3    C6 9063   1.957   1.764  10.996  0.6060  0.6491  0.0493
  608TMC3     C 9064   1.635   1.512  11.047 -0.5386 -0.2636  0.2522
  608TMC3     O 9065   1.590   1.437  10.963  0.1298  0.1952 -0.0324
  608TMC3     H 9066   1.785   1.614  11.234 -0.7974  0.1113  0.3327
  608TMC3    H1 9067   1.763   1.547  10.817 -1.8808 -0.6974  0.3650
  608TMC3    H2 9068   2.043   1.830  10.990 -0.0349  1.3443 -1.5319
  608TMC3    C7 9069   1.949   1.731  10.756 -0.0955 -0.7694  0.2688
  608TMC3    C8 9070   1.968   1.802  11.231 -0.4696  0.0103  0.4293
  608TMC3    O1 9071   1.881   1.679  10.668 -0.9661 -0.2424  0.6027
  608TMC3    O2 9072   2.079   1.849  11.217  0.5132  0.7370 -0.2081
  609TMC3    C1 9073   0.344   0.100   9.563 -1.1405  0.7806  0.2165
  609TMC3    C2 9074   0.266   0.016   9.490 -0.2522  0.2583  0.2934
  609TMC3    C3 9075   0.324   4.643   9.432 -0.6428 -0.5963 -0.1271
  609TMC3    C4 9076   0.476   0.079   9.581 -0.4194  0.3404 -0.2332
  609TMC3    C5 9077   0.529   4.693   9.535  0.4729 -0.0917 -0.1238
  609TMC3    C6 9078   0.456   4.608   9.448  0.1360  0.5003  0.3117
  609TMC3     C 9079   0.286   0.139   9.691  0.5249 -0.0460 -0.0573
  609TMC3     O 9080   0.229   0.057   9.756  0.5666  0.3092  0.0762
  609TMC3     H 9081   0.160   0.030   9.509 -0.2748 -0.6126  0.7879
  609TMC3    H1 9082   0.518   0.132   9.665  1.9426  0.1939 -1.3068
  609TMC3    H2 9083   0.487   4.511   9.410 -0.4179  0.7157 -0.7004
  609TMC3    C7 9084   0.674   4.697   9.519 -0.2106  0.3946  0.0251
  609TMC3    C8 9085   0.245   4.532   9.379 -0.0577 -0.2738 -0.5227
  609TMC3    O1 9086   0.724   0.071   9.559  0.0548 -0.0713  0.2167
  609TMC3    O2 9087   0.294   4.422   9.375 -0.1372  0.2038 -0.2440
  610TMC3    C1 9088   1.827   1.032  12.538  0.0613  0.9632 -0.9567
  610TMC3    C2 9089   1.801   1.134  12.452  0.2489 -0.5247  0.6899
  610TMC3    C3 9090   1.907   1.165  12.369 -0.1106  0.0648  0.0714
  610TMC3    C4 9091   1.947   0.965  12.546  0.1501 -0.1293 -0.1594
  610TMC3    C5 9092   2.045   1.012  12.467 -0.3952  0.2232  0.0292
  610TMC3    C6 9093   2.032   1.114  12.380 -0.7203  0.0396  0.1912
  610TMC3     C 9094   1.720   0.997  12.634  0.1634 -0.1914 -0.2165
  610TMC3     O 9095   1.606   0.990  12.594  0.4288 -0.4669  0.1284
  610TMC3     H 9096   1.704   1.182  12.460  0.0839 -0.8748  0.8322
  610TMC3    H1 9097   1.958   0.876  12.607 -0.2090 -1.0624 -1.4512
  610TMC3    H2 9098   2.115   1.127  12.312 -1.2716  1.6675 -0.1703
  610TMC3    C7 9099   2.170   0.941  12.464  0.1226 -0.5612 -0.0198
  610TMC3    C8 9100   1.876   1.283  12.291 -1.2065 -0.9258  0.5731
  610TMC3    O1 9101   2.161   0.824  12.492 -0.2064 -0.4425  0.1074
  610TMC3    O2 9102   1.759   1.327  12.289 -0.2644 -0.3286  0.0683
  611MPD2     C 9103   1.287   1.417  10.149 -0.1073  0.6536  0.5970
  611MPD2    C1 9104   1.311   1.297  10.205  0.3109 -0.8640  0.2164
  611MPD2    C2 9105   1.431   1.270  10.259 -0.2572  0.1966 -0.1891
  611MPD2    C3 9106   1.532   1.369  10.275 -0.4357  0.0385 -0.6997
  611MPD2    C4 9107   1.504   1.497  10.217  0.7879 -0.4696 -0.1265
  611MPD2    C5 9108   1.381   1.511  10.152  0.3639  0.1017 -0.3503
  611MPD2     H 9109   1.452   1.165  10.278  1.7967  0.6965  0.2666
  611MPD2    H1 9110   1.565   1.583  10.238  0.6785 -1.2634  3.4679
  611MPD2    H2 9111   1.201   1.433  10.085  0.2845 -0.2321 -0.1552
  611MPD2    H3 9112   1.342   1.608  10.122 -1.4548 -0.4358  0.2692
  611MPD2     N 9113   1.656   1.347  10.344 -0.3444  0.1900  0.3765
  611MPD2    H5 9114   1.720   1.425  10.354  1.3743 -1.4354  1.9410
  611MPD2    N1 9115   1.211   1.191  10.194 -0.2968 -0.2363 -0.9949
  611MPD2    H7 9116   1.120   1.219  10.159 -0.4044  1.5002  0.6336
  612TMC3    C1 9117   1.790   1.248  10.508 -0.0194 -0.6121  0.4433
  612TMC3    C2 9118   1.887   1.340  10.472  0.5137  0.7597  0.0748
  612TMC3    C3 9119   1.980   1.376  10.569  0.6419 -0.5150 -0.6659
  612TMC3    C4 9120   1.797   1.185  10.631  0.2714 -0.0951 -0.2506
  612TMC3    C5 9121   1.897   1.217  10.722 -0.3346  0.0576  0.2060
  612TMC3    C6 9122   1.980   1.320  10.694 -0.7551 -0.2354  0.3552
  612TMC3     C 9123   1.679   1.242  10.427  1.0657 -0.3755 -0.2887
  612TMC3     O 9124   1.606   1.146  10.456  0.0968  0.1378  0.2512
  612TMC3     H 9125   1.895   1.386  10.374  1.9600  1.0325  0.3278
  612TMC3    H1 9126   1.710   1.130  10.665 -0.1346  1.0826  0.6275
  612TMC3    H2 9127   2.066   1.340  10.757 -0.6376 -0.8447  0.3798
  612TMC3    C7 9128   1.893   1.149  10.857 -0.6378 -0.1831 -0.4296
  612TMC3    C8 9129   2.094   1.452  10.525  0.1478  0.4781 -0.0481
  612TMC3    O1 9130   1.778   1.112  10.893 -0.3004 -0.4723 -0.2984
  612TMC3    O2 9131   2.079   1.534  10.436  0.6029 -0.5697  0.5350
  613MPD2     C 9132   0.340   3.115  17.336  0.5735 -0.1094 -0.1406
  613MPD2    C1 9133   0.335   3.149  17.201 -0.1339  0.1962 -0.0370
  613MPD2    C2 9134   0.376   3.069  17.093 -0.1555 -1.2039  0.0372
  613MPD2    C3 9135   0.431   2.947  17.119 -0.7818  0.4196 -0.3651
  613MPD2    C4 9136   0.434   2.909  17.253 -0.2345  0.1732 -0.2830
  613MPD2    C5 9137   0.391   2.991  17.359  0.4546 -0.2179 -0.1240
  613MPD2     H 9138   0.377   3.113  16.995 -0.2483  0.1365  0.6357
  613MPD2    H1 9139   0.472   2.811  17.280  1.0214  1.1660  1.5567
  613MPD2    H2 9140   0.303   3.180  17.414  0.6233  0.2869 -0.4441
  613MPD2    H3 9141   0.400   2.951  17.459  0.8539  3.1958  1.2046
  613MPD2     N 9142   0.483   2.859  17.024 -0.3508 -0.1737  0.0996
  613MPD2    H5 9143   0.535   2.776  17.051  1.6884  1.7132  1.8916
  613MPD2    N1 9144   0.306   3.287  17.179  0.4892 -1.0223 -0.3086
  613MPD2    H7 9145   0.316   3.356  17.252  3.4694  0.5089 -2.1329
  614TMC3    C1 9146   0.293   3.476  17.046  0.2035  0.4616 -0.7848
  614TMC3    C2 9147   0.432   3.487  17.046  0.1577  0.3796  0.2257
  614TMC3    C3 9148   0.493   3.528  16.927 -0.7469 -0.3412 -0.8269
  614TMC3    C4 9149   0.216   3.529  16.947 -0.0308 -0.6270 -0.0649
  614TMC3    C5 9150   0.275   3.570  16.832 -0.0009  0.1964  0.4303
  614TMC3    C6 9151   0.417   3.566  16.819 -0.2245  0.5182 -0.7061
  614TMC3     C 9152   0.266   3.338  17.057  0.0619  0.1260  0.0083
  614TMC3     O 9153   0.235   3.286  16.951  0.0997 -0.8865 -0.0623
  614TMC3     H 9154   0.494   3.445  17.125 -1.2617  0.3113  1.3040
  614TMC3    H1 9155   0.107   3.532  16.944 -0.0453 -0.3499  0.9245
  614TMC3    H2 9156   0.457   3.609  16.728  1.2800 -1.1004 -0.8019
  614TMC3    C7 9157   0.188   3.639  16.738 -0.4031  0.4528 -0.2794
  614TMC3    C8 9158   0.621   3.471  16.894  0.0060 -0.1401  0.1130
  614TMC3    O1 9159   0.097   3.705  16.781 -0.2934  0.1389  0.2046
  614TMC3    O2 9160   0.632   3.436  16.776  0.3668  0.2193  0.3546
  615MPD2     C 9161   0.073   4.335  16.294 -0.3931 -0.3168  0.6011
  615MPD2    C1 9162   0.107   4.455  16.229 -0.2254  0.0947  0.3131
  615MPD2    C2 9163   0.079   4.463  16.090 -0.3474 -0.3118  0.3376
  615MPD2    C3 9164   0.024   4.358  16.017 -0.2337 -0.4892 -0.0901
  615MPD2    C4 9165   4.725   4.247  16.088 -0.1855 -0.2690  0.0427
  615MPD2    C5 9166   0.015   4.233  16.222 -0.3907 -0.1911  0.9226
  615MPD2     H 9167   0.118   4.548  16.036 -0.6243 -0.6167 -0.3510
  615MPD2    H1 9168   4.689   4.160  16.035 -1.8898 -0.0481  0.8569
  615MPD2    H2 9169   0.110   4.307  16.392  0.0885 -0.3741  0.4042
  615MPD2    H3 9170   4.732   4.138  16.274 -2.0938  0.1145  0.9922
  615MPD2     N 9171   0.009   4.357  15.877 -0.3470 -0.2548 -0.1784
  615MPD2    H5 9172   4.720   4.267  15.835 -2.4581  0.5262 -0.7538
  615MPD2    N1 9173   0.174   4.564  16.298  0.1936 -0.1107  0.6333
  615MPD2    H7 9174   0.190   4.643  16.236  1.8470 -1.2408 -0.3725
  616TMC3    C1 9175   0.300   4.672  16.473 -0.0976  0.1708 -0.0311
  616TMC3    C2 9176   0.374   0.005  16.375  0.1587  0.2975  0.1942
  616TMC3    C3 9177   0.499   0.051  16.409  0.0740  0.3881  0.8584
  616TMC3    C4 9178   0.348   4.652  16.598 -0.5125  0.3863  0.4459
  616TMC3    C5 9179   0.481   4.688  16.618 -0.3032  0.0715  0.1894
  616TMC3    C6 9180   0.550   0.037  16.541  0.1578  0.1112 -0.7410
  616TMC3     C 9181   0.204   4.560  16.434 -0.1016 -0.3120 -0.0444
  616TMC3     O 9182   0.169   4.496  16.532  0.0279 -0.2007 -0.1395
  616TMC3     H 9183   0.342   0.023  16.273  3.0547 -2.1355 -1.1358
  616TMC3    H1 9184   0.290   4.600  16.673  0.5440 -1.3007  0.0947
  616TMC3    H2 9185   0.651   0.057  16.573  0.0658 -1.1794  0.3265
  616TMC3    C7 9186   0.548   4.620  16.728 -0.8898 -0.0108 -0.2932
  616TMC3    C8 9187   0.560   0.146  16.325 -0.7776 -0.1267 -0.2891
  616TMC3    O1 9188   0.472   4.574  16.814  0.0248  0.1407  0.0170
  616TMC3    O2 9189   0.484   0.207  16.250  0.1999  0.1835 -0.5554
  617MPD2     C 9190   2.984   2.795  13.980  0.2560  0.1914 -0.0872
  617MPD2    C1 9191   3.040   2.787  14.111  0.4711 -0.6692  0.9950
  617MPD2    C2 9192   2.955   2.759  14.221 -0.6148 -0.7009 -0.4220
  617MPD2    C3 9193   2.814   2.761  14.198  0.2459  0.2192  0.1755
  617MPD2    C4 9194   2.765   2.786  14.066 -0.0960  0.1398  0.8815
  617MPD2    C5 9195   2.845   2.796  13.957  0.4423  0.4544  0.6539
  617MPD2     H 9196   2.999   2.741  14.319  0.3019 -2.6085 -1.1727
  617MPD2    H1 9197   2.658   2.782  14.055  0.2666 -0.9785 -2.2402
  617MPD2    H2 9198   3.056   2.818  13.902 -1.3303  1.3043 -1.2058
  617MPD2    H3 9199   2.800   2.828  13.863  0.7966 -1.5405 -0.1923
  617MPD2     N 9200   2.720   2.729  14.304  0.1949  0.4744 -0.4019
  617MPD2    H5 9201   2.622   2.727  14.277 -0.2971  2.2374  1.2540
  617MPD2    N1 9202   3.177   2.797  14.121 -0.3238 -0.6018 -0.3918
  617MPD2    H7 9203   3.232   2.794  14.036 -2.8135 -0.8211 -2.0137
  618TMC3    C1 9204   3.389   2.775  14.221 -0.4040 -0.0526 -0.1274
  618TMC3    C2 9205   3.433   2.667  14.153  0.2486  1.0502  0.7598
  618TMC3    C3 9206   3.538   2.674  14.061  0.0860 -0.6732 -0.8912
  618TMC3    C4 9207   3.452   2.895  14.201 -0.1305 -0.1789 -0.2117
  618TMC3    C5 9208   3.551   2.902  14.107 -0.4883  0.3214 -0.1935
  618TMC3    C6 9209   3.610   2.794  14.043  0.5370 -0.3692  0.3763
  618TMC3     C 9210   3.245   2.786  14.243  0.3575  0.6435 -0.4478
  618TMC3     O 9211   3.207   2.813  14.358 -0.4408 -0.1457 -0.2344
  618TMC3     H 9212   3.374   2.577  14.167  1.8402 -0.3123 -1.1969
  618TMC3    H1 9213   3.432   2.992  14.246  1.1979 -0.2073  0.4206
  618TMC3    H2 9214   3.695   2.807  13.978  1.1397 -1.5997  0.9248
  618TMC3    C7 9215   3.618   3.027  14.112 -0.2485 -0.4790  0.1586
  618TMC3    C8 9216   3.535   2.584  13.943 -0.1070 -0.1264  0.1113
  618TMC3    O1 9217   3.645   3.077  14.220  0.8088 -0.3785  0.7088
  618TMC3    O2 9218   3.610   2.612  13.852  0.4194  0.3053  0.6877
  619MPD2     C 9219   4.359   3.810  13.730 -0.3083 -0.2384 -0.4361
  619MPD2    C1 9220   4.290   3.883  13.630 -0.6419 -0.0607 -0.2374
  619MPD2    C2 9221   4.153   3.898  13.641 -0.3585 -0.2263 -0.0669
  619MPD2    C3 9222   4.082   3.841  13.749 -0.2404  0.0349  0.1503
  619MPD2    C4 9223   4.155   3.779  13.854 -0.0923  0.5659 -0.3765
  619MPD2    C5 9224   4.293   3.770  13.839  0.4895  0.3399  0.5634
  619MPD2     H 9225   4.099   3.945  13.560 -1.0024  1.9580  1.6350
  619MPD2    H1 9226   4.114   3.742  13.947  0.3182  3.1957  0.8464
  619MPD2    H2 9227   4.464   3.783  13.723  0.2301  1.2957  1.6346
  619MPD2    H3 9228   4.351   3.719  13.916 -1.8405 -0.3266  1.8848
  619MPD2     N 9229   3.944   3.850  13.763  0.3510  0.3465  0.6404
  619MPD2    H5 9230   3.908   3.810  13.850  1.4395  0.6646  1.2418
  619MPD2    N1 9231   4.349   3.956  13.523 -0.4771 -0.2883  0.9486
  619MPD2    H7 9232   4.292   4.022  13.472 -0.5501 -2.5718 -1.9245
  620TMC3    C1 9233   4.506   4.036  13.385  0.2591 -0.0492 -0.3753
  620TMC3    C2 9234   4.397   4.062  13.307 -0.0840 -0.6094  0.5727
  620TMC3    C3 9235   4.374   4.187  13.260 -0.2285 -0.0377 -0.1458
  620TMC3    C4 9236   4.600   4.134  13.412  0.6947 -0.0581 -0.1547
  620TMC3    C5 9237   4.567   4.262  13.366  0.2017  0.1117 -0.2790
  620TMC3    C6 9238   4.454   4.298  13.289 -0.0921 -0.7239  0.1491
  620TMC3     C 9239   4.483   3.954  13.495  0.0393  0.3991  0.2783
  620TMC3     O 9240   4.573   3.897  13.558 -0.3607  0.5551 -0.0572
  620TMC3     H 9241   4.325   3.983  13.291 -1.5985  1.0009 -0.4224
  620TMC3    H1 9242   4.678   4.116  13.485  0.5215 -3.1106 -0.7140
  620TMC3    H2 9243   4.440   4.397  13.249  2.2727 -1.5350 -2.6919
  620TMC3    C7 9244   4.643   4.372  13.427  0.0286 -0.0414  0.1397
  620TMC3    C8 9245   4.237   4.227  13.302 -0.3515  0.5241 -0.6333
  620TMC3    O1 9246   0.018   4.354  13.481  0.6286 -0.4555 -0.0168
  620TMC3    O2 9247   4.172   4.152  13.374  0.3342 -0.6093  0.2659
  621MPD2     C 9248   4.420   3.958  10.249 -0.1047  0.1017 -0.7707
  621MPD2    C1 9249   4.506   3.945  10.141 -0.5850 -0.5074  0.0070
  621MPD2    C2 9250   4.603   4.043  10.121 -0.5453 -0.8484  0.2548
  621MPD2    C3 9251   4.618   4.148  10.204  0.5188 -0.0270 -0.3877
  621MPD2    C4 9252   4.528   4.158  10.307  0.7091 -0.3389 -0.0056
  621MPD2    C5 9253   4.433   4.064  10.328 -0.3357 -0.6038  0.2830
  621MPD2     H 9254   4.674   4.031  10.040 -1.8644 -0.7523 -0.9199
  621MPD2    H1 9255   4.524   4.232  10.386 -0.0918  0.1206 -0.4747
  621MPD2    H2 9256   4.349   3.879  10.272  0.0937 -0.1645 -1.0600
  621MPD2    H3 9257   4.381   4.072  10.423 -1.5209 -0.5498 -0.3847
  621MPD2     N 9258   0.003   4.231  10.188 -0.0101  0.8672  0.0912
  621MPD2    H5 9259   0.067   4.213  10.112 -0.5000 -0.4583  0.0027
  621MPD2    N1 9260   4.504   3.844  10.040 -0.1536 -0.0064  0.0341
  621MPD2    H7 9261   4.571   3.845   9.964 -1.3822 -0.0635 -1.0602
  622TMC3    C1 9262   4.374   3.698   9.908  0.0108  0.7406  0.1402
  622TMC3    C2 9263   4.299   3.583   9.922 -0.4119  0.4613  0.5894
  622TMC3    C3 9264   4.180   3.572   9.857 -0.1341  0.5707  0.3673
  622TMC3    C4 9265   4.336   3.795   9.816 -0.6430 -0.1540  0.0403
  622TMC3    C5 9266   4.214   3.781   9.750  0.0336 -0.8163 -0.8315
  622TMC3    C6 9267   4.145   3.659   9.757  0.6354  0.3441 -0.5792
  622TMC3     C 9268   4.424   3.736  10.041 -0.3951 -0.8022 -0.1729
  622TMC3     O 9269   4.349   3.695  10.130 -0.1969 -0.3929 -0.2827
  622TMC3     H 9270   4.326   3.505   9.992 -0.7605  1.0385  1.3673
  622TMC3    H1 9271   4.404   3.879   9.808  1.8903 -2.4134 -1.9575
  622TMC3    H2 9272   4.049   3.652   9.708  0.1752  2.1455  0.0401
  622TMC3    C7 9273   4.176   3.881   9.656  0.5536 -0.7100  0.3038
  622TMC3    C8 9274   4.068   3.528   9.941 -0.6220  0.2399 -0.5094
  622TMC3    O1 9275   4.117   3.835   9.557 -0.2179  0.3099  0.1657
  622TMC3    O2 9276   3.957   3.531   9.890  0.0852 -0.2687  0.1849
  623MPD2     C 9277   3.501   0.042  15.676 -0.7216 -0.3943 -0.0973
  623MPD2    C1 9278   3.438   4.681  15.760 -0.0297  0.1118  1.1142
  623MPD2    C2 9279   3.501   4.659  15.883 -1.0034  0.2817 -0.8154
  623MPD2    C3 9280   3.625   4.711  15.914  0.1351 -0.2383 -0.4357
  623MPD2    C4 9281   3.680   0.072  15.832  0.3357 -0.2042  0.1728
  623MPD2    C5 9282   3.621   0.092  15.713 -0.2318 -0.0800 -0.1341
  623MPD2     H 9283   3.457   4.596  15.959  2.2660  0.6057  1.3307
  623MPD2    H1 9284   3.776   0.118  15.852  0.1384  0.7734 -1.1703
  623MPD2    H2 9285   3.460   0.067  15.578 -0.2874  0.6516 -0.0061
  623MPD2    H3 9286   3.668   0.154  15.639  0.7696 -0.4868  0.1643
  623MPD2     N 9287   3.686   4.662  16.030  0.4785  0.0192  0.7655
  623MPD2    H5 9288   3.620   4.624  16.097 -0.8478  0.0872 -0.5071
  623MPD2    N1 9289   3.314   4.625  15.728 -0.0265 -0.5610 -0.6737
  623MPD2    H7 9290   3.261   4.668  15.652 -1.9840  1.3416  1.7850
  624TMC3    C1 9291   3.916   4.589  16.401 -0.4453  0.3243 -0.1856
  624TMC3    C2 9292   3.797   4.558  16.457  0.4042  0.3042 -0.1966
  624TMC3    C3 9293   3.688   4.624  16.404 -0.5503  0.1793  0.0690
  624TMC3    C4 9294   3.923   4.656  16.283 -0.2161 -0.4023 -0.4086
  624TMC3    C5 9295   3.808   4.701  16.225 -0.2085 -0.4118  0.4345
  624TMC3    C6 9296   3.691   4.704  16.292 -0.1613  0.2461  0.8330
  624TMC3     C 9297   4.029   4.533  16.469  0.3889  0.4347  0.7057
  624TMC3     O 9298   4.004   4.430  16.536 -0.3902 -0.0920 -0.2487
  624TMC3     H 9299   3.804   4.522  16.559 -2.5814 -0.1098 -0.1294
  624TMC3    H1 9300   4.010   4.659  16.217  2.2991  0.9901  2.9839
  624TMC3    H2 9301   3.604   0.025  16.255 -1.2701 -1.2690  1.2597
  624TMC3    C7 9302   3.798   4.719  16.082  0.0638  0.7435  0.1921
  624TMC3    C8 9303   3.580   4.653  16.497 -0.5854 -0.3527 -0.0733
  624TMC3    O1 9304   3.898   0.018  16.023  0.5232 -0.5237  0.6856
  624TMC3    O2 9305   3.560   4.560  16.571  0.8068 -0.1605  0.0723
  625MPD2     C 9306   3.683   0.467   1.102 -0.0061 -0.5545  0.1242
  625MPD2    C1 9307   3.712   0.604   1.079 -0.4674 -0.8239  0.2869
  625MPD2    C2 9308   3.831   0.648   1.045 -0.9876 -0.1343 -0.2990
  625MPD2    C3 9309   3.928   0.555   1.010  0.5247 -0.2936  0.2146
  625MPD2    C4 9310   3.910   0.421   1.050  0.4108 -0.2804 -0.0064
  625MPD2    C5 9311   3.784   0.379   1.093  0.4316 -0.2537  0.0897
  625MPD2     H 9312   3.853   0.753   1.027 -0.7680 -0.0582  0.4156
  625MPD2    H1 9313   3.981   0.340   1.040  1.6446  0.6925  0.9275
  625MPD2    H2 9314   3.583   0.432   1.126  0.2151 -1.4314 -0.2236
  625MPD2    H3 9315   3.764   0.274   1.112  0.0971 -0.2163 -0.0506
  625MPD2     N 9316   4.055   0.606   0.971  0.0580  0.2544  0.6624
  625MPD2    H5 9317   4.057   0.707   0.964 -3.4149  0.3678  1.4057
  625MPD2    N1 9318   3.616   0.699   1.086  0.8544 -0.7542  0.0995
  625MPD2    H7 9319   3.638   0.794   1.058 -1.1172 -0.5839 -0.8978
  626TMC3    C1 9320   3.416   0.807   1.128 -0.0585 -0.3600  0.7957
  626TMC3    C2 9321   3.372   0.856   1.010  0.1066 -0.3296 -0.0482
  626TMC3    C3 9322   3.283   0.961   1.009 -0.5095  0.5271 -0.6243
  626TMC3    C4 9323   3.349   0.852   1.241  0.2481 -0.4567 -0.1024
  626TMC3    C5 9324   3.260   0.955   1.235  0.2847 -0.1675 -0.0967
  626TMC3    C6 9325   3.228   1.018   1.119  0.1136  0.2321 -0.1892
  626TMC3     C 9326   3.487   0.682   1.137  0.2989  0.3656 -0.0106
  626TMC3     O 9327   3.433   0.591   1.199 -0.1828 -0.4191  0.2000
  626TMC3     H 9328   3.408   0.824   0.913  1.0128  0.7696 -0.0893
  626TMC3    H1 9329   3.377   0.806   1.335  0.6766 -0.6731 -0.3380
  626TMC3    H2 9330   3.161   1.103   1.118  0.8731  0.8234 -1.6269
  626TMC3    C7 9331   3.198   0.999   1.362  0.6867  0.2482 -0.1891
  626TMC3    C8 9332   3.245   1.015   0.880  1.0066 -0.3078 -0.4702
  626TMC3    O1 9333   3.204   0.927   1.460 -0.0938  0.6932  0.3235
  626TMC3    O2 9334   3.227   1.135   0.877  0.0440  0.6222 -0.3225
  627MPD2     C 9335   2.581   1.611  14.415 -0.4623  0.0393  0.4921
  627MPD2    C1 9336   2.610   1.500  14.493 -0.2323 -0.5236  0.2186
  627MPD2    C2 9337   2.553   1.384  14.458  0.1686 -0.6100  0.1115
  627MPD2    C3 9338   2.466   1.370  14.349 -0.2233 -0.0524 -0.2650
  627MPD2    C4 9339   2.428   1.481  14.276  0.5374  0.2884 -0.5781
  627MPD2    C5 9340   2.495   1.599  14.312  0.1450  0.0186 -0.1456
  627MPD2     H 9341   2.567   1.294  14.518  1.8571  0.3989  1.2320
  627MPD2    H1 9342   2.345   1.477  14.206 -2.1085 -0.0258  2.5712
  627MPD2    H2 9343   2.629   1.707  14.430  0.8138 -0.5716  0.2511
  627MPD2    H3 9344   2.457   1.689  14.265 -0.4800 -0.4429 -0.5355
  627MPD2     N 9345   2.392   1.251  14.338  0.1328 -0.3237  0.3564
  627MPD2    H5 9346   2.406   1.193  14.420  0.8480  1.2735  1.3846
  627MPD2    N1 9347   2.685   1.514  14.616  0.1040 -0.7357  0.3339
  627MPD2    H7 9348   2.703   1.436  14.678 -0.2533  1.0753  2.7327
  628TMC3    C1 9349   2.831   1.617  14.766 -0.2445  0.3589 -0.0753
  628TMC3    C2 9350   2.916   1.513  14.757 -0.1855  0.1018  0.1039
  628TMC3    C3 9351   3.029   1.519  14.835 -0.4163  0.6304 -0.6268
  628TMC3    C4 9352   2.866   1.737  14.814 -0.5937  0.1128 -0.5653
  628TMC3    C5 9353   2.978   1.741  14.898  0.6407  0.2256  0.0762
  628TMC3    C6 9354   3.056   1.632  14.907 -0.0427  1.3362  0.3452
  628TMC3     C 9355   2.725   1.629  14.668  0.2111 -0.7747  0.1026
  628TMC3     O 9356   2.690   1.741  14.631 -0.1690 -0.0740  0.1220
  628TMC3     H 9357   2.896   1.426  14.695  0.6777  0.7782 -1.1322
  628TMC3    H1 9358   2.799   1.822  14.813 -1.7240 -0.7763 -1.6772
  628TMC3    H2 9359   3.147   1.637  14.966  0.0694 -0.3790  0.3254
  628TMC3    C7 9360   3.043   1.869  14.920  0.4542 -0.5907 -0.4039
  628TMC3    C8 9361   3.109   1.400  14.838  0.0201  0.5342  0.3542
  628TMC3    O1 9362   3.164   1.881  14.938 -0.0206  0.4451  0.3442
  628TMC3    O2 9363   3.082   1.311  14.757  0.1341 -0.3277 -0.3432
  629MPD2     C 9364   0.921   0.519  16.245  0.3989 -0.4456 -0.3883
  629MPD2    C1 9365   0.973   0.412  16.312 -0.4766  0.0168  0.3425
  629MPD2    C2 9366   0.897   0.298  16.341 -0.2498 -0.6247  1.0448
  629MPD2    C3 9367   0.761   0.291  16.311  0.3342  0.4556  0.4998
  629MPD2    C4 9368   0.706   0.406  16.250  0.1570 -0.7307  0.7660
  629MPD2    C5 9369   0.786   0.508  16.209  0.0792  0.1940 -0.0557
  629MPD2     H 9370   0.937   0.206  16.382  1.7391 -0.4592 -0.4956
  629MPD2    H1 9371   0.600   0.414  16.230  0.8055 -0.4702 -2.6033
  629MPD2    H2 9372   0.981   0.606  16.219 -1.1208  0.1212 -2.0205
  629MPD2    H3 9373   0.748   0.595  16.156 -0.1539 -0.5690 -1.1235
  629MPD2     N 9374   0.693   0.169  16.354  0.6019  0.5673 -0.1931
  629MPD2    H5 9375   0.740   0.101  16.412 -1.1920 -1.6972 -1.4047
  629MPD2    N1 9376   1.111   0.422  16.344  0.4685 -0.1635 -0.2358
  629MPD2    H7 9377   1.159   0.502  16.305 -1.8499  0.8230 -1.1048
  630TMC3    C1 9378   1.336   0.358  16.392  0.4742 -0.0774 -0.2510
  630TMC3    C2 9379   1.371   0.425  16.272 -0.5259  0.3684  1.0495
  630TMC3    C3 9380   1.504   0.418  16.236  0.3164 -0.8829  0.1833
  630TMC3    C4 9381   1.421   0.277  16.460  0.1062 -1.0075  0.6959
  630TMC3    C5 9382   1.548   0.287  16.421  0.8248 -0.5612 -1.0645
  630TMC3    C6 9383   1.596   0.344  16.307 -0.2415 -0.0349  0.2842
  630TMC3     C 9384   1.192   0.333  16.414  0.0576 -0.1574 -0.5935
  630TMC3     O 9385   1.169   0.234  16.485  0.2492 -0.0733 -0.0676
  630TMC3     H 9386   1.299   0.482  16.216 -1.4552 -1.9532 -0.1088
  630TMC3    H1 9387   1.392   0.229  16.552 -0.7902 -2.9328 -0.5891
  630TMC3    H2 9388   1.701   0.346  16.279 -0.1408 -0.8593  0.6022
  630TMC3    C7 9389   1.649   0.246  16.525  0.2235  0.9562 -0.4414
  630TMC3    C8 9390   1.561   0.503  16.137  0.2213 -0.1918 -0.4025
  630TMC3    O1 9391   1.616   0.148  16.593 -0.2155  0.3435 -0.4908
  630TMC3    O2 9392   1.653   0.455  16.078 -0.5970 -0.1878  0.4230
  631MPD2     C 9393   3.971   4.367  15.430  0.3075 -0.8276  0.5755
  631MPD2    C1 9394   4.051   4.436  15.344 -0.1915 -0.7238  0.3083
  631MPD2    C2 9395   4.184   4.405  15.344  0.4582  0.3234 -0.2822
  631MPD2    C3 9396   4.243   4.309  15.418  0.5501  0.0583 -0.3522
  631MPD2    C4 9397   4.156   4.232  15.492  0.1120 -0.3625 -0.3544
  631MPD2    C5 9398   4.022   4.265  15.505 -0.3926  0.1529 -0.2944
  631MPD2     H 9399   4.251   4.466  15.285  1.1467  2.0368  2.2821
  631MPD2    H1 9400   4.193   4.160  15.565  2.0737  0.2790 -0.7191
  631MPD2    H2 9401   3.864   4.378  15.436  0.2925 -1.2162  1.0145
  631MPD2    H3 9402   3.958   4.220  15.580 -1.2501  1.8153 -0.0309
  631MPD2     N 9403   4.384   4.305  15.424 -0.1350 -0.1353  0.6708
  631MPD2    H5 9404   4.436   4.364  15.359 -1.5507  0.8590  0.4494
  631MPD2    N1 9405   3.981   4.526  15.260  0.1939  0.3394 -0.1327
  631MPD2    H7 9406   3.880   4.532  15.270  0.3419 -0.1549  1.5316
  632TMC3    C1 9407   3.937   4.654  15.069  0.6208  0.0722 -0.6185
  632TMC3    C2 9408   3.827   4.716  15.118  0.2960 -0.1795  0.0872
  632TMC3    C3 9409   3.756   0.066  15.026  0.2104  0.6593 -0.2047
  632TMC3    C4 9410   3.969   4.665  14.936 -0.6068  0.3016 -0.3854
  632TMC3    C5 9411   3.899   0.013  14.854 -0.2832  0.7859 -0.0558
  632TMC3    C6 9412   3.794   0.089  14.893  0.2429  0.3621 -0.0074
  632TMC3     C 9413   4.034   4.578  15.144  0.3331  0.0024 -0.4342
  632TMC3     O 9414   4.151   4.580  15.095 -0.2103 -0.0403  0.8087
  632TMC3     H 9415   3.805   4.700  15.223  0.7288  0.1713  0.2277
  632TMC3    H1 9416   4.033   4.591  14.890 -0.0462  0.2296  0.5091
  632TMC3    H2 9417   3.749   0.160  14.826  2.0302 -0.5665 -2.1982
  632TMC3    C7 9418   3.986   0.083  14.759  0.4487 -0.4665  0.2081
  632TMC3    C8 9419   3.633   0.136  15.068  1.0094 -0.0633 -0.9441
  632TMC3    O1 9420   3.932   0.175  14.695  0.0268  0.0507  0.7346
  632TMC3    O2 9421   3.616   0.155  15.187  0.3192 -0.6054  0.2225
  633MPD2     C 9422   3.124   2.909  17.573  0.4135  0.4539  0.1123
  633MPD2    C1 9423   3.217   2.829  17.503  0.2638 -0.5378 -0.1455
  633MPD2    C2 9424   3.262   2.719  17.560 -1.1731  0.0154  0.1681
  633MPD2    C3 9425   3.237   2.684  17.694  0.0813 -0.2016 -0.3086
  633MPD2    C4 9426   3.150   2.767   0.030 -0.8414 -0.2629  0.3077
  633MPD2    C5 9427   3.097   2.876  17.701  0.1691  0.5860  0.0028
  633MPD2     H 9428   3.324   2.654  17.500 -0.0706  0.4300  0.8688
  633MPD2    H1 9429   3.123   2.752   0.134  0.4399 -0.9997  0.5399
  633MPD2    H2 9430   3.087   3.003  17.533 -0.0674 -0.1840 -0.9389
  633MPD2    H3 9431   3.022   2.928   0.030  0.7680  0.7080  0.6661
  633MPD2     N 9432   3.311   2.577   0.018  0.2438  0.2851 -0.2529
  633MPD2    H5 9433   3.390   2.553  17.688  0.7692 -0.9046  0.9351
  633MPD2    N1 9434   3.275   2.864  17.382 -0.9078 -0.3988  0.2782
  633MPD2    H7 9435   3.351   2.810  17.343  0.4028  2.1590 -0.7032
  634TMC3    C1 9436   3.331   2.997  17.194 -0.6244 -0.9181 -0.1673
  634TMC3    C2 9437   3.409   2.884  17.158 -1.1044  0.4003  0.4055
  634TMC3    C3 9438   3.516   2.901  17.071  0.3690  0.4486 -0.3372
  634TMC3    C4 9439   3.358   3.119  17.135 -0.9939  0.0590  0.2486
  634TMC3    C5 9440   3.462   3.120  17.044 -0.0754 -0.7427  0.4487
  634TMC3    C6 9441   3.555   3.026  17.018  0.7629  0.4055  0.3384
  634TMC3     C 9442   3.253   2.987  17.318  0.0971 -0.2675  0.3052
  634TMC3     O 9443   3.183   3.082  17.353  0.1528  0.2186 -0.4696
  634TMC3     H 9444   3.376   2.783  17.181  0.4089  0.1391  1.4184
  634TMC3    H1 9445   3.301   3.207  17.163  0.0742  1.5163 -2.1430
  634TMC3    H2 9446   3.618   3.041  16.931  1.5921  0.7927  1.0115
  634TMC3    C7 9447   3.471   3.240  16.963 -0.4053 -0.4067  0.2724
  634TMC3    C8 9448   3.575   2.780  17.024  0.0841 -0.0865 -0.0384
  634TMC3    O1 9449   3.583   3.266  16.918 -0.1393 -0.1278 -0.7598
  634TMC3    O2 9450   3.562   2.687  17.100 -0.1953  0.2551  1.0645
  635TMC3    C1 9451   3.675   3.887   0.207  0.2535  0.3919 -0.1610
  635TMC3    C2 9452   3.605   3.793   0.138 -0.3251  0.7084 -0.1986
  635TMC3    C3 9453   3.546   3.691   0.215  0.1120  0.0639 -0.4645
  635TMC3    C4 9454   3.677   3.898   0.346 -0.1033  0.2103  0.1141
  635TMC3    C5 9455   3.608   3.795   0.407 -0.3772  1.0320  0.7859
  635TMC3    C6 9456   3.541   3.693   0.350 -0.3093 -0.5781  0.2571
  635TMC3     C 9457   3.722   3.990   0.120 -0.5922  0.1387  0.1524
  635TMC3     O 9458   3.654   4.016   0.023 -0.0278 -0.3846  0.5833
  635TMC3     H 9459   3.611   3.785   0.030  0.0793  0.2427 -0.1426
  635TMC3    H1 9460   3.720   3.986   0.393 -1.1210  0.9991 -0.4342
  635TMC3    H2 9461   3.507   3.606   0.406 -0.7174 -1.3201 -1.1408
  635TMC3    C7 9462   3.610   3.814   0.551  0.1497 -0.4656 -0.2488
  635TMC3    C8 9463   3.481   3.591   0.141 -0.3113  0.2984 -0.0683
  635TMC3    O1 9464   3.686   3.898   0.597  0.4777 -0.1162  0.0830
  635TMC3    O2 9465   3.510   3.581   0.021  0.2138 -0.1950  0.6240
  636MPD2     C 9466   0.198   3.148  16.214  0.2228 -0.7595 -0.2103
  636MPD2    C1 9467   0.176   3.180  16.347  0.2986 -0.5000 -0.5295
  636MPD2    C2 9468   0.250   3.098  16.439  0.2451 -0.6417 -0.7202
  636MPD2    C3 9469   0.336   2.999  16.392  0.2220  0.2818  0.5423
  636MPD2    C4 9470   0.346   2.971  16.264 -1.1018  0.3563  0.2820
  636MPD2    C5 9471   0.282   3.048  16.174 -0.1864  0.7300 -0.7129
  636MPD2     H 9472   0.224   3.105  16.544 -1.4825 -0.2174 -1.1807
  636MPD2    H1 9473   0.413   2.898  16.220 -0.0807 -0.1563  2.6476
  636MPD2    H2 9474   0.157   3.207  16.133 -0.9354 -1.9389 -0.4861
  636MPD2    H3 9475   0.300   3.051  16.067  4.7869  0.5569  0.1516
  636MPD2     N 9476   0.416   2.937  16.489  0.2228 -0.0459  0.2459
  636MPD2    H5 9477   0.397   2.957  16.587  0.6741 -1.4596  0.6216
  636MPD2    N1 9478   0.092   3.285  16.397 -0.1459 -0.4934 -0.8226
  636MPD2    H7 9479   0.075   3.298  16.496 -0.7857 -1.2579 -0.8282
  637TMC3    C1 9480   0.595   2.826  16.582  0.3342 -0.6127  0.4072
  637TMC3    C2 9481   0.514   2.799  16.688 -0.8101  0.9117  0.5883
  637TMC3    C3 9482   0.553   2.787  16.816  0.3509 -0.0213 -0.3233
  637TMC3    C4 9483   0.725   2.858  16.601 -0.0966 -0.1394 -0.5627
  637TMC3    C5 9484   0.766   2.866  16.729 -0.1558 -0.5213 -0.2900
  637TMC3    C6 9485   0.685   2.821  16.839  0.2466  0.1404 -0.0878
  637TMC3     C 9486   0.534   2.882  16.464  0.0506 -0.1883  0.6648
  637TMC3     O 9487   0.606   2.895  16.368 -0.0542  0.6121  0.0748
  637TMC3     H 9488   0.407   2.790  16.673 -1.2730  2.2525  2.9750
  637TMC3    H1 9489   0.783   2.900  16.519 -0.5014  0.9559 -0.2814
  637TMC3    H2 9490   0.721   2.847  16.937 -0.6531  0.6977  0.0973
  637TMC3    C7 9491   0.827   2.995  16.750 -0.0581 -0.3859 -0.1400
  637TMC3    C8 9492   0.462   2.868  16.890  0.0749 -0.2358 -0.3251
  637TMC3    O1 9493   0.794   3.087  16.677  0.1493  0.2353 -0.2773
  637TMC3    O2 9494   0.405   2.952  16.824  0.2260  0.1529 -0.5928
  638MPD2     C 9495   4.419   2.179  14.924  0.7311 -0.5788 -0.8718
  638MPD2    C1 9496   4.418   2.068  14.840 -0.1468 -0.1094 -0.4683
  638MPD2    C2 9497   4.417   1.937  14.886 -0.0790  0.2998 -0.4317
  638MPD2    C3 9498   4.441   1.918  15.023  0.5565 -0.5549 -0.7997
  638MPD2    C4 9499   4.457   2.027  15.105 -0.3176  0.0366 -0.7123
  638MPD2    C5 9500   4.448   2.159  15.054  0.5617  0.2587  0.3876
  638MPD2     H 9501   4.417   1.851  14.820  0.6787  0.2742 -0.3948
  638MPD2    H1 9502   4.457   2.021  15.214  2.1001 -0.7805 -0.7414
  638MPD2    H2 9503   4.411   2.278  14.880 -1.0435 -0.9565 -1.3941
  638MPD2    H3 9504   4.469   2.244  15.119  1.7207 -0.0000  0.3528
  638MPD2     N 9505   4.470   1.786  15.073  0.2192  0.1362  0.5349
  638MPD2    H5 9506   4.504   1.790  15.169 -0.9132  2.1258  0.8621
  638MPD2    N1 9507   4.418   2.095  14.702  0.1400  0.5375  0.0188
  638MPD2    H7 9508   4.451   2.186  14.671 -0.0718  1.0100  1.1720
  639TMC3    C1 9509   4.485   1.551  15.085  0.6891 -0.6880  0.1065
  639TMC3    C2 9510   4.440   1.432  15.022  0.0220 -0.4132 -0.2152
  639TMC3    C3 9511   4.531   1.332  15.009  0.5019 -0.4235  0.4716
  639TMC3    C4 9512   4.615   1.559  15.130 -0.8064  0.2120 -0.6707
  639TMC3    C5 9513   4.696   1.456  15.116  0.3900 -0.0542  0.7263
  639TMC3    C6 9514   4.664   1.338  15.054  0.1775 -0.6573 -0.2525
  639TMC3     C 9515   4.439   1.665  15.013 -0.7069 -0.1798 -0.0944
  639TMC3     O 9516   4.391   1.650  14.904  0.9145 -0.2679  0.5488
  639TMC3     H 9517   4.343   1.426  14.974 -1.1750 -3.1572  2.5661
  639TMC3    H1 9518   4.653   1.649  15.177  2.9286 -0.4378 -2.4645
  639TMC3    H2 9519   4.725   1.250  15.072  2.3544  1.4568  2.7625
  639TMC3    C7 9520   0.097   1.476  15.153 -0.4064 -0.3191  0.4250
  639TMC3    C8 9521   4.498   1.214  14.948  0.1311 -0.7564  0.3801
  639TMC3    O1 9522   0.108   1.553  15.246 -0.2318 -0.0458  0.0964
  639TMC3    O2 9523   4.592   1.158  14.888 -0.2827  0.0134 -0.6273
  640MPD2     C 9524   1.007   1.654   9.447 -0.0993 -0.1654 -0.2411
  640MPD2    C1 9525   0.915   1.559   9.479  0.4445  1.1052 -0.4658
  640MPD2    C2 9526   0.811   1.595   9.563  0.1977 -0.0192  0.5022
  640MPD2    C3 9527   0.804   1.725   9.617  0.2478 -0.3156  0.2806
  640MPD2    C4 9528   0.898   1.816   9.586 -0.0351  0.1352 -0.7406
  640MPD2    C5 9529   0.997   1.782   9.493  0.1268 -0.5082 -0.6580
  640MPD2     H 9530   0.743   1.514   9.585  0.4453  0.3532  2.6160
  640MPD2    H1 9531   0.889   1.917   9.624 -0.0750 -0.6011  1.1717
  640MPD2    H2 9532   1.084   1.642   9.371  1.0443  2.3944  0.4948
  640MPD2    H3 9533   1.062   1.865   9.468  0.3671 -0.4437  0.1842
  640MPD2     N 9534   0.705   1.774   9.701 -0.6239  0.5531 -0.2535
  640MPD2    H5 9535   0.724   1.871   9.724  0.1931  0.2217  0.4642
  640MPD2    N1 9536   0.918   1.424   9.429  0.5515 -0.1594 -0.6219
  640MPD2    H7 9537   0.846   1.370   9.476  0.2846  0.2800 -0.5348
  641TMC3    C1 9538   1.002   1.217   9.377  0.0864  0.1896 -0.7879
  641TMC3    C2 9539   1.102   1.133   9.421 -0.1659 -0.0270 -0.1177
  641TMC3    C3 9540   1.095   1.006   9.381 -0.2316 -0.1300 -0.2204
  641TMC3    C4 9541   0.890   1.175   9.309  0.3079 -0.6854 -0.1258
  641TMC3    C5 9542   0.890   1.038   9.283  0.2322 -0.0296 -0.5376
  641TMC3    C6 9543   0.993   0.956   9.314  0.1778 -0.4489 -0.0926
  641TMC3     C 9544   1.029   1.361   9.381 -0.2235 -0.3215 -0.1238
  641TMC3     O 9545   1.146   1.397   9.391  0.5288  0.0719 -0.4518
  641TMC3     H 9546   1.189   1.172   9.471  1.0686 -1.4169 -1.1758
  641TMC3    H1 9547   0.803   1.237   9.295  1.3854  0.5992 -1.1404
  641TMC3    H2 9548   1.001   0.852   9.284  2.0145 -0.1975 -0.5047
  641TMC3    C7 9549   0.770   0.984   9.222  0.5294  0.0860 -0.3288
  641TMC3    C8 9550   1.195   0.905   9.435 -0.0837 -0.2077 -0.0324
  641TMC3    O1 9551   0.677   1.059   9.191 -0.1513 -0.5918 -0.4305
  641TMC3    O2 9552   1.194   0.791   9.384 -0.6577  0.3754  0.4474
  642TMC3    C1 9553   1.121   1.563  12.275  0.4105  0.2779 -0.0012
  642TMC3    C2 9554   1.145   1.663  12.191  0.1290 -0.3433 -0.4021
  642TMC3    C3 9555   1.156   1.631  12.064  0.1926  0.0633 -0.5065
  642TMC3    C4 9556   1.118   1.434  12.235  0.3754 -0.0036  0.1045
  642TMC3    C5 9557   1.155   1.405  12.103 -0.3017  0.0944  0.1987
  642TMC3    C6 9558   1.162   1.503  12.014  0.4443 -0.4307 -0.2081
  642TMC3     C 9559   1.076   1.574  12.415 -0.4187 -0.6575  0.2725
  642TMC3     O 9560   1.097   1.481  12.490 -0.3330  0.0216  0.0778
  642TMC3     H 9561   1.142   1.766  12.226 -3.8463 -0.6454  0.1967
  642TMC3    H1 9562   1.087   1.359  12.306 -0.7704 -1.4854 -1.9840
  642TMC3    H2 9563   1.181   1.495  11.908 -0.1891 -0.4750 -0.3160
  642TMC3    C7 9564   1.138   1.270  12.045  0.0567 -0.3099 -0.5229
  642TMC3    C8 9565   1.225   1.732  11.978 -1.1861 -0.2662  0.2337
  642TMC3    O1 9566   1.146   1.266  11.925 -0.1038  0.7187  0.3622
  642TMC3    O2 9567   1.208   1.715  11.855  0.2366 -0.2076 -0.5178
  643TMC3    C1 9568   0.357   1.317   0.429 -0.0346 -0.5290 -0.1440
  643TMC3    C2 9569   0.275   1.422   0.392 -0.4839  0.5081  0.0884
  643TMC3    C3 9570   0.273   1.456   0.264 -0.2931 -0.9546  0.1784
  643TMC3    C4 9571   0.422   1.241   0.332  0.0618 -0.9839  0.2533
  643TMC3    C5 9572   0.412   1.284   0.202  0.4963 -0.7740  0.6777
  643TMC3    C6 9573   0.333   1.389   0.163 -0.0085 -0.4860 -0.4866
  643TMC3     C 9574   0.435   1.354   0.552  1.0181 -0.0105 -0.8450
  643TMC3     O 9575   0.417   1.469   0.597 -0.2826 -0.3349 -0.0745
  643TMC3     H 9576   0.212   1.476   0.462 -0.7592 -1.0481  1.0432
  643TMC3    H1 9577   0.496   1.164   0.354 -0.8320 -1.6689  0.8449
  643TMC3    H2 9578   0.317   1.411   0.058  1.8585 -0.1806 -0.7160
  643TMC3    C7 9579   0.482   1.215   0.093  0.0677 -0.4508  0.7215
  643TMC3    C8 9580   0.218   1.591   0.245 -0.1909 -0.0896  0.0476
  643TMC3    O1 9581   0.509   1.289  17.728 -0.1953 -0.0267  0.4296
  643TMC3    O2 9582   0.143   1.646   0.328 -0.3303 -0.4264  0.9003
  644MPD2     C 9583   1.013   1.744   9.023  0.7948 -0.2786 -0.2448
  644MPD2    C1 9584   0.938   1.630   9.049  0.3985 -0.6988  0.9179
  644MPD2    C2 9585   0.832   1.644   9.135 -0.1819 -0.7153  0.1584
  644MPD2    C3 9586   0.790   1.770   9.176  0.6167  0.7794 -0.1438
  644MPD2    C4 9587   0.858   1.883   9.139 -0.5767 -0.2100 -0.2129
  644MPD2    C5 9588   0.976   1.867   9.071  0.0928  0.6540 -0.5596
  644MPD2     H 9589   0.778   1.556   9.167  0.6262 -1.8216 -1.4976
  644MPD2    H1 9590   0.815   1.979   9.164  1.0809  0.2318  0.9515
  644MPD2    H2 9591   1.115   1.732   8.989  1.0762 -1.1089  0.9056
  644MPD2    H3 9592   1.031   1.957   9.048 -0.1832  1.0588  0.3528
  644MPD2     N 9593   0.674   1.777   9.254 -0.3029  0.0362  0.1390
  644MPD2    H5 9594   0.626   1.689   9.271 -0.2179 -0.1774 -0.6882
  644MPD2    N1 9595   0.993   1.505   9.008  0.3716  0.7165  0.0038
  644MPD2    H7 9596   1.078   1.513   8.953 -0.7000  2.0512 -1.4533
  645TMC3    C1 9597   0.499   1.858   9.377  0.2816  0.2456 -0.6653
  645TMC3    C2 9598   0.475   1.739   9.432  0.1300 -0.6718 -0.3102
  645TMC3    C3 9599   0.355   1.733   9.501 -0.1092  0.6914 -0.5918
  645TMC3    C4 9600   0.410   1.962   9.380  0.7786 -0.7683 -0.3888
  645TMC3    C5 9601   0.300   1.958   9.466 -0.0037 -0.1486  0.3804
  645TMC3    C6 9602   0.273   1.839   9.527  0.6777 -0.2262 -0.8786
  645TMC3     C 9603   0.614   1.888   9.302 -0.0687 -0.0523  0.2077
  645TMC3     O 9604   0.643   2.008   9.295 -0.1373 -0.0315  0.5001
  645TMC3     H 9605   0.548   1.659   9.443 -0.8493 -1.5780 -0.4283
  645TMC3    H1 9606   0.434   2.060   9.341 -2.1342 -0.3787 -1.2382
  645TMC3    H2 9607   0.193   1.836   9.600  0.9706 -1.7648 -0.6105
  645TMC3    C7 9608   0.218   2.074   9.493 -0.4166 -0.3261  0.4583
  645TMC3    C8 9609   0.314   1.603   9.545  0.0199 -0.2447  0.0166
  645TMC3    O1 9610   0.270   2.177   9.465 -0.2654  0.8922 -0.1447
  645TMC3    O2 9611   0.225   1.596   9.627 -0.3374  0.6362 -0.0385
  646MPD2     C 9612   0.243   0.348  14.279  1.0460 -0.0161  0.8129
  646MPD2    C1 9613   0.149   0.357  14.378 -0.3542 -0.3871  0.8965
  646MPD2    C2 9614   0.045   0.451  14.369  0.7494 -0.5150 -0.7707
  646MPD2    C3 9615   0.046   0.542  14.261  0.5456 -0.7729  0.4230
  646MPD2    C4 9616   0.150   0.535  14.170  0.7015  0.0166  0.0434
  646MPD2    C5 9617   0.248   0.439  14.177  0.1008 -0.6526 -0.0983
  646MPD2     H 9618   4.697   0.454  14.440  2.2763 -1.9575  1.0301
  646MPD2    H1 9619   0.151   0.607  14.089 -1.5023 -1.8916 -1.6654
  646MPD2    H2 9620   0.331   0.287  14.294  0.0252 -1.7968 -0.4060
  646MPD2    H3 9621   0.321   0.439  14.098  1.6443  0.8349  1.3191
  646MPD2     N 9622   4.678   0.646  14.262  0.2071  0.0383 -0.0894
  646MPD2    H5 9623   4.593   0.628  14.315  1.7265 -3.8220  1.0024
  646MPD2    N1 9624   0.164   0.274  14.496 -0.3425 -0.4406 -0.2484
  646MPD2    H7 9625   0.249   0.219  14.500 -0.5383 -0.6486  0.8239
  647TMC3    C1 9626   0.137   0.179  14.718 -0.7456 -0.2450 -0.1178
  647TMC3    C2 9627   0.090   0.204  14.839 -0.1068 -0.5977 -0.3547
  647TMC3    C3 9628   0.134   0.130  14.946  0.0827  1.2900 -0.2156
  647TMC3    C4 9629   0.225   0.077  14.696  0.1752 -0.8454 -0.2462
  647TMC3    C5 9630   0.261   4.726  14.804  0.3732  0.7660 -0.3690
  647TMC3    C6 9631   0.215   0.020  14.931  0.4512 -0.4299  0.2303
  647TMC3     C 9632   0.090   0.268  14.612  0.7196 -0.1146  0.0128
  647TMC3     O 9633   4.729   0.340  14.645 -0.2053  0.1518 -0.8103
  647TMC3     H 9634   0.034   0.294  14.862  1.1060 -0.1030  0.6424
  647TMC3    H1 9635   0.244   0.043  14.595 -0.6712  1.3262 -1.1342
  647TMC3    H2 9636   0.241   4.690  15.015 -2.5941 -0.5665  1.0852
  647TMC3    C7 9637   0.375   4.646  14.787  0.1953  0.2852 -0.0174
  647TMC3    C8 9638   0.104   0.183  15.081 -0.1231  0.2068  0.6333
  647TMC3    O1 9639   0.423   4.618  14.898  0.1956  0.2162  0.4237
  647TMC3    O2 9640   0.027   0.279  15.081 -0.1464  0.2994  0.5904
  648TMC3    C1 9641   4.203   2.869  16.525 -0.0084  0.2996  0.2227
  648TMC3    C2 9642   4.268   2.751  16.524 -0.0756  0.2190 -0.2625
  648TMC3    C3 9643   4.320   2.715  16.405 -0.1307 -1.5874 -0.1500
  648TMC3    C4 9644   4.181   2.954  16.418 -0.5433  0.8574 -0.2587
  648TMC3    C5 9645   4.226   2.909  16.290  0.7515  0.3968  0.7319
  648TMC3    C6 9646   4.297   2.789  16.289 -0.3789  0.4399  0.5113
  648TMC3     C 9647   4.140   2.921  16.645  0.7370  0.0430  0.3889
  648TMC3     O 9648   4.133   3.043  16.661 -0.2578 -0.3519  0.0799
  648TMC3     H 9649   4.299   2.701  16.615  1.3664  0.7906 -0.4502
  648TMC3    H1 9650   4.135   3.050  16.441 -2.3867  0.3082 -1.6014
  648TMC3    H2 9651   4.334   2.759  16.192  1.0797 -0.1857  1.2695
  648TMC3    C7 9652   4.207   2.973  16.162 -0.8252 -0.1458 -0.0060
  648TMC3    C8 9653   4.411   2.595  16.408  0.1249  0.1684  1.1213
  648TMC3    O1 9654   4.281   2.953  16.065 -0.0391  0.1714 -0.5619
  648TMC3    O2 9655   4.409   2.514  16.499 -0.1356 -0.3563  0.1037
  649TMC3    C1 9656   2.879   4.126  12.686  0.0609  0.2750 -0.1919
  649TMC3    C2 9657   2.985   4.215  12.688 -0.2185 -0.4298 -0.1513
  649TMC3    C3 9658   3.067   4.217  12.799 -0.3611  0.2510  0.0513
  649TMC3    C4 9659   2.860   4.034  12.784 -0.0409 -0.8740 -0.0111
  649TMC3    C5 9660   2.953   4.029  12.889 -0.1734 -0.1921  0.5506
  649TMC3    C6 9661   3.056   4.122  12.897  0.3007 -0.1821 -1.0572
  649TMC3     C 9662   2.784   4.139  12.590  0.4605 -0.2974  0.5910
  649TMC3     O 9663   2.667   4.107  12.617  0.0118  0.6396  0.6800
  649TMC3     H 9664   3.009   4.282  12.607 -1.3558  0.6743  0.4373
  649TMC3    H1 9665   2.770   3.973  12.787 -0.7912  0.2762  0.9035
  649TMC3    H2 9666   3.116   4.120  12.987 -1.8620  0.1852  0.3980
  649TMC3    C7 9667   2.902   3.977  13.014 -0.4600 -0.3740  0.4780
  649TMC3    C8 9668   3.151   4.335  12.822  1.0326  0.0249  0.4034
  649TMC3    O1 9669   2.783   3.989  13.033  0.3523 -0.2107 -0.0946
  649TMC3    O2 9670   3.139   4.425  12.740  0.3972  0.3073 -0.3878
  650TMC3    C1 9671   0.129   1.386  11.957  0.4510  0.0721 -0.0846
  650TMC3    C2 9672   0.095   1.420  12.086 -0.1084 -0.7172  0.4383
  650TMC3    C3 9673   0.085   1.555  12.115  0.1720 -0.4293  0.3521
  650TMC3    C4 9674   0.147   1.474  11.857 -0.4939 -0.0941 -0.0885
  650TMC3    C5 9675   0.139   1.606  11.890  0.4529  0.2901  0.5125
  650TMC3    C6 9676   0.096   1.648  12.013 -0.7674  0.1211 -0.5162
  650TMC3     C 9677   0.180   1.253  11.933  0.0802 -0.1420  0.4714
  650TMC3     O 9678   0.175   1.200  11.823  0.4855  0.0547  0.5892
  650TMC3     H 9679   0.076   1.347  12.164 -0.7201 -1.2536 -0.2127
  650TMC3    H1 9680   0.186   1.444  11.760 -1.6462 -0.4623 -0.4530
  650TMC3    H2 9681   0.088   1.754  12.035  0.4117  0.2326 -0.6448
  650TMC3    C7 9682   0.143   1.700  11.791  0.3783  0.0613  0.5561
  650TMC3    C8 9683   0.020   1.604  12.235 -0.2886 -0.5005  0.2931
  650TMC3    O1 9684   0.117   1.668  11.674 -0.1584  0.1493  0.7975
  650TMC3    O2 9685   4.659   1.543  12.282  0.4833  0.3343 -0.0571
  651MPD2     C 9686   4.050   3.186  10.238  0.1725 -0.0595 -0.1906
  651MPD2    C1 9687   4.042   3.271  10.352  0.5500 -0.2980 -0.1291
  651MPD2    C2 9688   4.152   3.349  10.381 -0.0100  0.5726  1.2250
  651MPD2    C3 9689   4.270   3.335  10.301  0.1288  0.2504  0.2471
  651MPD2    C4 9690   4.278   3.257  10.190 -0.0179  0.1741 -0.7962
  651MPD2    C5 9691   4.166   3.182  10.163  0.4794  0.5651 -0.1379
  651MPD2     H 9692   4.165   3.403  10.474  1.2782  1.1137  0.7391
  651MPD2    H1 9693   4.368   3.242  10.133  0.2627  0.5887 -0.4667
  651MPD2    H2 9694   3.970   3.121  10.205 -0.4212 -0.2362  1.5998
  651MPD2    H3 9695   4.162   3.125  10.070  0.8522  0.5218 -0.1244
  651MPD2     N 9696   4.386   3.409  10.352 -0.6223  0.5178  0.2746
  651MPD2    H5 9697   4.367   3.461  10.437 -2.0427  0.1901  0.1666
  651MPD2    N1 9698   3.933   3.285  10.435  0.1047  0.0031  0.3815
  651MPD2    H7 9699   3.936   3.345  10.517 -0.4418  0.0588  0.3662
  652TMC3    C1 9700   0.078   3.570  10.423 -0.6284 -0.0471 -0.2330
  652TMC3    C2 9701   4.724   3.509  10.338 -0.4579  0.0119 -0.3314
  652TMC3    C3 9702   4.600   3.480  10.388 -0.4837 -0.1022 -0.6954
  652TMC3    C4 9703   0.034   3.633  10.536  0.0150  0.1170  0.3820
  652TMC3    C5 9704   4.646   3.592  10.587 -0.5397 -0.2528 -0.1115
  652TMC3    C6 9705   4.563   3.507  10.519  0.5400  0.2726  0.5066
  652TMC3     C 9706   0.218   3.531  10.438 -0.3827 -0.6349  0.0542
  652TMC3     O 9707   0.268   3.531  10.547 -0.3710  0.5943 -0.3491
  652TMC3     H 9708   0.034   3.467  10.247 -0.6214 -1.0657  0.0891
  652TMC3    H1 9709   0.113   3.680  10.594  0.0600  1.5371 -0.8404
  652TMC3    H2 9710   4.468   3.478  10.563  0.2018  0.5171 -0.0488
  652TMC3    C7 9711   4.630   3.582  10.734 -0.1259  0.2969 -0.6329
  652TMC3    C8 9712   4.518   3.410  10.299  0.0968  0.1432 -0.1005
  652TMC3    O1 9713   4.548   3.506  10.783  0.0887  0.6244  0.1325
  652TMC3    O2 9714   4.565   3.369  10.195  0.5995 -0.7457 -0.0788
  653MPD2     C 9715   2.793   2.943   0.253  0.2900  0.3469  0.0346
  653MPD2    C1 9716   2.745   2.980   0.126 -0.3592  0.4160  1.0501
  653MPD2    C2 9717   2.745   2.884   0.024 -0.0878  0.3660  0.5171
  653MPD2    C3 9718   2.785   2.752   0.051  0.6916 -0.0984  0.0300
  653MPD2    C4 9719   2.817   2.722   0.184 -0.5009 -0.2764  0.0090
  653MPD2    C5 9720   2.826   2.815   0.282  0.1612 -0.6529  0.3908
  653MPD2     H 9721   2.706   2.908  17.655  1.9240  2.1015  0.1470
  653MPD2    H1 9722   2.839   2.619   0.208 -0.7280 -0.3719 -0.1827
  653MPD2    H2 9723   2.797   3.012   0.336 -0.8042  0.6956 -0.2004
  653MPD2    H3 9724   2.855   2.801   0.385  0.6602 -1.6630  0.1135
  653MPD2     N 9725   2.799   2.669  17.671  0.6203  0.0974 -0.3223
  653MPD2    H5 9726   2.756   2.707  17.587 -1.6094  0.0518  0.7782
  653MPD2    N1 9727   2.723   3.116   0.092 -0.1403  0.4397  0.1265
  653MPD2    H7 9728   2.700   3.131  17.724  0.2794 -1.4056 -0.2400
  654TMC3    C1 9729   2.895   2.508  17.530 -0.1307  0.0614  1.0031
  654TMC3    C2 9730   2.950   2.583  17.433  0.4350 -0.5337  0.7563
  654TMC3    C3 9731   3.000   2.529  17.321 -0.0332 -0.1634 -0.4538
  654TMC3    C4 9732   2.902   2.374  17.518 -0.2125 -0.4445  1.0618
  654TMC3    C5 9733   2.966   2.323  17.412  0.7212  0.8436  0.4367
  654TMC3    C6 9734   3.015   2.395  17.307 -0.2127  0.9864  0.0294
  654TMC3     C 9735   2.879   2.556  17.666  0.0784  0.3442  0.0793
  654TMC3     O 9736   2.941   2.496   0.026  0.5770  0.0311  0.1051
  654TMC3     H 9737   2.953   2.690  17.446  3.2949 -0.8700  3.0891
  654TMC3    H1 9738   2.848   2.320  17.594 -0.0689 -1.6683  0.2967
  654TMC3    H2 9739   3.045   2.353  17.212  1.4906  1.3110  0.4142
  654TMC3    C7 9740   2.940   2.187  17.370 -0.5702 -0.9852 -0.3275
  654TMC3    C8 9741   3.001   2.616  17.207  0.2670 -0.3279  0.1881
  654TMC3    O1 9742   2.922   2.174  17.248  0.3967  0.1941  0.1622
  654TMC3    O2 9743   2.949   2.725  17.225  0.0632  0.1526 -0.5162
  655MPD2     C 9744   4.699   3.014  15.762  0.9781  0.1303  0.1400
  655MPD2    C1 9745   4.636   3.132  15.726 -0.2210  1.5373 -0.1834
  655MPD2    C2 9746   4.619   3.148  15.591  0.3005  0.0061 -0.4706
  655MPD2    C3 9747   4.657   3.053  15.497 -0.1902 -0.6013  0.0820
  655MPD2    C4 9748   4.721   2.935  15.537 -0.2427 -0.0406  0.5102
  655MPD2    C5 9749   0.012   2.921  15.670 -0.0884 -0.4748  0.0657
  655MPD2     H 9750   4.567   3.239  15.564  0.6080 -0.4540 -2.6164
  655MPD2    H1 9751   0.013   2.854  15.469  0.5104 -0.0002  0.7276
  655MPD2    H2 9752   4.712   2.983  15.865 -0.8833  1.1516  0.6907
  655MPD2    H3 9753   0.037   2.821  15.703  0.4902 -0.9449 -1.8347
  655MPD2     N 9754   4.633   3.069  15.352 -0.2775 -0.1250  0.0090
  655MPD2    H5 9755   4.653   2.990  15.291  0.6923  0.3290 -0.2630
  655MPD2    N1 9756   4.582   3.225  15.813  0.7577  0.2486  0.6738
  655MPD2    H7 9757   4.537   3.310  15.780 -1.6328 -1.1168  0.4289
  656TMC3    C1 9758   4.496   3.316  16.006 -0.3473 -0.3361 -0.0770
  656TMC3    C2 9759   4.419   3.296  16.109  0.6430 -0.2295  0.2980
  656TMC3    C3 9760   4.321   3.390  16.137  0.2443 -0.1590 -1.1284
  656TMC3    C4 9761   4.489   3.429  15.930 -0.3633  0.1000  0.1273
  656TMC3    C5 9762   4.371   3.507  15.939 -0.5502 -0.9154 -0.3253
  656TMC3    C6 9763   4.289   3.492  16.050 -0.4712 -0.3193  0.1862
  656TMC3     C 9764   4.560   3.199  15.948  0.0920  0.2201  0.1136
  656TMC3     O 9765   4.569   3.092  16.004  0.4245  0.1946  0.2292
  656TMC3     H 9766   4.431   3.206  16.167 -1.9807 -0.6669  0.1448
  656TMC3    H1 9767   4.555   3.449  15.847  0.0399  1.4646  0.7766
  656TMC3    H2 9768   4.192   3.540  16.056  0.1678  0.7640  1.9707
  656TMC3    C7 9769   4.316   3.525  15.806  0.3675  0.0807 -0.7142
  656TMC3    C8 9770   4.257   3.375  16.269  0.2227  0.4777  0.0762
  656TMC3    O1 9771   4.371   3.475  15.713  0.0665 -0.8010 -0.0383
  656TMC3    O2 9772   4.301   3.288  16.342 -0.3576  0.0041  0.0816
  657TMC3    C1 9773   3.783   2.802  15.196 -0.1358 -0.0133 -0.1659
  657TMC3    C2 9774   3.728   2.781  15.318  0.7923 -0.3341 -0.5101
  657TMC3    C3 9775   3.612   2.840  15.347 -0.9925 -0.1099 -0.0196
  657TMC3    C4 9776   3.729   2.875  15.098  0.3035  0.0384  0.0714
  657TMC3    C5 9777   3.604   2.922  15.126  1.2010  0.4142  0.0810
  657TMC3    C6 9778   3.547   2.911  15.250 -0.2821  0.2766 -0.1870
  657TMC3     C 9779   3.897   2.731  15.150  0.1773  0.1998  0.2232
  657TMC3     O 9780   3.925   2.715  15.035  0.5957 -0.4848  0.4413
  657TMC3     H 9781   3.778   2.719  15.391 -1.3845 -0.5519  0.8019
  657TMC3    H1 9782   3.787   2.898  15.009  0.9569 -0.1678  0.4486
  657TMC3    H2 9783   3.450   2.956  15.262 -1.2858 -2.0767  0.5210
  657TMC3    C7 9784   3.519   2.981  15.020 -0.1034  0.3230 -0.2111
  657TMC3    C8 9785   3.563   2.848  15.482  0.0097 -0.1360 -0.2996
  657TMC3    O1 9786   3.408   3.023  15.047  0.1525 -0.0149 -0.4082
  657TMC3    O2 9787   3.463   2.911  15.506 -0.4152 -0.2342 -0.4111
  658MPD2     C 9788   4.488   2.769  14.604  0.1321  0.5147 -0.3723
  658MPD2    C1 9789   4.587   2.847  14.659 -0.5179  0.5760  0.2726
  658MPD2    C2 9790   4.688   2.898  14.579 -0.1734 -0.0964 -0.1100
  658MPD2    C3 9791   4.691   2.867  14.441 -0.8898  0.9023  0.1653
  658MPD2    C4 9792   4.589   2.786  14.393  0.8959  0.1060  0.5396
  658MPD2    C5 9793   4.486   2.733  14.468  0.0407 -0.0630 -0.0897
  658MPD2     H 9794   0.024   2.967  14.627  0.8491 -0.9443 -0.3451
  658MPD2    H1 9795   4.573   2.764  14.288 -0.3742  0.8295  0.5932
  658MPD2    H2 9796   4.397   2.753  14.661  0.6167  1.8219  0.7401
  658MPD2    H3 9797   4.411   2.667  14.427 -0.9499  1.4520 -0.7358
  658MPD2     N 9798   0.044   2.938  14.358  0.1899 -0.0169  0.5097
  658MPD2    H5 9799   0.101   3.006  14.407  1.1273 -1.1757  1.0167
  658MPD2    N1 9800   4.569   2.888  14.791 -0.0026  0.0867 -0.1359
  658MPD2    H7 9801   4.493   2.850  14.846  0.1889  3.1783  2.2671
  659TMC3    C1 9802   4.569   3.045  14.949  0.4862 -0.2240  0.2645
  659TMC3    C2 9803   4.624   3.091  15.068  0.0973 -0.5688  0.1634
  659TMC3    C3 9804   4.538   3.165  15.151 -0.2253 -0.3607 -0.8830
  659TMC3    C4 9805   4.444   3.078  14.907 -0.4221 -0.1586 -0.2378
  659TMC3    C5 9806   4.366   3.151  14.991 -0.1771  0.2921  0.4476
  659TMC3    C6 9807   4.412   3.202  15.114 -0.4577 -0.4785  0.2867
  659TMC3     C 9808   4.650   2.960  14.868 -0.4875 -0.0457  0.2076
  659TMC3     O 9809   0.031   2.995  14.842 -0.2119  0.5934  0.1098
  659TMC3     H 9810   4.719   3.053  15.101  0.6082 -0.3941 -1.0928
  659TMC3    H1 9811   4.399   3.035  14.819  0.2412 -0.5092 -0.4091
  659TMC3    H2 9812   4.346   3.233  15.194 -0.9372  1.1814 -0.7386
  659TMC3    C7 9813   4.223   3.165  14.968 -0.6224  0.7289 -0.8882
  659TMC3    C8 9814   4.571   3.182  15.293  0.8413  0.1205  0.6068
  659TMC3    O1 9815   4.185   3.167  14.852 -0.2309 -0.9062 -0.2254
  659TMC3    O2 9816   4.518   3.282  15.347 -0.2918 -0.0803 -0.0236
  660MPD2     C 9817   1.838   2.222  12.569  0.1420 -0.1497 -0.1301
  660MPD2    C1 9818   1.731   2.147  12.526  0.1265 -0.0493 -0.2635
  660MPD2    C2 9819   1.709   2.024  12.586  0.8725  0.4939  0.2193
  660MPD2    C3 9820   1.791   1.968  12.681 -0.1423  0.0279 -0.1807
  660MPD2    C4 9821   1.904   2.044  12.715 -0.2228  0.0111  0.0488
  660MPD2    C5 9822   1.922   2.170  12.665  0.1054  0.4136 -0.2004
  660MPD2     H 9823   1.635   1.962  12.537 -0.4509  0.8293  1.8053
  660MPD2    H1 9824   1.986   2.003  12.772  2.4272  2.4377 -2.0435
  660MPD2    H2 9825   1.857   2.319  12.523  1.7756 -0.8235 -0.8827
  660MPD2    H3 9826   2.015   2.224  12.681  0.5919 -0.3468 -0.4728
  660MPD2     N 9827   1.783   1.835  12.732 -0.1485 -0.5716  0.1854
  660MPD2    H5 9828   1.849   1.807  12.804  0.4417 -0.1882 -0.2078
  660MPD2    N1 9829   1.652   2.215  12.429  0.1643 -0.7230  0.2441
  660MPD2    H7 9830   1.679   2.310  12.406 -1.7588 -0.5531 -1.2858
  661TMC3    C1 9831   1.469   2.261  12.275 -0.8613  0.7426 -0.3390
  661TMC3    C2 9832   1.553   2.338  12.196  0.1134  0.7301  0.8158
  661TMC3    C3 9833   1.498   2.357  12.068  0.2116 -0.0902 -0.8645
  661TMC3    C4 9834   1.352   2.206  12.233 -0.3314  0.5484  0.1855
  661TMC3    C5 9835   1.309   2.226  12.108  0.5989 -0.2940  0.0353
  661TMC3    C6 9836   1.375   2.315  12.028 -0.6864 -0.0495 -0.8149
  661TMC3     C 9837   1.533   2.167  12.372 -0.2670  0.0330  0.0847
  661TMC3     O 9838   1.490   2.054  12.399  0.1698 -0.4521 -0.9018
  661TMC3     H 9839   1.654   2.371  12.218 -1.0364  4.0717  1.0788
  661TMC3    H1 9840   1.302   2.148  12.310 -1.2768  0.0339 -0.8231
  661TMC3    H2 9841   1.332   2.352  11.936  0.2760  2.7008 -0.1553
  661TMC3    C7 9842   1.174   2.193  12.088  0.3935  0.0617  0.3408
  661TMC3    C8 9843   1.590   2.400  11.961  0.8507  0.0300 -0.1921
  661TMC3    O1 9844   1.111   2.160  12.189 -0.6859  0.5654  0.5476
  661TMC3    O2 9845   1.702   2.427  11.996  0.3733 -0.0391  0.0371
  662MPD2     C 9846   2.670   0.759  17.033  0.0145 -0.2219  0.7753
  662MPD2    C1 9847   2.769   0.822  17.114  0.2668  0.0173  0.1491
  662MPD2    C2 9848   2.726   0.928  17.194  0.0805 -0.4212 -0.6240
  662MPD2    C3 9849   2.596   0.961  17.219 -0.0839 -0.4499  0.7361
  662MPD2    C4 9850   2.501   0.897  17.138 -0.6955 -0.0504 -0.0359
  662MPD2    C5 9851   2.538   0.803  17.042  0.3114  0.0558 -0.4725
  662MPD2     H 9852   2.802   0.986  17.244 -0.2272  0.0897 -0.7482
  662MPD2    H1 9853   2.394   0.917  17.148 -0.5970  0.8613 -0.7831
  662MPD2    H2 9854   2.689   0.677  16.964 -1.1696  0.8463 -0.8188
  662MPD2    H3 9855   2.464   0.764  16.973  0.3918  1.0607 -1.1368
  662MPD2     N 9856   2.558   1.048  17.330 -0.4081  0.1733  0.6065
  662MPD2    H5 9857   2.460   1.070  17.343 -0.2466 -0.0280  2.2545
  662MPD2    N1 9858   2.900   0.793  17.123 -0.2753  0.5813 -0.2447
  662MPD2    H7 9859   2.957   0.845  17.189 -0.7025 -0.0774  0.6382
  663TMC3    C1 9860   3.096   0.665  17.099  0.0404  0.2335 -1.2430
  663TMC3    C2 9861   3.120   0.679  17.232 -0.0460  0.4132 -0.2245
  663TMC3    C3 9862   3.231   0.621  17.295 -0.2014  0.3638  0.2208
  663TMC3    C4 9863   3.170   0.585  17.020 -0.1360 -0.6020 -0.0240
  663TMC3    C5 9864   3.287   0.545  17.076 -0.0487  0.4433 -0.3113
  663TMC3    C6 9865   3.324   0.568  17.208 -0.6713 -0.1296  0.0127
  663TMC3     C 9866   2.960   0.697  17.052  0.4858  0.2387 -0.2757
  663TMC3     O 9867   2.918   0.624  16.968 -1.1589 -0.2886 -0.1645
  663TMC3     H 9868   3.044   0.717  17.299 -0.3016 -2.0606  0.8779
  663TMC3    H1 9869   3.136   0.554  16.922 -1.3606 -0.2326  0.2812
  663TMC3    H2 9870   3.399   0.508  17.259 -2.4960 -0.1170  2.6888
  663TMC3    C7 9871   3.309   0.417  17.017  0.5438  1.1260 -0.1352
  663TMC3    C8 9872   3.197   0.526  17.405  0.0216 -0.6701 -0.5527
  663TMC3    O1 9873   3.341   0.411  16.898  0.3962  0.0887  0.0962
  663TMC3    O2 9874   3.239   0.415  17.388  0.1874  0.0025 -0.2256
  664MPD2     C 9875   1.316   4.409  17.192 -0.3165  0.0442 -0.0839
  664MPD2    C1 9876   1.378   4.461  17.303  0.0624 -0.2737  0.3083
  664MPD2    C2 9877   1.320   4.462  17.429 -0.1297 -0.1389  0.6211
  664MPD2    C3 9878   1.196   4.401  17.438 -0.0801  0.0065 -1.3519
  664MPD2    C4 9879   1.124   4.354  17.327 -0.6985 -0.1956  0.2250
  664MPD2    C5 9880   1.188   4.352  17.205 -0.3211 -0.0795  0.2666
  664MPD2     H 9881   1.364   4.490  17.524 -1.1584  0.4025  0.9375
  664MPD2    H1 9882   1.020   4.324  17.336 -0.9135  0.0239 -1.5032
  664MPD2    H2 9883   1.351   4.414  17.090 -0.9670  0.4098 -0.2888
  664MPD2    H3 9884   1.135   4.306  17.122  1.0856 -1.7567  0.2997
  664MPD2     N 9885   1.143   4.388  17.564  0.0262 -0.0184  0.0003
  664MPD2    H5 9886   1.193   4.434  17.639  3.1087 -1.6584 -1.0622
  664MPD2    N1 9887   1.500   4.542  17.292  0.4268 -0.5019 -0.2633
  664MPD2    H7 9888   1.532   4.586  17.378  0.4296  1.1650 -1.1066
  665TMC3    C1 9889   0.996   4.353   0.010  0.0634 -0.4264 -0.4599
  665TMC3    C2 9890   0.862   4.356   0.046 -0.4506 -0.1601  0.3338
  665TMC3    C3 9891   0.826   4.349   0.178  0.8863 -0.2281 -0.2747
  665TMC3    C4 9892   1.096   4.327   0.101 -0.1041  0.4818 -0.6726
  665TMC3    C5 9893   1.051   4.325   0.232  0.8287  0.0186  0.7087
  665TMC3    C6 9894   0.917   4.328   0.274  0.8778 -0.8127 -0.2084
  665TMC3     C 9895   1.016   4.344  17.600  0.3761  0.3244  0.4082
  665TMC3     O 9896   0.926   4.296  17.532 -0.6933  0.2144 -0.2056
  665TMC3     H 9897   0.789   4.379  17.699  0.7625 -0.9776 -1.0555
  665TMC3    H1 9898   1.199   4.300   0.079  0.2154  1.2233 -0.1270
  665TMC3    H2 9899   0.880   4.320   0.376 -0.2124  1.7178 -0.4035
  665TMC3    C7 9900   1.166   4.322   0.331 -0.1615 -0.2626  0.0116
  665TMC3    C8 9901   0.693   4.391   0.222  0.2750 -0.5332 -0.2788
  665TMC3    O1 9902   1.278   4.275   0.308 -0.1058  0.0086  0.2874
  665TMC3    O2 9903   0.677   4.453   0.324 -0.0820  0.2277 -0.3892
  666TMC3    C1 9904   0.151   4.392  10.228 -0.3157 -0.1425 -0.4845
  666TMC3    C2 9905   0.250   4.291  10.232 -0.4383 -0.0874  0.2709
  666TMC3    C3 9906   0.374   4.329  10.195 -0.4476 -0.0024 -0.2953
  666TMC3    C4 9907   0.177   4.510  10.172 -0.2789  0.1113  0.2007
  666TMC3    C5 9908   0.304   4.528  10.113  0.3362 -0.4964  0.6177
  666TMC3    C6 9909   0.405   4.440  10.121 -0.4716 -0.2071 -0.1770
  666TMC3     C 9910   0.013   4.356  10.242  0.2631  0.8892 -0.1267
  666TMC3     O 9911   4.655   4.435  10.278 -0.2537  0.1596  0.2461
  666TMC3     H 9912   0.228   4.201  10.289  2.1721 -0.3720  0.8325
  666TMC3    H1 9913   0.103   4.590  10.171 -2.6295 -2.0536  3.0315
  666TMC3    H2 9914   0.512   4.457  10.107 -0.7541 -0.8683 -3.0729
  666TMC3    C7 9915   0.351   4.665  10.087  0.0515  0.5134  0.0565
  666TMC3    C8 9916   0.487   4.251  10.245 -0.2095  0.4877 -0.1554
  666TMC3    O1 9917   0.272   0.022  10.123  0.2340  0.2828 -0.0742
  666TMC3    O2 9918   0.575   4.216  10.165  0.1324  0.0388  0.1789
  667MPD2     C 9919   1.761   0.215  13.900 -0.5136 -0.8570 -0.7717
  667MPD2    C1 9920   1.827   0.140  13.999  0.0115 -0.2276 -0.2843
  667MPD2    C2 9921   1.778   0.012  14.023  0.2862 -0.3016  0.1033
  667MPD2    C3 9922   1.668   4.696  13.966  0.0204 -0.1256  0.0387
  667MPD2    C4 9923   1.596   0.046  13.885  0.2665 -0.1781  0.1844
  667MPD2    C5 9924   1.644   0.172  13.855  0.3201 -0.7295  0.0400
  667MPD2     H 9925   1.819   4.692  14.109 -1.5220 -0.8056  0.6705
  667MPD2    H1 9926   1.509   0.015  13.829  0.5874  0.3838 -0.6247
  667MPD2    H2 9927   1.792   0.317  13.881  0.5987 -0.8909  0.8994
  667MPD2    H3 9928   1.596   0.233  13.780  1.1758  0.5033  0.4912
  667MPD2     N 9929   1.618   4.563  13.991 -0.2167 -0.0044  0.1345
  667MPD2    H5 9930   1.531   4.549  13.940 -0.2084  0.3530  0.0231
  667MPD2    N1 9931   1.930   0.194  14.085  0.5324 -0.1092  0.0605
  667MPD2    H7 9932   1.952   0.141  14.169 -2.3173 -1.1469  0.1843
  668TMC3    C1 9933   2.009   0.364  14.213  0.0862 -0.0728 -0.3432
  668TMC3    C2 9934   2.089   0.475  14.213 -0.6270  0.1673 -0.5425
  668TMC3    C3 9935   2.134   0.526  14.335 -0.5137 -0.8237 -0.1881
  668TMC3    C4 9936   1.959   0.308  14.332 -0.0589 -0.1122  0.0042
  668TMC3    C5 9937   1.991   0.369  14.447  0.3532  0.5425  0.8043
  668TMC3    C6 9938   2.086   0.469  14.453  0.6520 -0.4512  0.1886
  668TMC3     C 9939   1.978   0.321  14.079 -0.2746 -0.5293 -0.1935
  668TMC3     O 9940   1.963   0.398  13.984  0.5981  0.2381  1.0214
  668TMC3     H 9941   2.115   0.521  14.119 -0.0729 -2.1921 -1.5396
  668TMC3    H1 9942   1.902   0.216  14.327 -0.6104  0.2105  0.3990
  668TMC3    H2 9943   2.121   0.493  14.553  1.0584  3.2789 -0.8707
  668TMC3    C7 9944   1.953   0.310  14.576 -0.2109 -0.0250 -0.3077
  668TMC3    C8 9945   2.218   0.642  14.350  0.0078  0.0548  0.5058
  668TMC3    O1 9946   2.019   0.327  14.678 -0.3041  0.2511 -0.0295
  668TMC3    O2 9947   2.208   0.698  14.458  0.1939  0.5235 -0.4378
  669TMC3    C1 9948   4.707   4.102  14.552 -1.0586 -0.7499 -0.2620
  669TMC3    C2 9949   4.599   4.106  14.471 -0.4130  0.4314 -0.4345
  669TMC3    C3 9950   4.615   4.152  14.342 -0.3536 -0.0230 -0.0232
  669TMC3    C4 9951   0.102   4.127  14.508  0.4161 -0.0150  0.1861
  669TMC3    C5 9952   0.112   4.157  14.372  0.1233 -0.4634 -0.6746
  669TMC3    C6 9953   0.006   4.169  14.287  0.0754  0.0678  0.1399
  669TMC3     C 9954   4.690   4.076  14.692  0.4860  0.6177  0.3877
  669TMC3     O 9955   4.604   3.998  14.725  0.0812  0.3050  0.4050
  669TMC3     H 9956   4.500   4.082  14.509 -0.6244  0.9526 -0.6546
  669TMC3    H1 9957   0.181   4.118  14.582 -1.0070  1.6247  1.9365
  669TMC3    H2 9958   0.027   4.208  14.188  1.7283 -2.4579 -0.4900
  669TMC3    C7 9959   0.228   4.232  14.340 -0.4956  0.2446 -0.2495
  669TMC3    C8 9960   4.504   4.244  14.312 -0.0410 -0.4401 -0.8987
  669TMC3    O1 9961   0.274   4.297  14.431 -0.3348 -0.3256 -0.7566
  669TMC3    O2 9962   4.392   4.217  14.365  0.7014 -0.8003  0.0627
  670MPD2     C 9963   2.847   2.273  13.904  0.1779 -0.0249 -0.1528
  670MPD2    C1 9964   2.926   2.386  13.924  0.2100  0.1944 -0.3886
  670MPD2    C2 9965   2.966   2.409  14.055 -0.4072 -0.9130 -0.3205
  670MPD2    C3 9966   2.936   2.328  14.157 -0.3044  0.0851  0.6369
  670MPD2    C4 9967   2.851   2.225  14.145  0.3745  0.3828 -0.5287
  670MPD2    C5 9968   2.816   2.197  14.016 -0.6839 -0.4737  0.0191
  670MPD2     H 9969   3.021   2.500  14.078  0.5994 -1.4442 -0.6160
  670MPD2    H1 9970   2.840   2.140  14.211 -0.6256  0.6916 -0.3088
  670MPD2    H2 9971   2.815   2.227  13.811  1.3547 -2.8467  0.8250
  670MPD2    H3 9972   2.766   2.101  14.005 -0.4543 -0.6333  0.3390
  670MPD2     N 9973   2.990   2.349  14.286 -0.5046 -0.0581  0.0262
  670MPD2    H5 9974   2.960   2.284  14.359  2.1476  1.2064  2.2394
  670MPD2    N1 9975   2.976   2.473  13.829  0.5129  0.0539  0.8160
  670MPD2    H7 9976   3.023   2.557  13.859  0.2499  0.6563 -0.5029
  671TMC3    C1 9977   3.150   2.393  14.451  0.3127  0.2214 -0.2575
  671TMC3    C2 9978   3.285   2.375  14.460  0.3498 -1.1627 -0.0346
  671TMC3    C3 9979   3.327   2.269  14.547 -0.0999 -0.3416  0.3376
  671TMC3    C4 9980   3.059   2.320  14.521 -0.3382  0.6772  0.5898
  671TMC3    C5 9981   3.103   2.216  14.595  0.4365 -0.4387 -0.0733
  671TMC3    C6 9982   3.236   2.193  14.612  0.2136 -0.2780 -0.6645
  671TMC3     C 9983   3.108   2.413  14.308 -0.1975  0.4404 -0.0077
  671TMC3     O 9984   3.185   2.475  14.234  0.0434 -0.1936 -0.4916
  671TMC3     H 9985   3.352   2.447  14.414 -1.8821  0.8366 -0.1750
  671TMC3    H1 9986   2.953   2.339  14.532 -0.9230 -2.5818  0.5845
  671TMC3    H2 9987   3.276   2.119  14.681 -0.6005 -0.8802 -0.8413
  671TMC3    C7 9988   3.034   2.094  14.544 -0.2204  0.5476  0.8502
  671TMC3    C8 9989   3.429   2.181  14.485 -0.7264 -0.0287 -0.3093
  671TMC3    O1 9990   2.931   2.112  14.481 -0.7018  0.2001 -0.0995
  671TMC3    O2 9991   3.444   2.184  14.361 -0.4001 -0.1127  0.6640
  672MPD2     C 9992   2.392   3.029   1.148 -0.1489 -1.1648  0.2634
  672MPD2    C1 9993   2.513   2.967   1.127 -0.3744 -0.2036  0.4129
  672MPD2    C2 9994   2.626   3.027   1.188 -0.2388  0.1848 -0.5086
  672MPD2    C3 9995   2.619   3.146   1.265  0.0970  0.3338  0.1910
  672MPD2    C4 9996   2.495   3.207   1.276  0.1472  0.3830  0.0649
  672MPD2    C5 9997   2.385   3.152   1.217  1.1086 -0.4010  0.4007
  672MPD2     H 9998   2.713   2.962   1.186  0.2863  0.8875 -0.2395
  672MPD2    H1 9999   2.497   3.303   1.326 -1.1201  1.4391 -1.9452
  672MPD2    H210000   2.306   2.975   1.108 -0.2143  0.9216 -2.4075
  672MPD2    H310001   2.293   3.207   1.231  1.7164  1.0400 -1.2684
  672MPD2     N10002   2.716   3.209   1.344 -0.7067  0.5215 -0.2002
  672MPD2    H510003   2.697   3.304   1.373  0.5095  1.0209 -1.0354
  672MPD2    N110004   2.529   2.847   1.054  0.1168 -0.1891 -0.3215
  672MPD2    H710005   2.624   2.813   1.057 -0.5263 -1.9701 -0.3934
  673TMC3    C110006   2.486   2.696   0.881 -0.2783 -0.6623 -0.8305
  673TMC3    C210007   2.585   2.607   0.917 -0.7091 -0.1669  0.6933
  673TMC3    C310008   2.619   2.511   0.830  0.0459 -0.3045 -0.3713
  673TMC3    C410009   2.434   2.708   0.757 -0.1978  0.1287 -0.0395
  673TMC3    C510010   2.472   2.613   0.671  0.4161 -0.6447 -0.1792
  673TMC3    C610011   2.549   2.506   0.708  0.3048 -0.0152 -0.4317
  673TMC3     C10012   2.438   2.801   0.966 -0.4761  0.9196 -0.0699
  673TMC3     O10013   2.321   2.830   0.950  0.1487  0.0239  0.0534
  673TMC3     H10014   2.636   2.598   1.012  0.1759 -1.5020  0.0970
  673TMC3    H110015   2.359   2.784   0.739  1.4809  1.5055 -1.1963
  673TMC3    H210016   2.581   2.428   0.639 -1.8716  1.0867 -2.6733
  673TMC3    C710017   2.461   2.652   0.529  0.1405 -0.3212  0.5554
  673TMC3    C810018   2.695   2.394   0.857  0.4111  0.0089  0.2248
  673TMC3    O110019   2.452   2.558   0.449 -0.1956  0.5892 -0.1126
  673TMC3    O210020   2.650   2.277   0.835  0.0841 -0.0160 -0.1685
  674MPD2     C10021   3.041   2.400   0.521 -0.0416  0.6002  0.4491
  674MPD2    C110022   3.083   2.296   0.593  0.4684 -0.2667 -0.0579
  674MPD2    C210023   2.988   2.198   0.624 -0.5126  0.6788  0.4016
  674MPD2    C310024   2.858   2.202   0.574 -0.4859 -0.7346 -0.0387
  674MPD2    C410025   2.820   2.308   0.493 -0.1079 -0.3831  0.0019
  674MPD2    C510026   2.912   2.410   0.470 -0.3116 -0.3243  0.6103
  674MPD2     H10027   3.005   2.114   0.691 -1.9122 -1.3308 -1.7754
  674MPD2    H110028   2.719   2.311   0.455  0.1576  1.6435 -0.5113
  674MPD2    H210029   3.108   2.483   0.497 -1.2205  1.2074 -0.7935
  674MPD2    H310030   2.894   2.502   0.416 -0.0511 -0.0936  0.9093
  674MPD2     N10031   2.763   2.095   0.598 -0.6221 -0.0723  0.3402
  674MPD2    H510032   2.799   2.011   0.643 -3.7603 -1.1933  0.7812
  674MPD2    N110033   3.215   2.306   0.653 -0.4590  0.3100 -0.8872
  674MPD2    H710034   3.266   2.393   0.640  1.0917 -0.1008  2.2564
  675TMC3    C110035   3.410   2.233   0.748  0.3452 -0.3073 -0.3003
  675TMC3    C210036   3.491   2.125   0.790 -0.1846  0.0801 -0.3653
  675TMC3    C310037   3.613   2.148   0.843  0.9906 -0.1243  0.0715
  675TMC3    C410038   3.462   2.363   0.753  1.0119  0.8955  0.3473
  675TMC3    C510039   3.580   2.379   0.816 -0.1541  0.3610 -0.5552
  675TMC3    C610040   3.661   2.275   0.846 -0.3362  0.9563 -0.1997
  675TMC3     C10041   3.273   2.203   0.713 -0.1340  0.3624  0.1987
  675TMC3     O10042   3.235   2.088   0.723  0.0591  0.1967 -0.4895
  675TMC3     H10043   3.458   2.022   0.792  1.6410 -0.5618 -2.3210
  675TMC3    H110044   3.403   2.451   0.732 -1.0850 -0.4508  0.5985
  675TMC3    H210045   3.758   2.285   0.895 -1.0741  1.4532  1.1516
  675TMC3    C710046   3.620   2.517   0.828  0.0853 -0.2982 -0.1303
  675TMC3    C810047   3.664   2.051   0.939  0.0973 -0.2130 -0.7962
  675TMC3    O110048   3.541   2.612   0.825  0.2435  0.4057 -0.3273
  675TMC3    O210049   3.764   1.986   0.910 -0.0899  0.3462  0.3961
  676MPD2     C10050   1.047   1.184  10.614  0.3091  1.2564 -0.0307
  676MPD2    C110051   0.944   1.136  10.697  0.4552  1.2824  0.1091
  676MPD2    C210052   0.936   1.002  10.732  0.0472  0.0600  0.3327
  676MPD2    C310053   1.036   0.920  10.696  0.4332  0.6628 -0.5826
  676MPD2    C410054   1.126   0.959  10.602  0.1514 -0.2785 -0.4074
  676MPD2    C510055   1.142   1.091  10.567  0.1212 -0.3444 -0.0436
  676MPD2     H10056   0.855   0.968  10.796  0.2919  0.0315  0.6268
  676MPD2    H110057   1.196   0.883  10.569  2.8788  2.2437 -0.4816
  676MPD2    H210058   1.056   1.283  10.572 -1.3217  0.8856 -1.2494
  676MPD2    H310059   1.226   1.131  10.512 -0.7696  0.6820 -0.6724
  676MPD2     N10060   1.040   0.783  10.745 -0.1489  0.4212 -0.3560
  676MPD2    H510061   1.113   0.725  10.707 -1.1454 -0.5748 -0.7576
  676MPD2    N110062   0.844   1.210  10.760 -0.3203 -0.2573 -0.3632
  676MPD2    H710063   0.769   1.158  10.804  0.8782 -0.3658  1.5593
  677TMC3    C110064   0.722   1.388  10.851  0.6157 -1.2678 -0.3615
  677TMC3    C210065   0.643   1.293  10.908  0.6486 -0.2539 -0.9969
  677TMC3    C310066   0.572   1.330  11.013  0.4483  0.1524 -0.1818
  677TMC3    C410067   0.725   1.520  10.893 -0.0727 -0.4632 -0.3436
  677TMC3    C510068   0.646   1.547  11.004 -0.3860  0.5459 -0.1563
  677TMC3    C610069   0.561   1.458  11.053 -0.1574 -0.3170 -0.5657
  677TMC3     C10070   0.829   1.350  10.760  0.9458 -0.9105  0.6122
  677TMC3     O10071   0.884   1.435  10.688 -0.8328 -0.4076 -0.4288
  677TMC3     H10072   0.644   1.188  10.881 -1.7278  0.2806 -3.1424
  677TMC3    H110073   0.782   1.600  10.846  0.7501  0.2851  1.9464
  677TMC3    H210074   0.497   1.487  11.135  0.6205 -0.3198  0.0400
  677TMC3    C710075   0.675   1.650  11.091 -0.8105  1.0492 -0.0801
  677TMC3    C810076   0.556   1.232  11.116 -0.3592 -0.5320  0.0292
  677TMC3    O110077   0.644   1.637  11.207 -0.1620 -0.4051  0.7544
  677TMC3    O210078   0.591   1.119  11.087  0.9775 -0.2053 -0.1972
  678MPD2     C10079   2.047   0.288   1.296  0.8074 -0.5194 -0.0335
  678MPD2    C110080   2.082   0.326   1.170 -0.4952 -0.2022 -0.6600
  678MPD2    C210081   2.022   0.440   1.119 -0.1517 -0.3691  0.1732
  678MPD2    C310082   1.928   0.512   1.190  0.6579  0.2157  0.1815
  678MPD2    C410083   1.892   0.466   1.315 -0.6435  0.1079 -0.4249
  678MPD2    C510084   1.954   0.352   1.366 -0.9251  0.4432 -0.6680
  678MPD2     H10085   2.046   0.477   1.020 -0.0804 -1.6138 -0.2732
  678MPD2    H110086   1.802   0.502   1.364 -0.2092 -1.4858  1.5385
  678MPD2    H210087   2.080   0.199   1.349  1.4824 -0.1381  0.1832
  678MPD2    H310088   1.931   0.305   1.462 -0.7383  4.1335  1.1592
  678MPD2     N10089   1.861   0.623   1.126  0.0786  0.2508 -0.8779
  678MPD2    H510090   1.885   0.631   1.028 -2.2456 -0.5754 -1.5040
  678MPD2    N110091   2.163   0.248   1.085  0.1373 -0.1475 -0.1972
  678MPD2    H710092   2.173   0.275   0.987 -1.2350  0.2563 -0.2231
  679TMC3    C110093   2.449   4.689   0.866  0.3576  0.0229  0.4540
  679TMC3    C210094   2.402   0.016   0.984 -0.2346  0.2007  0.1850
  679TMC3    C310095   2.281   0.070   0.988  0.4213  0.3841 -0.6208
  679TMC3    C410096   2.364   4.687   0.754 -0.7627  0.6382  1.0557
  679TMC3    C510097   2.239   0.021   0.758 -0.3389 -0.2633  0.2196
  679TMC3    C610098   2.199   0.085   0.871 -0.2922 -0.5212  0.2766
  679TMC3     C10099   2.583   4.625   0.854 -0.5450  0.0366 -0.2539
  679TMC3     O10100   2.653   4.626   0.951  0.1425 -0.3402  0.0304
  679TMC3     H10101   2.467   0.008   1.070  0.5636  0.0382 -0.4266
  679TMC3    H110102   2.393   4.644   0.659 -1.2125  1.2389  0.6466
  679TMC3    H210103   2.108   0.144   0.869  1.2195  1.7523 -0.5877
  679TMC3    C710104   2.207   0.098   0.637 -0.2897 -0.1632  0.3285
  679TMC3    C810105   2.240   0.140   1.113  0.9643 -0.1474 -0.7442
  679TMC3    O110106   2.302   0.126   0.571 -0.0392  0.7554 -0.6187
  679TMC3    O210107   2.276   0.098   1.223 -0.3539 -0.3587 -0.1196
  680MPD2     C10108   2.338   4.360  13.626  0.0077  0.0377  0.0161
  680MPD2    C110109   2.457   4.303  13.660 -0.2067  0.7126  0.2901
  680MPD2    C210110   2.569   4.391  13.679 -0.7298 -0.7454  0.2688
  680MPD2    C310111   2.556   4.527  13.676 -0.1332 -1.1559  0.6667
  680MPD2    C410112   2.436   4.574  13.632  0.3853  0.3724  0.0242
  680MPD2    C510113   2.330   4.492  13.609  0.0971  0.6269 -0.6559
  680MPD2     H10114   2.669   4.352  13.692  0.2119  1.6605  0.2380
  680MPD2    H110115   2.431   4.682  13.620 -1.5430 -0.0271 -2.4939
  680MPD2    H210116   2.257   4.293  13.602 -1.2760  1.8567 -0.7515
  680MPD2    H310117   2.238   4.533  13.570 -1.5003 -2.6670 -0.3074
  680MPD2     N10118   2.660   4.619  13.704  0.2686 -0.3749 -0.6195
  680MPD2    H510119   2.639   4.718  13.692 -1.9696 -0.9823 -1.6818
  680MPD2    N110120   2.479   4.165  13.675 -0.4128 -0.1130 -0.3183
  680MPD2    H710121   2.568   4.122  13.697  0.0548  0.4485 -1.0954
  681TMC3    C110122   2.450   3.940  13.690 -1.4383  0.0182 -0.4002
  681TMC3    C210123   2.387   3.867  13.785  0.3821  0.0789  0.4808
  681TMC3    C310124   2.428   3.737  13.810  0.1766 -0.2987 -0.8636
  681TMC3    C410125   2.553   3.898  13.613 -0.3451 -0.5759 -0.5392
  681TMC3    C510126   2.602   3.771  13.644 -0.5726  0.0143 -0.2025
  681TMC3    C610127   2.541   3.699  13.742 -0.2930 -0.2986 -0.7150
  681TMC3     C10128   2.391   4.068  13.671 -0.2636 -0.3715 -0.4852
  681TMC3     O10129   2.273   4.076  13.659 -0.0485 -0.2531  0.1217
  681TMC3     H10130   2.301   3.913  13.831 -1.1380 -2.3035  0.0581
  681TMC3    H110131   2.584   3.959  13.528  1.7560 -0.8178  0.0502
  681TMC3    H210132   2.587   3.605  13.767 -0.6723 -0.0189  1.0050
  681TMC3    C710133   2.722   3.723  13.585  0.4325  0.7708 -0.6687
  681TMC3    C810134   2.432   3.713  13.952 -0.2134 -0.8557  0.1420
  681TMC3    O110135   2.779   3.624  13.630 -0.2087  0.2678  0.0916
  681TMC3    O210136   2.436   3.591  13.984  0.0897  0.0219 -0.1573
  682MPD2     C10137   0.381   1.236  10.288  0.2772  0.1806  0.0024
  682MPD2    C110138   0.310   1.140  10.349 -0.4297 -0.2958  1.1512
  682MPD2    C210139   0.217   1.172  10.448  1.0841 -0.0903  0.6299
  682MPD2    C310140   0.191   1.305  10.479  0.4339 -0.3961 -0.4526
  682MPD2    C410141   0.253   1.407  10.407  0.2258 -0.3584 -0.5682
  682MPD2    C510142   0.351   1.370  10.317  0.7977 -1.7803  0.2841
  682MPD2     H10143   0.167   1.096  10.507 -1.2131  1.2756  0.4406
  682MPD2    H110144   0.239   1.512  10.428  0.7820 -0.3882 -0.0294
  682MPD2    H210145   0.456   1.215  10.213 -0.9890  2.2962 -1.8335
  682MPD2    H310146   0.401   1.452  10.267  0.5148 -2.2570 -0.7773
  682MPD2     N10147   0.087   1.346  10.565  0.0609  0.4213 -0.7213
  682MPD2    H510148   0.076   1.446  10.568 -1.0731  0.3190 -1.5746
  682MPD2    N110149   0.338   1.003  10.333 -0.5017  0.0851  0.3864
  682MPD2    H710150   0.273   0.938  10.377 -1.0284  0.3290 -0.0347
  683TMC3    C110151   4.500   1.498  10.789  0.4649  0.6616 -0.1365
  683TMC3    C210152   4.395   1.419  10.815 -0.0445  0.6716 -0.7052
  683TMC3    C310153   4.413   1.290  10.795 -0.4204 -0.2130 -0.3700
  683TMC3    C410154   4.620   1.455  10.741 -0.3824 -0.2441 -0.4729
  683TMC3    C510155   4.628   1.325  10.710 -0.1380  0.2884 -0.0336
  683TMC3    C610156   4.528   1.240  10.735 -0.0429  0.1172  0.6884
  683TMC3     C10157   4.507   1.615  10.871  0.4248 -0.8678 -0.6048
  683TMC3     O10158   4.612   1.651  10.917  0.1649 -0.0298  0.4937
  683TMC3     H10159   4.310   1.443  10.878  0.6452 -0.9927  0.8412
  683TMC3    H110160   4.708   1.519  10.741 -1.5283  1.3525  0.4227
  683TMC3    H210161   4.521   1.136  10.703  2.0141  0.0230  0.5370
  683TMC3    C710162   0.008   1.264  10.643 -1.3424  0.8705 -0.1191
  683TMC3    C810163   4.366   1.217  10.915  0.2032  0.7615  0.0985
  683TMC3    O110164   0.027   1.146  10.659  0.0360  0.4155 -0.4853
  683TMC3    O210165   4.260   1.246  10.968 -0.1641  0.3498  0.0795
  684MPD2     C10166   2.937   0.169  16.255  0.9036 -0.6839  0.2285
  684MPD2    C110167   2.944   0.188  16.118  0.4758 -0.4121 -0.8965
  684MPD2    C210168   2.959   0.319  16.072  0.3475  0.5098 -0.2714
  684MPD2    C310169   2.989   0.425  16.158 -0.0862  0.3848 -0.2688
  684MPD2    C410170   2.996   0.399  16.292 -0.5787 -0.2488 -0.4825
  684MPD2    C510171   2.957   0.278  16.339  0.1759  0.2339  0.2468
  684MPD2     H10172   2.966   0.340  15.965  0.0085 -0.3456 -0.4575
  684MPD2    H110173   3.018   0.480  16.360 -0.2622  0.7400 -1.7488
  684MPD2    H210174   2.923   0.071  16.297 -0.2873 -0.0894  1.2085
  684MPD2    H310175   2.943   0.262  16.446  1.0010 -1.9144  0.0391
  684MPD2     N10176   3.042   0.543  16.111 -0.2918 -0.3302  0.6714
  684MPD2    H510177   3.092   0.598  16.181  1.8730 -1.2548 -0.1436
  684MPD2    N110178   2.944   0.070  16.029 -0.3984  0.7343 -0.1225
  684MPD2    H710179   2.931   0.085  15.930  0.3864 -0.4995 -0.4112
  685TMC3    C110180   2.957   4.587  15.936 -0.4461  0.1039  0.4491
  685TMC3    C210181   2.887   4.636  15.825 -0.1754 -0.4640 -0.6971
  685TMC3    C310182   2.944   4.624  15.700  0.5997  0.0973  0.8711
  685TMC3    C410183   3.080   4.528  15.914  0.7095 -0.4168  0.1469
  685TMC3    C510184   3.129   4.514  15.787  0.1362  0.2020 -0.1512
  685TMC3    C610185   3.063   4.560  15.678 -0.0456  0.1743  0.1869
  685TMC3     C10186   2.965   4.673  16.059  1.0107 -0.0320  0.0575
  685TMC3     O10187   3.007   4.622  16.160 -0.4555  0.0346  0.2177
  685TMC3     H10188   2.796   4.693  15.840 -0.1386 -0.6875  0.3383
  685TMC3    H110189   3.141   4.500  15.999 -0.0248 -0.8202  0.5442
  685TMC3    H210190   3.110   4.539  15.582  1.1041 -0.3607  0.8648
  685TMC3    C710191   3.275   4.510  15.782 -0.1244  0.0553 -0.2001
  685TMC3    C810192   2.850   4.616  15.585 -0.4029 -0.4284 -0.0253
  685TMC3    O110193   3.331   4.440  15.870 -0.4516 -0.4663 -0.2403
  685TMC3    O210194   2.878   4.542  15.495 -0.2489 -0.2448  0.2351
  686MPD2     C10195   4.321   0.058  15.240  0.8274 -0.2604  0.7777
  686MPD2    C110196   4.369   0.001  15.353  0.9028 -0.3821 -0.2620
  686MPD2    C210197   4.495   4.669  15.351  0.5641  0.1061  0.0477
  686MPD2    C310198   4.559   4.650  15.229 -0.6006  0.5973 -0.0035
  686MPD2    C410199   4.506   4.714  15.113  0.8454  0.0116  0.0270
  686MPD2    C510200   4.387   0.050  15.119  0.0562 -0.1188 -0.5429
  686MPD2     H10201   4.540   4.639  15.445  3.4555  2.0248 -0.6937
  686MPD2    H110202   4.554   4.703  15.017 -0.2552  1.4461 -0.6850
  686MPD2    H210203   4.226   0.111  15.238  0.2255 -1.3678  0.2336
  686MPD2    H310204   4.353   0.101  15.030  0.0993  2.1771  0.7561
  686MPD2     N10205   4.688   4.588  15.208  0.2623 -0.7479 -0.0486
  686MPD2    H510206   4.714   4.583  15.110 -1.7852 -2.1399 -0.5036
  686MPD2    N110207   4.273   4.720  15.455  0.3157 -0.0433  0.1113
  686MPD2    H710208   4.181   0.025  15.433  0.0970 -0.7054 -0.1263
  687TMC3    C110209   4.718   4.471  15.431  0.5327  0.0189  0.6966
  687TMC3    C210210   4.627   4.372  15.403  0.5504  0.6198 -0.2279
  687TMC3    C310211   4.595   4.286  15.506 -0.2171 -0.5336  0.8191
  687TMC3    C410212   0.045   4.493  15.549  0.3287  0.0049 -0.1682
  687TMC3    C510213   0.015   4.404  15.652  0.1002 -0.2443  0.6827
  687TMC3    C610214   4.653   4.303  15.630 -0.4932 -0.2206  0.0187
  687TMC3     C10215   0.048   4.541  15.308 -0.1773  0.0649  0.1379
  687TMC3     O10216   0.172   4.522  15.300 -0.4211  0.5373 -0.3072
  687TMC3     H10217   4.592   4.355  15.302 -1.5830  0.5152  0.5469
  687TMC3    H110218   0.124   4.567  15.551  0.0951  0.2967 -1.7053
  687TMC3    H210219   4.634   4.233  15.709 -0.9147 -0.5492 -0.3742
  687TMC3    C710220   0.029   4.457  15.788  1.0419 -0.3499 -0.2723
  687TMC3    C810221   4.458   4.240  15.513 -0.1916 -0.0547 -0.2096
  687TMC3    O110222   0.058   4.574  15.806 -0.4378 -0.3668  0.0635
  687TMC3    O210223   4.428   4.175  15.608 -0.6911 -0.6185  0.1395
  688MPD2     C10224   3.081   3.553  17.295  0.2950  0.4863  0.1095
  688MPD2    C110225   3.141   3.497  17.409  0.3065 -0.2031  0.8156
  688MPD2    C210226   3.277   3.499  17.415 -0.7540 -0.2175 -0.0528
  688MPD2    C310227   3.353   3.534  17.305  0.4296  0.2933 -0.1929
  688MPD2    C410228   3.297   3.594  17.196 -0.7901 -0.4726 -0.7663
  688MPD2    C510229   3.159   3.603  17.194 -0.4448  0.0649 -0.1565
  688MPD2     H10230   3.335   3.454  17.496 -0.1898  1.2315  0.3512
  688MPD2    H110231   3.369   3.621  17.120 -0.5764  1.7520  0.2045
  688MPD2    H210232   2.972   3.556  17.293  0.2459 -1.7278 -0.2320
  688MPD2    H310233   3.114   3.667  17.119 -0.8291 -1.7682 -1.5035
  688MPD2     N10234   3.490   3.504  17.284 -0.0409 -0.1108  0.5248
  688MPD2    H510235   3.536   3.560  17.214 -0.7925  0.0079  0.1295
  688MPD2    N110236   3.067   3.464  17.520  0.2264  0.2488  0.2480
  688MPD2    H710237   3.104   3.445  17.613  1.5445 -1.6889 -0.6646
  689TMC3    C110238   2.893   3.436  17.660 -0.0382  0.0285  0.7277
  689TMC3    C210239   2.947   3.525   0.020 -0.1719  0.2411  0.1451
  689TMC3    C310240   2.901   3.531   0.146  0.5571  0.1158 -0.8561
  689TMC3    C410241   2.811   3.329  17.701 -0.3883  0.6234  0.0209
  689TMC3    C510242   2.766   3.338   0.103  0.0133 -0.3464 -0.0287
  689TMC3    C610243   2.806   3.438   0.184  0.4240  0.7283 -0.5883
  689TMC3     C10244   2.935   3.438  17.522  0.6024  0.4750 -0.3918
  689TMC3     O10245   2.865   3.390  17.431 -0.2266 -0.1962 -0.1997
  689TMC3     H10246   3.020   3.601  17.724 -0.0360  0.1910  0.3844
  689TMC3    H110247   2.782   3.256  17.626 -2.6558  2.3313 -0.7865
  689TMC3    H210248   2.769   3.443   0.285  1.2014 -0.5231 -0.2403
  689TMC3    C710249   2.733   3.220   0.182 -0.4524  0.5779  0.6345
  689TMC3    C810250   2.928   3.644   0.235  0.0590  0.4131  0.3358
  689TMC3    O110251   2.733   3.219   0.304 -0.0462  0.2784 -0.1270
  689TMC3    O210252   2.853   3.653   0.332 -0.0032  0.0902 -0.2040
  690MPD2     C10253   1.573   1.011  15.793 -0.1178 -0.5988  0.2019
  690MPD2    C110254   1.540   0.887  15.742 -0.6751 -0.4054  0.0555
  690MPD2    C210255   1.643   0.808  15.696  0.0491 -0.2886 -0.0958
  690MPD2    C310256   1.771   0.853  15.678 -0.5558  0.8952 -0.0338
  690MPD2    C410257   1.804   0.976  15.727 -0.5218 -0.5486 -0.5070
  690MPD2    C510258   1.700   1.053  15.787  0.4439  0.1665  0.9093
  690MPD2     H10259   1.613   0.708  15.668  1.5094 -1.1006  1.1889
  690MPD2    H110260   1.907   1.010  15.724 -1.2043  1.3802 -1.8346
  690MPD2    H210261   1.506   1.083  15.838  1.8572  0.3517  1.6034
  690MPD2    H310262   1.731   1.144  15.838  1.1246  1.6198 -2.1064
  690MPD2     N10263   1.867   0.777  15.600  0.5296 -0.4188 -0.4214
  690MPD2    H510264   1.820   0.699  15.556 -0.5767  1.4240 -2.4997
  690MPD2    N110265   1.413   0.832  15.743 -0.5024  0.1200  0.4107
  690MPD2    H710266   1.402   0.733  15.723 -0.5809  0.1875  0.1204
  691TMC3    C110267   1.190   0.821  15.803  0.4925  0.0979 -0.4710
  691TMC3    C210268   1.063   0.882  15.800 -0.2997  0.0138  0.8256
  691TMC3    C310269   0.966   0.805  15.851 -1.2656 -0.2690  0.0322
  691TMC3    C410270   1.210   0.688  15.828  0.6995 -0.4936  0.2472
  691TMC3    C510271   1.107   0.611  15.881 -0.0670 -0.0267  0.0804
  691TMC3    C610272   0.988   0.675  15.897 -0.1521  0.6887 -0.2051
  691TMC3     C10273   1.302   0.906  15.771  0.1121 -0.0801  0.1551
  691TMC3     O10274   1.296   1.027  15.772  0.4729  0.0139  0.6833
  691TMC3     H10275   1.046   0.989  15.790 -1.5111 -0.2580  0.0819
  691TMC3    H110276   1.311   0.648  15.826  0.1051 -1.9457 -1.4328
  691TMC3    H210277   0.902   0.624  15.938  1.1901 -2.9394 -1.9483
  691TMC3    C710278   1.138   0.482  15.919  0.1454  0.5832  0.4344
  691TMC3    C810279   0.847   0.872  15.909 -0.3257  0.4719 -0.2249
  691TMC3    O110280   1.253   0.447  15.952 -0.2189 -0.1042 -0.4708
  691TMC3    O210281   0.796   0.822  16.011 -0.2729 -0.0960 -0.3552
  692TMC3    C110282   2.896   1.918  15.968 -0.8480 -0.0103  0.3068
  692TMC3    C210283   2.975   1.879  16.072  0.3973 -0.2540 -0.1259
  692TMC3    C310284   3.090   1.813  16.047 -0.3488 -0.1615 -0.1814
  692TMC3    C410285   2.923   1.878  15.840  0.4920  0.4460 -0.0462
  692TMC3    C510286   3.007   1.780  15.830 -0.0432 -0.4348 -0.6664
  692TMC3    C610287   3.099   1.749  15.927  0.4598  0.0815  1.0146
  692TMC3     C10288   2.753   1.897  15.999 -0.9409  0.2963 -0.3348
  692TMC3     O10289   2.710   1.937  16.106 -0.1125 -0.9815  0.3174
  692TMC3     H10290   2.976   1.933  16.166  0.8909 -1.4667  0.5693
  692TMC3    H110291   2.860   1.911  15.758 -1.6512 -1.0170  1.0269
  692TMC3    H210292   3.196   1.714  15.893 -0.8862 -3.3447  0.7211
  692TMC3    C710293   2.956   1.681  15.741  0.4061  0.6830  0.1802
  692TMC3    C810294   3.130   1.727  16.153 -0.9063 -0.2281 -0.1182
  692TMC3    O110295   2.846   1.695  15.689  0.3275 -0.1117  0.0538
  692TMC3    O210296   3.224   1.659  16.126 -0.2017 -0.4636 -0.2219
  693MPD2     C10297   1.712   0.176  11.401 -0.2827 -0.2888  0.1583
  693MPD2    C110298   1.743   0.067  11.326 -0.2894  0.5314  0.6407
  693MPD2    C210299   1.869   0.037  11.294  0.1417 -0.2832  0.1921
  693MPD2    C310300   1.976   0.111  11.342 -0.5683  0.0478  0.3799
  693MPD2    C410301   1.944   0.211  11.430 -0.0971 -0.5175 -0.4379
  693MPD2    C510302   1.815   0.242  11.459  0.5316  0.4791 -1.2789
  693MPD2     H10303   1.883   4.687  11.224  1.5938 -1.3358  1.7029
  693MPD2    H110304   2.025   0.269  11.474  2.4817 -2.0124 -3.1891
  693MPD2    H210305   1.611   0.204  11.427 -0.1361  1.1145 -0.7685
  693MPD2    H310306   1.789   0.322  11.528  2.8354 -0.3188  0.5055
  693MPD2     N10307   2.109   0.087  11.294 -0.1814  0.1932 -0.8438
  693MPD2    H510308   2.179   0.153  11.326 -1.8923  1.1543  0.9371
  693MPD2    N110309   1.633   4.722  11.288  0.0829 -0.0498 -0.0432
  693MPD2    H710310   1.552   4.727  11.348  0.8275  1.4766  0.8338
  694TMC3    C110311   1.517   4.535  11.222  0.0709 -0.5341  1.0026
  694TMC3    C210312   1.476   4.464  11.114  0.5693  0.4428 -0.2832
  694TMC3    C310313   1.392   4.359  11.138 -0.0505  0.0014 -0.2082
  694TMC3    C410314   1.489   4.493  11.346 -0.3592  0.1404  0.1020
  694TMC3    C510315   1.412   4.387  11.368  0.0000  0.2641 -0.0094
  694TMC3    C610316   1.358   4.319  11.265 -0.0920  0.7927 -0.4023
  694TMC3     C10317   1.627   4.627  11.195 -0.4359  0.2461 -1.0624
  694TMC3     O10318   1.696   4.608  11.093 -0.4287 -0.1697 -0.0322
  694TMC3     H10319   1.495   4.498  11.012  0.6615 -1.1767 -0.8123
  694TMC3    H110320   1.547   4.530  11.430 -1.2545  1.2204  0.2354
  694TMC3    H210321   1.279   4.247  11.281  0.7955  0.1760  1.2976
  694TMC3    C710322   1.374   4.364  11.504 -0.0357  0.7904 -0.1925
  694TMC3    C810323   1.349   4.268  11.033 -0.6261  0.2708  0.7044
  694TMC3    O110324   1.392   4.453  11.590  0.2001  0.3161  0.4796
  694TMC3    O210325   1.242   4.214  11.050 -0.2700 -0.9098  0.2727
  695MPD2     C10326   3.386   1.851  13.522  0.0599  0.5118  0.7075
  695MPD2    C110327   3.392   1.843  13.662  0.1047  0.5437 -0.2116
  695MPD2    C210328   3.268   1.848  13.728  0.2184  0.4598  0.3592
  695MPD2    C310329   3.147   1.865  13.659  0.4131 -0.4317 -0.6098
  695MPD2    C410330   3.140   1.864  13.522  0.0660 -0.2566 -0.1198
  695MPD2    C510331   3.263   1.854  13.461  0.4456 -0.1073 -0.0062
  695MPD2     H10332   3.258   1.839  13.835 -0.7082 -3.4251 -0.0387
  695MPD2    H110333   3.051   1.873  13.461 -0.3501  2.1772  0.8352
  695MPD2    H210334   3.478   1.835  13.467  0.3560  2.2194  0.6980
  695MPD2    H310335   3.269   1.853  13.353  0.8984 -1.1582  0.0357
  695MPD2     N10336   3.032   1.858  13.738 -0.1842  0.5511 -0.4621
  695MPD2    H510337   3.049   1.854  13.838 -0.2729  0.8588 -0.4357
  695MPD2    N110338   3.511   1.819  13.739 -0.2178  0.5730 -0.7939
  695MPD2    H710339   3.500   1.824  13.840  2.5695 -2.0666 -0.3852
  696TMC3    C110340   2.809   1.824  13.797 -0.0736 -0.3474  1.0109
  696TMC3    C210341   2.848   1.785  13.923 -0.3221 -0.2470  0.6758
  696TMC3    C310342   2.762   1.801  14.028  0.0932 -0.0646  0.0380
  696TMC3    C410343   2.674   1.854  13.772 -0.4446 -0.1816 -0.1586
  696TMC3    C510344   2.596   1.868  13.879  0.2043 -0.1588 -0.3084
  696TMC3    C610345   2.641   1.854  14.010 -0.0260 -0.6787  0.0788
  696TMC3     C10346   2.903   1.858  13.695  0.5022  0.5764 -0.3011
  696TMC3     O10347   2.861   1.907  13.591 -0.0086 -0.0084 -0.2122
  696TMC3     H10348   2.949   1.752  13.944 -0.0607 -0.8344 -1.5645
  696TMC3    H110349   2.629   1.902  13.686  0.0842 -0.0672 -0.3736
  696TMC3    H210350   2.572   1.825  14.088  0.9613 -2.0819  0.4391
  696TMC3    C710351   2.493   1.966  13.871 -1.1753 -0.0626  0.1374
  696TMC3    C810352   2.802   1.811  14.168  0.7694 -0.0299 -0.2374
  696TMC3    O110353   2.426   1.992  13.771  0.2909  0.3602 -0.2512
  696TMC3    O210354   2.740   1.899  14.222 -0.1655 -0.1709  0.3215
  697MPD2     C10355   2.199   3.589  15.376  0.3753  0.2629  0.7512
  697MPD2    C110356   2.196   3.510  15.268 -0.2452  0.3481  0.2261
  697MPD2    C210357   2.208   3.572  15.145  0.0832  0.1740  0.2344
  697MPD2    C310358   2.198   3.705  15.129 -0.3911 -0.5647 -0.5240
  697MPD2    C410359   2.191   3.790  15.242 -0.3617 -0.0225 -0.4891
  697MPD2    C510360   2.199   3.731  15.370  0.1122 -0.6197 -0.8010
  697MPD2     H10361   2.205   3.505  15.060 -0.1943 -0.2131  0.5462
  697MPD2    H110362   2.179   3.898  15.240 -2.2157 -0.2425 -2.5569
  697MPD2    H210363   2.208   3.540  15.473  3.5958 -2.0186 -0.7227
  697MPD2    H310364   2.182   3.792  15.458 -0.9956  0.1183 -1.5142
  697MPD2     N10365   2.194   3.755  14.996 -0.1154 -0.3022  0.0403
  697MPD2    H510366   2.193   3.688  14.920 -1.0648  1.3774 -1.4162
  697MPD2    N110367   2.180   3.366  15.267 -0.1602  0.1537  0.1055
  697MPD2    H710368   2.189   3.335  15.171  1.1094  0.1611  0.2236
  698TMC3    C110369   2.247   3.898  14.818 -0.7975 -0.1663  0.5103
  698TMC3    C210370   2.296   4.021  14.785  0.7157 -0.0455 -0.3396
  698TMC3    C310371   2.312   4.036  14.651 -0.6496  0.0463  0.1652
  698TMC3    C410372   2.222   3.792  14.732  0.4747 -0.5167 -0.2527
  698TMC3    C510373   2.232   3.821  14.605  0.1231  0.1918 -0.1523
  698TMC3    C610374   2.287   3.940  14.555  0.2811 -0.0413  0.2400
  698TMC3     C10375   2.208   3.891  14.959  0.1261 -1.1201 -1.0116
  698TMC3     O10376   2.215   3.988  15.032  0.1977  0.2372 -0.3317
  698TMC3     H10377   2.304   4.110  14.846 -2.0165 -1.1019  1.5295
  698TMC3    H110378   2.184   3.696  14.766  0.8982 -0.2980  0.8306
  698TMC3    H210379   2.289   3.965  14.450  1.4079 -1.1695 -0.0109
  698TMC3    C710380   2.207   3.715  14.509 -0.1883  0.2052 -0.3605
  698TMC3    C810381   2.337   4.168  14.597  0.6395 -0.2519 -0.4068
  698TMC3    O110382   2.185   3.598  14.558  0.1936  0.0744 -0.1658
  698TMC3    O210383   2.278   4.203  14.495  0.0448 -0.1561 -0.0233
  699TMC3    C110384   1.671   1.669  12.815 -0.4201 -0.3871 -0.2890
  699TMC3    C210385   1.782   1.638  12.892  0.4735 -0.4039 -0.6776
  699TMC3    C310386   1.759   1.563  13.005  0.2322 -0.6727  0.3507
  699TMC3    C410387   1.547   1.622  12.855  0.2161  0.3823  0.4604
  699TMC3    C510388   1.528   1.549  12.974 -0.3536 -0.5862  0.1173
  699TMC3    C610389   1.639   1.524  13.053  0.1130  0.6692 -0.5823
  699TMC3     C10390   1.691   1.753  12.700  0.7923  0.2168 -0.3086
  699TMC3     O10391   1.590   1.767  12.625  0.3941  0.1052 -0.5256
  699TMC3     H10392   1.881   1.647  12.850  0.9563 -0.9635  0.3434
  699TMC3    H110393   1.460   1.622  12.791  1.4599 -3.3215 -1.2208
  699TMC3    H210394   1.634   1.455  13.136  0.1654 -0.5832 -1.6246
  699TMC3    C710395   1.403   1.561  13.051 -0.1537  0.4095 -0.2374
  699TMC3    C810396   1.876   1.525  13.083  0.4231 -0.5199 -0.3533
  699TMC3    O110397   1.403   1.502  13.160 -0.3050  0.8952  0.1246
  699TMC3    O210398   1.857   1.475  13.194  0.6226  0.0671  0.1704
  700TMC3    C110399   1.653   3.543  16.792 -0.5932  0.4406 -0.1014
  700TMC3    C210400   1.724   3.435  16.832  0.0012  0.0915 -0.2711
  700TMC3    C310401   1.714   3.389  16.961  0.1775 -0.4455  0.0937
  700TMC3    C410402   1.567   3.604  16.880 -0.0950 -0.0446  0.1400
  700TMC3    C510403   1.565   3.572  17.014 -0.2722  0.7213  0.5592
  700TMC3    C610404   1.635   3.463  17.055 -0.6160  0.4664  0.6299
  700TMC3     C10405   1.663   3.597  16.658 -0.2075  0.5453  0.4699
  700TMC3     O10406   1.684   3.518  16.566 -0.4336  0.1684  0.2535
  700TMC3     H10407   1.785   3.386  16.756  0.9043 -1.1356  1.2411
  700TMC3    H110408   1.504   3.686  16.846 -1.1597  0.0374  2.2796
  700TMC3    H210409   1.643   3.446  17.162  2.9454  0.3239  0.3618
  700TMC3    C710410   1.547   3.674  17.119 -0.6313  0.3924  0.2560
  700TMC3    C810411   1.807   3.300  17.018  1.1785  0.4670  0.2731
  700TMC3    O110412   1.614   3.670  17.219  0.1239 -0.0767  0.4550
  700TMC3    O210413   1.790   3.265  17.136 -0.3093  0.0193 -0.1863
  701TMC3    C110414   1.610   2.527  15.703 -0.2202  0.4163  0.4988
  701TMC3    C210415   1.621   2.431  15.603  0.0110  0.1558  0.4809
  701TMC3    C310416   1.687   2.482  15.485 -0.4489 -0.4522 -0.2375
  701TMC3    C410417   1.660   2.653  15.697  0.1025 -0.6202 -0.3865
  701TMC3    C510418   1.727   2.692  15.588 -0.5772 -0.1604  0.6745
  701TMC3    C610419   1.740   2.610  15.484  0.2900 -0.3368  0.4937
  701TMC3     C10420   1.540   2.487  15.825  0.2593 -0.4096  0.2695
  701TMC3     O10421   1.541   2.574  15.914  0.3464 -0.3174  0.8833
  701TMC3     H10422   1.612   2.323  15.611  2.9057 -0.1876 -1.0552
  701TMC3    H110423   1.655   2.722  15.781 -1.1905  0.9570 -1.7701
  701TMC3    H210424   1.777   2.639  15.386  0.9602 -1.4420  0.4163
  701TMC3    C710425   1.765   2.829  15.562 -0.2637 -0.1078 -0.6464
  701TMC3    C810426   1.686   2.413  15.360 -0.3874 -0.1929  0.3574
  701TMC3    O110427   1.799   2.852  15.447  0.1878 -0.3822  0.7557
  701TMC3    O210428   1.752   2.472  15.272  0.0871  0.0214  0.0734
  702MPD2     C10429   1.296   0.290  10.518 -0.3419 -0.1855  0.3569
  702MPD2    C110430   1.185   0.367  10.554  0.4806  0.1690  0.0491
  702MPD2    C210431   1.127   0.450  10.456  0.3217 -0.3409  0.1275
  702MPD2    C310432   1.170   0.459  10.328 -0.3593 -0.7809 -1.0709
  702MPD2    C410433   1.277   0.376  10.290  0.6403 -0.1191  0.4993
  702MPD2    C510434   1.332   0.293  10.385  0.3778  0.5461 -0.1099
  702MPD2     H10435   1.049   0.521  10.483 -0.0796 -0.7062 -0.0558
  702MPD2    H110436   1.320   0.382  10.191  1.8549 -2.3881  0.8879
  702MPD2    H210437   1.341   0.223  10.591 -0.6585 -0.0239  0.7016
  702MPD2    H310438   1.421   0.242  10.352  0.1760  1.6899 -2.4355
  702MPD2     N10439   1.123   0.556  10.240  0.0570 -0.1899 -0.0652
  702MPD2    H510440   1.179   0.572  10.157 -0.5652 -0.5436 -0.5563
  702MPD2    N110441   1.145   0.406  10.684  0.2138 -0.3103 -0.0665
  702MPD2    H710442   1.077   0.480  10.695  0.0562 -0.5623  0.6179
  703TMC3    C110443   1.013   0.761  10.179 -0.1305 -0.4073  0.1903
  703TMC3    C210444   0.886   0.821  10.193 -0.3966  0.1737 -0.4479
  703TMC3    C310445   0.868   0.960  10.226  0.1805 -0.1221  0.7247
  703TMC3    C410446   1.122   0.842  10.199  0.4928  0.8114  0.2001
  703TMC3    C510447   1.100   0.972  10.213  0.1540  0.0066 -0.0521
  703TMC3    C610448   0.979   1.037  10.237  1.1049 -0.1520 -0.7237
  703TMC3     C10449   1.010   0.640  10.258 -0.5966  0.3024 -0.4557
  703TMC3     O10450   0.927   0.647  10.345 -0.0014  0.2333  0.3411
  703TMC3     H10451   0.798   0.763  10.168  1.3847 -1.8134 -2.1946
  703TMC3    H110452   1.221   0.806  10.170  0.2475  0.1559  0.1719
  703TMC3    H210453   0.967   1.137  10.276  0.4750  0.7718 -3.2654
  703TMC3    C710454   1.212   1.058  10.242 -0.7142  0.2298 -0.0509
  703TMC3    C810455   0.783   0.979  10.342 -0.1599 -0.6411  0.2876
  703TMC3    O110456   1.308   0.994  10.288 -0.3328 -0.0958 -0.0438
  703TMC3    O210457   0.719   1.081  10.350 -0.0504 -0.3102 -0.4490
  704TMC3    C110458   3.755   3.462  12.563 -0.5431  0.2505  0.1800
  704TMC3    C210459   3.799   3.429  12.434 -0.1234 -0.4437  0.5706
  704TMC3    C310460   3.811   3.296  12.401  0.0011  0.3225 -0.2782
  704TMC3    C410461   3.777   3.374  12.663  0.4055 -0.7608  0.4825
  704TMC3    C510462   3.814   3.246  12.627 -0.5380  0.7211  0.0697
  704TMC3    C610463   3.828   3.204  12.495 -0.3614 -0.0046  0.1121
  704TMC3     C10464   3.618   3.511  12.562  0.4743  0.3983 -0.3528
  704TMC3     O10465   3.559   3.527  12.668  0.0197  0.3082  0.1854
  704TMC3     H10466   3.782   3.504  12.358 -0.1369 -1.6531 -0.6418
  704TMC3    H110467   3.753   3.397  12.766  0.4498  0.0660  0.3082
  704TMC3    H210468   3.853   3.102  12.468  2.4715  0.8676 -0.5855
  704TMC3    C710469   3.751   3.149  12.705  0.2155  0.4160  0.5757
  704TMC3    C810470   3.741   3.245  12.283 -0.1276  0.3526  0.0537
  704TMC3    O110471   3.635   3.163  12.731 -0.2023  0.3800 -0.0300
  704TMC3    O210472   3.671   3.144  12.299 -0.3809  0.4022  0.0522
  705MPD2     C10473   3.151   1.057  16.725  0.1441  0.6472 -0.2260
  705MPD2    C110474   3.112   1.183  16.750  0.2893 -0.0669 -0.2664
  705MPD2    C210475   2.994   1.203  16.811  0.1481  0.0572  0.1162
  705MPD2    C310476   2.911   1.095  16.841  0.9160 -0.0974 -0.0927
  705MPD2    C410477   2.940   0.969  16.802 -0.0853  0.2019 -0.2723
  705MPD2    C510478   3.066   0.948  16.750 -0.1174  0.0430 -0.5686
  705MPD2     H10479   2.968   1.306  16.835 -2.7513 -0.7907  0.7096
  705MPD2    H110480   2.886   0.877  16.821 -0.3919  0.1392 -1.4760
  705MPD2    H210481   3.252   1.032  16.695 -0.6529 -0.5245 -1.9396
  705MPD2    H310482   3.105   0.849  16.732 -1.0800 -0.4423  0.0344
  705MPD2     N10483   2.779   1.117  16.889  1.0367  0.1128  0.5040
  705MPD2    H510484   2.715   1.039  16.882 -0.2978  1.0907  1.6406
  705MPD2    N110485   3.180   1.302  16.712 -0.1177  0.3814  0.1476
  705MPD2    H710486   3.142   1.393  16.737 -1.1878 -0.4306  1.4772
  706TMC3    C110487   3.449   1.556  16.441  0.3903  0.3192 -1.1343
  706TMC3    C210488   3.391   1.673  16.485  0.3689 -0.0216  0.6861
  706TMC3    C310489   3.299   1.663  16.579  0.4295 -0.3696 -0.8520
  706TMC3    C410490   3.417   1.433  16.476 -0.0434 -0.0412 -0.4505
  706TMC3    C510491   3.316   1.436  16.573 -0.1215 -0.9796 -0.6374
  706TMC3    C610492   3.259   1.547  16.631 -0.3743  0.6757  0.3962
  706TMC3     C10493   3.559   1.573  16.351 -0.7351 -0.5532  0.4317
  706TMC3     O10494   3.631   1.671  16.364  0.6780  0.1711 -0.1704
  706TMC3     H10495   3.399   1.767  16.431  2.6822 -1.1432 -0.9141
  706TMC3    H110496   3.469   1.343  16.446  0.3438 -0.3925  1.2755
  706TMC3    H210497   3.177   1.539  16.700 -0.8845 -0.4050 -0.3388
  706TMC3    C710498   3.291   1.302  16.632  0.2407  0.3005 -0.7947
  706TMC3    C810499   3.242   1.786  16.636  0.1928  0.2675  0.4794
  706TMC3    O110500   3.344   1.207  16.575  0.4451  0.1291  0.3176
  706TMC3    O210501   3.256   1.896  16.582 -0.3498  0.3161 -0.6106
  707TMC3    C110502   4.392   0.044  17.365 -0.1054  0.2734  0.3664
  707TMC3    C210503   4.351   0.101  17.485  0.0953 -0.4203  0.2303
  707TMC3    C310504   4.234   0.175  17.484  0.8267  0.4507  0.7120
  707TMC3    C410505   4.303   0.041  17.259  0.1535 -0.7745 -0.9920
  707TMC3    C510506   4.181   0.109  17.267 -0.6001  0.1079  0.2729
  707TMC3    C610507   4.150   0.178  17.378  0.2900  0.1558  0.2099
  707TMC3     C10508   4.505   4.679  17.356  0.2424  0.4495  0.1871
  707TMC3     O10509   4.486   4.579  17.291 -0.7591  0.3302 -0.0472
  707TMC3     H10510   4.422   0.092  17.566 -1.0411  1.1028  1.3905
  707TMC3    H110511   4.326   4.729  17.163  2.3259 -0.0337 -0.8160
  707TMC3    H210512   4.062   0.240  17.392  1.8489  2.1096  1.4474
  707TMC3    C710513   4.086   0.080  17.155 -0.2782 -0.2232 -0.6280
  707TMC3    C810514   4.202   0.258  17.597  0.4353 -0.2990  0.2609
  707TMC3    O110515   4.132   0.034  17.052  0.0284 -0.2766  0.2990
  707TMC3    O210516   4.113   0.342  17.589 -0.2349 -0.0421 -0.1424
  708MPD2     C10517   1.237   0.829  13.211  1.0170 -0.8092 -0.1547
  708MPD2    C110518   1.230   0.711  13.279 -0.2112 -0.6929 -0.2956
  708MPD2    C210519   1.312   0.692  13.386 -0.1117 -0.1466 -0.7480
  708MPD2    C310520   1.411   0.780  13.419  0.4741 -0.4474 -0.0452
  708MPD2    C410521   1.418   0.903  13.343 -0.4074 -0.1305  0.6371
  708MPD2    C510522   1.320   0.928  13.250  0.0662  0.0987  0.2034
  708MPD2     H10523   1.308   0.605  13.452 -0.7696 -1.9468 -3.1553
  708MPD2    H110524   1.497   0.975  13.358 -0.2872  0.0412 -0.8363
  708MPD2    H210525   1.164   0.843  13.131  0.3518 -3.7505 -0.0809
  708MPD2    H310526   1.330   1.018  13.191  0.0554  0.3749  0.6246
  708MPD2     N10527   1.488   0.752  13.529  0.2580 -0.1011  0.1138
  708MPD2    H510528   1.467   0.660  13.565 -0.3488  1.1134  2.8392
  708MPD2    N110529   1.131   0.614  13.246  0.5343 -0.3526 -0.8499
  708MPD2    H710530   1.068   0.640  13.171 -1.7172 -2.5249  0.2934
  709TMC3    C110531   1.006   0.410  13.256  0.0738  0.9519 -0.2681
  709TMC3    C210532   0.901   0.493  13.229  0.5828 -1.0396 -0.7147
  709TMC3    C310533   0.782   0.479  13.299 -0.4337 -0.4765  0.4567
  709TMC3    C410534   0.982   0.311  13.347 -0.6230 -0.1915  0.5491
  709TMC3    C510535   0.874   0.303  13.431 -1.0414  0.1639 -0.1222
  709TMC3    C610536   0.772   0.390  13.405 -0.6397  0.2345 -0.0052
  709TMC3     C10537   1.123   0.484  13.294  0.5981  0.7390 -0.6600
  709TMC3     O10538   1.189   0.434  13.382 -0.2002 -0.3476  0.5019
  709TMC3     H10539   0.908   0.549  13.137 -1.6503 -1.6745 -1.2687
  709TMC3    H110540   1.061   0.237  13.358  1.4691  1.7354 -1.5250
  709TMC3    H210541   0.680   0.386  13.462  0.1108  3.2364  1.4265
  709TMC3    C710542   0.899   0.260  13.563  0.1452  0.1995 -0.3292
  709TMC3    C810543   0.689   0.591  13.312  0.1685 -0.7223 -1.2218
  709TMC3    O110544   0.803   0.268  13.641  0.6294 -0.2407  0.1973
  709TMC3    O210545   0.601   0.587  13.395 -0.1647  0.1227  0.4645
  710TMC3    C110546   2.395   0.821   0.166  0.2255 -0.4581 -0.2163
  710TMC3    C210547   2.508   0.797   0.094 -0.4273  0.6821  0.1072
  710TMC3    C310548   2.559   0.671   0.100 -0.1562 -0.8695  0.1291
  710TMC3    C410549   2.323   0.719   0.229 -0.1587  0.0611  0.7415
  710TMC3    C510550   2.375   0.596   0.217 -0.9766  0.0987  0.1272
  710TMC3    C610551   2.495   0.566   0.158 -0.3402  0.0025  1.1209
  710TMC3     C10552   2.352   0.963   0.167  0.5090  0.2397 -0.0986
  710TMC3     O10553   2.405   1.039   0.080 -0.1269  0.3474  0.1900
  710TMC3     H10554   2.555   0.886   0.054  2.8430  0.3409  3.1931
  710TMC3    H110555   2.233   0.742   0.285 -0.5711  2.1626 -0.8127
  710TMC3    H210556   2.536   0.466   0.154 -1.7923 -0.6325  1.8926
  710TMC3    C710557   2.308   0.486   0.290  0.4212  0.3149  0.0386
  710TMC3    C810558   2.693   0.659   0.043 -0.0661  0.7311  0.3337
  710TMC3    O110559   2.362   0.378   0.305 -0.4550 -0.0419  0.0853
  710TMC3    O210560   2.729   0.755  17.703 -0.8782  0.0527  0.3950
  711TMC3    C110561   2.090   1.986  15.775  0.2658  1.2833  0.0384
  711TMC3    C210562   2.062   2.070  15.876 -0.2321  0.6892  0.6742
  711TMC3    C310563   2.164   2.145  15.931 -0.3410  0.0442 -0.5185
  711TMC3    C410564   2.210   1.987  15.705 -0.3066  0.2964  0.3149
  711TMC3    C510565   2.299   2.085  15.746  0.2221  0.5802 -0.4746
  711TMC3    C610566   2.279   2.166  15.855  0.2037  0.0172 -1.1024
  711TMC3     C10567   1.985   1.921  15.706 -0.3655  0.0837 -0.2769
  711TMC3     O10568   2.017   1.831  15.630 -0.4147 -0.9039  0.2008
  711TMC3     H10569   1.978   2.049  15.940 -1.4623 -2.3957 -1.9388
  711TMC3    H110570   2.222   1.919  15.621 -1.3678 -0.0786  0.4567
  711TMC3    H210571   2.357   2.238  15.878 -1.9274  1.6967  0.8748
  711TMC3    C710572   2.398   2.120  15.652  0.4194 -0.6614 -0.4686
  711TMC3    C810573   2.123   2.233  16.037  0.9620 -0.2595 -0.6368
  711TMC3    O110574   2.488   2.194  15.693  0.2272  0.3323  0.6313
  711TMC3    O210575   1.998   2.254  16.060  0.2231 -0.0411 -0.7545
  712MPD2     C10576   3.452   3.323  14.163 -0.0107 -0.0958 -0.6179
  712MPD2    C110577   3.377   3.351  14.052 -0.7545 -0.0991  0.3237
  712MPD2    C210578   3.407   3.471  13.988 -0.1328  0.2069  0.3887
  712MPD2    C310579   3.501   3.556  14.034 -0.3904 -0.5412  0.1646
  712MPD2    C410580   3.579   3.521  14.142 -0.2407 -0.1201 -0.8195
  712MPD2    C510581   3.548   3.408  14.209  0.3266  0.2755 -0.0514
  712MPD2     H10582   3.355   3.504  13.899  0.4019 -0.6157 -0.2184
  712MPD2    H110583   3.670   3.577  14.158 -1.1645  0.8330  1.0910
  712MPD2    H210584   3.445   3.231  14.219 -0.4930 -0.1633 -0.7863
  712MPD2    H310585   3.620   3.370  14.280 -0.0400 -2.0154 -0.9103
  712MPD2     N10586   3.541   3.670  13.960 -0.8399  0.5347  0.1959
  712MPD2    H510587   3.626   3.720  13.983 -1.0971  0.7773  0.6185
  712MPD2    N110588   3.285   3.262  13.995 -0.3129  0.0398 -0.2513
  712MPD2    H710589   3.247   3.292  13.906 -0.8684 -0.6920 -0.2527
  713TMC3    C110590   3.527   3.856  13.829  0.4391 -0.3781  0.9836
  713TMC3    C210591   3.662   3.849  13.807  0.5766 -0.4185  0.2791
  713TMC3    C310592   3.731   3.958  13.757 -0.7711 -0.3400  0.0794
  713TMC3    C410593   3.458   3.970  13.807 -0.2875  0.2942  0.3953
  713TMC3    C510594   3.530   4.072  13.743  0.0622  0.6493 -0.3684
  713TMC3    C610595   3.665   4.070  13.724  0.7199  0.7558  0.0113
  713TMC3     C10596   3.455   3.738  13.875 -0.2496 -0.3999  0.4645
  713TMC3     O10597   3.333   3.730  13.859  0.1598 -0.2505  0.1716
  713TMC3     H10598   3.715   3.755  13.810  2.4038  0.6305  0.7300
  713TMC3    H110599   3.351   3.982  13.823 -0.7435 -0.2155 -2.4189
  713TMC3    H210600   3.722   4.151  13.680  0.0565  0.6694 -1.0123
  713TMC3    C710601   3.475   4.204  13.737 -0.1910 -0.2189 -0.5542
  713TMC3    C810602   3.865   3.944  13.699 -0.1936 -0.4406  0.0195
  713TMC3    O110603   3.557   4.297  13.746 -0.2297  0.0471 -0.1601
  713TMC3    O210604   3.890   4.021  13.610 -0.0480  0.0356  0.0356
  714MPD2     C10605   1.209   2.269   1.482 -0.8205  0.7313  0.3084
  714MPD2    C110606   1.195   2.184   1.374  0.2573  0.6200  0.5511
  714MPD2    C210607   1.075   2.196   1.312 -0.2465  0.2036 -0.5071
  714MPD2    C310608   0.971   2.281   1.352  0.5847 -1.2962 -0.0334
  714MPD2    C410609   0.991   2.360   1.459 -0.2527 -0.2318 -0.3081
  714MPD2    C510610   1.112   2.343   1.531  0.3517  0.5654 -0.1244
  714MPD2     H10611   1.053   2.133   1.226  2.7204 -2.4245  0.6519
  714MPD2    H110612   0.916   2.419   1.510 -1.5780 -2.8093  0.7056
  714MPD2    H210613   1.297   2.256   1.545 -0.8133  1.5172  0.4652
  714MPD2    H310614   1.127   2.386   1.629  0.0755  0.9204 -0.2409
  714MPD2     N10615   0.854   2.270   1.276 -0.0730 -0.1264  0.2509
  714MPD2    H510616   0.856   2.210   1.195 -1.4991 -1.0384  0.9038
  714MPD2    N110617   1.309   2.110   1.328  0.2101  0.4085 -0.6060
  714MPD2    H710618   1.394   2.121   1.383 -0.4943 -2.3006  1.0321
  715TMC3    C110619   1.425   1.978   1.175 -0.1522  0.4439 -0.6699
  715TMC3    C210620   1.410   1.860   1.115  0.1723  0.4073  0.6838
  715TMC3    C310621   1.511   1.770   1.123  0.7714  0.9890  0.1040
  715TMC3    C410622   1.534   2.015   1.247  0.0265 -0.2692  0.0575
  715TMC3    C510623   1.632   1.919   1.264 -0.5478  0.0766 -0.5299
  715TMC3    C610624   1.628   1.800   1.196 -0.1476  0.3192 -0.7268
  715TMC3     C10625   1.298   2.013   1.236 -0.2597  0.2751 -0.2310
  715TMC3     O10626   1.194   1.964   1.196  0.1399 -0.1281  0.4724
  715TMC3     H10627   1.317   1.852   1.060  0.1020 -0.3111  0.9123
  715TMC3    H110628   1.544   2.117   1.283 -0.0616  0.0149 -0.7283
  715TMC3    H210629   1.718   1.740   1.194 -0.9474 -0.8443 -2.0453
  715TMC3    C710630   1.772   1.964   1.304  0.3660 -0.7450 -0.1937
  715TMC3    C810631   1.487   1.636   1.068 -0.1142 -0.0356  0.2671
  715TMC3    O110632   1.874   1.914   1.262 -0.1803  0.1974 -0.1488
  715TMC3    O210633   1.377   1.611   1.024  0.7953 -0.1907  0.3462
  716MPD2     C10634   1.449   0.942   9.688  0.3760  0.0065  0.2834
  716MPD2    C110635   1.355   0.872   9.622 -0.0345  0.1391 -0.6110
  716MPD2    C210636   1.353   0.738   9.627  0.0873 -0.1657 -0.1444
  716MPD2    C310637   1.438   0.663   9.698 -0.0688  0.0432  0.7659
  716MPD2    C410638   1.527   0.734   9.770 -0.7628  0.1813 -0.4916
  716MPD2    C510639   1.537   0.869   9.762 -0.2813 -0.0011  0.4743
  716MPD2     H10640   1.273   0.688   9.574 -0.6343 -1.9228  2.5775
  716MPD2    H110641   1.598   0.683   9.834 -1.7872  0.1705  0.6274
  716MPD2    H210642   1.442   1.050   9.694 -0.4228 -0.2242  3.9792
  716MPD2    H310643   1.602   0.925   9.829 -1.0995  2.4509 -0.7947
  716MPD2     N10644   1.421   0.524   9.697  0.1725  0.4029 -0.1156
  716MPD2    H510645   1.342   0.487   9.643 -0.1338 -0.3316  0.8241
  716MPD2    N110646   1.272   0.951   9.541 -0.4428 -0.2576 -0.5001
  716MPD2    H710647   1.283   1.050   9.564 -0.1736 -0.1412 -1.1042
  717TMC3    C110648   1.464   0.294   9.745 -0.7659  0.7471  0.0006
  717TMC3    C210649   1.341   0.252   9.712  0.6332 -0.2172  0.5586
  717TMC3    C310650   1.304   0.119   9.700 -0.4606  0.2894  0.3050
  717TMC3    C410651   1.559   0.200   9.780  0.2658 -0.1745 -0.4893
  717TMC3    C510652   1.523   0.069   9.765 -0.0973 -0.2531  0.1643
  717TMC3    C610653   1.404   0.023   9.716 -0.1686  0.4199  0.0301
  717TMC3     C10654   1.505   0.433   9.759 -0.1085 -0.5366 -0.2016
  717TMC3     O10655   1.608   0.460   9.810 -0.4232  0.7876 -0.4147
  717TMC3     H10656   1.268   0.332   9.706  0.1820 -0.6789 -0.1231
  717TMC3    H110657   1.647   0.236   9.832 -0.3671  1.8581 -0.8185
  717TMC3    H210658   1.382   4.649   9.723  0.3257  0.3190  0.0295
  717TMC3    C710659   1.632   4.711   9.781  0.6776  0.2011 -0.8251
  717TMC3    C810660   1.181   0.074   9.630  0.4469  0.7633 -0.5088
  717TMC3    O110661   1.708   4.726   9.875 -0.4089  0.1621  0.0156
  717TMC3    O210662   1.090   0.150   9.620 -0.1921  0.7288 -0.2438
  718MPD2     C10663   0.112   3.868  12.895 -0.1007 -0.6056 -0.7815
  718MPD2    C110664   4.721   3.905  12.836 -0.3428  0.5364 -0.0438
  718MPD2    C210665   4.648   3.811  12.763 -0.5706  0.0134  0.3330
  718MPD2    C310666   4.695   3.685  12.737  0.5572  0.1690  0.1161
  718MPD2    C410667   0.080   3.645  12.799  0.1641  0.4126 -0.8591
  718MPD2    C510668   0.154   3.738  12.874 -0.0914 -0.3577 -0.1586
  718MPD2     H10669   4.551   3.844  12.725  0.3606  2.8608  0.4490
  718MPD2    H110670   0.118   3.546  12.778 -0.7717  0.2101 -1.5810
  718MPD2    H210671   0.170   3.934  12.959  1.6322 -0.5502 -2.4168
  718MPD2    H310672   0.246   3.706  12.922 -0.0742 -0.4158 -0.2301
  718MPD2     N10673   4.608   3.602  12.660 -0.4524 -0.5139  0.9544
  718MPD2    H510674   4.524   3.650  12.632 -0.0124 -1.2533 -1.6663
  718MPD2    N110675   4.673   4.044  12.849 -0.0639  0.6080 -0.2519
  718MPD2    H710676   0.003   4.112  12.891 -0.9992  1.4268 -0.1766
  719TMC3    C110677   4.555   4.235  12.762 -0.6859  0.2104  0.0520
  719TMC3    C210678   4.462   4.261  12.668 -0.0141  0.2926  0.3767
  719TMC3    C310679   4.496   4.341  12.568 -0.1753 -0.2539  0.4708
  719TMC3    C410680   4.673   4.295  12.762 -0.6719 -0.1365 -0.4655
  719TMC3    C510681   4.704   4.388  12.657 -0.1939  0.6307  0.4352
  719TMC3    C610682   4.612   4.412  12.563  0.7376  0.2138  0.3593
  719TMC3     C10683   4.549   4.092  12.803  0.6902 -0.4207 -0.3356
  719TMC3     O10684   4.449   4.028  12.779 -0.3412  0.3382 -0.0815
  719TMC3     H10685   4.373   4.199  12.672  0.9629 -1.3528 -3.4875
  719TMC3    H110686   0.020   4.258  12.826 -0.9852 -0.1428 -0.0768
  719TMC3    H210687   4.626   4.475  12.476  3.1210 -1.8597 -0.7362
  719TMC3    C710688   0.103   4.419  12.623 -0.7140  0.4929 -0.2211
  719TMC3    C810689   4.430   4.311  12.445  0.1504  0.4306 -0.2239
  719TMC3    O110690   0.190   4.339  12.663 -0.4511  0.3221  0.4254
  719TMC3    O210691   4.391   4.406  12.371 -0.5104 -0.1210 -0.1617
  720MPD2     C10692   3.531   0.757  13.917 -0.2695  0.5750 -0.3415
  720MPD2    C110693   3.632   0.777  13.828 -1.1205 -0.3597 -0.6727
  720MPD2    C210694   3.761   0.740  13.866  0.4285 -0.3282  0.0213
  720MPD2    C310695   3.780   0.693  13.997  0.2036  0.3251  0.1107
  720MPD2    C410696   3.676   0.688  14.088  0.1127 -0.7334  0.0644
  720MPD2    C510697   3.549   0.717  14.045  0.8410  0.3006  0.0149
  720MPD2     H10698   3.842   0.757  13.795 -1.1196 -1.3980 -2.0047
  720MPD2    H110699   3.695   0.651  14.188 -0.4159 -0.0254  0.4298
  720MPD2    H210700   3.426   0.778  13.902 -0.6324 -0.6392  0.4949
  720MPD2    H310701   3.459   0.706  14.104  0.2717 -1.7451 -1.2365
  720MPD2     N10702   3.911   0.658  14.033  1.0548 -0.2501 -0.4963
  720MPD2    H510703   3.981   0.656  13.959  1.4708 -0.8347 -0.0919
  720MPD2    N110704   3.610   0.820  13.693  0.1069 -0.1628 -0.0786
  720MPD2    H710705   3.682   0.806  13.623  1.4387  0.9264  1.0886
  721TMC3    C110706   4.106   0.612  14.155  0.0289  0.3824  0.7535
  721TMC3    C210707   4.166   0.549  14.256 -0.0958 -0.2638 -0.1921
  721TMC3    C310708   4.299   0.522  14.257 -0.1068  0.5484  0.2911
  721TMC3    C410709   4.177   0.658  14.048  0.6545  0.1843  0.0301
  721TMC3    C510710   4.313   0.630  14.054 -0.4802  0.0656 -0.0801
  721TMC3    C610711   4.376   0.563  14.153  0.1938 -0.1382  0.6440
  721TMC3     C10712   3.962   0.626  14.157 -0.1146  0.4034  0.2519
  721TMC3     O10713   3.910   0.605  14.266  0.2283 -0.4132  0.1603
  721TMC3     H10714   4.108   0.519  14.343 -0.5064  1.0111 -0.0342
  721TMC3    H110715   4.143   0.714  13.962 -2.0543 -1.9384 -0.2807
  721TMC3    H210716   4.480   0.535  14.143  0.2563 -0.7177  3.0611
  721TMC3    C710717   4.386   0.629  13.933 -0.0973  0.2665 -0.8791
  721TMC3    C810718   4.358   0.465  14.373 -0.0888 -0.6438  0.1500
  721TMC3    O110719   4.357   0.718  13.853 -0.2183 -0.2913  0.2744
  721TMC3    O210720   4.469   0.510  14.406  0.2337  0.1936 -0.0402
  722MPD2     C10721   2.454   3.959  13.299 -0.0418  0.1081 -1.1842
  722MPD2    C110722   2.389   4.079  13.310 -0.0264  0.1536 -0.3432
  722MPD2    C210723   2.251   4.082  13.302 -0.0993  0.1729  0.4769
  722MPD2    C310724   2.178   3.969  13.269 -0.5965  0.1214  0.5555
  722MPD2    C410725   2.241   3.846  13.260 -0.3352 -0.1421  1.0848
  722MPD2    C510726   2.380   3.850  13.275 -0.9602 -0.0873  0.3332
  722MPD2     H10727   2.201   4.176  13.322 -0.5910 -0.1022  0.5436
  722MPD2    H110728   2.195   3.749  13.243  0.6953 -0.1087 -2.0603
  722MPD2    H210729   2.558   3.937  13.319  0.2043  0.2663 -2.2462
  722MPD2    H310730   2.431   3.755  13.266  0.0617  0.3081  1.9875
  722MPD2     N10731   2.038   3.991  13.256 -0.1212  0.7928 -0.3718
  722MPD2    H510732   2.007   4.088  13.250 -0.0783  0.7968 -0.5112
  722MPD2    N110733   2.451   4.201  13.344 -0.4671  0.1211 -0.0579
  722MPD2    H710734   2.393   4.284  13.351 -1.7462 -0.8747  1.1194
  723TMC3    C110735   1.815   3.943  13.251  0.0180  0.1548  0.1236
  723TMC3    C210736   1.730   3.872  13.175 -0.2132  0.6528 -0.3303
  723TMC3    C310737   1.619   3.937  13.144  0.2005  0.3466  1.1180
  723TMC3    C410738   1.800   4.072  13.292  0.6483 -0.5467 -0.0800
  723TMC3    C510739   1.682   4.133  13.261 -1.0373  0.7107  0.0560
  723TMC3    C610740   1.590   4.067  13.183 -0.3528 -0.3110  0.6917
  723TMC3     C10741   1.947   3.894  13.249 -0.2891  0.2020  0.0895
  723TMC3     O10742   1.959   3.774  13.253 -0.2103 -0.1970  0.1699
  723TMC3     H10743   1.758   3.780  13.126  2.1638  0.8112  0.7589
  723TMC3    H110744   1.857   4.125  13.367  1.2768 -1.8752  0.3738
  723TMC3    H210745   1.507   4.119  13.137 -0.2534 -2.8238 -2.3116
  723TMC3    C710746   1.687   4.277  13.268  0.7402 -0.0601 -0.1076
  723TMC3    C810747   1.542   3.898  13.026 -0.0873 -0.4245 -0.3327
  723TMC3    O110748   1.789   4.336  13.294  0.7660  0.1591 -0.4258
  723TMC3    O210749   1.455   3.978  12.991  0.3908 -0.2063  0.3208
  724TMC3    C110750   2.600   2.747   9.842  0.6975 -0.1132  0.7048
  724TMC3    C210751   2.665   2.804   9.734 -0.1476  0.0239 -0.1110
  724TMC3    C310752   2.769   2.886   9.759 -0.2298  0.4922  0.0072
  724TMC3    C410753   2.652   2.757   9.966 -0.5925  0.3619 -0.0384
  724TMC3    C510754   2.766   2.832   9.976 -0.6956 -0.2145 -0.4656
  724TMC3    C610755   2.829   2.886   9.874  0.0306  0.0016  0.0059
  724TMC3     C10756   2.523   2.626   9.807  0.0234  0.2721 -0.0972
  724TMC3     O10757   2.476   2.636   9.692  0.2800 -0.3215  0.5744
  724TMC3     H10758   2.591   2.828   9.658  0.4820  1.0539 -0.4134
  724TMC3    H110759   2.596   2.718  10.050  0.8599  0.5868  1.0491
  724TMC3    H210760   2.925   2.935   9.886 -0.6583  1.8411 -1.8333
  724TMC3    C710761   2.807   2.883  10.108  0.2730  0.1390 -0.6609
  724TMC3    C810762   2.797   2.992   9.661  0.0008  0.6722 -0.1222
  724TMC3    O110763   2.869   2.988  10.102  0.4233  0.1583  0.1127
  724TMC3    O210764   2.756   2.986   9.549 -0.0181 -0.2611  0.5985
  725TMC3    C110765   4.094   1.139  12.773 -1.4968  0.9852 -0.3772
  725TMC3    C210766   4.034   1.168  12.658  0.4600 -0.8291 -0.0288
  725TMC3    C310767   3.994   1.051  12.594  0.2434  0.8585  0.0889
  725TMC3    C410768   4.112   1.012  12.831 -0.3829 -0.6067 -0.1255
  725TMC3    C510769   4.076   0.903  12.752 -0.0085 -0.0958  0.0023
  725TMC3    C610770   4.015   0.923  12.635  0.0731 -0.3194  0.0437
  725TMC3     C10771   4.153   1.257  12.836 -0.0331 -0.0734 -0.2683
  725TMC3     O10772   4.177   1.354  12.763  0.3914 -0.4695  0.4675
  725TMC3     H10773   4.010   1.267  12.621  0.8735 -1.0396 -0.8695
  725TMC3    H110774   4.191   0.993  12.903 -0.3248 -0.3739 -0.1291
  725TMC3    H210775   4.010   0.840  12.566  1.5493 -0.2380 -0.1707
  725TMC3    C710776   4.191   0.820  12.725  0.0917  0.1148 -0.4826
  725TMC3    C810777   3.920   1.055  12.465  0.1463  0.5260 -0.7224
  725TMC3    O110778   4.274   0.883  12.662 -0.1648  0.4298  0.2016
  725TMC3    O210779   3.857   0.963  12.421 -0.2383  0.3486  0.4120
  726MPD2     C10780   1.416   3.433   9.895  0.1005  0.4735 -0.5539
  726MPD2    C110781   1.505   3.413  10.002  0.2709 -0.0951 -0.1419
  726MPD2    C210782   1.536   3.282  10.043  0.2743 -0.2677 -0.0840
  726MPD2    C310783   1.480   3.180   9.971  0.0885 -0.3033  0.2225
  726MPD2    C410784   1.392   3.212   9.878  0.5953  0.1295  0.2759
  726MPD2    C510785   1.353   3.331   9.836  0.1002  0.7475  0.1733
  726MPD2     H10786   1.586   3.264  10.137  1.0256  0.8265 -0.2696
  726MPD2    H110787   1.339   3.134   9.822 -0.6338  0.7652  0.5511
  726MPD2    H210788   1.396   3.532   9.854 -1.0647 -0.2756 -1.7736
  726MPD2    H310789   1.279   3.335   9.756 -0.6735 -1.2979  0.7955
  726MPD2     N10790   1.506   3.038   9.985 -0.9267  0.1007  0.2896
  726MPD2    H510791   1.450   2.976   9.928 -0.1593 -2.6162  2.5266
  726MPD2    N110792   1.572   3.522  10.050  0.5255  0.5928  0.3528
  726MPD2    H710793   1.543   3.606  10.002 -2.9847 -0.0395  1.3662
  727TMC3    C110794   1.707   3.643  10.198  0.2901  0.6721  0.8715
  727TMC3    C210795   1.813   3.650  10.280  0.2344 -0.3449 -0.1735
  727TMC3    C310796   1.850   3.774  10.315  0.3202 -0.3887 -0.5169
  727TMC3    C410797   1.630   3.753  10.164 -0.2586  0.1560  0.6031
  727TMC3    C510798   1.661   3.869  10.231 -0.1552 -0.3218  0.1095
  727TMC3    C610799   1.773   3.887  10.301  0.5814  0.2862 -0.3598
  727TMC3     C10800   1.661   3.513  10.162 -0.4772 -0.3667  0.2040
  727TMC3     O10801   1.685   3.422  10.242  0.4952 -0.5237 -0.3712
  727TMC3     H10802   1.872   3.561  10.298 -1.7162 -1.7821 -1.0071
  727TMC3    H110803   1.539   3.750  10.106  1.3803 -0.3498 -1.9059
  727TMC3    H210804   1.800   3.985  10.339  2.1122  0.2299 -1.2583
  727TMC3    C710805   1.575   3.987  10.213  0.1110 -0.2653  0.2113
  727TMC3    C810806   1.968   3.776  10.392  0.2913 -0.1325 -0.9424
  727TMC3    O110807   1.617   4.088  10.268 -0.0016 -0.6256 -0.2747
  727TMC3    O210808   2.019   3.673  10.432  0.0535  0.0581  0.9681
  728TMC3    C110809   2.027   0.745  15.443 -0.1510 -1.2893 -0.5503
  728TMC3    C210810   1.981   0.616  15.435  0.2450  0.0160 -0.4847
  728TMC3    C310811   2.008   0.554  15.318 -0.2347 -0.4710 -0.0411
  728TMC3    C410812   2.087   0.807  15.336  0.5624  0.1304  0.1425
  728TMC3    C510813   2.094   0.740  15.217  0.3948 -0.0548 -0.1306
  728TMC3    C610814   2.058   0.610  15.199 -0.2481 -0.3135  0.8514
  728TMC3     C10815   1.989   0.814  15.557  0.1980 -0.2703  0.0853
  728TMC3     O10816   2.051   0.916  15.574  0.1999  0.3497 -0.1244
  728TMC3     H10817   1.943   0.554  15.515  0.5570  1.0348  0.4393
  728TMC3    H110818   2.136   0.903  15.352  2.1355 -0.2765 -2.1427
  728TMC3    H210819   2.080   0.551  15.110  0.9065 -0.5179  1.2664
  728TMC3    C710820   2.105   0.820  15.098 -0.2995 -0.4005 -0.6923
  728TMC3    C810821   2.008   0.409  15.329 -0.3808 -0.7870  0.0466
  728TMC3    O110822   2.107   0.761  14.990  0.1731  0.6673 -0.6381
  728TMC3    O210823   1.957   0.358  15.427 -0.3695  0.1441 -0.1192
  729MPD2     C10824   3.382   2.127  17.195 -0.2774  0.0809  0.4333
  729MPD2    C110825   3.509   2.101  17.238  0.4279 -0.4283 -0.0118
  729MPD2    C210826   3.528   2.143  17.368  1.0349  0.1249  0.1123
  729MPD2    C310827   3.426   2.178  17.456  0.5746  0.9836 -0.0542
  729MPD2    C410828   3.301   2.171  17.417  0.6793  0.2059  0.3162
  729MPD2    C510829   3.280   2.146  17.283 -0.9804  1.1743 -0.0977
  729MPD2     H10830   3.633   2.151  17.395  1.3129 -0.1740 -0.9016
  729MPD2    H110831   3.221   2.201  17.483 -1.1211 -1.1460 -1.2712
  729MPD2    H210832   3.365   2.127  17.088 -0.4293 -4.9568  0.4401
  729MPD2    H310833   3.182   2.160  17.238 -1.0440  1.4028  0.1168
  729MPD2     N10834   3.451   2.219  17.589 -0.8182  0.6116  0.3290
  729MPD2    H510835   3.366   2.236  17.643 -1.1831 -1.2900  0.3619
  729MPD2    N110836   3.610   2.066  17.145 -0.2153  0.1245 -0.2498
  729MPD2    H710837   3.578   2.066  17.048  2.3506  2.7641 -1.1124
  730TMC3    C110838   3.565   2.308   0.040  0.1939  0.1743  0.8601
  730TMC3    C210839   3.679   2.371   0.079 -0.3512 -0.6004 -0.0074
  730TMC3    C310840   3.677   2.490   0.151  0.6397 -0.0951  0.4624
  730TMC3    C410841   3.446   2.357   0.083 -0.1876  0.4595  0.1761
  730TMC3    C510842   3.444   2.468   0.161  0.4168 -0.2803  0.6187
  730TMC3    C610843   3.556   2.536   0.195 -1.2111  0.1960  0.8192
  730TMC3     C10844   3.577   2.252  17.640 -0.1080 -0.1190 -0.4815
  730TMC3     O10845   3.688   2.252  17.586  0.0487 -0.6832 -0.8732
  730TMC3     H10846   3.776   2.338   0.043  0.5162  0.8405  1.0056
  730TMC3    H110847   3.351   2.310   0.060  0.1537  0.8089 -2.0030
  730TMC3    H210848   3.569   2.628   0.252  1.7608 -0.1686  0.7183
  730TMC3    C710849   3.324   2.542   0.150 -0.5060 -0.1541 -0.0028
  730TMC3    C810850   3.797   2.567   0.141  0.3691 -0.6843  0.0571
  730TMC3    O110851   3.255   2.568   0.248  0.2734 -0.5956 -0.5512
  730TMC3    O210852   3.907   2.517   0.121  0.3341 -0.0230  1.0940
  731MPD2     C10853   3.344   0.615  12.227 -0.2543  0.0723  0.2484
  731MPD2    C110854   3.473   0.563  12.221  0.3116 -0.2655 -0.4874
  731MPD2    C210855   3.545   0.516  12.333  0.0859  0.1936  0.0055
  731MPD2    C310856   3.480   0.523  12.453 -0.1941  0.2466  0.2411
  731MPD2    C410857   3.349   0.565  12.455  0.2730 -0.7183 -0.1556
  731MPD2    C510858   3.282   0.610  12.348 -0.8333  0.2475  0.2809
  731MPD2     H10859   3.647   0.480  12.324 -0.0899 -0.1585 -0.5521
  731MPD2    H110860   3.289   0.572  12.545 -0.9269 -0.5022 -0.9615
  731MPD2    H210861   3.291   0.649  12.139  1.0871 -1.3629 -1.1191
  731MPD2    H310862   3.178   0.639  12.356 -0.7116  0.4902  0.9689
  731MPD2     N10863   3.545   0.464  12.568 -0.4565 -0.0863  0.4057
  731MPD2    H510864   3.644   0.451  12.553 -0.6404 -1.2838  0.2906
  731MPD2    N110865   3.527   0.550  12.091  0.4245  0.0228  0.5529
  731MPD2    H710866   3.460   0.577  12.019  0.6692  3.1238  1.4927
  732TMC3    C110867   3.694   0.554  11.920 -0.7191 -0.0342  0.5296
  732TMC3    C210868   3.592   0.513  11.837 -0.0355  0.7774  0.5794
  732TMC3    C310869   3.629   0.512  11.702 -0.1148  0.5759 -0.2457
  732TMC3    C410870   3.809   0.615  11.884  0.6603 -0.5630  0.5196
  732TMC3    C510871   3.843   0.602  11.754 -0.1289 -0.7741  0.7703
  732TMC3    C610872   3.756   0.550  11.664 -0.4570  0.3494 -0.8273
  732TMC3     C10873   3.666   0.540  12.058 -0.3080 -0.0252 -0.3025
  732TMC3     O10874   3.764   0.518  12.133  0.5075  0.0757 -0.2291
  732TMC3     H10875   3.501   0.470  11.877  1.9278 -2.0021  2.0221
  732TMC3    H110876   3.871   0.666  11.956 -0.8902  0.1765  1.3291
  732TMC3    H210877   3.791   0.560  11.562  1.4706  0.2155 -0.1797
  732TMC3    C710878   3.959   0.673  11.703  0.1590  0.0437  0.3791
  732TMC3    C810879   3.543   0.464  11.594 -0.4391 -0.3069  0.4208
  732TMC3    O110880   3.990   0.650  11.588  0.2465  0.4668  0.0965
  732TMC3    O210881   3.588   0.444  11.485 -0.2973  0.0087  0.0996
  733TMC3    C110882   4.319   3.330  12.518  0.0789  0.7227  0.5296
  733TMC3    C210883   4.444   3.342  12.579  0.0556 -0.0591 -0.1706
  733TMC3    C310884   4.537   3.430  12.522 -0.3271 -0.1828  0.4387
  733TMC3    C410885   4.275   3.404  12.408  0.1159 -0.8414  0.6097
  733TMC3    C510886   4.371   3.490  12.357 -0.2229  0.4952  0.2438
  733TMC3    C610887   4.494   3.516  12.421 -0.4302  0.9725  0.0174
  733TMC3     C10888   4.206   3.316  12.607 -0.9788  0.0316 -0.5252
  733TMC3     O10889   4.118   3.396  12.603 -0.3021 -0.1538 -1.0428
  733TMC3     H10890   4.476   3.286  12.667  2.9144  1.8020 -0.0524
  733TMC3    H110891   4.173   3.391  12.374  0.0102 -1.0201  1.0053
  733TMC3    H210892   4.563   3.578  12.364  0.3169 -1.0201 -1.2550
  733TMC3    C710893   4.311   3.602  12.291 -0.3888  0.4136  0.7036
  733TMC3    C810894   4.634   3.475  12.622 -0.0422  0.3185 -0.4650
  733TMC3    O110895   4.227   3.567  12.207  0.0193 -0.1309  0.3540
  733TMC3    O210896   4.725   3.403  12.650  0.7678  0.1987  0.8475
  734MPD2     C10897   1.963   1.850  11.744  0.3485 -0.3025  0.1350
  734MPD2    C110898   1.859   1.780  11.706 -0.0782  0.8337 -0.0055
  734MPD2    C210899   1.825   1.776  11.570 -0.3664  1.1397  0.0333
  734MPD2    C310900   1.918   1.815  11.474 -0.1756 -0.1667  0.1129
  734MPD2    C410901   2.031   1.876  11.512  1.3691 -0.0726 -0.7311
  734MPD2    C510902   2.052   1.900  11.647  0.2189 -0.4032  0.8499
  734MPD2     H10903   1.741   1.721  11.530 -0.0017  0.6206 -0.0173
  734MPD2    H110904   2.107   1.919  11.448  1.2776  0.2662 -0.6153
  734MPD2    H210905   1.972   1.867  11.851  0.7088  1.3220 -0.1443
  734MPD2    H310906   2.146   1.949  11.673  0.0948 -0.0381  0.6167
  734MPD2     N10907   1.882   1.798  11.335  0.3164 -0.0546 -0.4309
  734MPD2    H510908   1.786   1.768  11.320  0.3014  0.0514 -0.5481
  734MPD2    N110909   1.774   1.723  11.807 -0.7701 -0.5612  0.1780
  734MPD2    H710910   1.811   1.711  11.901 -1.8379  1.0590  0.7914
  735TMC3    C110911   1.599   1.567  11.876 -0.0887  0.1524 -0.3395
  735TMC3    C210912   1.480   1.515  11.839 -0.4342  0.2864  0.2300
  735TMC3    C310913   1.452   1.380  11.846  0.6779 -0.4302 -0.4342
  735TMC3    C410914   1.691   1.480  11.929  0.0460  0.9437  0.1132
  735TMC3    C510915   1.666   1.347  11.938  0.7469 -0.5320  0.3375
  735TMC3    C610916   1.541   1.296  11.905  0.0042 -0.3626 -0.7543
  735TMC3     C10917   1.650   1.666  11.784  0.5265 -0.6571 -0.1418
  735TMC3     O10918   1.585   1.666  11.681 -0.0852  0.7221 -0.0045
  735TMC3     H10919   1.405   1.579  11.794 -0.1788  0.5111  0.1262
  735TMC3    H110920   1.789   1.520  11.955  0.9126 -1.6104  0.7590
  735TMC3    H210921   1.527   1.191  11.880 -2.7133 -0.7075  2.2146
  735TMC3    C710922   1.776   1.251  11.948  0.0182 -0.3017 -0.2543
  735TMC3    C810923   1.398   1.339  11.715  0.0373  0.4178  0.0241
  735TMC3    O110924   1.882   1.299  11.901 -0.2124  0.6921 -0.0039
  735TMC3    O210925   1.366   1.218  11.713 -0.1998 -0.4193 -0.3557
  736MPD2     C10926   1.797   0.893  12.046  0.4308 -0.3653  0.5871
  736MPD2    C110927   1.841   1.021  12.018  0.2282  0.4729 -0.0519
  736MPD2    C210928   1.979   1.044  12.024  0.5554  0.6180 -0.8585
  736MPD2    C310929   2.072   0.936  12.042 -0.7825  0.4515  0.4583
  736MPD2    C410930   2.020   0.806  12.053  0.5538  0.0400  0.4867
  736MPD2    C510931   1.886   0.784  12.056 -0.4493 -0.0487  0.0307
  736MPD2     H10932   2.013   1.144  11.999  3.3057  0.3697  1.8850
  736MPD2    H110933   2.088   0.722  12.050  0.1654 -0.1864 -2.2936
  736MPD2    H210934   1.689   0.882  12.053 -0.0878  2.3183 -3.1758
  736MPD2    H310935   1.839   0.687  12.062  0.0880 -0.1839  1.8752
  736MPD2     N10936   2.213   0.948  12.040 -0.2903 -0.2594  0.4488
  736MPD2    H510937   2.257   0.857  12.050 -2.6780 -1.6108 -1.4827
  736MPD2    N110938   1.747   1.123  11.996  0.6152 -0.2736 -0.5089
  736MPD2    H710939   1.649   1.102  12.014  0.6623  1.7301  2.1885
  737TMC3    C110940   2.412   1.050  11.975 -0.4082 -0.2077 -0.2373
  737TMC3    C210941   2.487   1.163  11.956  0.0253  0.3878 -0.6483
  737TMC3    C310942   2.591   1.148  11.868 -0.4010  0.3227 -0.4115
  737TMC3    C410943   2.460   0.922  11.932 -0.0443 -0.5717 -0.2875
  737TMC3    C510944   2.578   0.917  11.866 -0.2519  0.2763  0.9390
  737TMC3    C610945   2.650   1.032  11.829  0.1345  0.1613  1.0370
  737TMC3     C10946   2.280   1.066  12.032 -0.3990 -0.2186  0.0627
  737TMC3     O10947   2.231   1.183  12.054  0.5592  0.0342 -0.6175
  737TMC3     H10948   2.461   1.264  11.985  1.3330  0.5335 -0.0142
  737TMC3    H110949   2.418   0.825  11.954 -0.2620 -0.6503 -1.0472
  737TMC3    H210950   2.747   1.041  11.782 -0.2043  0.5362  0.4088
  737TMC3    C710951   2.631   0.786  11.821  0.5228  0.3377 -0.2154
  737TMC3    C810952   2.673   1.272  11.848  0.5422  0.2081 -0.0486
  737TMC3    O110953   2.551   0.694  11.814  0.7527 -0.0281 -0.5662
  737TMC3    O210954   2.657   1.361  11.928 -0.2868  0.5538  0.0777
  738MPD2     C10955   2.400   4.453  14.546  0.4810  0.0536 -0.5722
  738MPD2    C110956   2.470   4.368  14.634  0.2513  0.4024  0.2608
  738MPD2    C210957   2.583   4.422  14.690 -0.3202 -0.2239  0.9056
  738MPD2    C310958   2.625   4.547  14.662  0.2302 -0.0974  0.3311
  738MPD2    C410959   2.555   4.632  14.578 -0.6200 -0.7449 -0.2227
  738MPD2    C510960   2.445   4.582  14.515 -0.1918 -0.2800  0.0942
  738MPD2     H10961   2.645   4.371  14.764 -0.2352  0.8352  1.5641
  738MPD2    H110962   2.591   4.732  14.556  0.2353 -1.3742 -1.6154
  738MPD2    H210963   2.306   4.432  14.496  0.0943 -2.7030  1.3103
  738MPD2    H310964   2.394   4.644  14.442 -1.7818  0.2856  1.6914
  738MPD2     N10965   2.747   4.603  14.712  0.5502 -0.1053 -0.4745
  738MPD2    H510966   2.775   4.695  14.679 -1.5283  1.0420  1.0082
  738MPD2    N110967   2.434   4.235  14.663 -0.3846  0.0202 -0.1796
  738MPD2    H710968   2.481   4.189  14.740  1.7663 -1.0614 -2.1322
  739TMC3    C110969   2.965   4.621  14.789 -0.0470  0.0789  0.4014
  739TMC3    C210970   2.997   4.683  14.668 -0.9867  0.7372 -0.2833
  739TMC3    C310971   3.123   4.729  14.656 -0.5541  0.4309 -0.0319
  739TMC3    C410972   3.053   4.609  14.893  0.2396  0.0067 -0.3126
  739TMC3    C510973   3.178   4.659  14.869  0.2281 -0.3481  0.0613
  739TMC3    C610974   3.210   4.726  14.755  0.1035 -0.0175  0.2139
  739TMC3     C10975   2.844   4.546  14.790 -0.2035  0.3258 -0.1138
  739TMC3     O10976   2.839   4.456  14.875  0.3858  0.1385  0.4977
  739TMC3     H10977   2.927   4.675  14.587 -1.1607 -0.2056 -0.0349
  739TMC3    H110978   3.036   4.545  14.979 -0.1426  2.1991  1.2476
  739TMC3    H210979   3.308   0.032  14.732 -0.1865  0.2932 -0.5204
  739TMC3    C710980   3.281   4.594  14.947 -0.1041  0.3907 -0.9667
  739TMC3    C810981   3.152   0.044  14.521 -0.1379 -0.5572 -0.3242
  739TMC3    O110982   3.254   4.545  15.056 -0.0532  0.1294 -0.0789
  739TMC3    O210983   3.094   4.717  14.434 -0.0362  0.1387  0.0525
  740TMC3    C110984   3.582   1.006  14.211 -0.0340  0.4802 -0.0739
  740TMC3    C210985   3.606   0.940  14.329 -0.2676 -0.3864 -0.8612
  740TMC3    C310986   3.734   0.906  14.354  1.2011 -0.1968 -0.3080
  740TMC3    C410987   3.685   1.039  14.123  0.3311 -0.8473 -0.1044
  740TMC3    C510988   3.814   1.004  14.155  0.3274  0.2027  1.2944
  740TMC3    C610989   3.836   0.927  14.266 -0.1126  0.2309 -0.6146
  740TMC3     C10990   3.448   1.008  14.157  0.2755  0.0813 -0.2906
  740TMC3     O10991   3.431   1.058  14.046 -0.5106  0.2352 -0.0553
  740TMC3     H10992   3.526   0.908  14.394  0.0489  2.4686  0.9181
  740TMC3    H110993   3.670   1.089  14.029  0.6096 -0.5701 -0.0033
  740TMC3    H210994   3.936   0.889  14.282  0.8074  1.5110 -3.4350
  740TMC3    C710995   3.918   1.015  14.054 -0.2334  0.7962  0.0096
  740TMC3    C810996   3.755   0.836  14.482 -0.7999 -0.4228 -0.5219
  740TMC3    O110997   4.022   0.952  14.076  0.0358  0.2357 -0.2780
  740TMC3    O210998   3.659   0.833  14.559 -0.2849 -0.1650 -0.0659
  741TMC3    C110999   2.913   0.382  14.225 -0.1598  0.2074 -0.6562
  741TMC3    C211000   2.834   0.315  14.137  0.5843  0.8918 -0.8805
  741TMC3    C311001   2.769   0.205  14.188 -0.4096 -0.0039  0.1747
  741TMC3    C411002   2.933   0.342  14.354  0.0164  0.0674  0.4159
  741TMC3    C511003   2.864   0.241  14.407 -0.2009  0.0042 -0.5154
  741TMC3    C611004   2.777   0.177  14.325 -0.1481 -0.1901 -0.0291
  741TMC3     C11005   3.013   0.480  14.177  0.8192 -0.7867 -0.4325
  741TMC3     O11006   3.106   0.524  14.245  0.4310  0.4607  0.2204
  741TMC3     H11007   2.829   0.333  14.030 -1.7402 -1.8640 -1.2698
  741TMC3    H111008   3.007   0.398  14.411  1.6060  0.6433 -2.1862
  741TMC3    H211009   2.708   0.108  14.372 -0.5673 -0.0520 -0.4373
  741TMC3    C711010   2.839   0.239  14.551 -0.3836  0.5161 -0.0864
  741TMC3    C811011   2.671   0.140  14.103 -0.6956  0.2400  0.0701
  741TMC3    O111012   2.768   0.149  14.588 -0.0586  0.0400  0.3795
  741TMC3    O211013   2.639   0.191  13.995  0.1717  0.7479  0.3975
  742TMC3    C111014   2.606   3.782  15.636 -0.5069 -0.0390 -1.2048
  742TMC3    C211015   2.578   3.754  15.508  1.1651  0.4068 -0.2312
  742TMC3    C311016   2.662   3.664  15.444  0.4014  0.2333 -0.1336
  742TMC3    C411017   2.719   3.737  15.698 -0.6705  0.3857  0.6821
  742TMC3    C511018   2.789   3.636  15.628 -0.6623  0.2323 -0.5434
  742TMC3    C611019   2.761   3.592  15.506  0.4392 -0.3867 -0.4875
  742TMC3     C11020   2.509   3.872  15.696 -0.5031 -0.4737  0.5804
  742TMC3     O11021   2.408   3.898  15.628 -0.4277 -0.5543 -0.4245
  742TMC3     H11022   2.481   3.769  15.462  1.4294  2.3549 -0.1375
  742TMC3    H111023   2.744   3.762  15.801 -1.4174  2.6436  0.3010
  742TMC3    H211024   2.830   3.533  15.447  1.5266 -2.2612  2.5962
  742TMC3    C711025   2.907   3.564  15.684 -0.5038  0.4124  0.1002
  742TMC3    C811026   2.631   3.615  15.311  0.1460 -0.5581  0.5204
  742TMC3    O111027   2.926   3.450  15.641  0.4219  0.0077  0.5377
  742TMC3    O211028   2.664   3.497  15.292  0.2217 -0.5257 -0.1531
  743MPD2     C11029   4.664   0.455   0.967 -0.5952 -0.4910 -0.1669
  743MPD2    C111030   0.023   0.350   0.947 -0.0100  0.1058 -0.2454
  743MPD2    C211031   0.115   0.325   1.049 -0.1551  0.0993 -0.4729
  743MPD2    C311032   0.119   0.404   1.162  0.0417  0.1691 -0.3748
  743MPD2    C411033   0.028   0.506   1.182  0.8903 -0.3613 -0.1317
  743MPD2    C511034   4.670   0.532   1.080 -0.0142  1.0724  0.0672
  743MPD2     H11035   0.195   0.254   1.030 -0.1668  0.2210 -0.9870
  743MPD2    H111036   0.022   0.566   1.272 -1.1356  0.2286 -0.6531
  743MPD2    H211037   4.599   0.490   0.887 -0.0080 -0.3274 -0.5748
  743MPD2    H311038   4.606   0.618   1.087  0.7789  1.6575  0.1190
  743MPD2     N11039   0.217   0.370   1.255  0.1566 -0.1892 -0.7039
  743MPD2    H511040   0.276   0.293   1.223 -1.9068 -2.3964  0.8463
  743MPD2    N111041   0.003   0.280   0.829  0.1604 -0.3782  0.0005
  743MPD2    H711042   4.667   0.320   0.765 -1.1187 -1.8833  0.4292
  744TMC3    C111043   0.049   0.105   0.672 -0.4209 -0.5244  0.9110
  744TMC3    C211044   4.666   0.128   0.608  0.3017 -0.0700 -0.4458
  744TMC3    C311045   4.657   0.083   0.477  0.5167  0.0531 -0.5545
  744TMC3    C411046   0.152   0.038   0.608 -0.3714 -0.0482 -0.5919
  744TMC3    C511047   0.139   4.725   0.479 -0.8291  1.1017  0.1938
  744TMC3    C611048   0.022   0.016   0.409 -0.7010 -0.1642  0.1099
  744TMC3     C11049   0.073   0.165   0.804 -0.1608 -0.5620  0.3795
  744TMC3     O11050   0.159   0.113   0.875  0.1713  0.5035 -0.8145
  744TMC3     H11051   4.585   0.186   0.652  0.5462 -0.4680  0.5097
  744TMC3    H111052   0.244   0.026   0.664 -0.7040 -1.0445 -0.2562
  744TMC3    H211053   0.006   4.728   0.303 -1.7843  0.1150  0.2191
  744TMC3    C711054   0.240   4.633   0.425 -0.4165 -0.8808  0.0891
  744TMC3    C811055   4.526   0.086   0.410 -1.4876  0.1641 -0.0185
  744TMC3    O111056   0.352   4.621   0.477  0.3426 -0.0505  0.3428
  744TMC3    O211057   4.491   4.727   0.340  0.2740 -0.2218 -0.0672
  745TMC3    C111058   3.116   3.098  13.985 -1.3258  0.7644 -0.0746
  745TMC3    C211059   2.992   3.113  14.035 -0.0729 -0.3673  0.4916
  745TMC3    C311060   2.889   3.128  13.951 -0.8405 -0.1463 -0.1882
  745TMC3    C411061   3.148   3.094  13.853  0.4534 -0.9175  0.2760
  745TMC3    C511062   3.044   3.082  13.774 -0.0771  0.3259 -0.4537
  745TMC3    C611063   2.919   3.111  13.814 -0.1529 -0.1439 -0.1986
  745TMC3     C11064   3.218   3.162  14.065  0.2909 -0.3752 -0.9644
  745TMC3     O11065   3.215   3.125  14.183 -0.2331  0.9817 -0.3381
  745TMC3     H11066   2.987   3.115  14.143 -1.8345 -0.1676  0.4159
  745TMC3    H111067   3.247   3.088  13.808  1.4574 -2.4658  2.7143
  745TMC3    H211068   2.834   3.121  13.748 -0.9224  0.5906  0.8957
  745TMC3    C711069   3.075   3.051  13.636 -0.3291 -0.0234 -0.8224
  745TMC3    C811070   2.823   3.255  13.973 -0.6374 -0.6975 -0.1685
  745TMC3    O111071   3.010   2.963  13.579  0.0047  0.5288 -0.6850
  745TMC3    O211072   2.757   3.287  13.876  0.0317 -0.4530  0.1328
  746TMC3    C111073   1.015   0.609  10.913 -0.1547 -0.2536 -0.7258
  746TMC3    C211074   1.132   0.550  10.886  0.9864 -0.4150 -0.5867
  746TMC3    C311075   1.146   0.423  10.912 -0.3884 -0.4364 -0.1530
  746TMC3    C411076   0.918   0.550  10.972 -0.1231 -0.4953 -0.9445
  746TMC3    C511077   0.936   0.423  10.999 -0.2605 -0.5783 -0.4111
  746TMC3    C611078   1.045   0.354  10.956 -0.9509  0.5066 -0.1340
  746TMC3     C11079   0.973   0.739  10.858  0.3810 -0.5989 -0.8342
  746TMC3     O11080   0.888   0.799  10.923  0.6847 -0.1593 -0.2482
  746TMC3     H11081   1.221   0.599  10.848  0.0984  2.2063  0.6758
  746TMC3    H111082   0.833   0.604  11.011  0.0025 -0.3850 -0.8252
  746TMC3    H211083   1.061   0.246  10.958  0.9289  0.8075  0.5702
  746TMC3    C711084   0.837   0.345  11.066  0.1290 -0.0681  0.0475
  746TMC3    C811085   1.200   0.358  10.799  0.1337 -0.5488  0.8535
  746TMC3    O111086   0.731   0.404  11.083 -0.0506 -0.0543 -0.6712
  746TMC3    O211087   1.280   0.266  10.818 -0.2579 -0.2587 -0.1827
  747TMC3    C111088   3.549   0.738  11.308  0.5295 -0.8650  0.0437
  747TMC3    C211089   3.436   0.674  11.319 -0.0457 -1.2264  0.4757
  747TMC3    C311090   3.328   0.732  11.387  0.9077  0.1024  0.0777
  747TMC3    C411091   3.566   0.866  11.345 -0.8691 -0.3530  0.2117
  747TMC3    C511092   3.450   0.938  11.380 -0.2703 -0.0230 -0.2312
  747TMC3    C611093   3.329   0.867  11.398 -0.4745 -0.0291  0.1541
  747TMC3     C11094   3.655   0.680  11.224 -0.1231 -0.5498 -0.4189
  747TMC3     O11095   3.768   0.725  11.237 -0.4537 -0.3130 -0.0314
  747TMC3     H11096   3.424   0.570  11.291  0.1632 -1.0829 -0.1493
  747TMC3    H111097   3.660   0.916  11.324 -0.7432 -1.2379 -1.4054
  747TMC3    H211098   3.235   0.917  11.421  0.7379  1.1483  2.6325
  747TMC3    C711099   3.453   1.078  11.415  0.0404  0.3022  1.1398
  747TMC3    C811100   3.200   0.664  11.389 -0.3634  0.4141  0.2421
  747TMC3    O111101   3.358   1.127  11.476  0.0496 -0.3432 -0.2040
  747TMC3    O211102   3.169   0.592  11.294  0.6338  0.4488  0.1088
  748MPD2     C11103   4.698   1.136   1.704 -0.0825  0.3851 -0.2827
  748MPD2    C111104   0.033   1.230   1.626 -0.0685 -0.5319  0.3761
  748MPD2    C211105   0.061   1.189   1.495  0.0451 -0.2319  0.3274
  748MPD2    C311106   0.023   1.070   1.438  1.1594  0.0358 -0.4174
  748MPD2    C411107   4.697   0.974   1.517 -0.5087  0.3551 -0.7607
  748MPD2    C511108   4.660   1.016   1.641  0.1403  0.0490 -0.0688
  748MPD2     H11109   0.104   1.262   1.427  2.8516 -0.0071  2.3211
  748MPD2    H111110   4.650   0.885   1.479 -4.0043  3.1803 -3.1061
  748MPD2    H211111   4.672   1.160   1.806  1.4985  0.1577  0.1742
  748MPD2    H311112   4.604   0.948   1.704  0.0175 -0.0006 -0.2314
  748MPD2     N11113   0.048   1.053   1.300 -0.1909 -0.1150  0.3797
  748MPD2    H511114   0.086   1.132   1.248 -0.6642  0.5008  0.9675
  748MPD2    N111115   0.054   1.363   1.671  0.2033  0.1963 -0.5955
  748MPD2    H711116   0.004   1.383   1.757  3.1636  2.3654  0.5878
  749TMC3    C111117   0.077   0.956   1.087  0.3002  0.2302  0.5453
  749TMC3    C211118   0.104   0.836   1.011  0.2844 -0.5346 -0.1382
  749TMC3    C311119   0.116   0.846   0.881  0.2214 -0.3658  0.2398
  749TMC3    C411120   0.081   1.078   1.024  0.5926  0.6130  0.1652
  749TMC3    C511121   0.084   1.084   0.884 -0.1499  0.4457  0.6788
  749TMC3    C611122   0.093   0.962   0.815 -0.0745  0.0818 -0.3337
  749TMC3     C11123   0.036   0.940   1.227 -0.4453 -0.1479  0.2592
  749TMC3     O11124   0.034   0.826   1.273  0.7884  0.9506 -0.2606
  749TMC3     H11125   0.091   0.737   1.054  0.8437 -0.7832 -0.5441
  749TMC3    H111126   0.051   1.164   1.082  0.5752  0.0606  0.9660
  749TMC3    H211127   0.105   0.959   0.707  0.9070  1.1699 -0.2628
  749TMC3    C711128   0.102   1.208   0.816  0.3808  0.5037 -0.0629
  749TMC3    C811129   0.140   0.726   0.802  0.2786 -0.1360  0.7341
  749TMC3    O111130   0.161   1.197   0.709  0.8637  0.2272  0.8088
  749TMC3    O211131   0.093   0.732   0.687  0.0637  0.0898  0.2568
  750MPD2     C11132   1.331   2.653  10.703  0.2540  1.1610 -0.0649
  750MPD2    C111133   1.241   2.627  10.803 -0.2227 -0.3105  0.9153
  750MPD2    C211134   1.159   2.516  10.780  0.1698  0.1149 -0.6009
  750MPD2    C311135   1.147   2.456  10.662  0.2336  0.1482 -0.3923
  750MPD2    C411136   1.239   2.487  10.562  0.7677 -0.0514  0.0358
  750MPD2    C511137   1.332   2.587  10.585  0.0657  0.6716  0.3067
  750MPD2     H11138   1.092   2.482  10.857  1.3475 -0.2530  0.2650
  750MPD2    H111139   1.233   2.451  10.460  1.4436 -1.1814  0.4046
  750MPD2    H211140   1.401   2.736  10.705  1.1325  0.5025 -2.6529
  750MPD2    H311141   1.399   2.624  10.508 -1.3689 -0.8112 -1.6640
  750MPD2     N11142   1.054   2.357  10.628  0.5382  0.2426  0.1026
  750MPD2    H511143   1.055   2.328  10.531  0.0639  0.4525  0.0373
  750MPD2    N111144   1.238   2.707  10.921 -0.4388  0.3009 -0.7701
  750MPD2    H711145   1.306   2.782  10.925  2.2315 -2.1984  0.8088
  751TMC3    C111146   0.885   2.188  10.662 -0.4118 -0.3744 -0.0512
  751TMC3    C211147   0.800   2.121  10.747  0.4441  0.3158  0.5427
  751TMC3    C311148   0.702   2.041  10.689 -0.1170 -0.3918 -0.4152
  751TMC3    C411149   0.879   2.161  10.527  0.1879 -0.3908 -0.0194
  751TMC3    C511150   0.799   2.057  10.475 -0.6732  0.0785 -0.6732
  751TMC3    C611151   0.703   2.001  10.558  0.4366  1.0859 -0.5956
  751TMC3     C11152   0.961   2.298  10.714 -0.6728  0.1445 -0.2198
  751TMC3     O11153   0.936   2.320  10.832 -0.1861 -0.1918  0.8364
  751TMC3     H11154   0.811   2.141  10.853  0.8499  2.5199  0.0726
  751TMC3    H111155   0.930   2.223  10.454  0.4300  0.8393  1.1882
  751TMC3    H211156   0.634   1.924  10.526 -0.0040  0.4563  1.8367
  751TMC3    C711157   0.841   1.991  10.353  0.4538 -0.5105  0.6943
  751TMC3    C811158   0.637   1.943  10.767 -0.5336 -0.4140 -0.7480
  751TMC3    O111159   0.929   2.035  10.286 -0.4113  0.3847 -0.1839
  751TMC3    O211160   0.637   1.827  10.721  0.7231  0.2673 -0.7507
  752TMC3    C111161   4.117   2.083   0.108  0.2586  0.4515 -0.0631
  752TMC3    C211162   3.987   2.042   0.095 -0.4636 -0.7720 -0.8359
  752TMC3    C311163   3.893   2.109   0.170 -0.4468 -0.1741  0.8746
  752TMC3    C411164   4.156   2.188   0.196 -0.1771  0.2289  0.0795
  752TMC3    C511165   4.057   2.250   0.265  0.3213 -0.1542  0.1447
  752TMC3    C611166   3.928   2.207   0.266  0.1731 -0.8742 -0.6140
  752TMC3     C11167   4.230   2.042   0.020  0.2413 -0.4196 -0.4307
  752TMC3     O11168   4.342   2.084   0.046  0.6107 -0.2777  0.3806
  752TMC3     H11169   3.963   1.958   0.030 -1.6388 -0.6262 -0.5893
  752TMC3    H111170   4.257   2.227   0.199 -1.0524  2.5227 -0.3719
  752TMC3    H211171   3.854   2.264   0.321  3.0897  1.9362  0.4349
  752TMC3    C711172   4.112   2.337   0.371 -0.3287 -0.3048  0.3052
  752TMC3    C811173   3.758   2.067   0.179  0.5488 -0.5829  0.1851
  752TMC3    O111174   4.221   2.296   0.415 -0.2427 -0.0261 -0.3885
  752TMC3    O211175   3.691   2.105   0.272 -0.2966  0.8193 -0.0967
  753TMC3    C111176   1.330   2.965  13.194  0.2543 -0.4104 -0.2827
  753TMC3    C211177   1.410   3.006  13.296  0.0100 -0.0646 -0.0949
  753TMC3    C311178   1.459   2.905  13.376  0.4697  0.0989  0.0924
  753TMC3    C411179   1.315   2.835  13.159 -0.1680 -0.3327 -0.0720
  753TMC3    C511180   1.377   2.739  13.239 -0.2267  0.1572 -0.6225
  753TMC3    C611181   1.456   2.771  13.340 -0.2466  0.6338 -0.4410
  753TMC3     C11182   1.259   3.065  13.113  0.0400  0.3788  0.7297
  753TMC3     O11183   1.172   3.029  13.033  0.2465  0.0818  0.3830
  753TMC3     H11184   1.389   3.103  13.340  1.8661  0.2536  0.0634
  753TMC3    H111185   1.256   2.807  13.074  1.4920  0.9879 -1.6701
  753TMC3    H211186   1.490   2.693  13.406 -0.9448 -0.1542 -1.0164
  753TMC3    C711187   1.328   2.605  13.218 -0.0950 -0.1175 -0.1246
  753TMC3    C811188   1.553   2.937  13.479 -0.1319  0.2317 -0.4824
  753TMC3    O111189   1.217   2.597  13.164  0.1033 -0.1384 -0.4756
  753TMC3    O211190   1.573   2.849  13.561  0.4852  0.0338 -0.0779
  754MPD2     C11191   0.444   2.237  13.316  0.2370 -0.1046  0.0703
  754MPD2    C111192   0.381   2.119  13.349  0.1377  0.4893 -0.2850
  754MPD2    C211193   0.292   2.068  13.259 -0.0537 -0.3290 -0.2069
  754MPD2    C311194   0.269   2.125  13.133  0.3588  0.1855  0.7048
  754MPD2    C411195   0.344   2.238  13.096  0.2742 -0.6865  0.6588
  754MPD2    C511196   0.426   2.298  13.191  0.6223  0.1945  0.5425
  754MPD2     H11197   0.231   1.986  13.296  0.1375  0.9608  2.9947
  754MPD2    H111198   0.321   2.285  13.001 -1.3161  0.7871  1.7520
  754MPD2    H211199   0.508   2.287  13.388  0.0297 -0.5410  0.5566
  754MPD2    H311200   0.479   2.390  13.171 -0.6220  0.6421 -0.7111
  754MPD2     N11201   0.185   2.062  13.036  0.4012  0.7986  0.4981
  754MPD2    H511202   0.152   2.119  12.959 -0.2017  0.2129  0.3302
  754MPD2    N111203   0.396   2.050  13.471 -0.8892 -0.1171 -0.2373
  754MPD2    H711204   0.341   1.965  13.482 -0.5143 -0.3476 -0.1172
  755MPD2     C11205   4.184   2.539  13.133 -0.1590  0.4210  0.2110
  755MPD2    C111206   4.132   2.410  13.114 -0.7818 -0.5711 -0.1758
  755MPD2    C211207   4.227   2.310  13.084  1.0957 -0.0405 -0.7488
  755MPD2    C311208   4.361   2.329  13.072  0.2893 -0.1164 -0.3351
  755MPD2    C411209   4.406   2.453  13.095  0.1320 -0.3422 -0.8726
  755MPD2    C511210   4.319   2.553  13.126  0.1894 -0.7013 -0.2799
  755MPD2     H11211   4.179   2.216  13.059  0.5410  0.4583 -1.5756
  755MPD2    H111212   4.511   2.478  13.101  0.0102 -0.4242  1.9387
  755MPD2    H211213   4.126   2.624  13.168 -0.1630 -0.2001  1.6838
  755MPD2    H311214   4.360   2.650  13.152 -0.9914  0.0926 -1.4243
  755MPD2     N11215   4.450   2.230  13.031  0.3092  0.6843 -0.0801
  755MPD2    H511216   4.548   2.253  13.045  0.6564  2.0171 -4.9776
  755MPD2    N111217   3.993   2.372  13.130  0.0151  0.8508 -0.0203
  755MPD2    H711218   3.973   2.275  13.106  1.8019  1.0520 -2.3707
  756MPD2     C11219   0.309   3.165   9.770 -0.4994  0.0071  0.0357
  756MPD2    C111220   0.211   3.144   9.870  0.0302 -0.3017 -0.0289
  756MPD2    C211221   0.080   3.148   9.823 -0.2724 -0.4623  0.5956
  756MPD2    C311222   0.044   3.156   9.686 -0.1678  0.3442  0.0904
  756MPD2    C411223   0.148   3.173   9.597 -0.1408 -0.0758 -0.2698
  756MPD2    C511224   0.278   3.170   9.634  0.3800 -0.4744 -0.5262
  756MPD2     H11225   4.726   3.137   9.887 -1.1270  1.0509 -0.2943
  756MPD2    H111226   0.139   3.166   9.489  0.5246  0.1747 -0.3361
  756MPD2    H211227   0.416   3.165   9.792 -0.0580 -1.4139 -2.1402
  756MPD2    H311228   0.352   3.190   9.558 -1.7860 -0.1708 -2.5466
  756MPD2     N11229   4.639   3.135   9.655  0.8267  0.4418  0.3068
  756MPD2    H511230   4.569   3.133   9.729 -1.1372 -0.3359 -1.5676
  756MPD2    N111231   0.239   3.117  10.006 -0.4031 -0.5081  0.2756
  756MPD2    H711232   0.155   3.112  10.064 -0.3066  1.2562  0.5821
  757MPD2     C11233   4.235   2.508   9.983 -0.2353 -0.4035 -0.1713
  757MPD2    C111234   4.362   2.546   9.954 -0.6387 -0.3230 -0.1880
  757MPD2    C211235   4.379   2.640   9.854  0.5691  0.0829 -0.7715
  757MPD2    C311236   4.279   2.692   9.785  0.4097 -0.0225 -0.1303
  757MPD2    C411237   4.149   2.654   9.816  0.2908  0.2022  0.2860
  757MPD2    C511238   4.124   2.564   9.917 -0.1333  0.3633 -0.2178
  757MPD2     H11239   4.482   2.670   9.835  1.2655 -1.1491  1.0333
  757MPD2    H111240   4.061   2.698   9.770 -1.0296 -1.6767  1.0127
  757MPD2    H211241   4.211   2.431  10.055  1.7015  0.8125  1.7890
  757MPD2    H311242   4.024   2.535   9.945  0.2914 -2.8114 -1.8713
  757MPD2     N11243   4.318   2.786   9.685  0.2186 -0.2087 -0.2722
  757MPD2    H511244   4.417   2.805   9.670  0.4064 -2.5712 -1.9092
  757MPD2    N111245   4.471   2.488  10.025 -0.8461  0.1609 -0.2960
  757MPD2    H711246   4.449   2.409  10.085  0.2735 -0.5314 -0.8028
  758MPD2     C11247   0.604   1.730  15.778  0.2898 -0.3000 -0.9091
  758MPD2    C111248   0.656   1.658  15.884  0.5868 -0.5027  0.0802
  758MPD2    C211249   0.635   1.703  16.010  0.2642  0.2035  0.1480
  758MPD2    C311250   0.557   1.813  16.034  0.4908  0.4731  0.4675
  758MPD2    C411251   0.488   1.875  15.936  0.6535 -0.2521 -0.8950
  758MPD2    C511252   0.514   1.829  15.807 -0.1597  0.3135  0.0410
  758MPD2     H11253   0.695   1.658  16.089 -1.3059 -1.9361  0.1190
  758MPD2    H111254   0.424   1.962  15.947 -1.5337 -1.8195 -1.2336
  758MPD2    H211255   0.626   1.705  15.674  1.8489 -1.2836 -0.3353
  758MPD2    H311256   0.472   1.882  15.723  2.3354 -0.5393 -1.7390
  758MPD2     N11257   0.525   1.863  16.158  0.2330 -0.1738 -0.0052
  758MPD2    H511258   0.461   1.942  16.153 -0.6653 -0.7395  2.2060
  758MPD2    N111259   0.738   1.550  15.850 -0.2567  0.3055  0.0242
  758MPD2    H711260   0.756   1.538  15.751 -0.7173 -2.3485  0.2482
  759MPD2     C11261   0.080   4.168  10.638  0.6707  0.5057  0.0871
  759MPD2    C111262   4.692   4.217  10.624  0.2997 -0.4715 -0.3226
  759MPD2    C211263   4.679   4.352  10.608  0.1039 -0.1287  0.5858
  759MPD2    C311264   0.050   4.445  10.594  0.0049 -0.2290 -0.5937
  759MPD2    C411265   0.173   4.388  10.591  0.1071 -0.8016  0.2772
  759MPD2    C511266   0.188   4.252  10.617  0.2741  0.3966 -0.6070
  759MPD2     H11267   4.576   4.387  10.614 -0.5879 -1.5010 -2.8627
  759MPD2    H111268   0.257   4.455  10.573  0.2184 -0.8402  0.6598
  759MPD2    H211269   0.095   4.061  10.652 -2.4583 -0.1603 -1.5095
  759MPD2    H311270   0.285   4.204  10.618 -0.3801 -0.8854  0.3700
  759MPD2     N11271   0.017   4.581  10.572 -0.5938 -0.8135  0.0803
  759MPD2    H511272   4.651   4.601  10.579 -0.1957  1.7293 -1.7870
  759MPD2    N111273   4.576   4.149  10.654 -0.5856 -0.6862  0.0348
  759MPD2    H711274   4.490   4.203  10.652 -1.9772 -2.9756 -2.2615
  760MPD2     C11275   3.336   2.440  12.046 -0.4507  0.3036 -0.7057
  760MPD2    C111276   3.471   2.468  12.032  0.0762 -0.0501  0.4022
  760MPD2    C211277   3.565   2.368  12.044 -0.5879  0.2705 -0.1450
  760MPD2    C311278   3.534   2.237  12.074  1.1634 -1.0070  0.2469
  760MPD2    C411279   3.401   2.212  12.087 -0.1232  0.2504 -0.1883
  760MPD2    C511280   3.304   2.310  12.077  0.0626  0.0873 -0.1120
  760MPD2     H11281   3.667   2.404  12.047 -0.2232 -0.8406  1.0363
  760MPD2    H111282   3.366   2.111  12.103 -0.7550  0.3210 -1.0915
  760MPD2    H211283   3.253   2.509  12.042 -0.2872  0.4161 -2.1112
  760MPD2    H311284   3.201   2.278  12.089  0.1764 -0.3726 -0.3638
  760MPD2     N11285   3.633   2.132  12.081  0.1053  0.1084 -0.2347
  760MPD2    H511286   3.593   2.040  12.095  0.5980 -0.2631 -1.2330
  760MPD2    N111287   3.521   2.595  12.007 -0.1936 -1.1803  1.0554
  760MPD2    H711288   3.622   2.599  12.013  0.0031 -1.1577 -2.1539
  761MPD2     C11289   0.306   1.796  11.122 -0.2759 -0.1043  0.6514
  761MPD2    C111290   0.334   1.736  10.999 -0.1373 -0.9917  0.1725
  761MPD2    C211291   0.426   1.801  10.918 -0.1457  0.6578  0.3527
  761MPD2    C311292   0.482   1.925  10.959 -0.2211 -0.5496 -0.0593
  761MPD2    C411293   0.441   1.990  11.072  0.4812  0.2659  0.0658
  761MPD2    C511294   0.358   1.919  11.152  0.8792  0.0631  0.2360
  761MPD2     H11295   0.464   1.755  10.827 -1.5394  1.3314 -0.5695
  761MPD2    H111296   0.476   2.089  11.100  0.4626  0.8419 -1.9424
  761MPD2    H211297   0.236   1.749  11.190 -1.8425  2.0838  0.5512
  761MPD2    H311298   0.326   1.974  11.240 -1.5656  0.7369 -1.0751
  761MPD2     N11299   0.574   1.996  10.881 -0.3207 -0.7036 -0.2180
  761MPD2    H511300   0.589   2.095  10.900 -0.2264 -0.6391 -0.6259
  761MPD2    N111301   0.274   1.609  10.973 -0.2118  0.4106 -0.4881
  761MPD2    H711302   0.216   1.564  11.042  1.2463  3.3189  2.6402
  762MPD2     C11303   0.556   0.789  10.764  0.8373 -0.9565  0.0812
  762MPD2    C111304   0.543   0.912  10.702 -0.2063 -0.6611 -0.5346
  762MPD2    C211305   0.608   0.934  10.582  0.5916  0.0879 -0.6318
  762MPD2    C311306   0.699   0.844  10.529  0.1833  0.1776  0.4724
  762MPD2    C411307   0.716   0.721  10.592  1.0153  0.0749 -0.5590
  762MPD2    C511308   0.642   0.693  10.708  0.1975  0.6991 -0.1151
  762MPD2     H11309   0.598   1.031  10.536 -0.8804  0.3490  0.2441
  762MPD2    H111310   0.776   0.643  10.546  1.2543 -0.0165 -0.0942
  762MPD2    H211311   0.491   0.761  10.847  1.0132 -0.4221  0.3935
  762MPD2    H311312   0.643   0.596  10.757 -2.0142  0.5837 -0.2817
  762MPD2     N11313   0.773   0.860  10.414  0.1568  0.2165 -0.5895
  762MPD2    H511314   0.828   0.781  10.385  0.9787 -0.2736  2.3886
  762MPD2    N111315   0.457   1.004  10.764  0.5741  0.8989 -1.2648
  762MPD2    H711316   0.398   0.965  10.837 -0.2838 -0.6109 -2.7528
  763MPD2     C11317   2.467   1.000  16.210  0.5668  0.1421  0.6416
  763MPD2    C111318   2.404   1.108  16.160  0.0165 -0.4240 -0.4661
  763MPD2    C211319   2.365   1.207  16.247  0.2892  0.1519 -0.0332
  763MPD2    C311320   2.397   1.191  16.387 -0.2584  0.1303 -0.1049
  763MPD2    C411321   2.443   1.071  16.431 -0.0948 -0.0525 -0.2603
  763MPD2    C511322   2.484   0.976  16.343 -0.2764  0.1459  0.5300
  763MPD2     H11323   2.313   1.290  16.200 -1.7235 -2.0731 -1.7008
  763MPD2    H111324   2.455   1.052  16.538  2.5100  1.7769 -0.2090
  763MPD2    H211325   2.508   0.924  16.145  0.3761  0.5878 -0.0064
  763MPD2    H311326   2.521   0.882  16.382 -1.6959 -1.0114 -0.9358
  763MPD2     N11327   2.365   1.285  16.481 -0.4935  0.6847 -0.6294
  763MPD2    H511328   2.371   1.248  16.575  0.4723 -0.6656 -1.2329
  763MPD2    N111329   2.369   1.119  16.021  0.5103 -0.0829 -0.7690
  763MPD2    H711330   2.322   1.208  16.005 -1.3737 -0.8898  0.2987
  764MPD2     C11331   4.240   2.478  17.496 -0.1352 -0.2370 -0.4803
  764MPD2    C111332   4.268   2.614  17.508  0.0682  0.6842  0.2410
  764MPD2    C211333   4.307   2.667  17.629 -0.0266  0.9417 -0.1354
  764MPD2    C311334   4.328   2.579   0.004 -0.3563 -0.1409  0.2326
  764MPD2    C411335   4.305   2.443  17.724  0.3885  0.4263  0.4414
  764MPD2    C511336   4.252   2.395  17.603  0.1561  0.5667  0.2187
  764MPD2     H11337   4.324   2.773  17.644  2.5817  0.4892  0.1924
  764MPD2    H111338   4.329   2.371   0.072 -1.6402 -1.4751 -0.7144
  764MPD2    H211339   4.188   2.443  17.408  1.8685  0.7535 -2.0529
  764MPD2    H311340   4.224   2.291  17.590  2.9796 -0.2713  0.8626
  764MPD2     N11341   4.379   2.634   0.124 -0.9308  0.1488  0.3715
  764MPD2    H511342   4.388   2.735   0.124  1.0581 -0.0508 -2.1772
  764MPD2    N111343   4.248   2.708  17.403 -0.0006 -0.6164 -0.0658
  764MPD2    H711344   4.253   2.805  17.433  0.3177 -0.7162  0.1976
  765MPD2     C11345   0.499   1.230  15.984 -0.1125 -0.0100  0.2188
  765MPD2    C111346   0.517   1.221  15.849  0.0569  0.2375 -0.3611
  765MPD2    C211347   0.610   1.135  15.793  0.5638 -0.6130  0.1457
  765MPD2    C311348   0.699   1.064  15.880  0.1570  1.2010 -1.3388
  765MPD2    C411349   0.680   1.080  16.015 -0.0250  0.6372  0.2243
  765MPD2    C511350   0.582   1.154  16.064  0.0860  0.1982  0.2039
  765MPD2     H11351   0.623   1.119  15.686  0.0612 -0.2566  0.0286
  765MPD2    H111352   0.750   1.040  16.087  0.1495  0.8745  0.1892
  765MPD2    H211353   0.426   1.286  16.040 -1.7073 -2.9564  1.0698
  765MPD2    H311354   0.576   1.169  16.171 -0.1471 -0.1173  0.2349
  765MPD2     N11355   0.797   0.972  15.829 -0.8094  0.7364  0.1174
  765MPD2    H511356   0.822   0.975  15.731  2.8946 -2.0131  0.9633
  765MPD2    N111357   0.423   1.293  15.773  0.0346  0.4834  0.8198
  765MPD2    H711358   0.356   1.339  15.834  0.4916  0.7132  1.1422
  766MPD2     C11359   4.470   1.163  15.362 -0.5169  0.2360  0.0063
  766MPD2    C111360   4.602   1.125  15.348  0.0465  0.6847  0.4566
  766MPD2    C211361   4.642   1.020  15.269  0.1238  0.1210 -0.5471
  766MPD2    C311362   4.548   0.955  15.187 -0.4348 -0.2599  0.2781
  766MPD2    C411363   4.419   0.988  15.197 -0.4657  0.0724 -0.2802
  766MPD2    C511364   4.386   1.088  15.287 -0.2704 -0.1128 -0.1185
  766MPD2     H11365   0.013   0.995  15.252  0.2789  1.2053 -1.2166
  766MPD2    H111366   4.342   0.932  15.144 -0.1741 -0.2634 -0.3513
  766MPD2    H211367   4.441   1.247  15.424  3.0376  1.4747  0.0456
  766MPD2    H311368   4.280   1.115  15.288 -0.2532 -0.0620  0.6777
  766MPD2     N11369   4.579   0.858  15.094 -0.2430  0.5045  0.0508
  766MPD2    H511370   4.504   0.836  15.029 -0.6067  2.1724 -0.0743
  766MPD2    N111371   4.707   1.192  15.416  0.3054 -0.4940 -0.0644
  766MPD2    H711372   0.069   1.171  15.384 -0.0277  1.0440 -2.0610
  767MPD2     C11373   4.182   1.044  14.897  0.4377 -0.0962 -0.4325
  767MPD2    C111374   4.306   1.084  14.853 -0.7830 -0.2362  0.0377
  767MPD2    C211375   4.366   1.042  14.740  0.0213  0.8162  0.4074
  767MPD2    C311376   4.293   0.963  14.651  0.2988 -0.1869 -0.1339
  767MPD2    C411377   4.165   0.921  14.686 -0.1259  0.3293 -0.6383
  767MPD2    C511378   4.116   0.960  14.805 -0.0163  0.1489 -0.1772
  767MPD2     H11379   4.466   1.076  14.715 -0.0501  1.5323  1.1087
  767MPD2    H111380   4.106   0.863  14.616 -0.4298 -0.2078  0.0515
  767MPD2    H211381   4.138   1.076  14.991 -0.8212  0.1887 -1.1133
  767MPD2    H311382   4.017   0.922  14.830 -0.6522  1.7132 -0.2839
  767MPD2     N11383   4.345   0.934  14.521  0.3700  0.0362  0.0922
  767MPD2    H511384   4.443   0.959  14.510  0.6579 -0.4520  1.5383
  767MPD2    N111385   4.367   1.180  14.940  0.0738 -0.2169  0.0969
  767MPD2    H711386   4.308   1.231  15.006 -1.9882 -1.0897 -1.0615
  768MPD2     C11387   0.753   4.446  10.777 -0.1214  0.4375  0.2613
  768MPD2    C111388   0.682   4.445  10.899  0.0448  1.3205  0.0935
  768MPD2    C211389   0.755   4.423  11.012  0.0037 -0.6303  0.0317
  768MPD2    C311390   0.888   4.385  11.011 -0.8907 -0.0782 -0.1507
  768MPD2    C411391   0.962   4.376  10.892  0.7273  0.4355  0.1294
  768MPD2    C511392   0.888   4.403  10.773  0.1205  0.0158  0.6134
  768MPD2     H11393   0.695   4.427  11.102 -0.5046 -0.1408 -0.3313
  768MPD2    H111394   1.068   4.354  10.891  0.4382 -0.9018 -0.1249
  768MPD2    H211395   0.707   4.478  10.684 -1.3903  1.1244  1.1175
  768MPD2    H311396   0.933   4.403  10.675  0.7139  0.5355  0.8899
  768MPD2     N11397   0.960   4.359  11.132 -0.1398 -0.2496 -0.3082
  768MPD2    H511398   1.059   4.337  11.128 -0.5333 -2.0100 -0.5999
  768MPD2    N111399   0.548   4.476  10.921  0.3450  0.6823  0.2788
  768MPD2    H711400   0.523   4.489  11.018 -0.3144 -1.1316  0.3464
  769MPD2     C11401   1.493   2.126  15.002 -0.7383 -0.1552  0.6267
  769MPD2    C111402   1.397   2.133  15.101 -0.0212 -0.1475 -0.4721
  769MPD2    C211403   1.430   2.192  15.219 -0.3042 -0.4577  0.4002
  769MPD2    C311404   1.553   2.254  15.229 -0.0618  0.1614 -0.0698
  769MPD2    C411405   1.646   2.249  15.126 -0.2910 -0.9949  0.4360
  769MPD2    C511406   1.610   2.191  15.018  0.4844 -0.0742  0.4576
  769MPD2     H11407   1.368   2.198  15.308 -1.3334 -0.8204 -0.2844
  769MPD2    H111408   1.747   2.286  15.132 -1.7345  2.5015  2.8745
  769MPD2    H211409   1.475   2.077  14.907 -2.1163  1.4486  0.0760
  769MPD2    H311410   1.681   2.183  14.937 -1.0587  0.8169 -0.9904
  769MPD2     N11411   1.587   2.320  15.349 -0.2248 -0.2764 -0.7651
  769MPD2    H511412   1.513   2.325  15.418  0.0393  1.5200 -0.6326
  769MPD2    N111413   1.274   2.066  15.072  0.1041 -0.1657  0.3259
  769MPD2    H711414   1.273   2.036  14.975 -2.6100 -0.9120  0.6004
  770MPD2     C11415   1.225   1.390  14.595 -0.1165  0.1175  0.3915
  770MPD2    C111416   1.101   1.384  14.667 -0.0243 -0.5331  0.0653
  770MPD2    C211417   1.068   1.497  14.732  0.7548 -0.5238  1.0911
  770MPD2    C311418   1.138   1.610  14.723 -0.0437  0.2565 -0.2455
  770MPD2    C411419   1.265   1.609  14.662  0.3703 -0.9095 -0.1185
  770MPD2    C511420   1.305   1.498  14.593  0.1083  0.6761 -0.3895
  770MPD2     H11421   0.974   1.495  14.786  1.2380 -3.1839  1.8232
  770MPD2    H111422   1.328   1.697  14.653  0.9551 -1.0879  2.2789
  770MPD2    H211423   1.260   1.310  14.532  0.6906  0.6774  0.1261
  770MPD2    H311424   1.406   1.490  14.555  0.3749  0.4379  0.3692
  770MPD2     N11425   1.094   1.727  14.789 -0.8417  0.3147  0.5384
  770MPD2    H511426   1.157   1.806  14.794  0.3262 -0.6697  1.5165
  770MPD2    N111427   1.034   1.261  14.678 -0.2201 -0.1898  0.1346
  770MPD2    H711428   1.086   1.181  14.645  0.4139 -0.1743  1.0919
  771MPD2     C11429   2.369   0.589  13.651 -0.0824 -0.4485 -0.3052
  771MPD2    C111430   2.325   0.686  13.557 -0.0454 -0.1780 -0.5522
  771MPD2    C211431   2.254   0.645  13.450 -0.4407 -0.0490 -1.1362
  771MPD2    C311432   2.225   0.511  13.428  0.1323 -0.1175 -0.7434
  771MPD2    C411433   2.283   0.419  13.509  0.0817  0.2374 -0.0436
  771MPD2    C511434   2.350   0.457  13.620 -0.6991  0.5379  0.5609
  771MPD2     H11435   2.229   0.722  13.377  0.1894  0.7229 -0.5430
  771MPD2    H111436   2.265   0.313  13.494 -0.0445  0.0408  1.4485
  771MPD2    H211437   2.417   0.616  13.744  0.7275  0.9236 -1.1118
  771MPD2    H311438   2.377   0.385  13.697 -2.1279 -0.3785  0.2022
  771MPD2     N11439   2.148   0.478  13.311 -0.3228 -0.4965 -0.4084
  771MPD2    H511440   2.129   0.556  13.249 -1.4698  1.9609  3.0246
  771MPD2    N111441   2.355   0.825  13.566 -0.5613  0.0433 -0.3366
  771MPD2    H711442   2.320   0.888  13.494 -1.3313  1.7136  1.4921
  772MPD2     C11443   2.030   1.597  13.857  0.1772  0.1444 -0.0101
  772MPD2    C111444   2.026   1.467  13.825 -0.2127 -0.4570 -0.1854
  772MPD2    C211445   1.906   1.400  13.844  0.6371 -0.5820 -0.2809
  772MPD2    C311446   1.789   1.475  13.871  0.0399  0.0496  0.4634
  772MPD2    C411447   1.801   1.606  13.903  0.0651 -0.2485  0.3810
  772MPD2    C511448   1.922   1.672  13.895  0.1257  0.0983 -0.3643
  772MPD2     H11449   1.901   1.295  13.819 -1.5650 -0.3878 -0.7010
  772MPD2    H111450   1.714   1.666  13.929  0.4848 -0.2456  1.8025
  772MPD2    H211451   2.128   1.645  13.863  0.4230 -0.1939 -1.3175
  772MPD2    H311452   1.938   1.776  13.920 -1.4374  0.0784  0.6760
  772MPD2     N11453   1.657   1.424  13.852 -0.6693  0.4602  0.0630
  772MPD2    H511454   1.591   1.501  13.845  0.1671  0.8901 -3.1013
  772MPD2    N111455   2.145   1.401  13.807 -0.5472  0.6467 -0.3637
  772MPD2    H711456   2.227   1.459  13.794  0.5281 -1.0911 -1.2618
  773MPD2     C11457   1.141   1.904   0.074 -0.0213  0.1549  0.1957
  773MPD2    C111458   1.022   1.860   0.022  0.0120 -0.6629  0.3854
  773MPD2    C211459   0.974   1.734   0.061 -0.4999 -0.4544 -0.5375
  773MPD2    C311460   1.036   1.659   0.155  0.3276 -0.5626  0.1867
  773MPD2    C411461   1.153   1.708   0.207  0.1463  0.0705 -0.0401
  773MPD2    C511462   1.208   1.830   0.164 -0.0796  0.9313 -0.2978
  773MPD2     H11463   0.888   1.689   0.013 -0.3758 -1.2542 -0.0150
  773MPD2    H111464   1.208   1.648   0.278  3.3998  1.6686 -1.1982
  773MPD2    H211465   1.190   1.994   0.039 -1.7398  1.4995  1.2248
  773MPD2    H311466   1.303   1.861   0.207 -0.2678 -0.6033  1.2525
  773MPD2     N11467   0.987   1.538   0.202  0.3123 -0.7553  0.0949
  773MPD2    H511468   0.906   1.509   0.148  0.2293  0.4748 -0.4386
  773MPD2    N111469   0.942   1.925  17.655 -0.0134  0.5272 -0.8159
  773MPD2    H711470   0.862   1.868  17.629 -1.1608  2.3311 -1.2472
  774MPD2     C11471   4.653   1.355  13.563  0.0133 -0.2680 -0.1310
  774MPD2    C111472   0.057   1.336  13.577 -0.2072  0.3450  0.1270
  774MPD2    C211473   0.137   1.446  13.615 -0.2690 -1.0086  1.3826
  774MPD2    C311474   0.082   1.570  13.622 -0.5214  0.4655  0.2300
  774MPD2    C411475   4.676   1.591  13.589  0.5813  0.1852 -0.0904
  774MPD2    C511476   4.602   1.481  13.571 -0.1653 -0.7475  0.5033
  774MPD2     H11477   0.237   1.427  13.651  0.7333 -1.0752 -1.4152
  774MPD2    H111478   4.633   1.690  13.578  0.9876  0.3248 -0.4360
  774MPD2    H211479   4.588   1.272  13.539  0.1312  0.3112 -2.4861
  774MPD2    H311480   4.496   1.490  13.552  0.0071 -1.5573 -0.8279
  774MPD2     N11481   0.171   1.673  13.656  0.0442  0.0637 -0.4847
  774MPD2    H511482   0.262   1.648  13.694  0.1873  0.2666 -0.6939
  774MPD2    N111483   0.117   1.211  13.549 -0.2760  0.3636  0.3097
  774MPD2    H711484   0.060   1.127  13.556  1.0724 -0.5611  0.0764
  775MPD2     C11485   2.005   2.366  15.711 -0.1652  0.2945  0.0788
  775MPD2    C111486   1.999   2.488  15.778 -0.2121  0.6387 -0.2215
  775MPD2    C211487   2.043   2.602  15.704 -0.7665 -0.7235  0.4144
  775MPD2    C311488   2.115   2.589  15.579 -0.3493  0.2326  0.3295
  775MPD2    C411489   2.122   2.463  15.524  0.0285  0.8749 -0.2285
  775MPD2    C511490   2.069   2.354  15.592 -0.8247 -0.2669 -0.3442
  775MPD2     H11491   2.026   2.700  15.747  0.4750 -0.9030  1.3321
  775MPD2    H111492   2.178   2.445  15.434  1.2003  3.2584  0.0052
  775MPD2    H211493   1.952   2.282  15.755 -1.2950  0.0287 -1.7744
  775MPD2    H311494   2.080   2.259  15.542 -1.0757 -0.8358  0.6704
  775MPD2     N11495   2.154   2.692  15.494 -0.5370  0.2822  0.7148
  775MPD2    H511496   2.183   2.661  15.402 -0.5775 -1.8759  1.4325
  775MPD2    N111497   1.940   2.496  15.905 -0.5946 -0.1212 -0.0921
  775MPD2    H711498   1.912   2.410  15.950 -0.7988 -0.2326 -0.4420
  776MPD2     C11499   1.719   3.030  11.172 -0.2379  0.3685  0.3111
  776MPD2    C111500   1.607   3.070  11.247 -0.8465  0.0288 -0.5111
  776MPD2    C211501   1.630   3.175  11.332 -0.4914  1.1368 -0.3574
  776MPD2    C311502   1.752   3.243  11.347  0.6083 -0.4651  0.3112
  776MPD2    C411503   1.858   3.210  11.264 -0.0165 -0.1418  0.7563
  776MPD2    C511504   1.842   3.098  11.182 -0.4373  1.2363 -0.3373
  776MPD2     H11505   1.546   3.218  11.384 -0.3414  1.4344 -0.3631
  776MPD2    H111506   1.956   3.255  11.266 -0.1803  0.4986 -3.8602
  776MPD2    H211507   1.715   2.955  11.095  0.7085  0.7424 -0.1007
  776MPD2    H311508   1.932   3.064  11.132  1.1052  1.9172  1.9771
  776MPD2     N11509   1.769   3.356  11.431  0.0781  0.4969 -0.0650
  776MPD2    H511510   1.835   3.428  11.404 -1.1279  1.4694 -0.3863
  776MPD2    N111511   1.494   2.988  11.233  0.1021  0.5091  0.2664
  776MPD2    H711512   1.510   2.898  11.188 -2.5698 -0.7575  1.7892
  777MPD2     C11513   1.322   4.608   0.721 -0.3869 -0.2469 -0.5707
  777MPD2    C111514   1.191   4.636   0.706 -0.1084  0.3832  0.4619
  777MPD2    C211515   1.127   4.553   0.611 -0.2865 -0.1574  0.7244
  777MPD2    C311516   1.200   4.459   0.538 -0.2023  0.1076 -0.7353
  777MPD2    C411517   1.333   4.433   0.563  0.2895 -0.4147 -0.1872
  777MPD2    C511518   1.392   4.506   0.653  0.1236 -0.6306  0.0192
  777MPD2     H11519   1.021   4.556   0.590 -0.1580  2.3418  0.4878
  777MPD2    H111520   1.393   4.370   0.498 -0.7983 -1.7542  0.0967
  777MPD2    H211521   1.384   4.671   0.783 -0.0842  0.5063 -1.6338
  777MPD2    H311522   1.491   4.486   0.692  0.6884 -1.0636 -1.6198
  777MPD2     N11523   1.128   4.405   0.435 -0.7705  0.2744  0.3987
  777MPD2    H511524   1.028   4.424   0.427 -1.0294 -0.8871  0.8426
  777MPD2    N111525   1.126   4.730   0.782  0.2842  0.2701  0.0954
  777MPD2    H711526   1.192   0.043   0.844 -1.1287  2.0888  0.2512
  778MPD2     C11527   2.458   0.827  14.358 -0.2478 -0.1908  0.1594
  778MPD2    C111528   2.405   0.762  14.244  0.2872 -0.5096 -0.0526
  778MPD2    C211529   2.467   0.799  14.128  0.0021 -0.9044  0.2463
  778MPD2    C311530   2.570   0.887  14.117 -0.3245 -0.5467 -0.0797
  778MPD2    C411531   2.612   0.949  14.226 -0.5422 -0.1040  1.1123
  778MPD2    C511532   2.561   0.922  14.351 -0.0469  0.4613  0.3207
  778MPD2     H11533   2.424   0.761  14.036 -1.8822  0.2849  0.6306
  778MPD2    H111534   2.700   1.011  14.218 -0.6768 -0.0744 -0.1215
  778MPD2    H211535   2.426   0.804  14.459 -0.3946  0.9753  0.3787
  778MPD2    H311536   2.604   0.964  14.441 -0.3771  2.1645 -0.3196
  778MPD2     N11537   2.619   0.918  13.991  0.0571 -0.3297  0.4826
  778MPD2    H511538   2.589   0.856  13.916  0.9893 -1.2847  0.8936
  778MPD2    N111539   2.295   0.670  14.239  0.3682 -0.7693  0.1705
  778MPD2    H711540   2.278   0.627  14.149 -0.6965 -0.0961  0.0576
  779MPD2     C11541   1.536   4.232  13.628 -0.1080 -0.8043 -0.0357
  779MPD2    C111542   1.663   4.214  13.674 -0.4848  0.2684  0.6453
  779MPD2    C211543   1.749   4.322  13.675 -0.7618  0.2831  0.1762
  779MPD2    C311544   1.716   4.448  13.629  0.1936 -0.8008  0.0150
  779MPD2    C411545   1.587   4.463  13.581  0.1747 -0.0914  0.1813
  779MPD2    C511546   1.498   4.357  13.590 -0.3388 -0.4104 -0.1075
  779MPD2     H11547   1.850   4.310  13.712 -0.0971  1.4271 -1.2437
  779MPD2    H111548   1.544   4.557  13.547 -0.3756 -0.2591  0.4173
  779MPD2    H211549   1.457   4.158  13.629  1.0437 -2.0947 -2.7841
  779MPD2    H311550   1.394   4.371  13.563 -0.5186  0.3831  0.9686
  779MPD2     N11551   1.814   4.547  13.635  0.0444  0.3930 -0.4026
  779MPD2    H511552   1.893   4.526  13.695 -0.9519 -2.2924 -0.0316
  779MPD2    N111553   1.730   4.095  13.707 -0.2147  0.2135  0.2835
  779MPD2    H711554   1.830   4.093  13.724 -0.5616 -0.3396  2.3139
  780MPD2     C11555   0.879   3.849   0.026 -0.6194 -0.5202  0.0885
  780MPD2    C111556   0.950   3.774   0.121  0.7429  0.3718  1.0798
  780MPD2    C211557   1.079   3.811   0.152  0.4116 -0.3668 -0.3788
  780MPD2    C311558   1.137   3.913   0.088  0.7064 -0.6551 -0.5584
  780MPD2    C411559   1.078   3.971  17.710  0.5424 -0.3004 -0.1947
  780MPD2    C511560   0.950   3.939  17.678 -0.1041 -0.2599  0.4664
  780MPD2     H11561   1.143   3.759   0.223  0.6771 -0.2809 -0.5541
  780MPD2    H111562   1.128   4.043  17.646  1.3570 -0.7697 -0.0770
  780MPD2    H211563   0.774   3.832   0.006 -0.6219 -0.1420 -0.2067
  780MPD2    H311564   0.899   3.983  17.593  1.3879  0.2968 -0.1386
  780MPD2     N11565   1.275   3.942   0.119 -0.5486 -0.5529 -0.0644
  780MPD2    H511566   1.314   3.893   0.198  2.4431  0.6460 -0.8237
  780MPD2    N111567   0.879   3.670   0.190  0.1685  0.1468  0.6834
  780MPD2    H711568   0.783   3.652   0.165  0.2099  1.5987 -0.4936
  781MPD2     C11569   2.864   1.536  12.244  0.4401 -0.5244  0.9221
  781MPD2    C111570   2.995   1.489  12.215  0.1474 -0.6108 -0.1646
  781MPD2    C211571   3.058   1.542  12.103 -0.5297 -0.0225 -0.0423
  781MPD2    C311572   2.992   1.637  12.025 -0.2789 -0.1157 -0.3373
  781MPD2    C411573   2.866   1.681  12.060 -0.0723  0.5082 -0.0931
  781MPD2    C511574   2.799   1.627  12.171  0.8738  0.1516 -0.2066
  781MPD2     H11575   3.160   1.522  12.073 -0.7896 -2.4787  0.7353
  781MPD2    H111576   2.827   1.766  12.006 -1.6992 -0.2427 -0.1046
  781MPD2    H211577   2.800   1.509  12.327  2.1274  0.3459  2.4848
  781MPD2    H311578   2.705   1.667  12.205  0.4657 -1.2895  0.3535
  781MPD2     N11579   3.054   1.709  11.927 -0.3012 -0.1146  0.4956
  781MPD2    H511580   3.014   1.796  11.893 -1.3549 -1.2796 -1.2545
  781MPD2    N111581   3.067   1.389  12.294  0.4291 -0.0448 -0.0013
  781MPD2    H711582   3.163   1.368  12.269  0.0890  1.8571 -2.9525
  782MPD2     C11583   1.320   2.180   9.521 -0.3447 -0.2448 -0.5366
  782MPD2    C111584   1.322   2.142   9.649  0.2014  0.0801 -0.6360
  782MPD2    C211585   1.341   2.236   9.753  0.3160  0.0219  0.3285
  782MPD2    C311586   1.379   2.369   9.723  0.5346 -0.2459 -0.0776
  782MPD2    C411587   1.379   2.400   9.590 -0.2708  0.4859  0.2596
  782MPD2    C511588   1.341   2.310   9.490  0.1475  0.1552  1.2190
  782MPD2     H11589   1.345   2.207   9.857 -0.6053  0.7573  0.5739
  782MPD2    H111590   1.402   2.500   9.554  1.2619  0.4059  1.0125
  782MPD2    H211591   1.312   2.117   9.433  0.2535  0.9122 -1.4224
  782MPD2    H311592   1.348   2.355   9.391  0.2319 -0.0538  1.1304
  782MPD2     N11593   1.412   2.448   9.840 -1.0578  0.2927 -0.1779
  782MPD2    H511594   1.402   2.411   9.934  2.5502 -1.0154 -0.3311
  782MPD2    N111595   1.318   2.005   9.681 -0.0936 -0.1201 -0.7314
  782MPD2    H711596   1.306   1.990   9.781 -2.1868 -1.4872 -1.1984
  783MPD2     C11597   0.680   1.701  10.219  0.2929  0.3800 -0.3370
  783MPD2    C111598   0.771   1.796  10.220  0.2847 -0.4777 -0.1708
  783MPD2    C211599   0.859   1.806  10.117  0.4094 -0.5676  0.1381
  783MPD2    C311600   0.881   1.707  10.024  0.3616  0.2832  0.1962
  783MPD2    C411601   0.790   1.599  10.033  0.3084  0.2086  0.1162
  783MPD2    C511602   0.692   1.600  10.126  0.3653  0.0383  0.0729
  783MPD2     H11603   0.932   1.886  10.119  0.3169 -0.4686 -0.3381
  783MPD2    H111604   0.784   1.525   9.954 -1.3660 -0.4086  0.8259
  783MPD2    H211605   0.603   1.702  10.295  2.0136  0.4704  1.4158
  783MPD2    H311606   0.622   1.517  10.114 -0.7751  0.8747  0.9882
  783MPD2     N11607   0.992   1.712   9.933  0.4406  0.2251  0.1038
  783MPD2    H511608   1.054   1.791   9.943  0.3408  0.3168 -0.0104
  783MPD2    N111609   0.765   1.881  10.332  0.4937 -0.0247 -0.1631
  783MPD2    H711610   0.698   1.864  10.406  1.3919  1.8693  1.0822
  784MPD2     C11611   3.122   2.200   1.041  0.1285  0.0404 -0.2633
  784MPD2    C111612   3.128   2.338   1.067 -0.3464 -0.2767  0.1897
  784MPD2    C211613   3.016   2.407   1.034  0.2670  0.5271  0.0210
  784MPD2    C311614   2.908   2.345   0.969 -0.1222  0.0555 -0.0037
  784MPD2    C411615   2.898   2.211   0.973 -0.7346 -0.6269  0.1315
  784MPD2    C511616   3.010   2.134   0.998  0.0162 -0.3795 -0.7753
  784MPD2     H11617   3.007   2.514   1.043 -0.5251  0.3970  0.7576
  784MPD2    H111618   2.808   2.159   0.942 -1.6643  0.9271  0.2307
  784MPD2    H211619   3.205   2.134   1.066  0.9024  0.8187 -0.7418
  784MPD2    H311620   3.017   2.026   0.991 -0.3465 -0.5581  1.6199
  784MPD2     N11621   2.803   2.431   0.931 -0.5095  0.1865 -0.1126
  784MPD2    H511622   2.822   2.529   0.948 -2.2976 -0.0214  3.1154
  784MPD2    N111623   3.238   2.407   1.118  0.2143 -0.5578 -0.1507
  784MPD2    H711624   3.232   2.507   1.133 -2.3211 -0.6368 -0.5903
  785MPD2     C11625   3.920   1.167  11.081 -0.2135 -0.8140  0.7887
  785MPD2    C111626   3.791   1.217  11.049 -0.0050 -0.1103  0.6798
  785MPD2    C211627   3.699   1.140  10.987  0.0798 -0.3662 -0.4622
  785MPD2    C311628   3.723   1.009  10.946 -0.0627 -0.1421  0.7550
  785MPD2    C411629   3.850   0.957  10.974 -0.9198  0.3524 -0.4160
  785MPD2    C511630   3.949   1.039  11.033  0.2357 -0.0635 -0.0756
  785MPD2     H11631   3.607   1.185  10.952 -1.9374 -1.4131  3.4412
  785MPD2    H111632   3.878   0.853  10.962 -0.3253  0.5112 -0.3836
  785MPD2    H211633   4.002   1.221  11.126  1.2402 -1.8758 -0.5866
  785MPD2    H311634   4.050   1.003  11.045 -0.3359 -1.5091  0.3988
  785MPD2     N11635   3.623   0.944  10.870  0.2946  0.1366  0.5832
  785MPD2    H511636   3.530   0.984  10.866  1.0591  1.7351 -1.4075
  785MPD2    N111637   3.764   1.345  11.094 -0.6440  0.3422  0.1526
  785MPD2    H711638   3.839   1.401  11.133 -0.8726  1.5870 -1.2098
  786MPD2     C11639   2.528   3.645  14.818  0.0859  0.0063 -0.0472
  786MPD2    C111640   2.539   3.532  14.896 -0.1940 -0.2223  0.7412
  786MPD2    C211641   2.551   3.555  15.028  0.5941 -0.5333 -0.3420
  786MPD2    C311642   2.569   3.689  15.084 -0.3083 -0.7179  1.0920
  786MPD2    C411643   2.577   3.789  14.996 -0.3893 -0.4556 -0.0687
  786MPD2    C511644   2.559   3.770  14.864  0.0081  0.1497 -0.2114
  786MPD2     H11645   2.553   3.474  15.100  1.0400 -2.0267 -2.0673
  786MPD2    H111646   2.584   3.892  15.027 -2.0373 -0.8729  1.6959
  786MPD2    H211647   2.499   3.644  14.713 -0.6426 -0.1608  0.1502
  786MPD2    H311648   2.538   3.855  14.801  0.8358  0.2949 -0.2911
  786MPD2     N11649   2.597   3.711  15.220  0.0807 -0.0540  0.4507
  786MPD2    H511650   2.605   3.808  15.250 -0.9325 -0.1446  1.0142
  786MPD2    N111651   2.534   3.401  14.838  0.0709  0.5635 -0.5132
  786MPD2    H711652   2.533   3.326  14.906  2.2261  0.1273 -0.9788
  787MPD2     C11653   2.560   2.624  15.037  0.2076  1.0020 -0.0021
  787MPD2    C111654   2.649   2.715  15.000 -0.1394  0.2255  0.4804
  787MPD2    C211655   2.771   2.714  15.063  0.1329  0.4823  0.3456
  787MPD2    C311656   2.812   2.628  15.161  0.0089  0.1847  0.6853
  787MPD2    C411657   2.729   2.525  15.189  0.1731 -0.8846 -0.0767
  787MPD2    C511658   2.599   2.532  15.138 -0.0994 -1.1834 -0.7840
  787MPD2     H11659   2.851   2.777  15.025  1.1156 -0.4207  0.9090
  787MPD2    H111660   2.752   2.440  15.251 -1.8315 -0.5385  1.1587
  787MPD2    H211661   2.464   2.613  14.989 -0.5239  0.3321  1.6189
  787MPD2    H311662   2.528   2.454  15.162  0.6036 -2.4744 -2.8675
  787MPD2     N11663   2.945   2.639  15.202 -0.0197  0.1566 -0.1187
  787MPD2    H511664   2.999   2.715  15.161  1.3397  0.1589  1.6867
  787MPD2    N111665   2.611   2.811  14.899 -0.2101 -0.2507  0.0264
  787MPD2    H711666   2.527   2.794  14.845 -1.0213  0.4931  1.0563
  788MPD2     C11667   4.453   1.207   0.969  0.0143 -0.0260 -0.4919
  788MPD2    C111668   4.468   1.162   0.837  0.1518 -0.5927 -0.4693
  788MPD2    C211669   4.479   1.258   0.732  0.3855 -0.3425  0.7195
  788MPD2    C311670   4.442   1.395   0.759  0.1124 -0.0372  0.2586
  788MPD2    C411671   4.398   1.425   0.887 -0.4590 -0.3217  0.2192
  788MPD2    C511672   4.418   1.336   0.984  0.0126  0.9288  0.7069
  788MPD2     H11673   4.522   1.226   0.638 -0.9893  0.0253 -0.0379
  788MPD2    H111674   4.365   1.526   0.907 -0.5943 -0.3382  0.0817
  788MPD2    H211675   4.457   1.142   1.055  2.2056  0.6341 -0.0916
  788MPD2    H311676   4.403   1.382   1.081 -0.3681  0.8120  0.7031
  788MPD2     N11677   4.446   1.501   0.663 -1.0491  0.4598  0.0624
  788MPD2    H511678   4.393   1.583   0.693  0.1261  1.6670 -1.1454
  788MPD2    N111679   4.466   1.018   0.807  0.2284 -0.0653 -0.4564
  788MPD2    H711680   4.481   0.991   0.710 -1.9702  0.8127 -1.0533
  789MPD2     C11681   4.621   1.327  16.833 -0.0291 -0.0906 -0.0643
  789MPD2    C111682   4.498   1.359  16.775  0.4479  0.7451 -0.3205
  789MPD2    C211683   4.379   1.313  16.836  0.5059  0.0449  0.3486
  789MPD2    C311684   4.384   1.241  16.948  0.3373 -0.9605  0.0726
  789MPD2    C411685   4.502   1.222  17.013 -0.2355  0.2976  0.2443
  789MPD2    C511686   4.619   1.257  16.950  0.0237 -0.1875  0.5053
  789MPD2     H11687   4.283   1.343  16.795 -0.5309 -4.2514 -0.3395
  789MPD2    H111688   4.522   1.171  17.107  1.8735  0.8619  0.0997
  789MPD2    H211689   4.716   1.342  16.783  0.3863  1.2981  1.1289
  789MPD2    H311690   4.706   1.226  17.007 -0.3359 -0.5402  0.8633
  789MPD2     N11691   4.273   1.187  17.015 -0.0509 -0.1803 -0.0210
  789MPD2    H511692   4.286   1.166  17.114 -0.7559  0.5645  0.2254
  789MPD2    N111693   4.485   1.437  16.659  0.0950  0.2270  0.7772
  789MPD2    H711694   4.391   1.451  16.623  0.0825  0.7373  1.0093
  790MPD2     C11695   0.752   3.119  13.622  0.7334  0.4570  0.2749
  790MPD2    C111696   0.760   2.984  13.644 -0.1189 -0.1311 -0.2372
  790MPD2    C211697   0.731   2.906  13.537  0.0811 -0.1718 -0.4033
  790MPD2    C311698   0.674   2.957  13.422 -0.9163  0.7910 -1.0055
  790MPD2    C411699   0.656   3.092  13.409 -0.2030  0.3380 -0.9186
  790MPD2    C511700   0.696   3.162  13.511 -0.4482 -0.1799 -0.2964
  790MPD2     H11701   0.751   2.799  13.540  1.3420  0.1583  2.8912
  790MPD2    H111702   0.607   3.139  13.325 -1.3406 -1.3204 -1.1800
  790MPD2    H211703   0.791   3.195  13.688 -0.6332 -0.2963  1.9359
  790MPD2    H311704   0.689   3.270  13.504 -2.1947 -0.3000 -0.3781
  790MPD2     N11705   0.642   2.864  13.317  0.3690  0.0369  0.5438
  790MPD2    H511706   0.650   2.766  13.342 -0.5836  0.0891  1.0279
  790MPD2    N111707   0.821   2.943  13.761 -0.2267  0.2781 -0.1646
  790MPD2    H711708   0.856   3.020  13.817 -0.6090 -0.2098  0.7331
  791MPD2     C11709   4.686   2.872  13.027 -0.0383  0.1714  0.3945
  791MPD2    C111710   0.016   2.759  12.978  0.1021 -0.3231  0.2674
  791MPD2    C211711   4.674   2.670  12.897 -0.7293 -0.1052  0.1950
  791MPD2    C311712   4.539   2.703  12.861 -0.3363  0.3857  0.2553
  791MPD2    C411713   4.483   2.818  12.913 -0.2049 -0.1862 -0.4215
  791MPD2    C511714   4.558   2.896  12.999  0.2734 -0.0955 -0.2124
  791MPD2     H11715   4.714   2.576  12.859  0.2860  0.0738  0.8183
  791MPD2    H111716   4.378   2.843  12.908 -0.4033 -0.8620  0.2340
  791MPD2    H211717   0.004   2.935  13.099  1.6305  1.0116 -1.5024
  791MPD2    H311718   4.519   2.989  13.038  0.7526  0.6840 -1.6090
  791MPD2     N11719   4.475   2.604  12.790  0.6477 -0.9155  0.1826
  791MPD2    H511720   4.530   2.519  12.781  3.1631  0.4611  2.4820
  791MPD2    N111721   0.149   2.738  13.014 -0.2734 -0.1084  0.3058
  791MPD2    H711722   0.187   2.799  13.086  0.3491  1.0831 -1.0300
  792MPD2     C11723   0.866   3.278  11.365  0.0935 -0.1196  0.8770
  792MPD2    C111724   0.787   3.305  11.257 -0.5681 -0.3759  0.1219
  792MPD2    C211725   0.646   3.309  11.289 -0.3016  0.6921 -0.2615
  792MPD2    C311726   0.594   3.256  11.403  0.3941 -0.4119 -0.0569
  792MPD2    C411727   0.680   3.206  11.499  0.7640  0.0357  0.0949
  792MPD2    C511728   0.816   3.229  11.483 -0.3973  0.7110  0.2792
  792MPD2     H11729   0.580   3.345  11.211 -0.7460  1.7451  0.5890
  792MPD2    H111730   0.635   3.164  11.588 -1.5900  2.0321 -0.1370
  792MPD2    H211731   0.974   3.279  11.366  0.0785 -0.3862  2.5505
  792MPD2    H311732   0.880   3.204  11.567  0.1264  0.1926 -0.2732
  792MPD2     N11733   0.457   3.239  11.430  0.2928  0.1676 -0.8908
  792MPD2    H511734   0.445   3.177  11.509  0.4412  2.0477  0.6264
  792MPD2    N111735   0.839   3.338  11.129 -0.2597 -0.4235 -0.4552
  792MPD2    H711736   0.940   3.330  11.125 -0.2552 -0.7519  0.1826
  793MPD2     C11737   4.622   3.205  10.657  0.2116 -0.2354  0.3957
  793MPD2    C111738   0.024   3.226  10.685  0.4809 -0.1607 -0.6806
  793MPD2    C211739   0.055   3.222  10.822  0.3185  0.3921 -0.0533
  793MPD2    C311740   4.700   3.193  10.917 -0.2407 -0.4402  0.0046
  793MPD2    C411741   4.572   3.171  10.883 -0.0067 -0.4116  0.6395
  793MPD2    C511742   4.531   3.184  10.754 -0.6334  0.4614  0.3233
  793MPD2     H11743   0.154   3.251  10.856  1.3410 -1.2912 -1.5982
  793MPD2    H111744   4.497   3.157  10.960  0.8905  0.4010  1.6725
  793MPD2    H211745   4.588   3.211  10.554 -0.6552 -0.0866  0.6935
  793MPD2    H311746   4.430   3.177  10.718  0.0254  1.5961 -1.7106
  793MPD2     N11747   0.014   3.194  11.052  0.8007 -0.3821  0.5454
  793MPD2    H511748   0.113   3.215  11.065  1.8326 -3.6825 -1.9510
  793MPD2    N111749   0.128   3.233  10.591  0.2955  0.0806  0.7547
  793MPD2    H711750   0.221   3.252  10.626  0.8597 -1.6421  0.2151
  794MPD2     C11751   0.909   2.434  16.967 -0.8602 -0.2585 -0.2431
  794MPD2    C111752   0.784   2.380  16.993 -0.6752  0.1750 -0.4016
  794MPD2    C211753   0.686   2.395  16.899 -0.2294  0.1570 -0.4512
  794MPD2    C311754   0.709   2.467  16.782 -0.8180  0.4859 -0.1722
  794MPD2    C411755   0.838   2.515  16.756  0.1054 -0.2930 -0.4713
  794MPD2    C511756   0.936   2.504  16.853  0.2613 -0.0823  0.0078
  794MPD2     H11757   0.597   2.333  16.900 -1.0202  1.2967 -0.6241
  794MPD2    H111758   0.865   2.579  16.673 -1.9139  1.5833  0.3293
  794MPD2    H211759   0.998   2.427  17.029 -3.9267  1.3930  4.3593
  794MPD2    H311760   1.032   2.553  16.837  0.2229 -0.0435 -0.1026
  794MPD2     N11761   0.611   2.479  16.679  0.0836 -1.0953 -0.1718
  794MPD2    H511762   0.649   2.523  16.596 -0.5925 -1.6009 -0.7452
  794MPD2    N111763   0.747   2.314  17.114 -0.3946 -0.4008 -0.0180
  794MPD2    H711764   0.655   2.272  17.124 -1.4058  1.7584 -0.4344
  795MPD2     C11765   3.133   4.558  13.650 -0.1830  0.0403 -0.2807
  795MPD2    C111766   3.102   4.448  13.569  0.7535  0.0192  0.3920
  795MPD2    C211767   3.179   4.334  13.579 -0.4257 -0.3121 -0.3814
  795MPD2    C311768   3.279   4.326  13.668  0.1933  0.0333 -0.4058
  795MPD2    C411769   3.304   4.437  13.752  0.4561 -0.5230  0.1103
  795MPD2    C511770   3.236   4.554  13.733  0.2435 -0.4820 -0.1475
  795MPD2     H11771   3.146   4.248  13.521  2.8556 -0.6502 -1.7615
  795MPD2    H111772   3.385   4.440  13.823  0.0284 -0.5932  0.6028
  795MPD2    H211773   3.075   4.650  13.641  0.5710  0.5325 -0.1180
  795MPD2    H311774   3.260   4.637  13.799 -2.9248  1.4255 -1.3762
  795MPD2     N11775   3.359   4.205  13.672  0.2954  0.0068 -0.2311
  795MPD2    H511776   3.329   4.116  13.633  1.8819 -1.8648  2.9054
  795MPD2    N111777   2.986   4.444  13.491  0.9988  0.4836 -0.4397
  795MPD2    H711778   2.963   4.349  13.461 -1.8128  0.4857  1.6787
  796MPD2     C11779   2.907   1.190  15.635  0.6307 -0.3248  1.4038
  796MPD2    C111780   2.984   1.203  15.743  0.1642  0.6111  0.0572
  796MPD2    C211781   3.026   1.327  15.787  0.5409 -0.5309  0.6460
  796MPD2    C311782   2.978   1.437  15.720 -0.5443  0.3190 -0.0062
  796MPD2    C411783   2.899   1.425  15.609  0.0157 -0.2635  0.6908
  796MPD2    C511784   2.852   1.303  15.566  0.3829 -0.1122 -0.1289
  796MPD2     H11785   3.087   1.339  15.876  1.5054  1.0651 -0.2388
  796MPD2    H111786   2.862   1.509  15.551 -1.1324 -0.6040  0.9323
  796MPD2    H211787   2.881   1.089  15.606  0.8977 -0.3245  1.1662
  796MPD2    H311788   2.782   1.283  15.485 -0.9240  2.1744  0.4278
  796MPD2     N11789   3.023   1.556  15.769  0.1824 -0.3774 -0.0689
  796MPD2    H511790   3.110   1.554  15.822  0.5990  0.0951 -0.7319
  796MPD2    N111791   3.021   1.080  15.811 -0.2260 -0.3794  0.2128
  796MPD2    H711792   2.979   0.994  15.779 -2.4695  1.4803 -1.8477
  797MPD2     C11793   3.782   0.544  17.251 -0.6759 -0.0302 -0.1817
  797MPD2    C111794   3.701   0.654  17.290  0.1387 -0.1115 -0.0074
  797MPD2    C211795   3.630   0.727  17.195 -0.5773 -0.5903 -0.1349
  797MPD2    C311796   3.638   0.698  17.062  0.5845  0.3001  0.0205
  797MPD2    C411797   3.719   0.594  17.024 -0.3222  0.2099 -0.7036
  797MPD2    C511798   3.786   0.522  17.118 -0.7741 -0.3220 -0.3326
  797MPD2     H11799   3.560   0.799  17.234  0.5535  0.1162  0.5919
  797MPD2    H111800   3.719   0.555  16.922  0.4213 -1.0080 -0.2350
  797MPD2    H211801   3.830   0.479  17.323 -2.3919  0.0295  1.0040
  797MPD2    H311802   3.847   0.440  17.081  1.5852  1.0049  0.5694
  797MPD2     N11803   3.556   0.762  16.964 -0.3421  0.3180  0.1199
  797MPD2    H511804   3.578   0.750  16.865  1.3907  0.6687  0.4576
  797MPD2    N111805   3.675   0.690  17.423  0.7034 -0.2234 -0.5722
  797MPD2    H711806   3.618   0.772  17.440 -2.2628 -1.5055 -4.1684
  798MPD2     C11807   3.239   1.243  17.411 -0.5434  0.5573 -0.0943
  798MPD2    C111808   3.358   1.219  17.342  0.2729 -0.3270 -0.5278
  798MPD2    C211809   3.467   1.161  17.410  0.0313 -0.0603 -0.5690
  798MPD2    C311810   3.465   1.135  17.546  0.6048 -0.1494 -0.2919
  798MPD2    C411811   3.347   1.173  17.609  0.0705 -0.2289  0.2822
  798MPD2    C511812   3.242   1.227  17.545 -0.0249  0.1841  0.6386
  798MPD2     H11813   3.551   1.113  17.361 -0.6943 -1.9650  0.0294
  798MPD2    H111814   3.330   1.145  17.713 -0.5110  2.1472  0.8246
  798MPD2    H211815   3.155   1.296  17.369 -1.1079  0.8638  1.4178
  798MPD2    H311816   3.152   1.261  17.595  0.4996  2.1536  0.2568
  798MPD2     N11817   3.576   1.080  17.606  0.4504 -0.1916  0.0733
  798MPD2    H511818   3.644   1.053  17.536 -0.0618  0.0689 -0.5300
  798MPD2    N111819   3.369   1.229  17.201 -0.0586 -0.1820 -0.0625
  798MPD2    H711820   3.285   1.233  17.143  1.2680 -3.1691 -2.2003
  799MPD2     C11821   3.105   2.171  14.960 -0.4830 -0.0494 -0.2143
  799MPD2    C111822   2.985   2.119  14.909 -0.4541  0.4205  0.6570
  799MPD2    C211823   2.885   2.206  14.874 -0.2935  0.1575  0.1054
  799MPD2    C311824   2.916   2.343  14.871  0.4548  0.0781  0.1230
  799MPD2    C411825   3.038   2.385  14.913 -0.9338  1.1109 -0.1750
  799MPD2    C511826   3.133   2.306  14.970  0.2184  0.3181 -0.8338
  799MPD2     H11827   2.803   2.160  14.820 -0.0445 -0.5155  0.3082
  799MPD2    H111828   3.071   2.488  14.909 -0.8238  1.0477 -0.8319
  799MPD2    H211829   3.178   2.100  14.998 -1.1691 -2.2117 -2.9543
  799MPD2    H311830   3.232   2.336  15.002 -1.2870  2.6750  1.6418
  799MPD2     N11831   2.825   2.444  14.830  0.2584 -0.2318 -0.1733
  799MPD2    H511832   2.856   2.540  14.820 -0.7501 -0.0783 -1.8825
  799MPD2    N111833   2.957   1.975  14.893 -0.0319  0.2727  0.5695
  799MPD2    H711834   2.868   1.944  14.855  0.6906 -1.9333  0.6663
  800MPD2     C11835   2.923   3.746  14.073 -0.2695 -1.1697  0.1967
  800MPD2    C111836   3.015   3.671  14.141  0.8276  0.3794  0.4944
  800MPD2    C211837   3.015   3.537  14.114  0.3530  0.6550  0.4960
  800MPD2    C311838   2.908   3.471  14.061  0.6288  0.0472  0.0106
  800MPD2    C411839   2.807   3.551  14.006  0.1463 -0.2267 -0.4306
  800MPD2    C511840   2.825   3.690  13.999 -0.0628  0.0127  0.4680
  800MPD2     H11841   3.101   3.478  14.141  0.3653  0.6298  0.4008
  800MPD2    H111842   2.717   3.519  13.955 -1.6678  2.5659  0.9730
  800MPD2    H211843   2.914   3.853  14.092  0.2868 -1.1275  0.2343
  800MPD2    H311844   2.747   3.747  13.950 -0.2868  0.4463  1.3159
  800MPD2     N11845   2.901   3.329  14.061 -0.6896 -0.2012 -0.3107
  800MPD2    H511846   2.962   3.273  14.119  1.0612  0.0031 -1.9369
  800MPD2    N111847   3.122   3.739  14.206 -0.2595 -0.0912  0.6763
  800MPD2    H711848   3.121   3.839  14.189  0.2541 -0.3535 -0.9385
  801MPD2     C11849   3.414   4.355  14.104  0.2424  0.1771 -0.8685
  801MPD2    C111850   3.328   4.267  14.152  0.1174 -0.1336  0.4122
  801MPD2    C211851   3.194   4.297  14.181  0.2246 -0.1737  0.5434
  801MPD2    C311852   3.156   4.430  14.169 -0.1820  0.3667  0.7202
  801MPD2    C411853   3.248   4.525  14.136 -0.1140  0.0393  0.0394
  801MPD2    C511854   3.372   4.488  14.107  0.5466  0.2841 -0.4481
  801MPD2     H11855   3.124   4.216  14.192  1.1249 -1.0931 -0.4947
  801MPD2    H111856   3.222   4.629  14.122  3.0714  0.6407 -1.4771
  801MPD2    H211857   3.518   4.327  14.089  0.5269  0.6953  0.1495
  801MPD2    H311858   3.448   4.561  14.080 -0.9339  1.9790 -0.0838
  801MPD2     N11859   3.034   4.490  14.206 -0.2509  0.7082 -0.3090
  801MPD2    H511860   3.040   4.589  14.184  0.6246  0.7956  0.3093
  801MPD2    N111861   3.366   4.132  14.168 -0.1025 -0.2619 -0.5095
  801MPD2    H711862   3.295   4.070  14.204 -0.3962  0.2029 -0.2930
  802MPD2     C11863   2.099   4.509  17.327 -0.2434  0.0041  0.3058
  802MPD2    C111864   2.143   4.460  17.447 -0.5052  0.2730  0.8612
  802MPD2    C211865   2.130   4.326  17.482 -0.8492 -0.0637  0.3235
  802MPD2    C311866   2.067   4.240  17.394 -0.3825  0.7340 -0.1091
  802MPD2    C411867   2.011   4.290  17.280  0.7533 -0.2784  0.2098
  802MPD2    C511868   2.022   4.421  17.256  0.5018 -0.1876  0.4303
  802MPD2     H11869   2.169   4.294  17.578 -0.1061 -0.9969 -0.2959
  802MPD2    H111870   1.951   4.232  17.211 -0.8274 -0.6652  1.9102
  802MPD2    H211871   2.102   4.612  17.294 -1.5155 -0.2719 -0.6519
  802MPD2    H311872   1.978   4.463  17.166 -0.0503 -1.1056  0.2694
  802MPD2     N11873   2.070   4.105  17.428 -0.0060  0.8685 -0.1300
  802MPD2    H511874   2.096   4.083  17.523 -1.3351 -1.2156 -0.2481
  802MPD2    N111875   2.204   4.539  17.542  0.3921  0.0032  0.4001
  802MPD2    H711876   2.226   4.487  17.627 -0.1372  1.5054  1.4758
  803MPD2     C11877   2.989   2.443  12.163 -0.1841 -0.6700 -0.2778
  803MPD2    C111878   3.031   2.564  12.218 -0.0132 -0.4546  0.8114
  803MPD2    C211879   3.070   2.565  12.350 -0.6650 -0.1897  0.4104
  803MPD2    C311880   3.052   2.451  12.433  0.6165  1.1205  0.0063
  803MPD2    C411881   3.000   2.337  12.374 -0.0500 -0.0010  0.3437
  803MPD2    C511882   2.966   2.330  12.246  0.0157 -0.0690  0.1942
  803MPD2     H11883   3.127   2.650  12.385 -0.2176 -1.2347  2.1819
  803MPD2    H111884   2.958   2.257  12.434  2.2531  0.0269  1.9679
  803MPD2    H211885   2.966   2.433  12.058  0.8013 -1.9281 -0.3806
  803MPD2    H311886   2.921   2.242  12.200 -0.9559  0.5101  0.0446
  803MPD2     N11887   3.083   2.442  12.568  0.0686 -0.7697 -0.1829
  803MPD2    H511888   3.058   2.362  12.624  0.1867 -0.4802  0.2822
  803MPD2    N111889   3.039   2.693  12.155 -0.6533  0.1047  0.5945
  803MPD2    H711890   3.077   2.771  12.206 -1.8153  1.7687 -1.0782
  804MPD2     C11891   3.083   3.981  16.772 -0.5010  0.0153 -0.1553
  804MPD2    C111892   3.053   3.989  16.908 -0.8692  0.1720  0.3000
  804MPD2    C211893   3.119   4.093  16.986  0.0919 -0.8986  0.2912
  804MPD2    C311894   3.220   4.173  16.922  0.2056  0.4284  0.2774
  804MPD2    C411895   3.260   4.139  16.791 -0.1184  0.2251 -0.9498
  804MPD2    C511896   3.186   4.051  16.721 -0.3425 -0.4538 -0.7587
  804MPD2     H11897   3.102   4.102  17.092  0.2986 -2.1813  0.4325
  804MPD2    H111898   3.345   4.191  16.748  0.5249  0.3421  0.4573
  804MPD2    H211899   3.043   3.906  16.705  1.3214 -0.0604 -1.1481
  804MPD2    H311900   3.231   4.028  16.625 -0.8805  0.2515 -1.1741
  804MPD2     N11901   3.303   4.264  17.003 -0.1324  0.0716 -0.2028
  804MPD2    H511902   3.374   4.308  16.945 -0.1418 -1.1908 -1.1840
  804MPD2    N111903   2.945   3.920  16.961 -0.7820  0.0801  0.0456
  804MPD2    H711904   2.942   3.919  17.063 -2.3648  0.6854  0.0124
  805MPD2     C11905   2.119   2.397  16.292  0.2474  0.2924  0.1027
  805MPD2    C111906   2.230   2.350  16.235 -0.8667  1.3714  0.1950
  805MPD2    C211907   2.355   2.387  16.283  0.4025  0.6067 -0.1613
  805MPD2    C311908   2.368   2.453  16.404 -0.7516  0.0338 -0.1023
  805MPD2    C411909   2.254   2.491  16.466 -0.2727  0.5128 -0.0071
  805MPD2    C511910   2.130   2.469  16.411 -0.5110  0.2897 -0.5530
  805MPD2     H11911   2.438   2.358  16.219  1.6779 -1.2888  2.3345
  805MPD2    H111912   2.273   2.547  16.557  0.7569 -0.5131  0.4029
  805MPD2    H211913   2.019   2.375  16.258 -0.4248 -0.5942  2.6236
  805MPD2    H311914   2.043   2.499  16.468 -0.5629  0.6895 -0.8476
  805MPD2     N11915   2.493   2.461  16.467  0.2061 -0.1486  0.3155
  805MPD2    H511916   2.573   2.445  16.406  0.7018  1.5259  0.5312
  805MPD2    N111917   2.233   2.268  16.116 -0.5782 -0.4805  0.1871
  805MPD2    H711918   2.324   2.235  16.087 -0.3299  0.1645  0.2299
  806MPD2     C11919   3.572   1.775   1.363  0.0548 -0.1190 -0.2566
  806MPD2    C111920   3.472   1.874   1.354  0.7478 -0.0334 -0.4533
  806MPD2    C211921   3.470   1.953   1.237  0.1502 -0.1986 -0.0159
  806MPD2    C311922   3.575   1.944   1.151  0.5248 -0.2322  0.0021
  806MPD2    C411923   3.681   1.857   1.163  0.5161  0.4405 -0.0838
  806MPD2    C511924   3.676   1.767   1.269 -0.1341  0.1752  0.4019
  806MPD2     H11925   3.401   2.036   1.224 -1.0161 -1.0690  0.5661
  806MPD2    H111926   3.756   1.843   1.086 -0.0804  0.9966 -0.7628
  806MPD2    H211927   3.580   1.712   1.450  1.7798 -0.8639 -0.9639
  806MPD2    H311928   3.750   1.690   1.286 -2.5271 -1.9363  1.1512
  806MPD2     N11929   3.573   2.039   1.043  0.9030  1.0367 -0.2715
  806MPD2    H511930   3.494   2.102   1.038 -0.6766 -0.8397  0.8434
  806MPD2    N111931   3.370   1.878   1.453 -0.1131  0.5763  0.2576
  806MPD2    H711932   3.375   1.815   1.532  1.3303  0.5050  0.1075
  807MPD2     C11933   2.610   2.267   1.680 -0.3201  0.6037  0.6036
  807MPD2    C111934   2.601   2.133   1.664  0.4428 -0.6352  0.8308
  807MPD2    C211935   2.477   2.087   1.666 -0.0537 -0.5121  0.6998
  807MPD2    C311936   2.365   2.164   1.689 -0.5114  0.3651  0.1159
  807MPD2    C411937   2.377   2.303   1.714 -0.0539 -0.4633 -0.1440
  807MPD2    C511938   2.502   2.347   1.709  0.2279 -0.3594  0.1334
  807MPD2     H11939   2.462   1.984   1.636  1.2885 -0.5503  0.1777
  807MPD2    H111940   2.291   2.366   1.729  1.3534  0.8130  2.5063
  807MPD2    H211941   2.708   2.304   1.709  0.0462  2.1027 -2.6122
  807MPD2    H311942   2.520   2.453   1.724 -2.9617  0.2998 -0.8791
  807MPD2     N11943   2.236   2.099   1.690 -0.4526 -0.0112 -0.1322
  807MPD2    H511944   2.230   2.004   1.655 -0.2221  0.5178 -1.6056
  807MPD2    N111945   2.720   2.053   1.644 -0.5066  0.4687 -0.1717
  807MPD2    H711946   2.709   1.952   1.655  0.9960  0.4286  1.0485
  808MPD2     C11947   3.211   4.251   9.899  0.1266 -0.5589  0.5302
  808MPD2    C111948   3.194   4.205  10.027 -0.4245  0.0007  0.0346
  808MPD2    C211949   3.269   4.261  10.127 -0.6356 -0.4718 -0.5912
  808MPD2    C311950   3.361   4.367  10.105  0.0248 -0.2180 -0.4226
  808MPD2    C411951   3.377   4.417   9.981  0.0510 -0.6775 -0.0366
  808MPD2    C511952   3.302   4.359   9.880 -0.7243  0.6574 -0.2457
  808MPD2     H11953   3.262   4.220  10.227 -1.1951 -1.6790 -1.1166
  808MPD2    H111954   3.451   4.494   9.962 -0.0075 -0.7589 -0.5954
  808MPD2    H211955   3.157   4.232   9.807  0.2044 -0.0431  0.3790
  808MPD2    H311956   3.302   4.398   9.778  0.0643  0.6117 -0.2653
  808MPD2     N11957   3.439   4.421  10.207  0.6058 -0.3256  0.3605
  808MPD2    H511958   3.492   4.501  10.176 -0.1381 -0.0795 -0.2978
  808MPD2    N111959   3.095   4.103  10.055  0.2580  0.2536  0.2577
  808MPD2    H711960   3.073   4.091  10.153 -1.0476  0.9973  0.0647
  809MPD2     C11961   4.098   0.343  10.190  0.5405 -0.1230 -0.1133
  809MPD2    C111962   4.105   0.206  10.170 -0.2087 -0.4319  0.4750
  809MPD2    C211963   4.031   0.120  10.243  0.3080 -0.2914 -0.4125
  809MPD2    C311964   3.934   0.169  10.325 -0.0312  0.2503  0.0822
  809MPD2    C411965   3.931   0.302  10.345  0.3976  0.1222  0.4581
  809MPD2    C511966   4.014   0.389  10.285 -1.2527 -0.2020 -0.6626
  809MPD2     H11967   4.037   0.013  10.228  1.0004 -0.2518 -0.4513
  809MPD2    H111968   3.843   0.345  10.393 -0.2210 -1.2968  0.5846
  809MPD2    H211969   4.145   0.417  10.125 -0.2594  0.2675 -0.2415
  809MPD2    H311970   3.992   0.494  10.299  0.7370  0.1956 -0.4978
  809MPD2     N11971   3.840   0.085  10.387  0.4031 -0.0717  1.0609
  809MPD2    H511972   3.793   0.125  10.468 -1.3125 -0.1383  0.0957
  809MPD2    N111973   4.181   0.144  10.070  0.1327 -0.2242  0.2076
  809MPD2    H711974   4.184   0.043  10.081  0.9262 -0.0334  1.6951
  810MPD2     C11975   2.460   2.804  10.787  0.2070  0.1046 -0.2865
  810MPD2    C111976   2.441   2.904  10.698  0.4622  0.1858 -0.7134
  810MPD2    C211977   2.453   3.033  10.743  0.1468  0.3532 -0.0987
  810MPD2    C311978   2.487   3.069  10.873  0.8834 -0.3848  0.0582
  810MPD2    C411979   2.496   2.965  10.965  0.0161 -0.1301  0.7501
  810MPD2    C511980   2.481   2.835  10.921  0.0327  0.2036  0.2033
  810MPD2     H11981   2.431   3.114  10.675  0.6079  0.8787  0.3789
  810MPD2    H111982   2.500   2.979  11.073 -0.0438  1.2088  0.5774
  810MPD2    H211983   2.459   2.699  10.757  0.8405  0.1296 -0.4092
  810MPD2    H311984   2.490   2.751  10.989 -2.1514 -0.5629 -0.4657
  810MPD2     N11985   2.493   3.204  10.916 -0.1311 -0.6415  0.3714
  810MPD2    H511986   2.492   3.227  11.015 -3.7630  0.7154  0.0125
  810MPD2    N111987   2.406   2.884  10.566 -0.1542  0.2208 -0.1674
  810MPD2    H711988   2.394   2.971  10.516  0.5205  1.5253  1.9279
  811MPD2     C11989   1.964   3.206  10.046 -0.1948 -0.4147 -0.5403
  811MPD2    C111990   2.096   3.209  10.076 -0.4927  0.3030  0.7749
  811MPD2    C211991   2.161   3.325  10.085 -0.7302  0.6898  0.4250
  811MPD2    C311992   2.094   3.444  10.069 -0.5803 -0.1910 -0.2185
  811MPD2    C411993   1.959   3.445  10.040  0.4888 -0.7423 -0.6595
  811MPD2    C511994   1.897   3.324  10.033  0.3966 -0.9189 -0.8205
  811MPD2     H11995   2.269   3.328  10.086 -0.6341 -3.0976 -0.7804
  811MPD2    H111996   1.899   3.535  10.026  0.7370 -0.4508  0.1998
  811MPD2    H211997   1.912   3.112  10.029 -0.3293 -0.0973 -1.8541
  811MPD2    H311998   1.795   3.318   9.996 -0.6444  0.1533  1.8588
  811MPD2     N11999   2.165   3.564  10.093  0.0628  0.8494  0.7604
  811MPD2    H512000   2.265   3.556  10.107  0.2352  1.6762  0.0370
  811MPD2    N112001   2.163   3.085  10.089  0.0314  0.0289  0.5504
  811MPD2    H712002   2.096   3.009  10.081  0.1667  0.1339 -1.4745
  812MPD2     C12003   1.156   2.383  12.441  0.2026 -0.3944 -0.1156
  812MPD2    C112004   1.263   2.465  12.468 -0.8408  0.8384  0.0900
  812MPD2    C212005   1.360   2.440  12.568 -0.1923  0.2997 -0.1584
  812MPD2    C312006   1.357   2.316  12.630  0.3847  0.0457  0.5628
  812MPD2    C412007   1.257   2.228  12.603  0.1052  0.1488  0.1426
  812MPD2    C512008   1.154   2.264  12.519 -0.7875  0.5700  0.0344
  812MPD2     H12009   1.436   2.509  12.603 -1.6142  1.8251 -0.0856
  812MPD2    H112010   1.247   2.140  12.666  3.5579 -0.4981 -0.2574
  812MPD2    H212011   1.086   2.407  12.363 -0.7014 -0.6814  0.6033
  812MPD2    H312012   1.072   2.196  12.499  1.1365 -1.7103 -0.1130
  812MPD2     N12013   1.459   2.301  12.729  0.4199  0.2979  0.6587
  812MPD2    H512014   1.529   2.374  12.729 -1.6864  2.3122  0.1668
  812MPD2    N112015   1.255   2.584  12.397 -0.4729  0.0049 -0.5162
  812MPD2    H712016   1.168   2.607  12.350 -0.1865  3.9369  0.8521
  813MPD2     C12017   1.007   0.491  12.717 -0.0679  0.3949 -0.5230
  813MPD2    C112018   0.882   0.542  12.713 -0.6044  0.9260  0.4383
  813MPD2    C212019   0.781   0.473  12.783  0.5398  0.4511 -0.7050
  813MPD2    C312020   0.807   0.351  12.846  0.5122 -0.1888  0.3140
  813MPD2    C412021   0.935   0.301  12.855 -0.0654 -0.4277 -0.0139
  813MPD2    C512022   1.028   0.373  12.783  0.4294  0.0678  1.7434
  813MPD2     H12023   0.674   0.491  12.777 -0.1822 -3.5186 -0.1172
  813MPD2    H112024   0.961   0.204  12.894 -2.3489 -0.9358  0.2880
  813MPD2    H212025   1.088   0.527  12.655  2.8217 -5.7016 -0.3115
  813MPD2    H312026   1.128   0.332  12.768  0.8786  0.6554  3.1250
  813MPD2     N12027   0.698   0.280  12.915  0.3089  0.1621  0.2690
  813MPD2    H512028   0.610   0.330  12.904 -0.0641 -0.4000  0.6937
  813MPD2    N112029   0.837   0.665  12.661 -0.0859 -0.2109  0.5553
  813MPD2    H712030   0.738   0.684  12.670  0.4271  2.8435 -0.3506
  814MPD2     C12031   1.194   0.769  12.033 -0.3088  0.5082 -0.1816
  814MPD2    C112032   1.126   0.853  11.946 -0.6358 -0.0341 -0.3300
  814MPD2    C212033   1.109   0.982  11.983 -0.7161  0.5379  0.8090
  814MPD2    C312034   1.151   1.033  12.105 -0.5269  0.1622 -0.7090
  814MPD2    C412035   1.208   0.944  12.195 -0.3248  0.0890  0.4434
  814MPD2    C512036   1.239   0.821  12.152  1.0993  0.3730 -0.2119
  814MPD2     H12037   1.067   1.055  11.916 -0.4942  1.1849  1.3812
  814MPD2    H112038   1.234   0.970  12.297  2.3726  1.7029 -0.6575
  814MPD2    H212039   1.219   0.665  12.015  1.1175  0.7101  0.6122
  814MPD2    H312040   1.281   0.755  12.226  1.9140  0.3964 -0.6500
  814MPD2     N12041   1.142   1.171  12.139 -0.6367  0.1452 -0.5123
  814MPD2    H512042   1.162   1.187  12.237  3.4669 -0.0359 -1.3329
  814MPD2    N112043   1.071   0.813  11.821  0.0100 -0.6803 -0.0749
  814MPD2    H712044   1.002   0.878  11.784  2.4095  0.3999 -2.7169
  815MPD2     C12045   1.551   4.584  12.039 -0.2926  0.2656 -0.1784
  815MPD2    C112046   1.513   4.454  12.032 -0.8779 -0.1014  0.8818
  815MPD2    C212047   1.401   4.414  12.110 -0.7300 -0.6740 -0.0198
  815MPD2    C312048   1.346   4.505  12.199  0.3903 -0.8545  0.1602
  815MPD2    C412049   1.394   4.630  12.213  0.1064 -0.8928 -0.4633
  815MPD2    C512050   1.492   4.671  12.126 -0.3521 -0.2041 -0.0881
  815MPD2     H12051   1.360   4.315  12.097 -1.5083 -0.6909  2.7194
  815MPD2    H112052   1.374   4.699  12.294  2.2465 -0.4231 -0.3366
  815MPD2    H212053   1.629   4.626  11.977  2.0206  0.1357  2.6455
  815MPD2    H312054   1.542   0.034  12.136  0.3588 -0.8579  2.5827
  815MPD2     N12055   1.234   4.464  12.281 -0.4236 -0.2943  0.2709
  815MPD2    H512056   1.188   4.376  12.259  0.2323 -0.9498  1.5253
  815MPD2    N112057   1.572   4.366  11.943 -0.4710 -0.1644  0.2311
  815MPD2    H712058   1.641   4.408  11.881  0.0346 -0.8727  0.3097
  816MPD2     C12059   2.012   3.116  17.109 -0.3740 -0.0595  0.1123
  816MPD2    C112060   2.031   3.198  16.995 -0.6572 -0.4666 -0.3194
  816MPD2    C212061   2.150   3.209  16.928 -0.3918 -0.4096  0.0514
  816MPD2    C312062   2.258   3.144  16.976  0.0402  0.0383  0.2501
  816MPD2    C412063   2.242   3.064  17.090 -0.2961 -0.0520  0.0213
  816MPD2    C512064   2.124   3.052  17.146  0.0502  0.2854 -0.1724
  816MPD2     H12065   2.149   3.266  16.837 -0.3952  3.4129  2.4392
  816MPD2    H112066   2.328   3.009  17.127 -0.3427  0.6840  1.2101
  816MPD2    H212067   1.922   3.110  17.169 -0.1386  0.2520  0.4948
  816MPD2    H312068   2.123   2.982  17.229  2.6463 -0.8168 -1.0883
  816MPD2     N12069   2.369   3.158  16.890 -0.4420 -0.5856 -0.3323
  816MPD2    H512070   2.347   3.213  16.808  1.4257 -0.9945 -1.0948
  816MPD2    N112071   1.924   3.279  16.951 -0.3328 -0.7569 -0.7040
  816MPD2    H712072   1.935   3.318  16.858  1.1470 -0.4046 -0.3781
  817MPD2     C12073   1.722   0.991   9.458  0.1367 -0.4559 -0.7821
  817MPD2    C112074   1.646   0.889   9.399  0.2110  0.0823 -0.2247
  817MPD2    C212075   1.534   0.918   9.330  0.4920  0.6198  0.0453
  817MPD2    C312076   1.499   1.050   9.296  0.4302  0.0172  0.0439
  817MPD2    C412077   1.565   1.152   9.360  0.7703 -0.4272  0.1104
  817MPD2    C512078   1.671   1.121   9.449 -0.6489  0.8251 -0.7403
  817MPD2     H12079   1.473   0.837   9.293  1.3009  0.8850 -1.9007
  817MPD2    H112080   1.540   1.256   9.349  2.3749 -0.1973 -1.3024
  817MPD2    H212081   1.807   0.975   9.522 -1.9272 -2.6285  1.4125
  817MPD2    H312082   1.723   1.203   9.497 -0.0465  1.5169 -2.5401
  817MPD2     N12083   1.393   1.071   9.203  0.0321  0.0010  0.2595
  817MPD2    H512084   1.369   0.983   9.158  0.5927 -1.4676  2.7955
  817MPD2    N112085   1.667   0.755   9.427 -0.3867  0.3814 -0.4914
  817MPD2    H712086   1.604   0.686   9.388  0.7647 -0.7573 -0.3369
  818MPD2     C12087   0.695   0.289   9.948  0.6559 -0.3560 -0.2458
  818MPD2    C112088   0.588   0.289  10.037 -0.1137  0.1819  0.0208
  818MPD2    C212089   0.515   0.172  10.061 -0.2242  0.0322 -0.4642
  818MPD2    C312090   0.527   0.063   9.980 -0.0514 -0.0251 -0.3936
  818MPD2    C412091   0.638   0.066   9.892 -0.5760  0.3744  0.2094
  818MPD2    C512092   0.712   0.178   9.877 -0.1510 -0.3879 -0.4997
  818MPD2     H12093   0.457   0.164  10.152 -1.9995 -0.3094 -1.6353
  818MPD2    H112094   0.651   4.706   9.837  1.5602 -0.3521  1.9433
  818MPD2    H212095   0.764   0.372   9.941  0.5556  0.0704  3.6827
  818MPD2    H312096   0.788   0.169   9.800  0.6105  3.0948 -0.1538
  818MPD2     N12097   0.454   4.679   9.997 -0.6615  0.0722  1.0775
  818MPD2    H512098   0.495   4.600   9.947  3.2031  0.5743  3.4362
  818MPD2    N112099   0.567   0.398  10.123  0.1143  0.3011  0.2741
  818MPD2    H712100   0.514   0.381  10.208 -1.6895  0.1589 -0.8756
  819MPD2     C12101   3.050   2.201  15.943  0.2880  0.1315 -0.0886
  819MPD2    C112102   3.147   2.138  15.876  0.6491 -0.9449 -0.0324
  819MPD2    C212103   3.257   2.092  15.947  0.4592  0.7150  0.1607
  819MPD2    C312104   3.271   2.116  16.084 -1.5462 -0.8129  0.6252
  819MPD2    C412105   3.181   2.201  16.144  0.4185  0.6245  0.0271
  819MPD2    C512106   3.075   2.239  16.074  0.2700  0.5941  0.1681
  819MPD2     H12107   3.330   2.030  15.896 -1.3997 -2.0053  0.7702
  819MPD2    H112108   3.187   2.239  16.246 -1.1563 -1.2109  0.8223
  819MPD2    H212109   2.972   2.253  15.889 -0.2481 -0.8402 -0.2633
  819MPD2    H312110   3.004   2.308  16.120 -0.4388 -0.2609  0.3595
  819MPD2     N12111   3.380   2.059  16.153  1.0304 -0.2846  0.2223
  819MPD2    H512112   3.438   1.992  16.104  0.2720 -1.4389  0.9220
  819MPD2    N112113   3.127   2.130  15.737  0.0299 -0.6402  0.6659
  819MPD2    H712114   3.044   2.166  15.691  0.1141 -1.1433  0.1185
  820MPD2     C12115   2.366   2.147  15.284  0.3926  0.4557  0.2852
  820MPD2    C112116   2.431   2.131  15.402  0.4536  0.3511  0.2383
  820MPD2    C212117   2.568   2.139  15.406 -0.1006  0.2186  0.3293
  820MPD2    C312118   2.638   2.155  15.285  0.0321 -0.4996 -0.2777
  820MPD2    C412119   2.566   2.167  15.163  0.6114  0.2985  0.6625
  820MPD2    C512120   2.430   2.174  15.163 -0.4546  1.0828 -0.1084
  820MPD2     H12121   2.624   2.112  15.495  0.1015  0.7804  0.3709
  820MPD2    H112122   2.625   2.173  15.072  0.3601 -1.6066  0.3580
  820MPD2    H212123   2.258   2.141  15.278  0.3008  2.2246  0.1498
  820MPD2    H312124   2.378   2.181  15.068  1.6727  1.5316 -1.2224
  820MPD2     N12125   2.780   2.164  15.283 -0.0500  0.6904 -0.4333
  820MPD2    H512126   2.822   2.187  15.194  0.4130 -0.3867 -0.4884
  820MPD2    N112127   2.360   2.101  15.518 -0.3867 -0.1658  0.2580
  820MPD2    H712128   2.268   2.063  15.496 -0.7045  1.0922 -0.6483
  821MPD2     C12129   3.216   3.015  13.377  0.3604  0.1145 -0.1487
  821MPD2    C112130   3.237   3.124  13.464 -0.0003 -0.4026 -0.1420
  821MPD2    C212131   3.318   3.231  13.416  0.1115  0.2090 -0.0584
  821MPD2    C312132   3.391   3.210  13.302  0.2853  0.0603  0.2989
  821MPD2    C412133   3.381   3.095  13.226  0.3073 -0.0284  0.1069
  821MPD2    C512134   3.290   2.995  13.269 -0.4418 -0.2700 -0.4551
  821MPD2     H12135   3.331   3.325  13.469  2.0644 -1.0180  1.6317
  821MPD2    H112136   3.449   3.061  13.149  0.2527  0.7386 -0.2757
  821MPD2    H212137   3.147   2.934  13.399  0.2672 -0.2804 -1.9008
  821MPD2    H312138   3.291   2.898  13.221  1.5490  0.3703 -1.7244
  821MPD2     N12139   3.490   3.311  13.261 -0.1825 -0.1727 -0.0376
  821MPD2    H512140   3.541   3.286  13.178 -0.0235  1.5965 -0.4569
  821MPD2    N112141   3.163   3.141  13.580  0.3700  0.2011  0.0226
  821MPD2    H712142   3.178   3.223  13.638  1.9471 -0.6234  0.7757
  822MPD2     C12143   4.111   3.182  15.971  0.0054  1.0822  0.3192
  822MPD2    C112144   4.050   3.153  16.088 -0.5465 -0.1564 -0.1981
  822MPD2    C212145   3.934   3.226  16.120  0.1333 -0.2810 -0.4956
  822MPD2    C312146   3.893   3.334  16.048 -0.3543  0.2331  0.2281
  822MPD2    C412147   3.962   3.371  15.938 -0.2554 -0.2127  0.0302
  822MPD2    C512148   4.063   3.289  15.893  0.3177 -0.2620  0.2465
  822MPD2     H12149   3.881   3.180  16.202  1.7860 -0.4323  0.4852
  822MPD2    H112150   3.931   3.455  15.877  0.0980 -0.9610 -1.1928
  822MPD2    H212151   4.199   3.134  15.929 -0.1493  0.3147  0.8703
  822MPD2    H312152   4.112   3.314  15.800  2.9558 -1.1041  1.3907
  822MPD2     N12153   3.811   3.419  16.116  0.1351 -0.0390 -0.6148
  822MPD2    H512154   3.782   3.392  16.209 -0.2447 -0.1311 -0.7622
  822MPD2    N112155   4.110   3.062  16.184  0.6467  0.3282  0.3275
  822MPD2    H712156   4.062   3.068  16.273 -1.6362 -0.7122 -0.8217
  823MPD2     C12157   3.283   3.644  16.718  0.5575 -0.1274  0.4032
  823MPD2    C112158   3.391   3.568  16.689 -0.7051  0.1521 -0.1802
  823MPD2    C212159   3.420   3.451  16.772 -0.2329 -0.4880  0.2163
  823MPD2    C312160   3.334   3.418  16.877 -0.8427 -0.4155 -0.3520
  823MPD2    C412161   3.215   3.483  16.883 -0.1855 -0.4903 -0.0012
  823MPD2    C512162   3.197   3.597  16.810  0.4418  0.0260  0.0009
  823MPD2     H12163   3.502   3.384  16.747  0.2780  0.6921 -1.2590
  823MPD2    H112164   3.143   3.444  16.954 -0.9488 -0.4319 -0.7326
  823MPD2    H212165   3.264   3.740  16.670  0.7341 -0.3006 -0.0165
  823MPD2    H312166   3.102   3.648  16.814 -0.1293 -0.9175 -1.5281
  823MPD2     N12167   3.358   3.306  16.961  0.2556 -0.4042 -1.0611
  823MPD2    H512168   3.279   3.272  17.014  0.5266  2.2843  1.0631
  823MPD2    N112169   3.478   3.607  16.587 -0.4254 -0.1171  0.6658
  823MPD2    H712170   3.456   3.695  16.540  0.0968 -0.7970 -0.8648
  824MPD2     C12171   4.640   2.404  16.364  0.3653 -0.3688  0.0874
  824MPD2    C112172   4.605   2.506  16.282  0.0746  0.5868  0.7113
  824MPD2    C212173   4.692   2.523  16.177  0.7723  0.1820 -0.2466
  824MPD2    C312174   0.054   2.435  16.138  0.3108  0.1374  0.2814
  824MPD2    C412175   0.085   2.328  16.224 -0.4477 -0.2049  0.3138
  824MPD2    C512176   0.011   2.321  16.338  0.3310  0.2629  0.3520
  824MPD2     H12177   4.683   2.620  16.128  0.5412 -0.1118 -0.7817
  824MPD2    H112178   0.156   2.249  16.204 -0.4389  0.4645 -2.3247
  824MPD2    H212179   4.581   2.376  16.452  1.0753 -2.3704 -0.0643
  824MPD2    H312180   0.025   2.237  16.406 -2.4860  0.3681  1.0465
  824MPD2     N12181   0.126   2.457  16.013  0.2104 -0.1721  0.7500
  824MPD2    H512182   0.091   2.539  15.964 -1.0414 -0.1237  1.7140
  824MPD2    N112183   4.499   2.595  16.301 -0.1188  0.1420  0.3090
  824MPD2    H712184   4.502   2.681  16.248 -1.2325 -0.2277 -0.3718
  825MPD2     C12185   0.400   2.959  15.409  0.6586 -0.3319 -0.5808
  825MPD2    C112186   0.368   2.933  15.541 -0.6197  0.6413 -0.7903
  825MPD2    C212187   0.319   3.039  15.625 -0.1907  0.3891  0.3550
  825MPD2    C312188   0.333   3.166  15.572 -0.6801 -0.3729  0.6467
  825MPD2    C412189   0.375   3.189  15.446  0.7151 -0.5298 -0.6142
  825MPD2    C512190   0.399   3.085  15.362  0.2594 -0.1510 -0.0200
  825MPD2     H12191   0.280   3.026  15.725  0.9235  0.7606  0.8411
  825MPD2    H112192   0.390   3.290  15.410 -0.8598  0.5342  1.7041
  825MPD2    H212193   0.434   2.877  15.347 -0.3722 -0.8201 -0.4950
  825MPD2    H312194   0.424   3.106  15.259 -0.8347  2.3851  0.2346
  825MPD2     N12195   0.282   3.279  15.638  0.0204 -0.1393 -0.0932
  825MPD2    H512196   0.289   3.374  15.603  1.0254  0.0755  0.6824
  825MPD2    N112197   0.369   2.799  15.588 -0.4519 -0.3771 -0.0420
  825MPD2    H712198   0.391   2.723  15.524  2.0348 -1.9212  2.6718
  826MPD2     C12199   3.928   2.636  14.350 -0.1969  0.1711 -0.1255
  826MPD2    C112200   3.949   2.712  14.231  0.0850 -0.7967  0.2286
  826MPD2    C212201   3.955   2.848  14.243 -0.0841  0.2240  0.1514
  826MPD2    C312202   3.929   2.912  14.365 -0.3984  0.5128  0.6478
  826MPD2    C412203   3.900   2.844  14.475  0.6377 -0.2109  0.6809
  826MPD2    C512204   3.897   2.706  14.461 -0.4658 -0.0040 -0.6194
  826MPD2     H12205   3.979   2.906  14.155  0.4847 -0.1423  0.0657
  826MPD2    H112206   3.869   2.891  14.568 -3.9434 -1.5088 -0.2258
  826MPD2    H212207   3.914   2.529  14.344 -0.2135  0.1963 -0.5675
  826MPD2    H312208   3.855   2.658  14.549  0.3663 -0.7336 -0.6200
  826MPD2     N12209   3.923   3.052  14.366  0.1349 -0.3014 -0.0039
  826MPD2    H512210   3.946   3.095  14.276  0.0763  0.6756  0.4417
  826MPD2    N112211   3.977   2.648  14.109  0.2469 -0.1253  0.4488
  826MPD2    H712212   3.989   2.548  14.114  2.0398  0.0463 -0.3494
  827MPD2     C12213   1.143   3.698  10.026  0.3001  0.2770  0.3677
  827MPD2    C112214   1.040   3.753  10.088  0.2056  0.0376 -0.4405
  827MPD2    C212215   0.945   3.813  10.011  0.1804 -0.1435  0.5022
  827MPD2    C312216   0.935   3.809   9.871 -0.8332 -0.0189 -0.6000
  827MPD2    C412217   1.038   3.752   9.808  0.0254 -0.2065 -0.3035
  827MPD2    C512218   1.136   3.701   9.887 -0.0434 -0.4168  0.3339
  827MPD2     H12219   0.859   3.853  10.063  1.0027 -0.8949  2.4481
  827MPD2    H112220   1.038   3.739   9.701  1.7977 -0.6778 -0.2494
  827MPD2    H212221   1.229   3.648  10.068 -0.1901 -0.6262  0.3058
  827MPD2    H312222   1.217   3.659   9.827 -0.2983  0.9037 -0.9419
  827MPD2     N12223   0.819   3.862   9.813 -0.6615  1.1026  0.1908
  827MPD2    H512224   0.763   3.920   9.875 -1.2372  0.3297  0.3924
  827MPD2    N112225   1.024   3.752  10.230 -0.3089 -0.3490 -1.0630
  827MPD2    H712226   1.112   3.747  10.281 -1.1944 -1.3705  0.3848
  828MPD2     C12227   3.867   4.081  12.590 -0.6942 -0.8308  0.2351
  828MPD2    C112228   3.779   4.057  12.487  0.0714 -0.3060  0.5849
  828MPD2    C212229   3.818   4.098  12.362 -0.5952 -0.0259  0.7941
  828MPD2    C312230   3.941   4.156  12.332 -0.0482  0.0755 -0.3812
  828MPD2    C412231   4.019   4.189  12.443  0.4358 -0.1515 -0.5378
  828MPD2    C512232   3.984   4.144  12.567 -0.2798 -0.6236  0.2373
  828MPD2     H12233   3.745   4.084  12.283 -1.4933 -1.2036  1.8274
  828MPD2    H112234   4.108   4.249  12.427 -0.0703  0.8148  0.2007
  828MPD2    H212235   3.858   4.043  12.691  0.8294  2.2375  1.5163
  828MPD2    H312236   4.053   4.166  12.647  0.5581 -1.6038 -0.2124
  828MPD2     N12237   3.979   4.204  12.203 -0.2271  0.2294  0.2747
  828MPD2    H512238   4.059   4.266  12.194 -0.9355  1.3593  1.7273
  828MPD2    N112239   3.663   3.987  12.511 -0.1628 -0.4009 -0.4017
  828MPD2    H712240   3.598   3.983  12.433 -0.4920 -2.2564 -0.0337
  829MPD2     C12241   3.026   4.021  11.981 -0.2740 -0.1212  0.1525
  829MPD2    C112242   2.948   3.993  12.087 -0.7440  0.3328  0.1227
  829MPD2    C212243   3.011   3.969  12.205 -0.2268  0.1150 -0.4522
  829MPD2    C312244   3.152   3.975  12.225 -0.0050  0.6622  0.2563
  829MPD2    C412245   3.225   4.014  12.111  0.1773  0.2547  0.0948
  829MPD2    C512246   3.163   4.027  11.991  0.3493 -0.2334  0.0991
  829MPD2     H12247   2.947   3.926  12.282  2.2416 -2.1221  0.3578
  829MPD2    H112248   3.333   4.029  12.113 -0.2650  3.5858 -1.2341
  829MPD2    H212249   2.978   4.036  11.885  0.0101  1.4087  0.2452
  829MPD2    H312250   3.229   4.043  11.907  0.6321 -2.0318 -0.0248
  829MPD2     N12251   3.221   3.937  12.340 -0.6743 -0.4989 -0.3101
  829MPD2    H512252   3.322   3.943  12.328 -0.7246  1.2175  0.0573
  829MPD2    N112253   2.808   3.984  12.064 -0.2044  0.1614  0.8471
  829MPD2    H712254   2.779   4.023  11.974  1.1688 -0.6277  0.0647
  830MPD2     C12255   4.186   1.793  16.282  0.5472 -0.6250  0.0346
  830MPD2    C112256   4.096   1.871  16.213 -0.4168 -0.1125  0.9936
  830MPD2    C212257   4.148   1.963  16.119 -0.0747 -0.5126 -0.0279
  830MPD2    C312258   4.285   1.987  16.112  0.2947 -0.4044  0.4309
  830MPD2    C412259   4.367   1.903  16.180 -0.1434  0.2383  0.2163
  830MPD2    C512260   4.321   1.808  16.266  1.2010  0.3854  0.1997
  830MPD2     H12261   4.082   2.029  16.063  0.6942 -0.1228 -0.4627
  830MPD2    H112262   4.474   1.918  16.178 -0.0366 -0.4522  0.8214
  830MPD2    H212263   4.154   1.723  16.358  2.0854 -2.1138 -0.6772
  830MPD2    H312264   4.387   1.750  16.331  0.1061 -1.5533 -0.4128
  830MPD2     N12265   4.350   2.085  16.026  0.8067  0.0660 -0.6261
  830MPD2    H512266   4.449   2.098  16.039  0.3192  1.6052  1.6071
  830MPD2    N112267   3.967   1.865  16.254 -0.0585 -0.7769  0.3072
  830MPD2    H712268   3.947   1.794  16.323 -2.0330 -0.1479  0.3915
  831MPD2     C12269   4.029   3.600  16.436  0.5916 -0.4102  0.5803
  831MPD2    C112270   4.071   3.483  16.389  0.4737  0.1791  0.1741
  831MPD2    C212271   4.009   3.363  16.431  0.2579  0.3432 -0.4809
  831MPD2    C312272   3.903   3.372  16.529 -0.0475 -0.0329 -0.1723
  831MPD2    C412273   3.881   3.495  16.593  0.1180  0.2209 -0.4488
  831MPD2    C512274   3.947   3.601  16.542 -0.4436 -0.0433 -0.6398
  831MPD2     H12275   4.031   3.277  16.368 -2.2682 -0.3979 -0.3571
  831MPD2    H112276   3.811   3.513  16.673 -0.5854 -1.2750 -0.7393
  831MPD2    H212277   4.086   3.688  16.410 -2.8287  1.1558 -1.5860
  831MPD2    H312278   3.938   3.697  16.591 -1.3137  0.6297 -2.1222
  831MPD2     N12279   3.817   3.264  16.551  0.4602 -0.7208  0.3006
  831MPD2    H512280   3.732   3.283  16.603  0.2771 -0.6234 -0.0354
  831MPD2    N112281   4.173   3.480  16.297 -0.2258  0.3951  0.4161
  831MPD2    H712282   4.197   3.566  16.249 -0.0414 -0.7140 -1.4731
  832MPD2     C12283   2.328   4.225  17.180 -0.0593 -0.3578 -0.1614
  832MPD2    C112284   2.372   4.345  17.129  0.3601 -0.0744  0.4379
  832MPD2    C212285   2.317   4.400  17.016  0.3705 -0.1176  0.0062
  832MPD2    C312286   2.217   4.331  16.949 -0.2186  0.0428  0.1367
  832MPD2    C412287   2.192   4.197  16.989  0.4678  0.0190 -0.4749
  832MPD2    C512288   2.249   4.150  17.102  0.7494  0.6516 -0.1577
  832MPD2     H12289   2.334   4.505  16.992 -0.8815  0.0695 -0.0487
  832MPD2    H112290   2.120   4.133  16.940 -0.0665  1.6554 -1.8568
  832MPD2    H212291   2.375   4.190  17.272 -3.1981 -0.9768  1.2180
  832MPD2    H312292   2.218   4.047  17.116  0.9687  0.9228  2.2612
  832MPD2     N12293   2.135   4.388  16.849 -0.2375  0.2410 -0.5228
  832MPD2    H512294   2.063   4.324  16.817  0.7670 -0.4645 -1.3919
  832MPD2    N112295   2.448   4.411  17.225 -0.2040  0.0203  0.8838
  832MPD2    H712296   2.488   4.360  17.303  1.8001 -0.9858 -0.8074
  833MPD2     C12297   4.408   1.917  12.146  0.0507  0.2956 -0.1125
  833MPD2    C112298   4.389   2.055  12.117  0.4583 -0.4007 -0.1093
  833MPD2    C212299   4.451   2.103  11.998  0.1598  0.4298 -0.4646
  833MPD2    C312300   4.523   2.012  11.917  0.1268 -0.0613  0.0851
  833MPD2    C412301   4.540   1.881  11.952  0.2119  0.5797 -0.2505
  833MPD2    C512302   4.490   1.837  12.068  0.6203  0.3843  0.2135
  833MPD2     H12303   4.431   2.205  11.968  1.2302  1.0510  0.9672
  833MPD2    H112304   4.598   1.811  11.892 -1.3316  0.2031 -1.3102
  833MPD2    H212305   4.367   1.873  12.237 -2.1833 -1.8086 -2.1287
  833MPD2    H312306   4.517   1.735  12.093  1.5096  0.0224 -2.2614
  833MPD2     N12307   4.569   2.062  11.795 -0.0535 -0.6672  0.5416
  833MPD2    H512308   4.573   2.163  11.787 -0.6748 -0.5836  1.2456
  833MPD2    N112309   4.310   2.138  12.205 -0.3373 -0.7308 -0.0690
  833MPD2    H712310   4.274   2.090  12.287  1.7501 -1.2210  0.5429
  834MPD2     C12311   4.217   1.836  10.939 -0.2565 -0.5739  0.3356
  834MPD2    C112312   4.347   1.792  10.953 -0.3131  0.1718 -0.5204
  834MPD2    C212313   4.437   1.851  11.046  0.2668 -0.2977 -0.7133
  834MPD2    C312314   4.386   1.958  11.118 -0.2288  0.1879  0.0532
  834MPD2    C412315   4.260   2.006  11.090 -0.2256 -0.8901  0.5625
  834MPD2    C512316   4.177   1.942  11.006  0.9486 -0.6085 -0.5722
  834MPD2     H12317   4.535   1.809  11.063  0.4008  0.5464  0.5188
  834MPD2    H112318   4.220   2.089  11.149  1.9987  1.5257 -1.3332
  834MPD2    H212319   4.146   1.791  10.871 -1.7854  0.4081  1.2745
  834MPD2    H312320   4.072   1.967  10.997  0.1173 -2.6886  3.5892
  834MPD2     N12321   4.461   2.008  11.227  0.2295 -0.8951  0.5204
  834MPD2    H512322   4.537   1.954  11.267  1.3416  0.8809  0.8254
  834MPD2    N112323   4.383   1.678  10.878 -0.0634  0.0582  0.3571
  834MPD2    H712324   4.309   1.644  10.817  2.3630 -2.1213 -1.3376
  835MPD2     C12325   4.384   4.240  11.400  0.7554  0.3108  0.1197
  835MPD2    C112326   4.283   4.334  11.415  0.3253  0.3795  0.2487
  835MPD2    C212327   4.307   4.452  11.489 -0.6125  0.3941 -0.3079
  835MPD2    C312328   4.428   4.472  11.563  0.0830 -0.5795 -0.3359
  835MPD2    C412329   4.526   4.378  11.542 -0.1212 -0.2616  0.4077
  835MPD2    C512330   4.506   4.267  11.465  0.4825 -0.8660 -0.3514
  835MPD2     H12331   4.227   4.523  11.504 -1.4737 -0.1465 -2.2931
  835MPD2    H112332   4.616   4.384  11.602  0.5475 -0.9313 -0.5237
  835MPD2    H212333   4.379   4.146  11.347  1.9117 -1.6670  3.5313
  835MPD2    H312334   4.582   4.190  11.462  2.2073  0.8197  0.2394
  835MPD2     N12335   4.457   4.569  11.661  0.6432  0.3098 -0.6103
  835MPD2    H512336   4.553   4.572  11.695 -0.0896  2.0819  1.2812
  835MPD2    N112337   4.157   4.319  11.359 -0.8208  0.1844 -0.5288
  835MPD2    H712338   4.096   4.400  11.365 -2.4521 -1.2097  1.5559
  836MPD2     C12339   3.887   4.554  11.829 -0.6187 -0.2231  0.1433
  836MPD2    C112340   3.942   4.586  11.953  0.2808 -0.0328  0.4306
  836MPD2    C212341   3.882   4.551  12.068  0.3845  0.2185 -0.7750
  836MPD2    C312342   3.758   4.490  12.054 -0.1547  0.3160  0.1430
  836MPD2    C412343   3.697   4.459  11.932  0.0025  0.1263  0.3357
  836MPD2    C512344   3.761   4.499  11.818 -0.2916 -0.4586 -0.0668
  836MPD2     H12345   3.923   4.562  12.167  0.5007 -1.2653 -0.6614
  836MPD2    H112346   3.596   4.420  11.926 -0.0127 -0.0595  1.7995
  836MPD2    H212347   3.938   4.574  11.736  0.2143  0.0588  0.6536
  836MPD2    H312348   3.716   4.495  11.720 -0.3173 -1.2895 -0.0270
  836MPD2     N12349   3.680   4.460  12.166 -0.1724  0.1855 -0.2136
  836MPD2    H512350   3.589   4.420  12.147  0.5011 -1.5330  0.1765
  836MPD2    N112351   4.067   4.659  11.948  0.3423  0.3638 -0.0463
  836MPD2    H712352   4.107   4.670  11.856  0.1604 -0.5361 -0.2314
  837MPD2     C12353   2.646   4.095  10.493 -0.3275  0.1023 -0.2068
  837MPD2    C112354   2.648   4.127  10.358 -0.4262  0.5682  0.8986
  837MPD2    C212355   2.721   4.232  10.316 -0.0794 -0.8044 -0.4554
  837MPD2    C312356   2.765   4.321  10.410 -0.4564 -0.3717  0.1990
  837MPD2    C412357   2.774   4.287  10.540 -0.4288  0.4594 -0.2887
  837MPD2    C512358   2.705   4.177  10.584  0.5299 -0.5764 -0.4350
  837MPD2     H12359   2.733   4.259  10.212  0.5609 -1.0714 -0.4552
  837MPD2    H112360   2.806   4.346  10.625 -1.7148 -0.8960  1.1432
  837MPD2    H212361   2.592   4.006  10.524 -0.2524 -0.4944 -1.8036
  837MPD2    H312362   2.677   4.151  10.686  0.3492 -1.2572 -0.6587
  837MPD2     N12363   2.792   4.449  10.359  0.0723 -0.2050  0.6412
  837MPD2    H512364   2.784   4.466  10.260 -1.4390  0.6289  0.9153
  837MPD2    N112365   2.565   4.049  10.261  0.0473 -0.1967  0.3851
  837MPD2    H712366   2.567   4.066  10.161 -1.8000  1.9174  0.7355
  838MPD2     C12367   1.355   2.630  11.496 -0.2840  0.6901 -0.0180
  838MPD2    C112368   1.255   2.560  11.436 -0.1759 -0.6237 -0.3793
  838MPD2    C212369   1.135   2.541  11.501  0.9062 -0.1762 -0.4045
  838MPD2    C312370   1.113   2.601  11.625 -0.0795 -0.4520 -0.4277
  838MPD2    C412371   1.205   2.688  11.678 -0.2365 -0.7096  0.0435
  838MPD2    C512372   1.328   2.695  11.615 -0.4104  0.1738 -0.0199
  838MPD2     H12373   1.054   2.485  11.457 -1.0226  0.6437  2.1050
  838MPD2    H112374   1.188   2.725  11.779  1.1213  0.3221 -0.1074
  838MPD2    H212375   1.453   2.635  11.451 -1.3152  0.6577 -2.2957
  838MPD2    H312376   1.399   2.765  11.657 -2.8406  2.5197  0.2132
  838MPD2     N12377   1.004   2.563  11.700 -0.2317 -0.6164 -0.3419
  838MPD2    H512378   0.939   2.493  11.663  1.8872 -2.4517 -0.5878
  838MPD2    N112379   1.262   2.497  11.301 -0.4363  0.2079 -0.0968
  838MPD2    H712380   1.175   2.459  11.266 -1.1589  0.9061  0.9343
  839MPD2     C12381   0.735   1.902  11.213 -0.0965  0.2363  0.1637
  839MPD2    C112382   0.805   1.862  11.097 -0.1069  0.6442 -0.0965
  839MPD2    C212383   0.902   1.951  11.054  0.2333  0.3479  0.2993
  839MPD2    C312384   0.932   2.072  11.120 -0.3983 -0.3611 -0.0744
  839MPD2    C412385   0.850   2.118  11.221  0.1988  0.2853 -0.1555
  839MPD2    C512386   0.755   2.029  11.266 -0.3595  0.4410  0.3377
  839MPD2     H12387   0.966   1.917  10.974  0.0698 -1.4904  0.9459
  839MPD2    H112388   0.867   2.212  11.273 -2.8051  1.0996 -0.7023
  839MPD2    H212389   0.659   1.854  11.273  0.3128 -1.0432 -0.3602
  839MPD2    H312390   0.683   2.061  11.340 -0.0135 -0.5070  1.0821
  839MPD2     N12391   1.035   2.160  11.086  0.0776 -0.9393  0.2911
  839MPD2    H512392   1.045   2.246  11.139 -1.1947  0.6483 -2.0833
  839MPD2    N112393   0.762   1.742  11.032 -0.4317  0.2392 -0.0580
  839MPD2    H712394   0.805   1.721  10.943  0.6900 -2.2260  1.0866
  840MPD2     C12395   1.391   4.102  10.549  0.0222  0.1550 -0.3779
  840MPD2    C112396   1.290   4.071  10.643  0.0725  0.1953 -0.4295
  840MPD2    C212397   1.295   4.143  10.765  0.1956 -0.0751  0.6465
  840MPD2    C312398   1.411   4.214  10.791  0.1081 -0.6837  0.5728
  840MPD2    C412399   1.512   4.226  10.698  0.5411  0.4330 -0.1416
  840MPD2    C512400   1.506   4.171  10.573 -0.3485  0.7184  0.0513
  840MPD2     H12401   1.223   4.122  10.843 -1.5683  0.2026 -0.9062
  840MPD2    H112402   1.597   4.291  10.715  0.5249  0.4352 -0.0733
  840MPD2    H212403   1.378   4.058  10.451 -2.0039  1.7946 -0.8469
  840MPD2    H312404   1.577   4.194  10.495 -0.0605  3.0239  0.9990
  840MPD2     N12405   1.430   4.267  10.920  0.4280  0.3072 -0.1238
  840MPD2    H512406   1.516   4.319  10.918 -0.7337  2.1751 -1.5182
  840MPD2    N112407   1.210   3.958  10.611  0.2080  0.8542  0.0129
  840MPD2    H712408   1.218   3.923  10.516  0.4654  0.9290  0.0065
  841MPD2     C12409   0.848   4.033  14.332 -0.7551  0.4043  0.3214
  841MPD2    C112410   0.949   3.950  14.367  0.4850 -0.4082  0.4355
  841MPD2    C212411   1.076   3.985  14.329  0.1796  0.3415 -0.4911
  841MPD2    C312412   1.103   4.094  14.255  0.0947 -0.2205  0.5899
  841MPD2    C412413   0.994   4.170  14.212 -0.4597 -0.4376 -0.5485
  841MPD2    C512414   0.866   4.145  14.257  0.2334  0.2628 -0.3780
  841MPD2     H12415   1.158   3.916  14.344 -1.4321 -1.5742 -0.5350
  841MPD2    H112416   0.993   4.255  14.146  3.6816 -1.3552 -1.7982
  841MPD2    H212417   0.746   4.009  14.361 -0.3378 -0.5380  1.0238
  841MPD2    H312418   0.780   4.200  14.219  0.9098  1.4807 -0.1290
  841MPD2     N12419   1.235   4.126  14.226 -0.7076  0.1165 -0.1280
  841MPD2    H512420   1.307   4.080  14.281 -2.5197  0.2344  2.3396
  841MPD2    N112421   0.932   3.823  14.427  0.2094 -0.4517 -0.0905
  841MPD2    H712422   1.016   3.766  14.422  1.1377  0.9549 -0.5017
  842MPD2     C12423   1.999   0.377  16.571 -0.1356 -0.4712 -0.5135
  842MPD2    C112424   1.881   0.306  16.595 -0.1223 -0.1033 -0.1486
  842MPD2    C212425   1.883   0.223  16.709  0.1705  0.3963  0.1076
  842MPD2    C312426   1.988   0.207  16.800  0.0313  0.2214 -0.1286
  842MPD2    C412427   2.101   0.276  16.774  0.5564  0.3363  0.1338
  842MPD2    C512428   2.103   0.358  16.665 -0.3726 -0.0284 -0.9426
  842MPD2     H12429   1.783   0.197  16.740  0.3564 -0.5027 -0.0660
  842MPD2    H112430   2.197   0.271  16.823  0.0779 -0.5695  0.9855
  842MPD2    H212431   2.021   0.433  16.480  0.7573  0.4799  0.2869
  842MPD2    H312432   2.195   0.409  16.639  0.5083 -1.4282 -0.5826
  842MPD2     N12433   1.977   0.130  16.915  0.2056  0.1260  0.5891
  842MPD2    H512434   2.054   0.129  16.981 -0.4125  0.1572  1.3007
  842MPD2    N112435   1.772   0.309  16.508 -0.2179 -0.0357 -0.1337
  842MPD2    H712436   1.775   0.374  16.430  0.1752 -0.3489 -0.3760
  843MPD2     C12437   3.402   0.590  17.712 -0.0675  0.2355  0.2925
  843MPD2    C112438   3.474   0.540   0.090 -0.0337 -0.0378 -0.0150
  843MPD2    C212439   3.487   0.613   0.208 -1.1958 -0.1081  0.2930
  843MPD2    C312440   3.433   0.740   0.206  0.5213  0.6235 -0.0503
  843MPD2    C412441   3.358   0.796   0.100 -0.1929 -0.5796  0.6586
  843MPD2    C512442   3.336   0.712  17.722 -0.2671  0.0203 -0.1481
  843MPD2     H12443   3.563   0.585   0.281 -0.0927  1.5737 -0.2147
  843MPD2    H112444   3.341   0.903   0.094 -2.4124 -0.9660  0.0852
  843MPD2    H212445   3.387   0.531  17.622  0.1592  1.3301 -0.4694
  843MPD2    H312446   3.294   0.761  17.634 -0.7801 -1.9102 -0.9886
  843MPD2     N12447   3.475   0.837   0.306 -0.1926 -0.2825  0.2464
  843MPD2    H512448   3.445   0.930   0.281  1.5398  0.4234  0.8570
  843MPD2    N112449   3.541   0.418   0.071  0.0738 -0.1513  0.4406
  843MPD2    H712450   3.538   0.381  17.706 -3.2495  1.0163  0.0841
  844MPD2     C12451   2.064   4.192  16.294  0.3582 -0.2633  0.0523
  844MPD2    C112452   2.132   4.082  16.339 -0.5164 -0.1348  0.0038
  844MPD2    C212453   2.238   4.098  16.425  0.2216  0.2780 -0.1869
  844MPD2    C312454   2.260   4.225  16.484  0.3756  0.4406 -0.5764
  844MPD2    C412455   2.181   4.335  16.444  0.3094  0.0802  0.6606
  844MPD2    C512456   2.084   4.312  16.351  0.4505 -0.1509 -0.5568
  844MPD2     H12457   2.293   4.008  16.449  2.0445  0.8069 -2.3934
  844MPD2    H112458   2.194   4.435  16.482  1.4462  0.0093  0.4672
  844MPD2    H212459   1.983   4.188  16.222 -1.0589 -0.4905  1.6317
  844MPD2    H312460   2.015   4.390  16.321 -0.6468 -0.9728 -0.1308
  844MPD2     N12461   2.355   4.233  16.586 -0.7847 -0.9352  0.4749
  844MPD2    H512462   2.406   4.150  16.616  0.7747  0.0933  0.6425
  844MPD2    N112463   2.118   3.949  16.291 -0.2067 -0.8571 -0.8163
  844MPD2    H712464   2.182   3.877  16.325 -0.2928 -0.4240  0.2631
  845MPD2     C12465   2.783   0.321  17.079  0.0829 -0.8430  0.6681
  845MPD2    C112466   2.655   0.269  17.094 -0.4428  0.2117 -0.1020
  845MPD2    C212467   2.624   0.156  17.019 -0.0459 -0.5672 -0.0355
  845MPD2    C312468   2.714   0.092  16.936 -0.7221 -0.9174 -0.6370
  845MPD2    C412469   2.839   0.150  16.919  0.2138 -0.3677 -0.1375
  845MPD2    C512470   2.865   0.264  16.988  0.7955 -0.0640 -0.2253
  845MPD2     H12471   2.523   0.119  17.031 -0.7298  1.3213  0.0513
  845MPD2    H112472   2.915   0.107  16.855 -0.2201  0.8782 -1.4964
  845MPD2    H212473   2.805   0.405  17.142 -3.6465  0.2923  0.5005
  845MPD2    H312474   2.964   0.307  16.978  0.0265  1.8028  0.2507
  845MPD2     N12475   2.672   4.701  16.879  0.0541 -0.0144  0.0861
  845MPD2    H512476   2.573   4.677  16.881  0.6699 -2.5198  0.7025
  845MPD2    N112477   2.575   0.330  17.183 -0.7450 -0.0268  1.2227
  845MPD2    H712478   2.614   0.417  17.216  1.1045 -0.3649 -0.0268
  846MPD2     C12479   3.967   1.038  13.540 -0.2989 -0.4468  0.2102
  846MPD2    C112480   3.893   1.141  13.589 -0.4129 -0.0323 -0.0820
  846MPD2    C212481   3.863   1.155  13.724 -0.1784  0.4018 -0.3958
  846MPD2    C312482   3.915   1.066  13.814 -0.1107  0.2193  0.0752
  846MPD2    C412483   3.985   0.959  13.771  0.0784  0.3505  0.6497
  846MPD2    C512484   4.013   0.944  13.634 -0.3033 -0.8984 -0.1670
  846MPD2     H12485   3.794   1.235  13.746 -1.1617 -0.5502  0.0171
  846MPD2    H112486   4.023   0.884  13.839 -1.8454 -1.2440 -0.0461
  846MPD2    H212487   3.991   1.018  13.436 -0.4083 -0.9816  0.2838
  846MPD2    H312488   4.084   0.869  13.600 -1.5448 -2.1076 -0.0991
  846MPD2     N12489   3.877   1.081  13.946  0.3033  0.2326  0.7209
  846MPD2    H512490   3.806   1.151  13.967 -0.4511  0.4571 -2.6724
  846MPD2    N112491   3.851   1.245  13.510  0.0734  0.0598 -0.5207
  846MPD2    H712492   3.799   1.320  13.556  0.8899 -0.9159  1.9421
  847MPD2     C12493   4.165   1.830  14.166 -0.4974 -0.0808  0.6655
  847MPD2    C112494   4.165   1.842  14.303  0.2587 -0.5147  0.1579
  847MPD2    C212495   4.206   1.739  14.382 -0.6020 -0.2140  0.2087
  847MPD2    C312496   4.239   1.616  14.325  0.2334  0.3844 -0.4744
  847MPD2    C412497   4.244   1.604  14.187 -0.2290  0.2452  0.3913
  847MPD2    C512498   4.215   1.713  14.107 -0.0418  0.2001 -0.0586
  847MPD2     H12499   4.205   1.741  14.491  2.3940 -3.2462  0.3040
  847MPD2    H112500   4.264   1.508  14.141  1.6889  0.3339  1.0650
  847MPD2    H212501   4.124   1.911  14.106  1.1163  0.8191  0.7835
  847MPD2    H312502   4.213   1.717  13.999  0.1610 -3.1865 -0.2102
  847MPD2     N12503   4.263   1.506  14.403 -0.3882  0.2013 -0.0924
  847MPD2    H512504   4.254   1.527  14.502 -0.1147  0.0580 -0.0375
  847MPD2    N112505   4.127   1.958  14.376  0.4773 -0.6988 -0.3522
  847MPD2    H712506   4.155   1.961  14.474  0.7147 -3.3916 -0.3403
  848MPD2     C12507   1.832   0.091  16.189  0.2960 -0.4479  0.0663
  848MPD2    C112508   1.920   0.113  16.293 -0.5283  0.4438 -0.1911
  848MPD2    C212509   2.009   0.219  16.282  0.7658 -0.2064  0.0966
  848MPD2    C312510   2.002   0.311  16.176 -0.1622  0.6900 -0.3209
  848MPD2    C412511   1.902   0.294  16.083 -0.1235  0.5567  0.0428
  848MPD2    C512512   1.829   0.178  16.081 -0.0869 -0.5027  0.0745
  848MPD2     H12513   2.085   0.226  16.359 -1.1084  0.9582  1.8404
  848MPD2    H112514   1.888   0.367  16.003  0.9047 -1.1787 -1.7042
  848MPD2    H212515   1.761   0.009  16.181  0.3853 -0.8080  2.7462
  848MPD2    H312516   1.751   0.169  16.006 -1.0041  1.4838  0.7706
  848MPD2     N12517   2.093   0.418  16.168 -0.1290 -0.1537 -0.6497
  848MPD2    H512518   2.062   0.496  16.111 -0.2580  0.7758  0.7124
  848MPD2    N112519   1.933   0.031  16.400 -0.1303  0.1977 -0.7653
  848MPD2    H712520   2.011   0.054  16.461  0.0905 -0.4919 -0.7921
  849MPD2     C12521   1.052   0.197  13.806 -0.0393  0.1522  0.0772
  849MPD2    C112522   1.096   0.277  13.708  0.3298 -0.4637  0.2708
  849MPD2    C212523   1.219   0.344  13.717  0.5239 -0.0596 -0.3608
  849MPD2    C312524   1.302   0.331  13.828 -0.6033  0.0015  0.0498
  849MPD2    C412525   1.260   0.240  13.925  0.4799  0.2821 -0.1467
  849MPD2    C512526   1.128   0.189  13.921  0.5694  0.0577 -0.0054
  849MPD2     H12527   1.240   0.410  13.634  3.8820  1.1274  1.4056
  849MPD2    H112528   1.320   0.218  14.013  2.0120  1.3462 -0.9006
  849MPD2    H212529   0.951   0.157  13.804  0.5377 -1.1723 -2.8660
  849MPD2    H312530   1.095   0.123  14.001 -0.0948  0.5422  0.1255
  849MPD2     N12531   1.427   0.390  13.847  0.0897  0.2015  0.2323
  849MPD2    H512532   1.477   0.365  13.932 -0.7481  1.6275  1.1439
  849MPD2    N112533   1.027   0.288  13.583 -0.4073  0.2620 -0.9575
  849MPD2    H712534   1.069   0.336  13.504 -0.6968 -1.2930 -2.0509
  850MPD2     C12535   3.749   3.223  15.169  0.5193 -0.1250 -0.6498
  850MPD2    C112536   3.839   3.199  15.274  0.1060  0.3469  0.3210
  850MPD2    C212537   3.974   3.172  15.244 -0.3707 -0.7213  0.2419
  850MPD2    C312538   4.018   3.185  15.111 -0.2934 -0.2970  0.0900
  850MPD2    C412539   3.934   3.229  15.011 -0.8601 -0.2449 -0.1907
  850MPD2    C512540   3.800   3.239  15.040 -0.1352 -0.5422 -0.5359
  850MPD2     H12541   4.031   3.152  15.334 -2.3222  0.0265  1.6313
  850MPD2    H112542   3.966   3.233  14.908 -2.9012 -0.3709 -0.8335
  850MPD2    H212543   3.642   3.234  15.181  1.0210  2.8295  1.0234
  850MPD2    H312544   3.735   3.260  14.956 -0.9115 -0.5263  0.0698
  850MPD2     N12545   4.154   3.153  15.089  0.4561  0.2350  0.2784
  850MPD2    H512546   4.204   3.116  15.169  0.5305 -0.3907 -0.0548
  850MPD2    N112547   3.798   3.179  15.412 -0.5280  0.1909  0.1771
  850MPD2    H712548   3.868   3.141  15.475  0.0393  1.1133  0.0928
  851MPD2     C12549   3.806   2.789  16.143  0.1424  0.5534  0.5754
  851MPD2    C112550   3.868   2.837  16.028 -0.0937 -0.6840 -0.0996
  851MPD2    C212551   3.988   2.786  15.985  0.9700 -0.4174 -0.2756
  851MPD2    C312552   4.050   2.684  16.057 -0.4943 -0.4195  0.4965
  851MPD2    C412553   3.988   2.632  16.173 -0.1552 -0.2519 -0.4757
  851MPD2    C512554   3.869   2.687  16.210  0.8241 -0.4660 -0.3085
  851MPD2     H12555   4.035   2.805  15.889 -1.1517  1.7553 -0.8874
  851MPD2    H112556   4.045   2.568  16.240  1.3599  1.2165 -0.3695
  851MPD2    H212557   3.707   2.813  16.179 -0.6434 -1.5582 -0.1706
  851MPD2    H312558   3.824   2.630  16.290 -3.3317  0.2340 -2.1301
  851MPD2     N12559   4.168   2.635  16.004 -0.3817 -0.3295 -0.0015
  851MPD2    H512560   4.196   2.686  15.921  0.5090 -0.1590  0.4162
  851MPD2    N112561   3.794   2.935  15.962 -0.0477 -0.2860 -0.4238
  851MPD2    H712562   3.705   2.971  15.995  0.4597  0.7618 -0.1678
  852MPD2     C12563   3.636   0.948  10.142  0.7861 -0.6635  0.0480
  852MPD2    C112564   3.681   0.972  10.273 -0.3117 -0.4293 -0.0872
  852MPD2    C212565   3.801   1.040  10.289  0.5183 -0.3512  0.3817
  852MPD2    C312566   3.878   1.081  10.176  0.1087  0.3225  0.8727
  852MPD2    C412567   3.837   1.043  10.052  0.0527  0.8107  1.0531
  852MPD2    C512568   3.716   0.976  10.036 -0.6010 -1.0233  0.0565
  852MPD2     H12569   3.831   1.062  10.390  0.7927  2.3030 -0.2608
  852MPD2    H112570   3.895   1.069   9.964 -1.2745 -0.2499 -0.1315
  852MPD2    H212571   3.548   0.893  10.114  0.8248  0.1972 -1.7355
  852MPD2    H312572   3.684   0.954   9.935 -0.2875  0.0043 -0.2693
  852MPD2     N12573   3.991   1.161  10.200 -0.1448 -0.3204  0.1202
  852MPD2    H512574   4.015   1.174  10.298  0.2828 -2.5967  0.3104
  852MPD2    N112575   3.612   0.930  10.389  0.0960 -0.7759  1.0401
  852MPD2    H712576   3.665   0.922  10.475  1.0057  0.0501  0.5468
  853MPD2     C12577   0.452   0.575  12.477  0.1336 -0.7185  0.3849
  853MPD2    C112578   0.378   0.664  12.401 -0.3595 -0.2152  0.0026
  853MPD2    C212579   0.386   0.657  12.266  0.2821  0.1935 -0.4944
  853MPD2    C312580   0.484   0.569  12.208  0.9545 -0.6608  0.3797
  853MPD2    C412581   0.571   0.494  12.284 -0.3544  0.4759 -0.2740
  853MPD2    C512582   0.541   0.489  12.421  0.4992  0.4833 -0.8488
  853MPD2     H12583   0.328   0.730  12.212  1.5370  1.4650 -0.1229
  853MPD2    H112584   0.639   0.430  12.230  0.3908  0.7030  0.4004
  853MPD2    H212585   0.431   0.580  12.583  0.7524  1.7336  0.3918
  853MPD2    H312586   0.585   0.418  12.490  2.2738  0.6606 -1.8120
  853MPD2     N12587   0.485   0.551  12.064 -0.3097 -0.0957 -0.2185
  853MPD2    H512588   0.568   0.505  12.030 -1.4512 -1.0716 -1.6480
  853MPD2    N112589   0.292   0.749  12.476  0.1112  0.3882 -0.5956
  853MPD2    H712590   0.292   0.736  12.577 -0.7986  1.8435 -0.4054
  854MPD2     C12591   2.513   1.094  12.456 -0.0490 -0.0172  0.2690
  854MPD2    C112592   2.408   1.006  12.491 -1.1238  0.1484  0.0092
  854MPD2    C212593   2.441   0.889  12.559  0.0162 -0.1547  0.3929
  854MPD2    C312594   2.573   0.861  12.589  0.5540 -1.2788 -0.0645
  854MPD2    C412595   2.670   0.946  12.550 -0.0408  0.7350 -0.0307
  854MPD2    C512596   2.642   1.057  12.476  0.0564  0.0784  0.5741
  854MPD2     H12597   2.366   0.810  12.564 -1.2311  0.9613 -0.7408
  854MPD2    H112598   2.773   0.918  12.568 -0.0725 -0.4064 -1.6265
  854MPD2    H212599   2.500   1.190  12.408 -1.7817 -0.4320 -0.0984
  854MPD2    H312600   2.721   1.124  12.444 -0.0483 -0.8292 -1.5355
  854MPD2     N12601   2.621   0.741  12.656 -0.4462  0.1776 -0.4169
  854MPD2    H512602   2.722   0.737  12.669 -1.0019 -3.9251  2.6668
  854MPD2    N112603   2.275   1.031  12.456  0.5329  0.2574  0.0628
  854MPD2    H712604   2.260   1.117  12.404  1.3284  1.0554  1.1509
  855MPD2     C12605   3.200   0.451  13.413  0.6255  0.2038 -0.2330
  855MPD2    C112606   3.075   0.393  13.431  0.2250 -0.6869 -0.7705
  855MPD2    C212607   2.983   0.414  13.336  0.2065  0.3101  1.0629
  855MPD2    C312608   3.015   0.477  13.216  0.7817 -0.6190 -0.0826
  855MPD2    C412609   3.136   0.539  13.193 -0.2177 -0.9420  0.1127
  855MPD2    C512610   3.227   0.524  13.292  1.4933  0.3952  0.4660
  855MPD2     H12611   2.879   0.385  13.339 -0.3530  2.6785  4.8976
  855MPD2    H112612   3.167   0.587  13.100 -0.7950 -1.2067 -0.2180
  855MPD2    H212613   3.265   0.435  13.498 -1.3076 -1.5889  0.9343
  855MPD2    H312614   3.314   0.588  13.286  1.1949  0.5409 -2.2500
  855MPD2     N12615   2.910   0.478  13.126 -0.4496 -0.2240 -0.0569
  855MPD2    H512616   2.829   0.422  13.150 -0.1678 -1.8295 -2.8191
  855MPD2    N112617   3.055   0.313  13.550 -0.4921  0.5543 -0.1750
  855MPD2    H712618   3.133   0.305  13.614 -1.4564 -0.0547  0.9146
  856MPD2     C12619   4.669   1.353  13.923 -0.0191 -0.4458  0.2571
  856MPD2    C112620   0.011   1.451  13.988  0.2134  0.8672  0.1578
  856MPD2    C212621   4.693   1.580  13.998 -0.1191 -0.2156  1.0618
  856MPD2    C312622   4.572   1.614  13.945 -0.6492  0.4666  0.0621
  856MPD2    C412623   4.494   1.514  13.888  0.1723 -0.3274  0.0897
  856MPD2    C512624   4.542   1.380  13.877 -0.0672  0.3661 -0.0515
  856MPD2     H12625   0.027   1.649  14.047 -0.4833  0.7422  0.1995
  856MPD2    H112626   4.395   1.523  13.845 -0.4289  0.2347  1.5896
  856MPD2    H212627   4.702   1.250  13.924  0.1124 -0.4094 -0.2450
  856MPD2    H312628   4.482   1.301  13.836  0.5143 -0.7319  1.1956
  856MPD2     N12629   4.516   1.747  13.954  0.5021  0.3324  0.3473
  856MPD2    H512630   4.430   1.762  13.901 -1.5188 -1.2090  3.1469
  856MPD2    N112631   0.135   1.424  14.048 -0.4396 -0.2328 -0.5009
  856MPD2    H712632   0.166   1.509  14.095  0.7973 -1.2842  0.5933
  857MPD2     C12633   1.338   3.538  12.718  0.3225  0.5226  0.1896
  857MPD2    C112634   1.433   3.479  12.806  0.1493 -0.4752  0.0588
  857MPD2    C212635   1.503   3.557  12.889 -0.0975 -0.7091 -0.0297
  857MPD2    C312636   1.475   3.692  12.900  0.8692  0.0021  0.0597
  857MPD2    C412637   1.394   3.753  12.816  0.4750  0.5240  0.2950
  857MPD2    C512638   1.324   3.679  12.724  0.1499  0.2060  1.2074
  857MPD2     H12639   1.585   3.510  12.941 -0.6983 -1.7419 -0.0262
  857MPD2    H112640   1.362   3.856  12.822 -0.7150  0.2433 -1.4037
  857MPD2    H212641   1.284   3.483  12.642  0.6999  1.3829 -0.6963
  857MPD2    H312642   1.250   3.730  12.663  0.5462  1.6667  1.9439
  857MPD2     N12643   1.554   3.765  12.996 -0.2082 -0.3630  0.2896
  857MPD2    H512644   1.610   3.717  13.066  0.4944 -0.5797 -0.4307
  857MPD2    N112645   1.467   3.343  12.804  0.5642 -0.1233 -0.3945
  857MPD2    H712646   1.544   3.319  12.865 -0.2151  2.7394  1.6885
  858MPD2     C12647   2.109   1.966  16.947 -0.0899 -0.1259 -0.2167
  858MPD2    C112648   2.239   1.928  16.951 -0.1150  0.4774  0.3089
  858MPD2    C212649   2.315   1.978  17.055  0.1429  0.3263 -0.1032
  858MPD2    C312650   2.267   2.063  17.152  0.1088  0.1435 -0.3670
  858MPD2    C412651   2.135   2.098  17.140 -0.9309 -0.6848  0.7548
  858MPD2    C512652   2.055   2.052  17.046  0.2587  0.3142 -0.6267
  858MPD2     H12653   2.422   1.961  17.059  0.1109  0.4634  1.2303
  858MPD2    H112654   2.095   2.178  17.201  0.9232  0.4845  0.4491
  858MPD2    H212655   2.044   1.929  16.868 -0.9457 -0.2600  0.5448
  858MPD2    H312656   1.955   2.093  17.050 -0.3824 -1.2933 -0.0251
  858MPD2     N12657   2.347   2.127  17.260  0.0903  0.6395  0.1461
  858MPD2    H512658   2.295   2.177  17.331 -1.6278 -3.8466  2.0598
  858MPD2    N112659   2.298   1.846  16.855 -0.1714 -0.0514 -0.0672
  858MPD2    H712660   2.399   1.839  16.858 -0.0011  2.3043 -0.5861
  859MPD2     C12661   0.900   3.612  14.934  0.5712 -0.7268  0.1725
  859MPD2    C112662   1.023   3.676  14.926 -0.0780  1.1753 -0.2615
  859MPD2    C212663   1.136   3.604  14.894  0.7893  0.3049 -0.7025
  859MPD2    C312664   1.126   3.465  14.877 -1.2048  0.2804  0.2252
  859MPD2    C412665   1.004   3.407  14.901  0.1266 -0.2478  0.1286
  859MPD2    C512666   0.891   3.478  14.925  0.2464  0.2822  0.3688
  859MPD2     H12667   1.230   3.652  14.868  1.1062  1.0516  1.8623
  859MPD2    H112668   0.997   3.299  14.888  0.1900 -0.3965  1.3084
  859MPD2    H212669   0.813   3.675  14.949 -0.3031 -1.9289  0.1230
  859MPD2    H312670   0.795   3.428  14.928  1.0913 -1.2893  0.9133
  859MPD2     N12671   1.224   3.380  14.816 -0.1932 -0.0494  0.1360
  859MPD2    H512672   1.203   3.281  14.805 -0.7719  0.0202  0.6696
  859MPD2    N112673   1.023   3.816  14.944 -0.4676  0.3092  0.7067
  859MPD2    H712674   0.935   3.852  14.978 -0.2716  1.5727 -0.0946
  860MPD2     C12675   3.315   0.300  11.486 -0.1228 -0.1469  0.8421
  860MPD2    C112676   3.309   0.378  11.601  0.0874 -0.3160  0.2798
  860MPD2    C212677   3.191   0.374  11.672 -1.1538 -0.8464 -0.0957
  860MPD2    C312678   3.082   0.303  11.631 -0.0349  0.0036 -0.2282
  860MPD2    C412679   3.082   0.236  11.513 -0.2096  0.6226 -0.3964
  860MPD2    C512680   3.200   0.234  11.437 -0.0682 -0.1552 -0.9748
  860MPD2     H12681   3.179   0.431  11.764  1.9000 -0.1658 -0.1386
  860MPD2    H112682   2.996   0.178  11.481 -0.8319  0.2326  1.9480
  860MPD2    H212683   3.398   0.304  11.416 -0.2653 -0.7431  0.6386
  860MPD2    H312684   3.212   0.167  11.353 -0.8673 -0.9244 -0.4939
  860MPD2     N12685   2.965   0.319  11.714  0.0242 -0.0806  0.4305
  860MPD2    H512686   2.979   0.366  11.803 -2.7864  2.0146 -0.2375
  860MPD2    N112687   3.414   0.455  11.647  0.0778 -0.5375  0.1284
  860MPD2    H712688   3.396   0.500  11.736 -1.7562 -1.4332  0.1966
  861MPD2     C12689   2.165   3.270  10.952 -0.0037  0.5869 -0.2946
  861MPD2    C112690   2.147   3.385  11.027  0.7823 -0.0612 -0.0904
  861MPD2    C212691   2.070   3.484  10.975 -0.0667 -0.2706  0.7640
  861MPD2    C312692   2.006   3.463  10.854 -0.8888 -0.2046  1.1431
  861MPD2    C412693   2.036   3.348  10.774  0.1099  0.2276 -0.3293
  861MPD2    C512694   2.118   3.255  10.829 -0.3870  0.5410  1.0932
  861MPD2     H12695   2.056   3.573  11.037  0.4650 -0.3171  0.9521
  861MPD2    H112696   2.005   3.333  10.672 -1.1657  0.5762  0.0085
  861MPD2    H212697   2.217   3.186  10.996 -1.2103  0.0756  0.1775
  861MPD2    H312698   2.138   3.162  10.777 -1.0775  2.1552 -2.0013
  861MPD2     N12699   1.915   3.564  10.810  0.1637  0.5717  0.1231
  861MPD2    H512700   1.897   3.646  10.867 -2.1708 -0.5919  1.0581
  861MPD2    N112701   2.204   3.397  11.159 -0.3174 -0.0112 -1.1036
  861MPD2    H712702   2.195   3.483  11.213 -1.7220  0.1744 -1.6508
  862MPD2     C12703   1.253   3.465  10.302 -0.3843 -0.5039 -0.4909
  862MPD2    C112704   1.346   3.417  10.392 -0.3416 -0.8316 -0.2970
  862MPD2    C212705   1.359   3.277  10.397  0.1080 -0.2362  0.0807
  862MPD2    C312706   1.288   3.185  10.317  0.3582 -0.7618 -0.3065
  862MPD2    C412707   1.202   3.242  10.226  0.5644 -1.0559 -0.0716
  862MPD2    C512708   1.181   3.377  10.229  0.5387 -0.0965 -0.1096
  862MPD2     H12709   1.438   3.235  10.458 -1.1968 -1.2355  1.0719
  862MPD2    H112710   1.144   3.180  10.160  0.1527  0.4590 -1.1337
  862MPD2    H212711   1.235   3.572  10.292 -0.6173 -0.4031  1.0521
  862MPD2    H312712   1.096   3.424  10.181 -0.5758  0.6432  2.5358
  862MPD2     N12713   1.312   3.043  10.307  0.4203 -0.1827  0.2349
  862MPD2    H512714   1.289   2.996  10.220  0.1828  0.3323  0.0244
  862MPD2    N112715   1.422   3.497  10.475  0.1453 -0.0833 -0.5152
  862MPD2    H712716   1.487   3.450  10.537 -1.5514 -0.3908  1.0315
  863MPD2     C12717   0.373   1.616  17.036  0.1938 -0.3398  0.1975
  863MPD2    C112718   0.482   1.618  16.941 -0.0199  0.3748 -0.1447
  863MPD2    C212719   0.587   1.532  16.960  0.1464 -0.0855 -0.6835
  863MPD2    C312720   0.590   1.440  17.061 -0.0133 -0.9342 -0.4280
  863MPD2    C412721   0.477   1.436  17.141 -0.1197  0.6566 -0.2036
  863MPD2    C512722   0.366   1.521  17.134 -0.0351  0.4090  0.1653
  863MPD2     H12723   0.664   1.547  16.885  1.5699 -0.9056  0.6181
  863MPD2    H112724   0.466   1.364  17.221  2.3256  0.7414  0.2201
  863MPD2    H212725   0.291   1.687  17.028  1.0245  0.5764 -0.2809
  863MPD2    H312726   0.287   1.505  17.205 -0.6912  0.0972 -0.6386
  863MPD2     N12727   0.700   1.358  17.092 -0.4635  0.0425  0.0148
  863MPD2    H512728   0.698   1.296  17.172 -1.8303  2.0936  1.5551
  863MPD2    N112729   0.464   1.714  16.835  0.1223  0.2968  0.2785
  863MPD2    H712730   0.383   1.775  16.841  0.3434  0.4169  2.1965
  864MPD2     C12731   1.565   2.466  17.496 -0.1840  0.1931  1.0435
  864MPD2    C112732   1.634   2.391  17.409 -1.1246 -0.1456  0.3815
  864MPD2    C212733   1.762   2.437  17.368  0.4354  0.3779 -0.4965
  864MPD2    C312734   1.812   2.556  17.399 -0.1216 -0.8057  0.2750
  864MPD2    C412735   1.732   2.644  17.480 -0.6078  0.2468  0.1093
  864MPD2    C512736   1.613   2.596  17.528 -0.4817 -0.3283  0.1865
  864MPD2     H12737   1.816   2.376  17.296  0.8989  2.3408 -1.7957
  864MPD2    H112738   1.781   2.732  17.522  0.2714 -0.1585 -0.0774
  864MPD2    H212739   1.478   2.427  17.547 -0.9825  1.5602  0.7515
  864MPD2    H312740   1.565   2.659  17.602 -1.8833 -1.4810  0.2689
  864MPD2     N12741   1.932   2.598  17.348 -0.3623  0.5227 -0.2352
  864MPD2    H512742   1.930   2.699  17.339  4.6614  0.5631 -1.1226
  864MPD2    N112743   1.569   2.273  17.361 -0.1216 -0.6865 -0.0160
  864MPD2    H712744   1.470   2.260  17.383  0.2735 -1.4647  1.3107
  865MPD2     C12745   2.173   2.928  16.431 -0.3992 -0.8258 -0.1943
  865MPD2    C112746   2.066   2.861  16.483  0.2228  0.2514 -0.6498
  865MPD2    C212747   2.059   2.827  16.620  0.3690  0.1254  0.4095
  865MPD2    C312748   2.167   2.866  16.692  0.3599  0.3104 -0.4500
  865MPD2    C412749   2.273   2.942  16.641  0.0481  0.6258  0.0983
  865MPD2    C512750   2.275   2.976  16.513  0.2651 -0.4141 -0.2088
  865MPD2     H12751   1.977   2.769  16.661  1.2551 -1.0929  0.4498
  865MPD2    H112752   2.359   2.973  16.698  0.3657  2.4784 -1.4067
  865MPD2    H212753   2.184   2.942  16.325 -0.6824  0.0208 -0.1051
  865MPD2    H312754   2.355   3.036  16.471 -0.6975 -0.7448 -2.4981
  865MPD2     N12755   2.184   2.819  16.822 -0.3718 -0.2243 -0.4596
  865MPD2    H512756   2.280   2.829  16.851 -0.1036  0.1480 -1.4688
  865MPD2    N112757   1.976   2.814  16.388  0.0786  0.1709  0.4659
  865MPD2    H712758   2.007   2.799  16.292  0.5558  1.5477  0.3969
  866MPD2     C12759   2.479   3.607  11.763 -0.0327  1.0210 -0.4489
  866MPD2    C112760   2.491   3.581  11.624  0.1874 -0.7329  0.6353
  866MPD2    C212761   2.393   3.624  11.535 -0.5057 -0.2988  0.5409
  866MPD2    C312762   2.284   3.697  11.580  0.0758 -0.2791 -0.5136
  866MPD2    C412763   2.267   3.711  11.717  0.5074  0.1395  0.6477
  866MPD2    C512764   2.365   3.668  11.806 -0.1785 -0.0635 -0.3415
  866MPD2     H12765   2.421   3.602  11.433 -0.0549 -3.7885  1.4259
  866MPD2    H112766   2.182   3.773  11.743  0.4040  0.3828 -0.2821
  866MPD2    H212767   2.546   3.558  11.832 -0.7208 -0.5970 -0.9114
  866MPD2    H312768   2.343   3.693  11.909 -1.9609  0.7414 -0.9141
  866MPD2     N12769   2.187   3.747  11.491 -0.4953 -0.8479 -0.0741
  866MPD2    H512770   2.104   3.796  11.523  0.2569 -0.0061  0.6093
  866MPD2    N112771   2.603   3.522  11.562  0.3446 -0.5916  0.7957
  866MPD2    H712772   2.604   3.498  11.464 -1.3542  1.6199  0.2297
  867MPD2     C12773   4.677   2.944  16.416  0.0563 -0.1946 -0.1758
  867MPD2    C112774   4.693   2.849  16.508  0.2312  0.3204  0.1655
  867MPD2    C212775   4.629   2.859  16.634 -0.7574 -0.1668  0.2207
  867MPD2    C312776   4.539   2.962  16.652 -0.0735 -0.7301  0.3237
  867MPD2    C412777   4.515   3.052  16.552  0.4312  0.5155 -0.1045
  867MPD2    C512778   4.593   3.048  16.439 -0.1541  0.4988  0.2506
  867MPD2     H12779   4.636   2.778  16.706  1.0146 -0.7644 -0.6406
  867MPD2    H112780   4.433   3.121  16.557 -0.6584 -0.7943  0.1168
  867MPD2    H212781   4.727   2.929  16.321 -0.9561  0.9341 -0.8858
  867MPD2    H312782   4.584   3.122  16.360  0.9228  1.9325  1.4618
  867MPD2     N12783   4.454   2.964  16.769 -0.0174 -0.1758 -0.4788
  867MPD2    H512784   4.387   3.040  16.778 -0.7493 -0.7626 -0.8952
  867MPD2    N112785   0.049   2.745  16.465  0.6060  0.7064  0.1481
  867MPD2    H712786   0.099   2.764  16.379 -0.6159 -2.4695 -1.2386
  868MPD2     C12787   1.134   1.820  13.036 -0.4740  0.5926 -0.3957
  868MPD2    C112788   1.217   1.726  13.090 -0.6534  0.4266 -0.4836
  868MPD2    C212789   1.199   1.708  13.228 -0.0795 -0.0291  0.2070
  868MPD2    C312790   1.090   1.763  13.297 -0.0759  0.1015  0.3765
  868MPD2    C412791   0.997   1.840  13.228  0.7924 -0.9183  0.2139
  868MPD2    C512792   1.029   1.876  13.101 -0.1568  0.0199  0.5652
  868MPD2     H12793   1.251   1.638  13.292  0.8950  1.0144  0.5599
  868MPD2    H112794   0.910   1.883  13.277  2.4644  2.3384  0.3582
  868MPD2    H212795   1.147   1.855  12.934 -1.2889  2.8184  0.2756
  868MPD2    H312796   0.962   1.947  13.054  1.8838 -0.1243 -2.5311
  868MPD2     N12797   1.074   1.740  13.433 -0.0831 -0.8514 -0.5597
  868MPD2    H512798   1.146   1.683  13.476  1.2330  0.5685 -0.9061
  868MPD2    N112799   1.325   1.671  13.017  0.0831 -0.1871 -0.8635
  868MPD2    H712800   1.337   1.711  12.924  1.6249  2.3765  0.4297
  869MPD2     C12801   3.373   0.349   1.543 -0.3270  0.2313  0.2834
  869MPD2    C112802   3.271   0.250   1.556 -0.1154  0.3761  0.3118
  869MPD2    C212803   3.263   0.159   1.444  0.5343  0.0362  0.8114
  869MPD2    C312804   3.353   0.162   1.342  0.0990  0.3285 -0.0279
  869MPD2    C412805   3.441   0.262   1.330 -0.4004  0.0693 -0.4273
  869MPD2    C512806   3.454   0.356   1.433  0.0344 -0.2519  0.1345
  869MPD2     H12807   3.198   0.072   1.450 -0.1211  0.3704 -1.6475
  869MPD2    H112808   3.504   0.272   1.242 -0.5108  0.7060 -0.4330
  869MPD2    H212809   3.386   0.410   1.632 -2.1537 -1.8915  1.9885
  869MPD2    H312810   3.528   0.434   1.421 -1.4383  0.7680 -2.3555
  869MPD2     N12811   3.345   0.059   1.244 -0.2876 -0.1351  0.6668
  869MPD2    H512812   3.265   4.729   1.245 -2.2593  2.3924  1.9640
  869MPD2    N112813   3.185   0.251   1.669 -0.6286 -0.2536  0.5718
  869MPD2    H712814   3.188   0.322   1.741  3.5421 -0.2388  0.4001
  870MPD2     C12815   2.097   3.549   1.684 -0.1593 -0.3201 -0.3050
  870MPD2    C112816   2.208   3.594   1.617  0.0998  0.8724  0.5523
  870MPD2    C212817   2.192   3.679   1.508  0.3991 -0.1662  0.3594
  870MPD2    C312818   2.067   3.739   1.483 -0.2741  0.6595  0.3581
  870MPD2    C412819   1.954   3.699   1.562 -0.0083  0.1174 -0.7533
  870MPD2    C512820   1.971   3.605   1.664 -0.4311 -0.1274  0.2796
  870MPD2     H12821   2.268   3.730   1.450 -0.4329 -3.6638 -3.8103
  870MPD2    H112822   1.856   3.739   1.541  0.7027  3.7033  2.9261
  870MPD2    H212823   2.109   3.467   1.754 -2.0706  0.3785  0.8197
  870MPD2    H312824   1.886   3.563   1.716 -0.0016 -1.3211  0.0212
  870MPD2     N12825   2.062   3.839   1.379 -0.2779 -0.0111  0.1899
  870MPD2    H512826   2.144   3.851   1.321 -0.4764  0.0713 -0.0728
  870MPD2    N112827   2.332   3.529   1.650 -0.5252 -0.0385 -0.1449
  870MPD2    H712828   2.337   3.459   1.724 -1.1571  0.0073 -0.0585
  871MPD2     C12829   3.714   2.747  16.684 -0.9385 -0.2023 -0.2851
  871MPD2    C112830   3.672   2.698  16.811 -0.4570 -0.2028  0.1693
  871MPD2    C212831   3.705   2.568  16.859 -0.1460 -0.4571  0.1094
  871MPD2    C312832   3.791   2.487  16.788 -0.6212 -0.2327  0.0800
  871MPD2    C412833   3.833   2.532  16.665 -0.3135 -0.0570  0.0256
  871MPD2    C512834   3.794   2.658  16.612 -0.3609 -0.5486 -0.4457
  871MPD2     H12835   3.684   2.540  16.962 -0.2454 -1.0859 -0.0842
  871MPD2    H112836   3.896   2.471  16.601 -0.5329 -1.9543  1.6399
  871MPD2    H212837   3.683   2.841  16.642  0.3011  1.4973  2.5772
  871MPD2    H312838   3.830   2.688  16.515  0.3726  1.9571  0.5829
  871MPD2     N12839   3.830   2.358  16.851  0.1940 -0.0369 -0.0920
  871MPD2    H512840   3.794   2.334  16.943 -0.7988 -0.8984 -0.7082
  871MPD2    N112841   3.612   2.792  16.891  0.6355 -0.3999 -0.7938
  871MPD2    H712842   3.574   2.875  16.846  0.1247 -1.5381 -2.4471
  872MPD2     C12843   0.103   0.467  13.734  0.1069  0.0847  0.1480
  872MPD2    C112844   0.044   0.597  13.722 -0.4829 -0.5196  0.0718
  872MPD2    C212845   4.656   0.616  13.780 -0.9819 -0.0400 -0.6299
  872MPD2    C312846   4.590   0.516  13.851  0.8630  0.5286  0.2812
  872MPD2    C412847   4.655   0.398  13.868 -0.2690  1.0379  0.3946
  872MPD2    C512848   0.041   0.363  13.802 -0.0363 -0.1032 -0.2615
  872MPD2     H12849   4.605   0.711  13.778 -0.5100  0.2326  0.0141
  872MPD2    H112850   4.625   0.316  13.931  0.9428  0.0473 -0.3040
  872MPD2    H212851   0.197   0.443  13.686  1.3279  1.5751  1.8149
  872MPD2    H312852   0.085   0.270  13.836  0.1344  0.2449  0.4683
  872MPD2     N12853   4.468   0.523  13.926 -0.1646  0.1964 -0.4919
  872MPD2    H512854   4.457   0.445  13.990  0.5240 -0.9424 -1.7443
  872MPD2    N112855   0.113   0.710  13.661 -0.0587 -0.3228  0.1634
  872MPD2    H712856   0.065   0.799  13.648  0.8905 -0.2120 -2.4977
  873MPD2     C12857   1.793   0.206   0.981 -0.2007  0.1974  0.1728
  873MPD2    C112858   1.661   0.246   0.968 -0.2394  0.0059 -0.6463
  873MPD2    C212859   1.557   0.147   0.976 -0.0126 -0.3456  0.1800
  873MPD2    C312860   1.593   0.012   0.996  0.2666  0.6878  0.2432
  873MPD2    C412861   1.724   4.710   1.004  0.4118 -0.0389  0.1003
  873MPD2    C512862   1.819   0.073   1.003  0.0313 -0.5380 -0.4039
  873MPD2     H12863   1.457   0.188   0.973  0.5702  1.0208 -1.1418
  873MPD2    H112864   1.736   4.605   1.025  0.8638 -0.0331 -0.1388
  873MPD2    H212865   1.867   0.284   0.963 -0.1844  0.1859  0.1903
  873MPD2    H312866   1.923   0.042   1.007  0.5360  0.7498 -3.7858
  873MPD2     N12867   1.504   4.641   1.024  0.3892 -0.0681  0.1206
  873MPD2    H512868   1.544   4.549   1.041 -0.7227 -0.5786 -0.0417
  873MPD2    N112869   1.647   0.384   0.936 -0.6827 -0.3135  0.0341
  873MPD2    H712870   1.725   0.448   0.934 -2.6178  2.0624 -0.1132
  874MPD2     C12871   1.528   0.859  16.137 -0.0571  0.2500  0.0003
  874MPD2    C112872   1.585   0.740  16.112  0.1810  0.0177 -0.1700
  874MPD2    C212873   1.717   0.732  16.080 -0.6612  0.3145 -0.1035
  874MPD2    C312874   1.793   0.845  16.074  0.3803 -0.4691 -0.0502
  874MPD2    C412875   1.734   0.964  16.089 -1.0333 -0.2792 -0.3452
  874MPD2    C512876   1.606   0.971  16.108  0.2056 -0.8644  0.5551
  874MPD2     H12877   1.762   0.638  16.050 -0.2112  0.5556 -0.1832
  874MPD2    H112878   1.795   1.054  16.097 -0.4311 -0.9310  2.4786
  874MPD2    H212879   1.425   0.872  16.166  0.0351 -0.6503  0.7159
  874MPD2    H312880   1.560   1.069  16.099 -0.0010 -1.0366 -0.2443
  874MPD2     N12881   1.931   0.851  16.055 -0.4277  0.1849 -0.3430
  874MPD2    H512882   1.978   0.940  16.068  0.2943 -0.3023  0.4065
  874MPD2    N112883   1.505   0.626  16.137 -0.0457  0.4149 -0.5942
  874MPD2    H712884   1.414   0.647  16.176  1.5371  5.1864  0.5336
  875MPD2     C12885   2.106   3.530  14.040  0.0803  0.3933 -0.2993
  875MPD2    C112886   2.102   3.666  14.031  0.4003  0.7728  0.1175
  875MPD2    C212887   2.117   3.730  14.151 -0.1686  0.2580 -1.0276
  875MPD2    C312888   2.142   3.671  14.273  0.0392  0.1902 -0.3741
  875MPD2    C412889   2.147   3.539  14.272 -0.1762  0.1394 -0.0844
  875MPD2    C512890   2.153   3.477  14.154 -0.9808 -0.7502  0.5709
  875MPD2     H12891   2.119   3.838  14.156 -0.0450  0.0598  3.1053
  875MPD2    H112892   2.176   3.481  14.358 -2.5743 -1.1979 -0.2023
  875MPD2    H212893   2.113   3.467  13.952  1.0702  1.3951 -0.9299
  875MPD2    H312894   2.186   3.374  14.158  0.1879 -0.4257 -0.8099
  875MPD2     N12895   2.174   3.758  14.386 -0.2586  0.8234 -0.2546
  875MPD2    H512896   2.175   3.859  14.375 -0.3692  0.9465  0.8406
  875MPD2    N112897   2.073   3.745  13.912 -0.0359  0.3023 -0.9197
  875MPD2    H712898   2.052   3.844  13.918 -0.9622 -0.0924  2.3823
  876MPD2     C12899   1.500   0.122  15.980 -0.3713  0.3282  0.8797
  876MPD2    C112900   1.550   0.045  15.880 -0.4817  0.5570 -0.1566
  876MPD2    C212901   1.543   4.639  15.896 -0.1380 -0.2577 -0.1082
  876MPD2    C312902   1.512   4.577  16.014 -0.0390 -0.2588  0.6701
  876MPD2    C412903   1.487   4.662  16.126  0.7617 -0.6383  0.1388
  876MPD2    C512904   1.485   0.061  16.100 -0.2617  0.7701  0.3838
  876MPD2     H12905   1.560   4.570  15.814 -1.4474 -1.1457  0.3750
  876MPD2    H112906   1.476   4.620  16.225  1.7913 -0.4668  0.3227
  876MPD2    H212907   1.478   0.227  15.990  1.0831  0.6373  0.8457
  876MPD2    H312908   1.466   0.124  16.186 -0.6218  3.0550 -1.3656
  876MPD2     N12909   1.508   4.435  16.010  0.9818 -0.1462  0.3817
  876MPD2    H512910   1.525   4.385  15.923 -0.7938 -0.3267  0.1440
  876MPD2    N112911   1.588   0.109  15.756 -0.4165 -0.0557 -0.1118
  876MPD2    H712912   1.603   0.209  15.748 -2.0023  0.2733  1.0284
  877MPD2     C12913   1.664   0.716  15.276  0.1006 -0.2173 -0.1363
  877MPD2    C112914   1.645   0.603  15.200 -0.4109 -0.1670 -0.4820
  877MPD2    C212915   1.667   0.597  15.061  0.4610  0.0545  0.3030
  877MPD2    C312916   1.695   0.722  15.005 -0.0069 -0.0495  0.7069
  877MPD2    C412917   1.702   0.835  15.085 -0.3829  0.1034  0.3453
  877MPD2    C512918   1.700   0.837  15.218 -0.5832  0.3657 -0.5185
  877MPD2     H12919   1.662   0.499  15.016 -0.1997  1.3321 -2.3686
  877MPD2    H112920   1.709   0.934  15.041  0.2071 -0.3772 -0.6364
  877MPD2    H212921   1.664   0.713  15.385  1.5026  0.7824 -0.1017
  877MPD2    H312922   1.727   0.929  15.267  0.8024 -0.7203  0.7631
  877MPD2     N12923   1.698   0.749  14.863 -0.7243 -0.3773 -0.1006
  877MPD2    H512924   1.704   0.848  14.839  1.0409 -0.8052 -1.4155
  877MPD2    N112925   1.617   0.476  15.255 -0.4388  0.3832 -0.2426
  877MPD2    H712926   1.619   0.396  15.193  0.1522  2.2615 -2.6092
  878MPD2     C12927   0.471   0.977  13.057 -0.2425  0.3461  0.6474
  878MPD2    C112928   0.605   0.969  13.020  0.0047 -0.2538 -0.6375
  878MPD2    C212929   0.689   0.879  13.084  0.1425  0.2821  0.1885
  878MPD2    C312930   0.637   0.789  13.180  0.1099 -0.8881  0.8365
  878MPD2    C412931   0.500   0.798  13.215 -0.7923  0.1048 -0.6637
  878MPD2    C512932   0.422   0.889  13.150 -0.3708 -0.4230 -0.2761
  878MPD2     H12933   0.795   0.875  13.060  0.5329  0.9125  1.7962
  878MPD2    H112934   0.450   0.712  13.259 -0.2786  0.2116  0.1343
  878MPD2    H212935   0.405   1.041  13.000  0.6756  1.8921  1.3018
  878MPD2    H312936   0.317   0.899  13.175 -0.5144  0.6617 -1.3139
  878MPD2     N12937   0.718   0.685  13.214  0.8068  0.0869 -0.4830
  878MPD2    H512938   0.806   0.685  13.164  1.6642 -1.1283  1.0425
  878MPD2    N112939   0.646   1.046  12.910  0.2681  0.6892  0.4442
  878MPD2    H712940   0.570   1.094  12.860 -0.4594 -0.2312  0.6692
  879MPD2     C12941   1.691   1.437  17.110 -0.5206  0.2893 -0.1777
  879MPD2    C112942   1.654   1.322  17.170 -0.1061  0.5338 -0.5534
  879MPD2    C212943   1.636   1.204  17.104 -0.4296  0.7215 -0.4320
  879MPD2    C312944   1.669   1.203  16.969 -0.2866  0.0844 -0.1553
  879MPD2    C412945   1.717   1.319  16.907  0.0379  0.0626 -0.6505
  879MPD2    C512946   1.728   1.433  16.978  0.3643 -0.7216 -0.6783
  879MPD2     H12947   1.598   1.116  17.154  0.0220  1.3138  0.9405
  879MPD2    H112948   1.740   1.309  16.801 -0.0938 -1.3093 -0.5454
  879MPD2    H212949   1.702   1.534  17.157 -0.4353 -0.9234  2.3620
  879MPD2    H312950   1.761   1.524  16.930  1.1832 -0.2868  0.6983
  879MPD2     N12951   1.631   1.094  16.883 -0.3933 -0.2524  0.3888
  879MPD2    H512952   1.644   1.103  16.783 -1.1489 -1.1328  0.2101
  879MPD2    N112953   1.614   1.339  17.305 -0.2655 -0.0387  0.1312
  879MPD2    H712954   1.625   1.432  17.345 -0.9124 -0.0924  0.4344
  880MPD2     C12955   2.395   2.989   0.152  0.2843  0.1410 -0.0281
  880MPD2    C112956   2.378   3.052   0.274 -0.6909  0.3356 -0.4022
  880MPD2    C212957   2.403   2.987   0.391  0.2616  0.7678  0.7187
  880MPD2    C312958   2.435   2.853   0.387 -0.0552  0.1556 -0.1332
  880MPD2    C412959   2.439   2.792   0.267 -0.8412  0.4855  0.2905
  880MPD2    C512960   2.429   2.861   0.152 -0.0177 -0.5434  0.1958
  880MPD2     H12961   2.416   3.040   0.484 -2.6461  1.5773  0.6505
  880MPD2    H112962   2.463   2.686   0.264  1.6814  1.0310  0.7948
  880MPD2    H212963   2.367   3.038   0.059 -0.3845  1.2244  0.7463
  880MPD2    H312964   2.427   2.808   0.058 -1.2492 -2.8548  1.5183
  880MPD2     N12965   2.448   2.787   0.513  0.0373  0.5370 -0.0331
  880MPD2    H512966   2.432   2.842   0.596  1.5306 -1.3443  1.5140
  880MPD2    N112967   2.352   3.193   0.273  0.4086  0.4612 -0.3854
  880MPD2    H712968   2.336   3.240   0.184 -2.7742  3.7911  1.9436
  881MPD2     C12969   2.829   3.898  17.575  0.1841  0.3064  0.2973
  881MPD2    C112970   2.769   3.784  17.540  0.0321  0.2803  0.0061
  881MPD2    C212971   2.675   3.731  17.627  1.1368 -0.2496 -0.2999
  881MPD2    C312972   2.675   3.774   0.024  0.2515 -0.5001  0.0824
  881MPD2    C412973   2.759   3.878   0.067  0.5968  0.4138 -0.0667
  881MPD2    C512974   2.840   3.942  17.707  0.5059  0.0608 -0.1499
  881MPD2     H12975   2.613   3.649  17.592 -0.8082  1.3541 -0.5962
  881MPD2    H112976   2.771   3.905   0.171  0.4762  0.3641 -0.0399
  881MPD2    H212977   2.899   3.944  17.505  0.2475 -0.7267 -0.3124
  881MPD2    H312978   2.897   4.030   0.006  2.5902 -0.8385 -1.5851
  881MPD2     N12979   2.586   3.714   0.119  0.2451 -0.3404  0.3105
  881MPD2    H512980   2.577   3.759   0.210 -0.4913 -0.7264  0.4281
  881MPD2    N112981   2.772   3.753  17.393 -0.4182  0.6481 -0.6813
  881MPD2    H712982   2.834   3.809  17.334 -0.3918 -0.2082 -1.4701
  882MPD2     C12983   1.261   0.597  14.077  0.2652 -0.1349 -0.1732
  882MPD2    C112984   1.274   0.538  14.200 -0.2905 -0.5693 -0.0885
  882MPD2    C212985   1.180   0.454  14.241 -0.6810 -0.1806 -0.0819
  882MPD2    C312986   1.067   0.432  14.167 -0.3794 -0.4105 -0.2082
  882MPD2    C412987   1.051   0.490  14.043  0.2809 -0.0263 -0.0054
  882MPD2    C512988   1.153   0.566  14.001  0.1043  0.3070 -0.5201
  882MPD2     H12989   1.176   0.428  14.346  0.6154  2.3309  0.5729
  882MPD2    H112990   0.967   0.480  13.975  1.2335  1.6112 -1.4162
  882MPD2    H212991   1.339   0.663  14.039  0.0190  0.9671  1.2403
  882MPD2    H312992   1.138   0.611  13.903  1.8469 -1.1983 -1.4793
  882MPD2     N12993   0.960   0.346  14.205  0.5368  0.0208  1.0365
  882MPD2    H512994   0.884   0.348  14.138  1.5313  0.4864 -0.0890
  882MPD2    N112995   1.383   0.586  14.277  0.4103 -0.2501 -0.4366
  882MPD2    H712996   1.428   0.671  14.244  1.2932 -0.5365  0.0277
  883MPD2     C12997   3.300   0.163  15.992 -0.2903 -0.2118 -0.7053
  883MPD2    C112998   3.319   0.285  15.931 -0.7828  0.1387 -0.4201
  883MPD2    C212999   3.418   0.371  15.980 -0.5814 -0.4638  0.5253
  883MPD2    C313000   3.478   0.348  16.106  0.6019 -0.3326  0.0463
  883MPD2    C413001   3.452   0.227  16.168  0.2848  0.4547 -0.4383
  883MPD2    C513002   3.362   0.135  16.112 -0.4023 -0.1561 -0.2839
  883MPD2     H13003   3.438   0.467  15.934  3.5599 -0.9589  1.2618
  883MPD2    H113004   3.497   0.193  16.260  3.4605  0.1472 -2.0943
  883MPD2    H213005   3.236   0.083  15.957  1.0808 -1.2154 -0.9460
  883MPD2    H313006   3.334   0.039  16.154 -0.7108  0.1861  0.2977
  883MPD2     N13007   3.575   0.435  16.157 -0.4043  0.0526 -0.6594
  883MPD2    H513008   3.597   0.516  16.101  2.1958  1.4645  2.3517
  883MPD2    N113009   3.239   0.329  15.817  0.4524 -0.2524  0.2874
  883MPD2    H713010   3.263   0.420  15.779 -0.7366 -0.1440 -0.2326
  884MPD2     C13011   0.583   1.352  15.191 -0.1048 -0.5164 -0.5253
  884MPD2    C113012   0.538   1.291  15.076 -0.6618 -0.4591 -0.3366
  884MPD2    C213013   0.412   1.326  15.030  0.6332 -0.1237 -0.2664
  884MPD2    C313014   0.327   1.389  15.120  0.2912  0.2925  0.0614
  884MPD2    C413015   0.371   1.437  15.240  0.2155  0.2733 -0.7813
  884MPD2    C513016   0.500   1.422  15.267  0.6161  0.1769 -0.7444
  884MPD2     H13017   0.375   1.287  14.936  0.3979  2.0952 -1.0944
  884MPD2    H113018   0.311   1.489  15.313  0.7621  0.0728 -0.1904
  884MPD2    H213019   0.681   1.332  15.234 -0.2169  1.6495  0.7550
  884MPD2    H313020   0.535   1.469  15.358 -4.0861  0.2392  1.0007
  884MPD2     N13021   0.191   1.398  15.088  0.0977 -1.0753 -0.3899
  884MPD2    H513022   0.157   1.355  15.002 -1.4148  0.3279 -0.4858
  884MPD2    N113023   0.609   1.197  15.005 -0.3344 -0.3726 -0.3099
  884MPD2    H713024   0.569   1.153  14.923 -1.1970  0.9670 -0.6109
  885MPD2     C13025   3.162   0.807   0.589 -0.1920 -0.0218 -0.0411
  885MPD2    C113026   3.190   0.928   0.654  0.8168  0.3475  0.4458
  885MPD2    C213027   3.207   1.042   0.581 -0.2149  0.1049  0.1398
  885MPD2    C313028   3.175   1.044   0.448  0.2779  0.6820  0.0220
  885MPD2    C413029   3.152   0.926   0.381  0.2615  0.3136  0.1774
  885MPD2    C513030   3.156   0.807   0.452  0.2681 -0.8499 -0.3842
  885MPD2     H13031   3.236   1.135   0.628 -0.2410  1.1866 -1.9716
  885MPD2    H113032   3.137   0.926   0.273  2.5791  2.8344 -0.1472
  885MPD2    H213033   3.156   0.711   0.639 -1.4522 -0.7091 -1.5347
  885MPD2    H313034   3.150   0.712   0.400 -0.6966 -1.2231  0.4191
  885MPD2     N13035   3.193   1.163   0.370  0.0977  0.5697  0.0014
  885MPD2    H513036   3.238   1.240   0.417  0.6477  0.1540  0.1523
  885MPD2    N113037   3.221   0.913   0.790 -0.3360 -0.4355 -0.1387
  885MPD2    H713038   3.223   0.817   0.823 -1.2270 -0.5433 -0.3915
  886MPD2     C13039   0.119   0.178  15.598  0.0845  0.1743 -0.6345
  886MPD2    C113040   0.217   0.091  15.551  0.4053  0.0963 -0.4761
  886MPD2    C213041   0.243   0.073  15.414 -0.0962  0.4701  0.3068
  886MPD2    C313042   0.164   0.145  15.326  0.7876  0.0638 -0.0827
  886MPD2    C413043   0.072   0.242  15.375  0.1104 -0.5003  1.1624
  886MPD2    C513044   0.052   0.260  15.512  0.4856 -0.1577  0.1054
  886MPD2     H13045   0.308   4.729  15.374 -0.1673 -0.0474  1.1763
  886MPD2    H113046   0.028   0.312  15.304  1.6720 -1.4617 -0.7781
  886MPD2    H213047   0.106   0.204  15.703  0.9232  2.3052 -1.0700
  886MPD2    H313048   4.707   0.327  15.548  0.8589  0.7851 -0.8465
  886MPD2     N13049   0.175   0.122  15.186  0.5975  0.0356 -0.7692
  886MPD2    H513050   0.237   0.046  15.160 -1.9524 -1.4535 -2.6305
  886MPD2    N113051   0.296   0.015  15.640 -0.1674 -0.2980  0.0638
  886MPD2    H713052   0.353   4.675  15.599 -0.0041  0.4745 -1.0602
  887MPD2     C13053   0.968   0.029  16.093  0.0933 -0.6876 -0.5002
  887MPD2    C113054   0.869   0.088  16.027 -0.7383 -0.3346 -0.0302
  887MPD2    C213055   0.896   0.204  15.968 -0.0849  0.2606  0.6127
  887MPD2    C313056   1.016   0.273  15.974  0.2838  0.4999 -0.5412
  887MPD2    C413057   1.118   0.208  16.038  0.1033 -0.5947  0.8756
  887MPD2    C513058   1.091   0.086  16.093  0.0182 -0.0121 -0.5072
  887MPD2     H13059   0.822   0.240  15.897  1.1450  0.2398 -0.6887
  887MPD2    H113060   1.221   0.241  16.047 -0.0192 -0.5525  2.2101
  887MPD2    H213061   0.948   4.679  16.160 -0.2107 -0.0581  0.1890
  887MPD2    H313062   1.165   0.022  16.139  0.9790  0.3588 -1.5481
  887MPD2     N13063   1.025   0.401  15.917 -0.3615  0.4726  0.6247
  887MPD2    H513064   0.943   0.441  15.871  0.0736 -0.8674 -1.3360
  887MPD2    N113065   0.742   0.023  16.004  0.4045  1.0842 -0.7294
  887MPD2    H713066   0.678   0.069  15.941  0.5917  1.9970 -0.2536
  888MPD2     C13067   2.291   0.167  14.253  0.6900 -0.3407 -0.6795
  888MPD2    C113068   2.278   0.173  14.392  0.2941 -0.2081 -0.4125
  888MPD2    C213069   2.361   0.260  14.456  0.8916 -0.0832 -0.7507
  888MPD2    C313070   2.454   0.340  14.396  0.6898  1.2271  0.0508
  888MPD2    C413071   2.461   0.334  14.256  0.5229 -0.2018  0.5978
  888MPD2    C513072   2.371   0.258  14.182 -0.1106  0.7567 -0.1662
  888MPD2     H13073   2.359   0.250  14.564  2.2325  3.0680 -0.4431
  888MPD2    H113074   2.515   0.407  14.198  0.0921  0.0523  0.5171
  888MPD2    H213075   2.226   0.111  14.187  0.9896 -0.8300 -0.5615
  888MPD2    H313076   2.371   0.257  14.073  2.7565 -1.5130 -0.1493
  888MPD2     N13077   2.528   0.433  14.483  0.0775  0.2258  0.3612
  888MPD2    H513078   2.506   0.419  14.581  0.5065  0.5172  0.4984
  888MPD2    N113079   2.189   0.078  14.456  0.2332 -0.1496 -0.3637
  888MPD2    H713080   2.207   0.068  14.555 -0.5946  0.0447 -0.1937
  889MPD2     C13081   1.404   4.515  13.217 -0.3892  0.2721 -0.6801
  889MPD2    C113082   1.531   4.475  13.241 -0.1830  0.4137 -0.1244
  889MPD2    C213083   1.631   4.571  13.202 -0.1907 -0.2503  0.3567
  889MPD2    C313084   1.602   4.696  13.169  0.2077 -0.3003  0.0005
  889MPD2    C413085   1.467   4.731  13.147  0.2209  0.5677  0.3552
  889MPD2    C513086   1.373   4.639  13.170  0.1732  0.3912 -0.1785
  889MPD2     H13087   1.731   4.551  13.238 -0.3742  0.3216  1.1887
  889MPD2    H113088   1.426   0.097  13.123 -0.6360  0.0623 -0.2855
  889MPD2    H213089   1.325   4.441  13.224 -1.2588  1.2700  0.0214
  889MPD2    H313090   1.273   4.672  13.147 -0.2960 -0.5133  0.5680
  889MPD2     N13091   1.700   0.062  13.167  0.8024 -0.0221  0.5517
  889MPD2    H513092   1.792   0.044  13.206  0.6248  0.9328  1.4283
  889MPD2    N113093   1.563   4.332  13.259  0.3749  0.8096  0.3323
  889MPD2    H713094   1.489   4.267  13.284  1.3237 -0.1748  0.5305
  890MPD2     C13095   2.098   1.270  14.842  0.4942 -0.0542  0.2992
  890MPD2    C113096   2.011   1.278  14.947 -0.4378  0.3828  0.0198
  890MPD2    C213097   2.007   1.171  15.042 -0.5968  0.0090 -0.3585
  890MPD2    C313098   2.081   1.058  15.028 -0.8323  0.2130  0.2520
  890MPD2    C413099   2.169   1.049  14.920  0.1947 -0.1087 -0.0529
  890MPD2    C513100   2.180   1.158  14.828  0.0334 -0.5466  0.0182
  890MPD2     H13101   1.928   1.171  15.116 -0.4246  1.1171 -0.1736
  890MPD2    H113102   2.240   0.968  14.911  0.0627 -0.0688 -1.3756
  890MPD2    H213103   2.108   1.336  14.757 -2.0056  0.2383  0.2362
  890MPD2    H313104   2.231   1.136  14.734  0.3398  3.1005 -0.6655
  890MPD2     N13105   2.079   0.955  15.121 -0.0600 -0.2223 -0.2549
  890MPD2    H513106   2.052   0.977  15.217  1.0953 -2.4073  0.5714
  890MPD2    N113107   1.924   1.394  14.953  0.3106 -0.0465 -0.1022
  890MPD2    H713108   1.921   1.467  14.883 -0.2325 -0.8440 -0.8979
  891MPD2     C13109   4.383   4.552  16.380 -0.3759  0.5244 -0.7186
  891MPD2    C113110   4.273   4.542  16.463  0.3096 -0.6311  0.8268
  891MPD2    C213111   4.297   4.498  16.590  0.8117  0.7017  0.5741
  891MPD2    C313112   4.423   4.448  16.623 -0.1279  0.1397  0.7289
  891MPD2    C413113   4.529   4.464  16.534  0.3046  0.2854  0.9620
  891MPD2    C513114   4.511   4.518  16.412  0.1295  0.6961 -0.0507
  891MPD2     H13115   4.213   4.476  16.655 -0.4221  0.0156 -1.2554
  891MPD2    H113116   4.626   4.418  16.547 -0.4057 -1.0724  1.4073
  891MPD2    H213117   4.370   4.597  16.282  1.3772  0.1181 -1.1421
  891MPD2    H313118   4.591   4.543  16.344 -0.4794 -0.8675 -1.3316
  891MPD2     N13119   4.432   4.388  16.750  0.1434  0.5576 -0.4100
  891MPD2    H513120   4.350   4.397  16.809  1.3061  0.3948  1.2256
  891MPD2    N113121   4.146   4.570  16.410  0.5384 -0.0058 -0.3109
  891MPD2    H713122   4.141   4.627  16.326  2.2064  0.8265  0.1369
  892MPD2     C13123   0.499   0.407  14.997  1.1527 -0.5698  0.8327
  892MPD2    C113124   0.442   0.427  14.875 -0.1765 -0.1219 -0.3449
  892MPD2    C213125   0.474   0.353  14.764 -0.1884 -0.2037  0.0645
  892MPD2    C313126   0.574   0.256  14.772 -0.5706 -0.0640  0.5392
  892MPD2    C413127   0.644   0.246  14.893  0.6303  0.5599 -0.8697
  892MPD2    C513128   0.594   0.313  15.003 -0.9207  0.1807 -0.2251
  892MPD2     H13129   0.431   0.372  14.666 -2.2073  0.8893  1.1669
  892MPD2    H113130   0.728   0.178  14.901  1.0008  1.2395  1.1997
  892MPD2    H213131   0.461   0.454  15.087 -0.9973 -1.2226  0.2666
  892MPD2    H313132   0.641   0.296  15.099 -1.4989  1.1538  0.2262
  892MPD2     N13133   0.625   0.176  14.664  0.3921 -0.8798  0.0010
  892MPD2    H513134   0.704   0.114  14.676 -0.3083 -1.9092 -0.7563
  892MPD2    N113135   0.337   0.528  14.878 -0.1959  0.2020 -0.3045
  892MPD2    H713136   0.324   0.571  14.970  0.5202 -3.5011  1.5334
  893MPD2     C13137   1.449   4.549   1.359  0.2762 -0.0862 -0.7005
  893MPD2    C113138   1.529   4.641   1.418  0.4357  0.8607 -0.3055
  893MPD2    C213139   1.477   0.027   1.453  0.1474  0.4069 -0.6811
  893MPD2    C313140   1.339   0.040   1.452  0.4409  0.7353 -0.2152
  893MPD2    C413141   1.259   4.682   1.402 -0.7423 -0.2524 -0.2091
  893MPD2    C513142   1.311   4.573   1.349  0.1554 -0.0817  0.4583
  893MPD2     H13143   1.543   0.104   1.492  1.6022 -0.2065 -1.9380
  893MPD2    H113144   1.152   4.700   1.393 -0.2402  1.8465 -1.9454
  893MPD2    H213145   1.491   4.457   1.322 -0.3892 -0.0814 -1.4760
  893MPD2    H313146   1.248   4.501   1.298  1.3382  0.2639 -1.5086
  893MPD2     N13147   1.268   0.152   1.513  0.6345  0.4075  0.4938
  893MPD2    H513148   1.168   0.154   1.496  0.6799  1.8832  0.3668
  893MPD2    N113149   1.669   4.614   1.423 -0.2461  0.3514 -0.1873
  893MPD2    H713150   1.708   4.533   1.375 -0.8455  0.2373 -0.4902
  894MPD2     C13151   0.193   1.673   1.206 -0.3319 -0.0935 -0.7167
  894MPD2    C113152   0.120   1.786   1.182 -0.6799 -0.2620  0.4767
  894MPD2    C213153   0.189   1.890   1.129  0.4277  0.1451 -0.4343
  894MPD2    C313154   0.320   1.883   1.092 -0.0369 -0.7269 -0.5021
  894MPD2    C413155   0.391   1.767   1.117  0.2840 -0.0980 -0.6613
  894MPD2    C513156   0.328   1.663   1.179  0.8223  0.1801 -0.3851
  894MPD2     H13157   0.147   1.989   1.123  0.2962  0.2615  2.2636
  894MPD2    H113158   0.495   1.759   1.088  1.1037  1.8391  1.6682
  894MPD2    H213159   0.142   1.592   1.257 -0.6614 -0.3511 -1.4539
  894MPD2    H313160   0.378   1.571   1.205  2.5061  0.6115 -2.0889
  894MPD2     N13161   0.375   2.008   1.053 -0.1637  0.4291  0.3074
  894MPD2    H513162   0.315   2.090   1.054 -1.1196 -0.2688  0.3301
  894MPD2    N113163   4.712   1.804   1.218 -0.3078 -0.3725  0.0133
  894MPD2    H713164   4.678   1.898   1.195  1.0657  0.2939  0.7308
  895MPD2     C13165   4.586   0.057  13.725  0.3030 -0.4227 -0.9806
  895MPD2    C113166   4.479   0.043  13.643 -0.4641 -0.1741 -0.6500
  895MPD2    C213167   4.468   4.669  13.552  0.3437  0.9711 -0.6808
  895MPD2    C313168   4.575   4.575  13.547 -0.0194 -0.1072  0.6894
  895MPD2    C413169   4.686   4.597  13.628  0.0349 -0.2942 -0.2128
  895MPD2    C513170   4.690   4.701  13.720 -0.5479 -0.0604 -0.4086
  895MPD2     H13171   4.371   4.652  13.506  1.0695 -0.3495 -1.7288
  895MPD2    H113172   0.043   4.538  13.618  1.1392  0.9606  2.2001
  895MPD2    H213173   4.597   0.146  13.785 -1.8240 -1.9882  1.6935
  895MPD2    H313174   0.049   4.729  13.771 -0.7329  0.4664 -0.3755
  895MPD2     N13175   4.561   4.478  13.451 -0.1181 -0.4290 -0.2142
  895MPD2    H513176   4.467   4.466  13.414 -1.1525 -0.3397  2.3853
  895MPD2    N113177   4.389   0.147  13.618 -0.0225 -0.2739 -0.2566
  895MPD2    H713178   4.327   0.129  13.539 -1.2474 -0.7875  0.8179
  896MPD2     C13179   1.690   3.085   1.228 -0.5606  0.1748  0.9919
  896MPD2    C113180   1.688   2.967   1.156  0.5558  0.3671  0.2500
  896MPD2    C213181   1.561   2.908   1.141 -0.4248  0.3655 -0.3219
  896MPD2    C313182   1.436   2.968   1.176 -0.2150 -0.3449 -0.3129
  896MPD2    C413183   1.443   3.083   1.251 -0.1005 -0.2805 -0.0025
  896MPD2    C513184   1.567   3.145   1.266 -0.5609 -0.0749  0.1282
  896MPD2     H13185   1.557   2.811   1.093  0.1138  0.1407  0.0888
  896MPD2    H113186   1.360   3.127   1.304 -0.0126 -0.2580  0.1152
  896MPD2    H213187   1.786   3.132   1.245  0.6283 -1.9978  0.2168
  896MPD2    H313188   1.563   3.235   1.327  0.2691 -0.3290  0.5509
  896MPD2     N13189   1.319   2.892   1.158 -0.0148  0.5559 -0.0919
  896MPD2    H513190   1.329   2.805   1.107  2.2442 -0.5572  2.2664
  896MPD2    N113191   1.815   2.902   1.146  0.1831  0.0905 -0.1725
  896MPD2    H713192   1.893   2.965   1.159  1.1823 -1.1608 -0.0655
  897MPD2     C13193   3.067   0.293  11.043 -0.0602 -1.2721  0.5833
  897MPD2    C113194   3.029   0.192  10.956 -0.0860  0.3802  0.8159
  897MPD2    C213195   2.907   0.122  10.978  0.0016 -0.8163  0.6276
  897MPD2    C313196   2.826   0.162  11.079 -0.1114 -0.8843  0.4194
  897MPD2    C413197   2.869   0.260  11.166  0.6619 -0.3432 -0.2422
  897MPD2    C513198   2.980   0.325  11.141 -0.5401  0.2088  0.2308
  897MPD2     H13199   2.869   0.041  10.916 -2.3878  1.1647 -0.4738
  897MPD2    H113200   2.809   0.294  11.250  1.0898  0.5887 -0.3221
  897MPD2    H213201   3.159   0.348  11.031  0.2119 -1.4184  2.0123
  897MPD2    H313202   3.005   0.409  11.205  2.1270 -0.3229 -0.1396
  897MPD2     N13203   2.703   0.091  11.110 -0.1787  0.5299  0.2568
  897MPD2    H513204   2.694   4.731  11.068 -2.5402  1.3641 -1.1011
  897MPD2    N113205   3.122   0.165  10.859  0.4907  0.1839  0.5722
  897MPD2    H713206   3.210   0.217  10.862  0.5724  0.0897 -0.2221
  898MPD2     C13207   0.634   0.170  17.385 -0.4051  0.3516 -0.5231
  898MPD2    C113208   0.682   0.259  17.289 -0.7934  0.2034  0.1986
  898MPD2    C213209   0.587   0.342  17.238 -0.0151  0.7143  0.2987
  898MPD2    C313210   0.460   0.351  17.285  0.6399 -0.4620 -0.4209
  898MPD2    C413211   0.418   0.265  17.387  0.1025 -0.6790  0.1895
  898MPD2    C513212   0.506   0.176  17.442  0.5515 -0.3095 -0.3101
  898MPD2     H13213   0.618   0.397  17.150 -0.4762 -0.5621 -0.6561
  898MPD2    H113214   0.315   0.267  17.420  0.2141 -0.0744  0.4815
  898MPD2    H213215   0.691   0.095  17.438 -2.2891  0.7105  2.0035
  898MPD2    H313216   0.486   0.120  17.532  1.3418  1.9640  1.2794
  898MPD2     N13217   0.373   0.430  17.217  0.6788  0.4087 -0.8445
  898MPD2    H513218   0.409   0.486  17.140 -0.1918 -0.2538 -1.7236
  898MPD2    N113219   0.805   0.251  17.226 -0.1352 -0.1060 -0.1854
  898MPD2    H713220   0.834   0.317  17.155  0.3972  0.5112  0.6049
  899MPD2     C13221   0.718   0.823  17.594 -0.7213 -0.1979 -0.0139
  899MPD2    C113222   0.712   0.955  17.559 -0.3390 -0.2849  0.1077
  899MPD2    C213223   0.654   1.042  17.647  0.2847 -0.5180 -0.0401
  899MPD2    C313224   0.594   0.999   0.037 -0.9795 -0.1467 -0.6953
  899MPD2    C413225   0.599   0.862   0.074  0.5081 -0.0295  0.2290
  899MPD2    C513226   0.671   0.780  17.716  0.4845 -0.3024  0.8428
  899MPD2     H13227   0.652   1.147  17.622  2.7678  0.3196  3.1625
  899MPD2    H113228   0.543   0.820   0.157 -2.5759  2.3003 -0.6496
  899MPD2    H213229   0.764   0.755  17.523 -0.1192  0.8179 -0.5864
  899MPD2    H313230   0.679   0.674   0.006 -2.5331 -0.4371  1.4415
  899MPD2     N13231   0.513   1.088   0.117 -0.6500  0.8820 -0.6514
  899MPD2    H513232   0.460   1.053   0.196 -0.8596 -1.1542 -1.6760
  899MPD2    N113233   0.788   0.990  17.442  0.7098 -0.3305 -0.1475
  899MPD2    H713234   0.846   0.918  17.400  2.1901 -0.4882  2.1684
  900MPD2     C13235   0.627   2.708  12.297  0.1795 -0.4587  0.2721
  900MPD2    C113236   0.523   2.646  12.354 -0.0884 -0.4626  0.4769
  900MPD2    C213237   0.395   2.689  12.329  0.4029  0.0763  0.0008
  900MPD2    C313238   0.373   2.785  12.230  0.2448  0.3873 -0.3614
  900MPD2    C413239   0.477   2.854  12.173  0.1012  0.1707 -0.0174
  900MPD2    C513240   0.600   2.806  12.206 -0.2591  0.5235  0.2184
  900MPD2     H13241   0.317   2.633  12.378  1.8576 -0.1391  2.0941
  900MPD2    H113242   0.467   2.925  12.092  0.6862 -2.2095 -2.2087
  900MPD2    H213243   0.726   2.680  12.332  0.6820 -1.1098 -1.6614
  900MPD2    H313244   0.680   2.867  12.166  1.3827 -1.7930 -0.0752
  900MPD2     N13245   0.240   2.804  12.186 -0.0155  0.4481 -0.4665
  900MPD2    H513246   0.183   2.725  12.216  0.1192  0.4692 -0.1601
  900MPD2    N113247   0.545   2.545  12.455  0.2797  0.1013 -0.2998
  900MPD2    H713248   0.642   2.516  12.461  0.1291  0.1042  2.2073
  901MPD2     C13249   4.679   1.778  12.477  0.0128 -0.3987 -0.0414
  901MPD2    C113250   0.056   1.796  12.395  0.1195  0.4283 -0.6109
  901MPD2    C213251   0.153   1.885  12.436  0.3374  1.0784 -0.0151
  901MPD2    C313252   0.141   1.963  12.551  0.1109 -0.4365 -0.0576
  901MPD2    C413253   0.025   1.953  12.621  0.2672 -0.1021  1.1047
  901MPD2    C513254   4.662   1.855  12.588  0.4945  0.3993 -0.0136
  901MPD2     H13255   0.245   1.903  12.381  0.9803 -0.2084  0.6214
  901MPD2    H113256   4.732   2.018  12.704 -0.6074 -0.4611  1.1113
  901MPD2    H213257   4.612   1.695  12.461  0.4116 -0.4694 -1.3382
  901MPD2    H313258   4.565   1.845  12.635 -0.0925 -0.0900 -1.3451
  901MPD2     N13259   0.243   2.053  12.588  0.2255  0.1551  0.3256
  901MPD2    H513260   0.328   2.044  12.533  0.7667 -0.7535  1.3046
  901MPD2    N113261   0.080   1.721  12.279  1.2453 -0.2498 -0.2049
  901MPD2    H713262   0.162   1.749  12.227  0.4145 -0.4379 -1.5999
  902MPD2     C13263   4.232   0.444  12.720  0.9852  0.4420  0.4403
  902MPD2    C113264   4.267   0.575  12.688  0.5069 -0.1064  0.2830
  902MPD2    C213265   4.380   0.599  12.620  0.3467  0.5153 -0.2340
  902MPD2    C313266   4.444   0.489  12.564  0.2793 -0.4172 -0.3583
  902MPD2    C413267   4.408   0.361  12.589  0.8544 -0.1557  0.8555
  902MPD2    C513268   4.304   0.336  12.673 -0.1006 -0.1499  0.5225
  902MPD2     H13269   4.400   0.702  12.591  0.4090  0.4683 -0.3579
  902MPD2    H113270   4.452   0.273  12.544  1.4719  1.0637 -0.9414
  902MPD2    H213271   4.153   0.433  12.794  0.7248  2.7461  0.5115
  902MPD2    H313272   4.273   0.233  12.687 -1.2624  0.2518  0.8713
  902MPD2     N13273   4.561   0.502  12.479 -0.1226  0.7658 -0.8080
  902MPD2    H513274   4.581   0.430  12.410 -0.8625  0.1041 -0.3459
  902MPD2    N113275   4.177   0.681  12.735 -0.1599 -0.1153 -0.1320
  902MPD2    H713276   4.086   0.649  12.766  0.0570 -1.0987 -0.5351
  903MPD2     C13277   4.436   0.862  11.732  0.4942  0.0091  0.2381
  903MPD2    C113278   4.400   0.815  11.857 -0.3554  0.3101 -0.9552
  903MPD2    C213279   4.267   0.757  11.879 -0.0678  0.7378  0.1015
  903MPD2    C313280   4.177   0.764  11.773  0.1322 -0.3822  0.5254
  903MPD2    C413281   4.209   0.830  11.662 -0.4335  0.2341 -0.2234
  903MPD2    C513282   4.339   0.873  11.638 -0.0859 -0.3595 -0.0614
  903MPD2     H13283   4.230   0.717  11.973 -3.7708  1.0375 -1.2598
  903MPD2    H113284   4.147   0.840  11.574 -0.0189  1.4282 -0.3734
  903MPD2    H213285   4.533   0.897  11.698 -0.0553  1.0342 -0.2911
  903MPD2    H313286   4.356   0.914  11.540 -0.2287  0.1189  0.1109
  903MPD2     N13287   4.047   0.709  11.796 -0.0856  0.3379 -0.0390
  903MPD2    H513288   4.025   0.702  11.894 -0.8209 -0.8447 -0.2966
  903MPD2    N113289   4.506   0.823  11.955 -0.3033  0.3541  0.3551
  903MPD2    H713290   4.602   0.848  11.934 -0.5244  1.2520  0.4292
  904MPD2     C13291   4.217   4.009  14.146  0.0223 -0.1602 -0.3104
  904MPD2    C113292   4.201   4.093  14.035  0.4836 -0.9437  0.0345
  904MPD2    C213293   4.316   4.122  13.958 -0.5619  0.1142  0.1870
  904MPD2    C313294   4.434   4.055  13.982  0.4608  0.2702  0.2617
  904MPD2    C413295   4.452   3.973  14.088  0.0968 -0.0391 -0.5072
  904MPD2    C513296   4.343   3.961  14.167 -0.2326 -0.5102  0.0406
  904MPD2     H13297   4.313   4.181  13.867 -1.5622  0.1310  0.2297
  904MPD2    H113298   4.543   3.924  14.118 -0.0131  0.7438  1.1021
  904MPD2    H213299   4.137   3.977  14.213  0.0890  0.8601  0.2475
  904MPD2    H313300   4.349   3.901  14.257 -0.0311 -0.6526 -0.0669
  904MPD2     N13301   4.549   4.096  13.911 -0.1584 -0.1645 -0.3783
  904MPD2    H513302   4.548   4.175  13.846 -0.7962 -0.8294 -1.1718
  904MPD2    N113303   4.077   4.155  13.996  0.1229 -0.3601 -0.0911
  904MPD2    H713304   4.067   4.206  13.908 -2.2112  0.8215  0.8716
  905MPD2     C13305   3.884   4.574  13.394  0.8582  0.1719  0.1476
  905MPD2    C113306   3.942   4.477  13.481 -0.2598 -0.9052  0.6056
  905MPD2    C213307   4.048   4.398  13.437  0.3708  0.4079  0.0428
  905MPD2    C313308   4.093   4.425  13.306 -0.2778 -0.4484  0.2136
  905MPD2    C413309   4.039   4.521  13.227 -0.3523 -0.2276  0.6290
  905MPD2    C513310   3.939   4.597  13.275 -0.3512  0.3271  0.1615
  905MPD2     H13311   4.092   4.321  13.499 -0.4627 -1.1452 -1.2888
  905MPD2    H113312   4.072   4.535  13.125  0.6559 -0.3970  0.9317
  905MPD2    H213313   3.799   4.629  13.433  0.3656  0.5775 -1.4885
  905MPD2    H313314   3.901   4.675  13.210  0.1381  0.6109  0.2204
  905MPD2     N13315   4.202   4.347  13.251  0.3607  0.1231  0.2887
  905MPD2    H513316   4.241   4.375  13.162  2.7931  0.5916  1.4982
  905MPD2    N113317   3.882   4.461  13.613 -0.4125  0.2314  0.1639
  905MPD2    H713318   3.802   4.520  13.629 -0.8658 -0.9541  2.2272
  906MPD2     C13319   1.282   4.260  11.772  0.5026 -0.4878  0.1351
  906MPD2    C113320   1.289   4.185  11.654  0.3370 -0.1623 -0.3644
  906MPD2    C213321   1.247   4.055  11.655  0.5117 -0.1373 -0.3137
  906MPD2    C313322   1.186   4.002  11.771  0.2092 -0.2647  0.3848
  906MPD2    C413323   1.168   4.075  11.883  0.4193  0.1087  0.0366
  906MPD2    C513324   1.229   4.197  11.881 -0.2897 -0.1899  0.1768
  906MPD2     H13325   1.238   4.007  11.558 -1.8210  0.4563 -0.3858
  906MPD2    H113326   1.104   4.044  11.965 -0.1608  0.6445 -0.2142
  906MPD2    H213327   1.319   4.361  11.785 -0.8311 -0.1069  1.0375
  906MPD2    H313328   1.225   4.269  11.962 -1.0743  1.6883 -1.5355
  906MPD2     N13329   1.118   3.876  11.768  0.1467  0.2326 -0.5888
  906MPD2    H513330   1.057   3.852  11.846  2.3694 -0.7741  0.8271
  906MPD2    N113331   1.323   4.238  11.527 -0.1999  0.8952  0.1726
  906MPD2    H713332   1.311   4.173  11.450 -0.3973  1.7278 -0.5024
  907MPD2     C13333   0.104   3.832  16.271  0.0650  0.4634 -0.2066
  907MPD2    C113334   0.173   3.714  16.265  0.0288 -0.0391 -0.2899
  907MPD2    C213335   0.226   3.651  16.375  0.0791 -0.3143 -0.0343
  907MPD2    C313336   0.191   3.699  16.498 -0.3172  0.0983 -0.0635
  907MPD2    C413337   0.106   3.809  16.510 -0.3199  0.1469  0.1786
  907MPD2    C513338   0.075   3.877  16.396 -0.3402 -0.0934 -0.5631
  907MPD2     H13339   0.292   3.566  16.363  0.6926  0.4643 -2.1912
  907MPD2    H113340   0.079   3.853  16.605  1.0122  1.5497 -0.0964
  907MPD2    H213341   0.072   3.890  16.185 -1.8285 -0.4017 -0.0667
  907MPD2    H313342   0.019   3.970  16.398 -0.0405  0.0659  0.2445
  907MPD2     N13343   0.233   3.620  16.608  0.0440 -0.4030 -0.3996
  907MPD2    H513344   0.297   3.544  16.588 -0.4685 -1.1106  0.6426
  907MPD2    N113345   0.208   3.664  16.142 -0.0397 -0.6838  0.9880
  907MPD2    H713346   0.277   3.589  16.136 -1.7595 -2.3979  2.5605
  908MPD2     C13347   3.096   4.701   9.847  0.1510  0.3513  0.3231
  908MPD2    C113348   3.031   4.628   9.940  0.3339 -0.2449 -0.1372
  908MPD2    C213349   3.068   4.640  10.075 -0.7929 -0.5825  0.5352
  908MPD2    C313350   3.186   4.709  10.115  0.5649 -0.1520 -0.1798
  908MPD2    C413351   3.250   0.047  10.013 -0.2297  0.1522 -0.6690
  908MPD2    C513352   3.200   0.052   9.889  0.8443  0.7227 -0.1441
  908MPD2     H13353   3.005   4.593  10.150 -1.7266  0.2536  0.2718
  908MPD2    H113354   3.325   0.121  10.038  0.2862 -0.0505 -1.5889
  908MPD2    H213355   3.072   4.694   9.742  1.8776  0.9096 -0.1004
  908MPD2    H313356   3.258   0.118   9.826  1.6016  0.2876  0.0967
  908MPD2     N13357   3.214   4.721  10.250  0.0793 -0.3136 -0.0613
  908MPD2    H513358   3.151   4.668  10.308  0.7732 -0.9817  0.0787
  908MPD2    N113359   2.918   4.559   9.889  0.2691  0.1265  0.3712
  908MPD2    H713360   2.907   4.564   9.789 -0.6238  1.0643  0.5201
  909MPD2     C13361   2.912   2.160  11.519  0.1093  1.0317 -0.2042
  909MPD2    C113362   2.979   2.271  11.559  0.0946 -0.6642  0.1260
  909MPD2    C213363   2.929   2.351  11.668  0.8672 -0.5495  0.5573
  909MPD2    C313364   2.826   2.311  11.742  0.6295  0.1680 -0.7958
  909MPD2    C413365   2.761   2.200  11.701  0.0202  0.0166  0.0979
  909MPD2    C513366   2.797   2.125  11.588 -0.3518 -0.4446 -0.1202
  909MPD2     H13367   2.965   2.449  11.699  0.1798 -0.3522  0.7280
  909MPD2    H113368   2.674   2.162  11.753  0.1571 -0.7393 -0.2298
  909MPD2    H213369   2.950   2.101  11.437 -2.4840 -1.7103  0.5831
  909MPD2    H313370   2.739   2.046  11.541 -0.8172 -1.2950  1.8986
  909MPD2     N13371   2.781   2.390  11.849  0.1683  0.8255 -0.3532
  909MPD2    H513372   2.813   2.485  11.862  0.2475  0.8821 -0.9704
  909MPD2    N113373   3.089   2.316  11.485  1.0820  0.6532 -0.1838
  909MPD2    H713374   3.107   2.416  11.495  0.1605  0.9521 -1.6070
  910MPD2     C13375   4.460   4.009  16.178  0.3953 -0.9592 -0.1535
  910MPD2    C113376   4.491   3.879  16.124 -0.4650  0.6050  0.1041
  910MPD2    C213377   4.505   3.872  15.985 -1.1793  0.4092  0.4593
  910MPD2    C313378   4.470   3.977  15.904 -0.2955  0.5138 -0.1181
  910MPD2    C413379   4.431   4.091  15.958  0.3626  0.9035  1.2923
  910MPD2    C513380   4.419   4.112  16.097  0.5331  0.8095  0.1669
  910MPD2     H13381   4.521   3.771  15.949 -0.1248  0.4801  0.7194
  910MPD2    H113382   4.398   4.165  15.887  5.7197  1.7742 -0.3049
  910MPD2    H213383   4.432   4.030  16.280  0.2931  0.6057 -0.5104
  910MPD2    H313384   4.392   4.208  16.139 -0.6549  0.5803 -0.0856
  910MPD2     N13385   4.452   3.961  15.766 -0.4903 -0.2018 -0.0534
  910MPD2    H513386   4.411   4.037  15.713  3.0383  1.8738  0.1981
  910MPD2    N113387   4.524   3.768  16.204  0.1465 -0.5262 -0.3875
  910MPD2    H713388   4.581   3.699  16.156  0.0232  0.4962 -1.9761
  911MPD2     C13389   2.678   4.369  15.959  0.9123  0.1421  0.0493
  911MPD2    C113390   2.643   4.422  16.082 -0.4405 -0.0001 -0.5883
  911MPD2    C213391   2.514   4.462  16.095 -0.2411 -0.4918  0.4880
  911MPD2    C313392   2.435   4.470  15.979 -0.4713  0.3804  0.0194
  911MPD2    C413393   2.477   4.437  15.851 -0.6171 -0.8673  0.0232
  911MPD2    C513394   2.602   4.371  15.845  0.1419 -1.1258  0.1881
  911MPD2     H13395   2.473   4.504  16.186  0.3314 -1.1904  1.0620
  911MPD2    H113396   2.422   4.443  15.757 -1.7242  1.0840  0.8030
  911MPD2    H213397   2.781   4.341  15.944  1.2150  1.2615  0.0459
  911MPD2    H313398   2.652   4.334  15.756 -2.1963 -0.1641 -1.5259
  911MPD2     N13399   2.306   4.523  15.996 -0.3376  0.0574  0.0129
  911MPD2    H513400   2.251   4.512  15.911 -2.8380 -0.6440  1.7458
  911MPD2    N113401   2.739   4.432  16.182  0.0934  0.4204 -0.0702
  911MPD2    H713402   2.818   4.370  16.164 -1.4125 -1.2119 -1.1187
  912MPD2     C13403   1.928   4.304  15.602 -0.5789 -0.6630 -0.1762
  912MPD2    C113404   1.912   4.295  15.736  0.1595  0.6026 -0.3775
  912MPD2    C213405   1.914   4.176  15.802 -0.3304  0.1026 -0.1223
  912MPD2    C313406   1.946   4.058  15.727 -0.0426 -0.0893 -0.0527
  912MPD2    C413407   1.969   4.068  15.590  0.0035 -0.1067  0.3260
  912MPD2    C513408   1.956   4.193  15.533 -0.0551  0.5499 -0.3372
  912MPD2     H13409   1.890   4.168  15.908 -0.4977 -1.3003 -0.2642
  912MPD2    H113410   1.979   3.975  15.536 -0.0706 -1.2436  2.2434
  912MPD2    H213411   1.905   4.397  15.552 -1.3579  0.8529  3.0486
  912MPD2    H313412   1.955   4.187  15.425 -0.4945  0.4791 -0.3271
  912MPD2     N13413   1.955   3.946  15.809  0.2730  0.6347 -0.4899
  912MPD2    H513414   1.943   3.955  15.909 -1.7877 -0.6470 -0.6021
  912MPD2    N113415   1.894   4.419  15.791 -0.0025 -0.5839 -0.4086
  912MPD2    H713416   1.895   4.501  15.731  0.3107 -0.4742 -0.2524
  913MPD2     C13417   2.970   1.894   9.787  0.4997  0.8367  0.3671
  913MPD2    C113418   2.984   2.005   9.869 -0.2595  0.1548  0.2138
  913MPD2    C213419   2.958   2.127   9.830  0.0576  0.8122 -0.3790
  913MPD2    C313420   2.901   2.150   9.698  0.1515 -0.1989  0.0169
  913MPD2    C413421   2.889   2.041   9.616 -0.4649 -0.4313  0.6621
  913MPD2    C513422   2.925   1.916   9.660  0.1919  0.5317  0.9226
  913MPD2     H13423   2.976   2.206   9.902 -1.7822 -0.1099  1.0973
  913MPD2    H113424   2.839   2.052   9.521 -4.3726  1.0511  2.8851
  913MPD2    H213425   3.002   1.800   9.829 -0.1929 -0.2794 -1.5751
  913MPD2    H313426   2.915   1.833   9.591 -1.2074  1.0154  0.5389
  913MPD2     N13427   2.857   2.269   9.654 -0.0107  0.6256  0.2661
  913MPD2    H513428   2.806   2.263   9.567 -1.8716 -2.0439  1.5103
  913MPD2    N113429   3.022   1.968   9.998  0.1825  0.9924 -0.2172
  913MPD2    H713430   3.048   1.871  10.007  0.5164  1.0545 -0.5237
  914MPD2     C13431   0.422   2.104  11.610 -0.1301  0.1625 -0.0292
  914MPD2    C113432   0.444   2.098  11.745  0.1223  0.1275  0.6160
  914MPD2    C213433   0.379   2.001  11.820 -0.0284  0.5094 -0.4544
  914MPD2    C313434   0.286   1.912  11.766 -0.0915 -0.2550 -0.0253
  914MPD2    C413435   0.264   1.932  11.633  0.1388 -0.1856  0.3953
  914MPD2    C513436   0.331   2.022  11.563  0.1527  0.2471  0.0179
  914MPD2     H13437   0.391   2.002  11.927  1.8034 -1.8902 -0.6300
  914MPD2    H113438   0.177   1.887  11.587 -1.2970  1.9919  0.9526
  914MPD2    H213439   0.464   2.181  11.546 -1.1489  0.6458 -0.1085
  914MPD2    H313440   0.297   2.042  11.462 -3.2805 -2.8505  0.5810
  914MPD2     N13441   0.221   1.810  11.840 -0.1309 -0.9351  0.0687
  914MPD2    H513442   0.242   1.813  11.940  1.8696 -1.5356 -0.3371
  914MPD2    N113443   0.517   2.200  11.808 -0.4809  0.6960  0.2048
  914MPD2    H713444   0.508   2.215  11.908 -2.0542 -0.7783  0.2730
  915MPD2     C13445   3.771   1.514  15.891  0.0279  0.1140  0.1944
  915MPD2    C113446   3.663   1.430  15.901 -0.1289 -0.3188 -0.1772
  915MPD2    C213447   3.596   1.422  16.021 -0.2704  0.0860  0.4189
  915MPD2    C313448   3.627   1.502  16.124  0.0687  0.2072  0.0111
  915MPD2    C413449   3.735   1.581  16.115 -0.1662 -0.3536  0.1417
  915MPD2    C513450   3.803   1.587  15.999  0.0949  0.5118 -0.0837
  915MPD2     H13451   3.513   1.357  16.043  1.4909 -1.9851  0.8751
  915MPD2    H113452   3.774   1.636  16.200 -0.4970 -1.1487  0.8036
  915MPD2    H213453   3.837   1.520  15.806 -0.2924  1.1316  0.0270
  915MPD2    H313454   3.895   1.644  15.996  0.9893 -0.9783 -0.8624
  915MPD2     N13455   3.550   1.492  16.241 -0.3810 -0.1736  0.0274
  915MPD2    H513456   3.471   1.429  16.227 -0.6888  0.3929 -0.8105
  915MPD2    N113457   3.631   1.345  15.790  0.3800  0.1717  0.0588
  915MPD2    H713458   3.691   1.351  15.708  0.0592 -1.4394 -0.2803
  916MPD2     C13459   1.614   4.168  15.549 -0.4397  0.4108  0.2051
  916MPD2    C113460   1.628   4.049  15.618  0.0308 -1.0467  0.1990
  916MPD2    C213461   1.676   3.938  15.554 -0.8379  0.7033  0.3394
  916MPD2    C313462   1.696   3.939  15.414 -0.6540 -0.0288 -0.7530
  916MPD2    C413463   1.676   4.051  15.340 -0.3137  0.1665 -0.0126
  916MPD2    C513464   1.634   4.167  15.413 -0.3970 -0.3061  0.8621
  916MPD2     H13465   1.683   3.840  15.602  1.8909 -0.1113 -1.7257
  916MPD2    H113466   1.679   4.045  15.232  0.0496 -0.7646  0.0479
  916MPD2    H213467   1.598   4.262  15.600 -2.7185  0.2959 -0.2962
  916MPD2    H313468   1.614   4.262  15.365  2.5491  0.3051  0.8305
  916MPD2     N13469   1.747   3.819  15.365 -0.2174  0.0636 -0.2868
  916MPD2    H513470   1.746   3.740  15.429 -0.9142  0.1228 -0.2148
  916MPD2    N113471   1.585   4.059  15.753 -0.0660 -0.1472 -0.2354
  916MPD2    H713472   1.541   4.146  15.781  3.6912  1.9026 -0.6700
  917MPD2     C13473   1.335   1.794  10.931  0.3512  0.6107 -0.6991
  917MPD2    C113474   1.322   1.833  11.062 -0.2607  0.2898 -0.2072
  917MPD2    C213475   1.415   1.925  11.107  0.7842 -0.1531  0.0948
  917MPD2    C313476   1.521   1.973  11.028 -0.1056 -0.2298 -0.1946
  917MPD2    C413477   1.533   1.924  10.897  0.7768 -0.1070  0.3469
  917MPD2    C513478   1.444   1.831  10.850 -0.2073 -0.5498 -0.0923
  917MPD2     H13479   1.408   1.970  11.206 -0.7308  1.7036 -0.8567
  917MPD2    H113480   1.616   1.963  10.840  0.2424  0.2638 -0.1822
  917MPD2    H213481   1.262   1.729  10.883 -1.0258  1.2586  0.5257
  917MPD2    H313482   1.441   1.810  10.744  1.2321  0.8753 -0.4108
  917MPD2     N13483   1.621   2.060  11.078  0.7680  0.1326 -0.4097
  917MPD2    H513484   1.701   2.083  11.021 -0.1887  1.7593 -1.0890
  917MPD2    N113485   1.215   1.780  11.138  0.3142  0.5414  0.1075
  917MPD2    H713486   1.170   1.706  11.087 -1.7422  1.4972  0.5404
  918MPD2     C13487   0.907   2.079  11.997  0.8504 -0.8909 -0.1367
  918MPD2    C113488   1.020   2.095  11.914  0.1676 -0.0902 -0.1545
  918MPD2    C213489   1.016   2.037  11.784 -0.2587 -0.4796 -0.4740
  918MPD2    C313490   0.908   1.969  11.740  0.3434  0.5042  0.5846
  918MPD2    C413491   0.799   1.955  11.825  0.1850 -0.2318  0.1047
  918MPD2    C513492   0.800   2.011  11.950  0.3444 -0.7633 -0.3068
  918MPD2     H13493   1.108   2.045  11.728  1.4447  2.0455  2.6899
  918MPD2    H113494   0.718   1.890  11.795  2.6120 -2.5347 -1.4356
  918MPD2    H213495   0.903   2.131  12.092 -0.6684 -2.5996  0.7566
  918MPD2    H313496   0.713   2.010  12.014  0.8279  0.1418  0.3687
  918MPD2     N13497   0.912   1.906  11.610  0.1157  0.4799  0.9197
  918MPD2    H513498   0.995   1.918  11.553 -0.6448  1.3641  0.0014
  918MPD2    N113499   1.140   2.165  11.960  0.3212 -0.3964 -0.0912
  918MPD2    H713500   1.213   2.181  11.891  2.4002  0.8848  2.3842
  919MPD2     C13501   2.760   1.514  11.704 -1.0378 -0.1883 -1.2422
  919MPD2    C113502   2.768   1.387  11.651 -0.4351  1.0879  0.8022
  919MPD2    C213503   2.823   1.372  11.526  0.0928  0.0655 -0.5234
  919MPD2    C313504   2.867   1.474  11.450  0.1835 -0.0682  0.0964
  919MPD2    C413505   2.869   1.600  11.502 -0.0763 -0.4098  0.1849
  919MPD2    C513506   2.829   1.611  11.636 -0.3308 -0.2058  0.7886
  919MPD2     H13507   2.828   1.268  11.495  3.9828  0.6664 -1.8888
  919MPD2    H113508   2.913   1.682  11.448 -0.6813  0.8370  1.5802
  919MPD2    H213509   2.710   1.535  11.798  0.5299 -1.2073 -0.1955
  919MPD2    H313510   2.824   1.706  11.687 -0.4104  0.3147 -0.2010
  919MPD2     N13511   2.897   1.449  11.314  0.1110  0.2648 -0.2731
  919MPD2    H513512   2.904   1.533  11.256 -0.9738  0.3023 -0.3554
  919MPD2    N113513   2.722   1.272  11.721  0.2566  0.8511 -0.0318
  919MPD2    H713514   2.716   1.191  11.661 -1.1793  0.0878  1.1475
  920MPD2     C13515   2.340   1.612  10.535 -0.3078  0.1122  0.0512
  920MPD2    C113516   2.331   1.485  10.587  0.0054  0.1026  0.0458
  920MPD2    C213517   2.437   1.433  10.658 -0.2722 -0.0991 -0.4574
  920MPD2    C313518   2.551   1.512  10.685 -0.4369 -0.2171 -0.3559
  920MPD2    C413519   2.553   1.639  10.643  0.0485  0.1905 -1.3565
  920MPD2    C513520   2.450   1.691  10.575 -0.0031  0.3969  0.1502
  920MPD2     H13521   2.436   1.329  10.686 -0.7276  0.1721  0.5418
  920MPD2    H113522   2.637   1.697  10.679 -0.1977 -1.9240  2.6322
  920MPD2    H213523   2.270   1.667  10.474 -0.0041  0.2471 -0.1764
  920MPD2    H313524   2.454   1.797  10.550  0.2595  0.9071  2.3825
  920MPD2     N13525   2.647   1.443  10.761 -0.3111 -0.0759  0.5418
  920MPD2    H513526   2.646   1.342  10.766 -0.4973  0.0238  2.6969
  920MPD2    N113527   2.215   1.404  10.576 -0.1390 -0.6168 -0.3020
  920MPD2    H713528   2.220   1.314  10.623 -0.4629 -1.2458 -1.4633
  921MPD2     C13529   3.366   0.209  16.562  0.1066 -0.5454  0.0405
  921MPD2    C113530   3.408   0.082  16.556  0.2939 -0.0176 -0.0609
  921MPD2    C213531   3.309   4.723  16.575 -0.1388 -0.5969  0.1311
  921MPD2    C313532   3.176   0.031  16.606 -0.0858  0.4506 -0.3135
  921MPD2    C413533   3.144   0.162  16.625  0.1870  0.0389 -0.7047
  921MPD2    C513534   3.245   0.252  16.602 -0.1662 -0.1155 -0.2911
  921MPD2     H13535   3.323   4.617  16.561  0.3012 -0.7219  1.5810
  921MPD2    H113536   3.046   0.202  16.650  0.6025 -0.7488  2.2108
  921MPD2    H213537   3.449   0.276  16.544 -0.2911  0.0253  0.3523
  921MPD2    H313538   3.213   0.355  16.590 -0.7802 -0.0599  1.8370
  921MPD2     N13539   3.063   4.676  16.604 -0.1239  0.2631 -0.3350
  921MPD2    H513540   2.971   4.717  16.592 -0.1253 -0.1808 -1.7801
  921MPD2    N113541   3.531   0.047  16.495  0.2642  0.6552  0.0155
  921MPD2    H713542   3.589   0.127  16.472  1.0642  0.1906  0.3986
  922MPD2     C13543   4.012   3.024   0.100  0.6296 -0.7205 -0.4123
  922MPD2    C113544   3.883   3.046   0.121 -0.8838  0.6355 -0.5103
  922MPD2    C213545   3.798   2.934   0.144 -0.8132  0.4765  0.4512
  922MPD2    C313546   3.848   2.807   0.134 -0.4394  0.1243  0.3088
  922MPD2    C413547   3.986   2.798   0.114  0.6316  0.4058  0.7324
  922MPD2    C513548   4.066   2.905   0.104  0.0125  0.8033  0.7070
  922MPD2     H13549   3.691   2.947   0.153 -1.1795 -1.0582 -1.7726
  922MPD2    H113550   4.034   2.702   0.108 -0.9727 -0.3912  0.7239
  922MPD2    H213551   4.084   3.105   0.107 -1.0294  0.6754  0.4639
  922MPD2    H313552   4.173   2.887   0.103 -0.2846 -0.9526  1.2445
  922MPD2     N13553   3.760   2.698   0.150 -0.6353 -0.0942 -0.2065
  922MPD2    H513554   3.661   2.720   0.152 -0.9592 -1.4875 -1.2680
  922MPD2    N113555   3.821   3.173   0.129  0.1782  0.4473 -0.5105
  922MPD2    H713556   3.733   3.181   0.178 -0.4708 -0.2883 -1.5435
  923MPD2     C13557   0.905   4.446   9.381 -0.4668  0.0694  0.5230
  923MPD2    C113558   0.864   4.554   9.455 -0.1841 -0.2276 -0.6469
  923MPD2    C213559   0.961   4.639   9.507  0.3355 -0.2827 -0.2893
  923MPD2    C313560   1.095   4.612   9.502 -0.5022 -0.4114  0.9691
  923MPD2    C413561   1.133   4.496   9.441  0.0099  0.1203  0.6716
  923MPD2    C513562   1.041   4.416   9.376  0.4494 -1.3981  0.3492
  923MPD2     H13563   0.934   4.720   9.574  1.5806  0.1887 -0.3584
  923MPD2    H113564   1.236   4.462   9.436  0.9433  2.7180  2.1664
  923MPD2    H213565   0.844   4.384   9.316 -1.0586 -1.1839  2.2733
  923MPD2    H313566   1.071   4.323   9.331 -0.1050 -2.6574  2.5511
  923MPD2     N13567   1.199   4.684   9.566  0.8400 -0.2315  0.6271
  923MPD2    H513568   1.296   4.655   9.556  0.6083 -1.0223  0.6704
  923MPD2    N113569   0.731   4.589   9.455  0.0442 -0.0539  0.1005
  923MPD2    H713570   0.666   4.520   9.417  0.4879 -0.3890 -0.0455
  924MPD2     C13571   1.004   3.165  17.019 -0.1584 -0.8911 -0.4091
  924MPD2    C113572   0.906   3.151  16.923  0.0555  0.2981  0.0369
  924MPD2    C213573   0.805   3.247  16.919 -0.5243  1.2686 -0.7057
  924MPD2    C313574   0.803   3.353  17.006  0.2781 -0.3847 -0.7213
  924MPD2    C413575   0.901   3.357  17.098 -0.6616 -0.3691 -0.3011
  924MPD2    C513576   1.004   3.273  17.097  0.1666  0.0694 -0.5917
  924MPD2     H13577   0.728   3.225  16.846 -1.0683 -0.3732  0.3639
  924MPD2    H113578   0.896   3.442  17.164 -0.4281 -0.0294 -0.7222
  924MPD2    H213579   1.070   3.081  17.038  0.4761 -0.4305 -0.5695
  924MPD2    H313580   1.080   3.282  17.175 -0.7690  0.7046  0.2507
  924MPD2     N13581   0.701   3.450  17.004  0.2952  0.3179  0.1929
  924MPD2    H513582   0.704   3.512  17.084 -1.0493  1.5454 -0.6911
  924MPD2    N113583   0.889   3.020  16.868 -0.8960 -0.5860 -0.0774
  924MPD2    H713584   0.917   2.939  16.922 -1.1305 -0.4058  0.3207
  925MPD2     C13585   4.443   0.250  14.582 -0.5768  0.3726 -0.1507
  925MPD2    C113586   4.315   0.281  14.538 -0.4456  0.3460 -0.2549
  925MPD2    C213587   4.209   0.224  14.606  0.0719 -0.3043  0.3045
  925MPD2    C313588   4.229   0.135  14.712  0.4149 -0.2473  0.2042
  925MPD2    C413589   4.354   0.091  14.749  0.2509  0.6071  0.5147
  925MPD2    C513590   4.463   0.154  14.682 -0.3189  0.0076 -0.1408
  925MPD2     H13591   4.108   0.253  14.577  0.5417  2.3364  1.2501
  925MPD2    H113592   4.363   0.020  14.830 -1.8944 -1.1562 -0.7676
  925MPD2    H213593   4.532   0.284  14.530  1.7090 -0.4674  3.2086
  925MPD2    H313594   4.563   0.125  14.711  0.6778  3.1678 -0.4616
  925MPD2     N13595   4.122   0.059  14.776 -0.3426  0.2853 -0.0381
  925MPD2    H513596   4.147   4.728  14.851 -1.2755  0.1445  0.1568
  925MPD2    N113597   4.275   0.378  14.439 -0.2015 -0.0606  0.2450
  925MPD2    H713598   4.177   0.360  14.422 -0.2964  0.9756 -0.2863
  926MPD2     C13599   2.978   3.715  13.429  0.0752  0.0259  0.9509
  926MPD2    C113600   2.873   3.790  13.399 -0.0876  0.1450 -0.2019
  926MPD2    C213601   2.880   3.862  13.279 -0.3228 -0.7146  0.2936
  926MPD2    C313602   2.990   3.849  13.200 -0.0138  0.2040 -0.8056
  926MPD2    C413603   3.085   3.754  13.221 -0.8924  0.0798 -0.3491
  926MPD2    C513604   3.082   3.694  13.342  0.0049  0.4133 -0.2754
  926MPD2     H13605   2.799   3.931  13.262  0.5929  0.1974 -0.3078
  926MPD2    H113606   3.151   3.707  13.149 -0.4524  1.7243 -1.0135
  926MPD2    H213607   2.985   3.663  13.524 -2.3154 -3.0943 -0.5741
  926MPD2    H313608   3.160   3.620  13.358 -1.6459 -0.7674  2.2200
  926MPD2     N13609   2.999   3.908  13.080 -0.1049  0.3021 -0.0790
  926MPD2    H513610   3.091   3.897  13.038 -0.5885 -0.4224 -0.9525
  926MPD2    N113611   2.757   3.798  13.480 -0.4128 -0.7148 -0.3881
  926MPD2    H713612   2.680   3.854  13.444  0.3586  0.4919 -0.1509
  927MPD2     C13613   2.918   0.363   0.050 -0.8697  0.1069 -0.1316
  927MPD2    C113614   2.873   0.490   0.016  0.3127  0.3308  0.3113
  927MPD2    C213615   2.950   0.553  17.657  0.8068 -0.2884 -0.0878
  927MPD2    C313616   3.054   0.494  17.589 -0.3965 -0.0466 -1.1818
  927MPD2    C413617   3.095   0.365  17.622  0.0207  0.3450 -0.9120
  927MPD2    C513618   3.020   0.299  17.708 -0.2224  0.1933  0.0542
  927MPD2     H13619   2.934   0.659  17.637  0.4536 -0.4036 -0.4325
  927MPD2    H113620   3.180   0.311  17.581  0.8046  1.4559 -0.7534
  927MPD2    H213621   2.871   0.302   0.126  1.5386 -1.1794  0.3252
  927MPD2    H313622   3.056   0.200   0.005  0.7857  0.1714 -1.3547
  927MPD2     N13623   3.106   0.574  17.488 -0.0695  0.2595  0.2840
  927MPD2    H513624   3.086   0.673  17.477  1.9711  0.4491 -1.7060
  927MPD2    N113625   2.755   0.536   0.078 -0.2956  0.4039 -0.3417
  927MPD2    H713626   2.699   0.475   0.137 -0.4428  1.4193  0.5787
  928MPD2     C13627   0.178   4.365   0.160 -0.1475  0.5545 -0.5822
  928MPD2    C113628   0.253   4.454   0.240 -0.4636  0.5608 -0.1657
  928MPD2    C213629   0.392   4.440   0.241 -0.1607 -0.1065  1.3650
  928MPD2    C313630   0.454   4.349   0.154 -0.7473 -0.0197 -0.6442
  928MPD2    C413631   0.384   4.278   0.067 -0.0988  0.4998 -0.4669
  928MPD2    C513632   0.248   4.279   0.073  0.1465  0.4708  0.2789
  928MPD2     H13633   0.446   4.506   0.308 -1.6093 -0.6355  3.0686
  928MPD2    H113634   0.422   4.223  17.711  2.6061  1.1473  0.3376
  928MPD2    H213635   0.070   4.370   0.169 -0.0340 -0.1321  1.2034
  928MPD2    H313636   0.190   4.219   0.004  0.1729 -0.2548  0.8873
  928MPD2     N13637   0.594   4.332   0.146  0.3651 -0.5966 -0.3882
  928MPD2    H513638   0.632   4.270   0.075 -1.0681 -0.1752 -1.5337
  928MPD2    N113639   0.186   4.553   0.320 -0.2693 -0.2184 -0.1907
  928MPD2    H713640   0.086   4.542   0.315 -0.2200  0.1011 -1.9618
  929MPD2     C13641   0.769   4.108  10.666 -0.5811  0.2126  0.5726
  929MPD2    C113642   0.643   4.142  10.703 -0.7362  0.1520  0.3968
  929MPD2    C213643   0.546   4.176  10.612  0.4666  1.3334 -0.1292
  929MPD2    C313644   0.568   4.186  10.477 -0.0853  0.4992 -0.0050
  929MPD2    C413645   0.692   4.139  10.442 -0.7622 -0.0040  0.7064
  929MPD2    C513646   0.790   4.103  10.536 -0.0038  0.2309  0.6199
  929MPD2     H13647   0.466   4.241  10.645  0.2877  1.6742 -1.2303
  929MPD2    H113648   0.723   4.128  10.339  0.0541 -1.1356  1.0752
  929MPD2    H213649   0.837   4.072  10.743  0.3708 -0.1614 -0.4483
  929MPD2    H313650   0.888   4.070  10.503 -1.3382 -1.7708 -1.3152
  929MPD2     N13651   0.473   4.232  10.386 -1.0991 -0.2003  0.4160
  929MPD2    H513652   0.383   4.256  10.425 -0.0767  1.6752  1.6030
  929MPD2    N113653   0.623   4.130  10.847 -0.9141  0.1491  0.4860
  929MPD2    H713654   0.700   4.095  10.904 -1.9980 -0.1205  1.7710
  930MPD2     C13655   3.114   1.735  14.558 -1.0120  0.6033 -0.5623
  930MPD2    C113656   3.060   1.855  14.509 -0.0688 -0.3421  0.0947
  930MPD2    C213657   2.983   1.839  14.399 -0.2107 -0.5888  0.1960
  930MPD2    C313658   2.962   1.718  14.335  0.3893  0.4378  0.2608
  930MPD2    C413659   3.011   1.604  14.385 -0.7578 -0.1847 -0.8521
  930MPD2    C513660   3.091   1.612  14.502 -0.1955 -0.3477 -0.0314
  930MPD2     H13661   2.958   1.934  14.352  1.7092 -1.0325 -1.7079
  930MPD2    H113662   3.001   1.507  14.338 -0.1591 -0.6710  0.0312
  930MPD2    H213663   3.188   1.729  14.637 -2.8759 -0.1439  1.1475
  930MPD2    H313664   3.141   1.527  14.546  1.9534  0.4465 -0.9469
  930MPD2     N13665   2.892   1.711  14.213  0.4357 -0.0651  0.5843
  930MPD2    H513666   2.919   1.638  14.148 -0.6994 -0.1904  0.2602
  930MPD2    N113667   3.097   1.977  14.573  0.0394  0.0933 -0.1518
  930MPD2    H713668   3.176   1.985  14.637 -0.2099  1.1769  0.0094
  931MPD2     C13669   1.954   0.454   0.369  0.0249  0.4049  0.6673
  931MPD2    C113670   2.089   0.432   0.381 -0.1123  0.4310 -0.0687
  931MPD2    C213671   2.126   0.329   0.465 -0.4072 -0.5750 -0.3210
  931MPD2    C313672   2.039   0.235   0.523 -0.3986 -0.0856 -0.2656
  931MPD2    C413673   1.905   0.261   0.511 -0.0117  0.2099  0.6082
  931MPD2    C513674   1.865   0.372   0.434 -0.2166  0.2058 -0.1239
  931MPD2     H13675   2.233   0.312   0.474 -0.0283  2.3102  0.5447
  931MPD2    H113676   1.828   0.195   0.551  0.7896 -1.0094  0.1219
  931MPD2    H213677   1.910   0.535   0.311 -2.1836 -0.5306  1.0354
  931MPD2    H313678   1.761   0.402   0.431 -0.6125 -0.8137  2.8362
  931MPD2     N13679   2.076   0.126   0.607  0.1786  0.0865 -0.3130
  931MPD2    H513680   2.003   0.069   0.649 -1.7882  2.0173 -1.0559
  931MPD2    N113681   2.177   0.521   0.318 -0.2390 -0.0034  0.3282
  931MPD2    H713682   2.136   0.610   0.292  1.1455  0.4084 -0.4071
  932MPD2     C13683   4.361   1.044  11.158  0.2401  0.1686 -0.0222
  932MPD2    C113684   4.447   1.026  11.049  0.3064 -0.1699 -0.1387
  932MPD2    C213685   4.545   0.925  11.051  0.5810  0.4210 -0.6259
  932MPD2    C313686   4.526   0.830  11.149  0.6216 -0.2393 -0.7313
  932MPD2    C413687   4.430   0.841  11.246 -0.3234 -1.0924  0.4489
  932MPD2    C513688   4.361   0.960  11.263 -0.4988 -0.4193 -0.3509
  932MPD2     H13689   4.618   0.912  10.971  0.8035  1.6140 -0.6102
  932MPD2    H113690   4.427   0.768  11.327  0.9756 -0.9386  0.6360
  932MPD2    H213691   4.295   1.130  11.164  0.1345  0.0479  0.5851
  932MPD2    H313692   4.284   0.958  11.339  0.2237  0.7863  0.4020
  932MPD2     N13693   4.611   0.717  11.169  0.4948 -0.1185 -0.1202
  932MPD2    H513694   4.584   0.658  11.247 -1.9775  1.0625 -0.0672
  932MPD2    N113695   4.455   1.124  10.947  0.3372 -0.0502 -0.3156
  932MPD2    H713696   4.523   1.102  10.874  0.8427 -2.6016  0.9379
  933MPD2     C13697   4.319   0.388   0.359  0.1337 -0.0437  0.0808
  933MPD2    C113698   4.379   0.270   0.326 -0.9456  0.2104  0.3315
  933MPD2    C213699   4.352   0.214   0.204 -0.5277 -0.5720  0.5784
  933MPD2    C313700   4.266   0.271   0.107  0.2845 -0.7776  0.6069
  933MPD2    C413701   4.219   0.397   0.140  0.3895  0.4366  0.4474
  933MPD2    C513702   4.240   0.446   0.266  0.1006  0.0523 -0.0400
  933MPD2     H13703   4.383   0.114   0.175  1.2665  0.9372 -2.6634
  933MPD2    H113704   4.151   0.454   0.078  1.3160 -0.4566 -1.4244
  933MPD2    H213705   4.341   0.438   0.452 -1.3333  1.8802 -0.6082
  933MPD2    H313706   4.198   0.545   0.279 -0.4866 -0.1485 -0.4143
  933MPD2     N13707   4.265   0.211  17.707 -0.5207 -0.0478 -0.4605
  933MPD2    H513708   4.300   0.116  17.694  0.9620  0.3824  0.3942
  933MPD2    N113709   4.476   0.216   0.413  0.5412 -0.6466  0.0585
  933MPD2    H713710   4.500   0.272   0.495  0.1416 -0.9091  0.3576
  934MPD2     C13711   2.052   2.378   1.449  0.3776 -0.5415 -0.0076
  934MPD2    C113712   2.092   2.267   1.374  0.5990 -0.1834  0.4283
  934MPD2    C213713   1.999   2.164   1.365  0.2776  0.1496  1.0259
  934MPD2    C313714   1.866   2.171   1.411 -0.4214  0.0233 -0.4629
  934MPD2    C413715   1.834   2.283   1.484 -0.3206 -0.0984  0.2468
  934MPD2    C513716   1.925   2.384   1.499 -0.1224 -0.3749 -0.2189
  934MPD2     H13717   2.029   2.074   1.313 -1.3942 -0.6568  1.4606
  934MPD2    H113718   1.732   2.296   1.520 -0.3056 -1.1199  0.6633
  934MPD2    H213719   2.110   2.467   1.468 -1.2409  0.4580  0.2984
  934MPD2    H313720   1.904   2.478   1.550 -1.2422 -1.6834  1.7398
  934MPD2     N13721   1.765   2.080   1.385  0.4278  0.4008  0.3834
  934MPD2    H513722   1.675   2.097   1.430  0.6917  0.2692  0.9591
  934MPD2    N113723   2.221   2.248   1.327  0.9108  0.2886  0.5096
  934MPD2    H713724   2.232   2.158   1.281  0.2893  0.9675 -0.9702
  935MPD2     C13725   1.624   1.151   0.987  0.1180 -0.1545  0.1577
  935MPD2    C113726   1.506   1.213   0.960  0.1574 -0.0127  0.3203
  935MPD2    C213727   1.490   1.342   1.005 -0.8194  0.4253  0.3645
  935MPD2    C313728   1.588   1.403   1.079 -0.8192 -0.3973  0.5563
  935MPD2    C413729   1.708   1.336   1.109 -0.0664 -0.2939  0.3087
  935MPD2    C513730   1.718   1.211   1.065 -0.1896 -0.2541  0.0796
  935MPD2     H13731   1.397   1.395   0.985 -1.6955 -1.3645 -0.2409
  935MPD2    H113732   1.787   1.382   1.168  1.7982 -0.0056 -2.4536
  935MPD2    H213733   1.647   1.050   0.954 -3.5212 -1.5322  1.8385
  935MPD2    H313734   1.809   1.156   1.085 -0.1524 -0.6050 -1.0045
  935MPD2     N13735   1.586   1.550   1.106  0.1791  0.3705  0.6553
  935MPD2    H513736   1.670   1.587   1.149 -0.0394  0.9459  0.5907
  935MPD2    N113737   1.402   1.145   0.892  0.1386  0.8014 -0.1006
  935MPD2    H713738   1.316   1.199   0.889 -0.0052  0.5552 -0.5413
  936MPD2     C13739   4.292   3.880  12.173  0.3247 -0.9402 -0.7335
  936MPD2    C113740   4.351   3.851  12.296 -0.7443 -0.1223  0.5755
  936MPD2    C213741   4.405   3.951  12.374  0.1772 -0.3139  0.7473
  936MPD2    C313742   4.380   4.081  12.340 -0.1358  0.2253  0.5281
  936MPD2    C413743   4.314   4.111  12.224 -0.1884  0.6216  0.1455
  936MPD2    C513744   4.284   4.012  12.128 -0.0652  0.0067  0.3524
  936MPD2     H13745   4.440   3.930  12.475  3.0155 -2.1098 -0.6262
  936MPD2    H113746   4.289   4.215  12.203  0.3841  0.8737  0.7177
  936MPD2    H213747   4.261   3.798  12.110  2.1730 -0.9070 -1.7007
  936MPD2    H313748   4.224   4.027  12.038 -0.9623 -0.5739  0.8481
  936MPD2     N13749   4.420   4.174  12.438  0.0743 -0.5610  0.7189
  936MPD2    H513750   4.466   4.118  12.509 -0.3175  0.3041  1.6598
  936MPD2    N113751   4.369   3.718  12.337  0.4794 -0.5436 -0.4849
  936MPD2    H713752   4.414   3.706  12.427  3.6242 -2.8254 -2.3990
  937MPD2     C13753   2.759   0.603  11.617 -0.8564 -0.2922 -0.6811
  937MPD2    C113754   2.816   0.706  11.673  0.4040  0.0914 -0.1298
  937MPD2    C213755   2.939   0.745  11.628  1.4309  0.1474  0.7238
  937MPD2    C313756   3.004   0.672  11.533 -0.2257 -0.2255 -0.8417
  937MPD2    C413757   2.947   0.552  11.482 -0.0833  0.1407 -0.2676
  937MPD2    C513758   2.822   0.520  11.521 -0.9159 -0.2540 -0.2882
  937MPD2     H13759   2.975   0.836  11.674  2.4728  0.8437 -1.4395
  937MPD2    H113760   2.996   0.484  11.414  0.5427 -0.6897  1.0128
  937MPD2    H213761   2.660   0.568  11.643 -0.3216 -0.5109  1.0649
  937MPD2    H313762   2.776   0.429  11.483 -0.8646  0.3227 -1.7362
  937MPD2     N13763   3.132   0.703  11.503 -0.3178 -0.2194  0.7277
  937MPD2    H513764   3.185   0.771  11.557 -0.4932 -0.9880  1.8767
  937MPD2    N113765   2.757   0.801  11.757  0.4779 -0.2963  0.3036
  937MPD2    H713766   2.814   0.884  11.772  0.6831 -0.1149 -1.5422
  938MPD2     C13767   0.072   1.733   0.837  0.2136 -0.0216 -0.1950
  938MPD2    C113768   0.156   1.651   0.766  0.1357  0.3231  0.9728
  938MPD2    C213769   0.147   1.512   0.768  0.4534  0.2024  0.3960
  938MPD2    C313770   0.047   1.450   0.852  0.3699  0.2536 -0.6638
  938MPD2    C413771   4.701   1.536   0.922 -0.8845  0.5642 -0.5068
  938MPD2    C513772   4.714   1.671   0.917  0.6373  0.3098  0.6133
  938MPD2     H13773   0.223   1.450   0.724 -0.4391 -0.5965 -0.0167
  938MPD2    H113774   4.617   1.508   0.984 -0.4495 -0.6564 -0.4554
  938MPD2    H213775   0.070   1.841   0.850 -0.2790 -0.1022  0.4230
  938MPD2    H313776   4.634   1.726   0.967  0.4895  2.7944 -2.3233
  938MPD2     N13777   0.041   1.313   0.878 -0.4949  0.6983  0.0079
  938MPD2    H513778   4.709   1.286   0.951 -1.8730  0.1143 -1.4139
  938MPD2    N113779   0.267   1.701   0.691 -0.0028 -0.4840  0.5503
  938MPD2    H713780   0.320   1.639   0.631  0.8351 -0.1262  0.9061
  939MPD2     C13781   2.042   2.805   0.532  0.4769 -0.2979 -0.5973
  939MPD2    C113782   1.951   2.761   0.628 -0.1659 -0.1046  0.5416
  939MPD2    C213783   1.936   2.626   0.649  0.1323 -0.1547 -1.0135
  939MPD2    C313784   2.013   2.534   0.576  0.3457 -0.3980  0.3308
  939MPD2    C413785   2.095   2.583   0.474  0.3621 -0.0787  0.1937
  939MPD2    C513786   2.115   2.715   0.456 -0.7294  0.6049 -0.1264
  939MPD2     H13787   1.863   2.590   0.721 -1.6448  2.3120 -1.5790
  939MPD2    H113788   2.156   2.509   0.423  1.8776  0.3258  1.3998
  939MPD2    H213789   2.062   2.911   0.523 -1.6825 -0.0057 -1.8503
  939MPD2    H313790   2.176   2.768   0.384  0.3001 -1.8132 -1.0027
  939MPD2     N13791   2.001   2.393   0.587 -0.0551 -0.1934 -0.0584
  939MPD2    H513792   2.055   2.347   0.514 -3.2728 -1.7131 -1.5230
  939MPD2    N113793   1.868   2.866   0.683 -0.4401  0.1331 -0.3908
  939MPD2    H713794   1.879   2.964   0.661  0.3686  0.1932  0.2652
  940MPD2     C13795   4.677   3.436  13.234 -0.6043  0.5565 -0.0836
  940MPD2    C113796   0.052   3.346  13.256 -0.2214  0.0629  0.3592
  940MPD2    C213797   0.083   3.260  13.154  0.3571 -0.4944  0.0118
  940MPD2    C313798   0.038   3.271  13.027 -0.3568 -0.3437 -1.3312
  940MPD2    C413799   4.676   3.374  13.005  0.2975 -0.4408 -0.5099
  940MPD2    C513800   4.632   3.454  13.105 -0.1371 -0.7604  0.6602
  940MPD2     H13801   0.163   3.190  13.175  1.0610  0.8787  1.9294
  940MPD2    H113802   4.646   3.394  12.903 -2.1418 -0.9766  0.1020
  940MPD2    H213803   4.625   3.498  13.306  0.3187  0.9193  0.2732
  940MPD2    H313804   4.561   3.534  13.091 -0.4377 -0.4963  3.6837
  940MPD2     N13805   0.076   3.192  12.913  0.1256  0.1060 -0.2990
  940MPD2    H513806   0.033   3.215  12.824 -1.8338 -1.0261  0.3506
  940MPD2    N113807   0.119   3.339  13.382 -0.4330 -0.3949 -0.0036
  940MPD2    H713808   0.178   3.258  13.399  0.2157 -0.0566 -0.6200
  941MPD2     C13809   4.419   3.557   9.419  0.1657 -0.1381  0.5368
  941MPD2    C113810   4.446   3.494   9.541 -0.0501 -0.2734  0.1605
  941MPD2    C213811   4.342   3.432   9.606  0.0050  0.7879  0.3624
  941MPD2    C313812   4.224   3.412   9.539  0.3915 -1.0764  1.1889
  941MPD2    C413813   4.193   3.472   9.420 -0.7637  0.7897  0.0519
  941MPD2    C513814   4.291   3.549   9.364  0.1314  0.4168 -0.0162
  941MPD2     H13815   4.352   3.387   9.704  0.3266 -1.2018 -0.5826
  941MPD2    H113816   4.098   3.464   9.369 -0.6812 -0.2616  0.0540
  941MPD2    H213817   4.493   3.615   9.366  0.9186 -0.0498  1.6771
  941MPD2    H313818   4.283   3.599   9.268  0.3740  0.9209  0.2273
  941MPD2     N13819   4.117   3.339   9.591 -0.5012 -0.8142 -0.7932
  941MPD2    H513820   4.041   3.335   9.525 -1.2220 -3.3663  0.2054
  941MPD2    N113821   4.573   3.504   9.599 -0.0241 -0.0800 -0.8839
  941MPD2    H713822   4.578   3.463   9.691  0.7064  0.4036 -0.7066
  942MPD2     C13823   4.560   0.192  10.113 -0.3724 -0.2301  0.2744
  942MPD2    C113824   4.529   0.061  10.134 -0.6290 -0.4294 -0.4972
  942MPD2    C213825   4.588   4.705  10.047  0.5658 -0.4888  0.3997
  942MPD2    C313826   4.664   0.013   9.940 -0.2443  0.4749 -0.1612
  942MPD2    C413827   4.676   0.146   9.905 -0.9452 -0.3811  0.4162
  942MPD2    C513828   4.631   0.234  10.001 -0.6080 -0.3179  0.3598
  942MPD2     H13829   4.582   4.599  10.068  0.6582 -0.3313  1.2209
  942MPD2    H113830   0.009   0.186   9.829 -0.3789 -0.1932  1.0025
  942MPD2    H213831   4.539   0.263  10.192 -1.7618 -0.0167 -0.2786
  942MPD2    H313832   4.654   0.337   9.973  0.2007 -0.5803  0.0554
  942MPD2     N13833   0.010   4.655   9.864  0.1660 -0.7762 -0.3558
  942MPD2    H513834   0.079   4.700   9.804  1.2341 -0.5858  1.0237
  942MPD2    N113835   4.464   0.003  10.244  0.5475 -0.1165 -0.3882
  942MPD2    H713836   4.449   4.635  10.241  0.4145 -0.1339  0.8566
  943MPD2     C13837   3.354   3.861  10.123 -0.2210  0.0898  0.2872
  943MPD2    C113838   3.314   3.733  10.103 -0.6052 -0.0747  0.2815
  943MPD2    C213839   3.252   3.660  10.205 -0.1800 -0.2735 -0.2996
  943MPD2    C313840   3.223   3.720  10.328 -0.8468  0.0597 -0.6137
  943MPD2    C413841   3.269   3.849  10.353 -0.4611  0.3839 -0.2715
  943MPD2    C513842   3.334   3.912  10.252 -0.0611 -0.2628  0.5813
  943MPD2     H13843   3.221   3.556  10.196 -0.9525 -0.0378 -0.3005
  943MPD2    H113844   3.254   3.901  10.447 -1.2344  0.6371 -0.5288
  943MPD2    H213845   3.412   3.926  10.057  2.2130  0.0534  2.4135
  943MPD2    H313846   3.362   4.016  10.266 -2.6080  0.4895  0.1080
  943MPD2     N13847   3.151   3.660  10.434 -0.8824 -0.0991 -0.1175
  943MPD2    H513848   3.151   3.714  10.520 -0.6206 -1.9740  1.0580
  943MPD2    N113849   3.321   3.674   9.975  0.3906  0.5889  0.2547
  943MPD2    H713850   3.368   3.737   9.910 -0.8203 -0.1988 -1.3770
  944MPD2     C13851   2.581   2.419  10.900 -0.0595  0.1263 -0.4983
  944MPD2    C113852   2.652   2.387  11.018  0.2919 -0.4694 -0.7718
  944MPD2    C213853   2.604   2.437  11.141 -0.2305  0.5466 -0.2217
  944MPD2    C313854   2.476   2.501  11.149 -0.0501 -0.6273 -0.3202
  944MPD2    C413855   2.403   2.517  11.029 -0.1606  0.8445  0.3313
  944MPD2    C513856   2.454   2.470  10.908  0.2729 -0.2315 -0.3497
  944MPD2     H13857   2.653   2.407  11.233 -0.0715  1.2926 -0.0622
  944MPD2    H113858   2.304   2.559  11.021  0.0300  0.7751 -2.4932
  944MPD2    H213859   2.617   2.386  10.804 -0.1324 -2.0664  0.2407
  944MPD2    H313860   2.389   2.482  10.822 -0.3944 -1.3647 -0.0055
  944MPD2     N13861   2.425   2.559  11.271  0.0944  0.3875 -0.7504
  944MPD2    H513862   2.490   2.563  11.349 -0.3113 -0.8974 -0.3529
  944MPD2    N113863   2.771   2.311  10.995 -0.7346 -0.1413 -0.1574
  944MPD2    H713864   2.801   2.291  10.900  1.4178  2.1942  0.0413
    1TMC1    C113865   1.283   2.380  14.843  0.0987  0.1945 -0.0981
    1TMC1    C213866   1.206   2.334  14.740  0.3567  0.0167 -0.3405
    1TMC1    C313867   1.073   2.323  14.762  0.1873 -0.1492  0.1151
    1TMC1    C413868   1.232   2.397  14.968 -0.4799 -0.1455 -0.5627
    1TMC1    C513869   1.094   2.386  14.981 -0.0888  0.5152 -0.2257
    1TMC1    C613870   1.009   2.360  14.875 -0.2242 -0.5183  0.7012
    1TMC1     C13871   1.393   2.467  14.812 -0.2206 -0.1765  0.5232
    1TMC1     O13872   1.471   2.491  14.904  0.3965  0.0111 -0.3696
    1TMC1     H13873   1.251   2.313  14.643 -0.3989 -2.2521 -0.1818
    1TMC1    H113874   1.297   2.426  15.049  0.1934 -0.9686 -0.8058
    1TMC1    H213875   0.908   2.323  14.892 -1.3063  2.7886  1.4656
    1TMC1    C713876   1.040   2.444  15.102 -0.5873 -0.4774 -0.2594
    1TMC1    C813877   1.009   2.232  14.675 -0.7510  0.5503  0.1295
    1TMC1    O113878   1.085   2.433  15.216 -0.5981  0.2863  0.0949
    1TMC1    O213879   1.025   2.111  14.690 -0.0131 -0.1321  0.3788
    1TMC1    O313880   0.939   2.524  15.059  0.0520 -0.1525 -0.1007
    1TMC1    H313881   0.924   2.527  14.962 -0.5788 -0.1286  0.0003
    1TMC1    O513882   0.890   2.291  14.643  0.7495 -0.0844 -0.3487
    1TMC1    H513883   0.904   2.386  14.622 -0.8474  0.3060  0.3118
    2MPD2     C13884   1.667   2.790  14.534 -0.8233 -0.7840 -0.4766
    2MPD2    C113885   1.561   2.752  14.454 -0.1028  0.6107 -0.5742
    2MPD2    C213886   1.465   2.665  14.504  0.2082 -0.3811  1.0073
    2MPD2    C313887   1.483   2.608  14.628 -0.1746  0.7248  0.3020
    2MPD2    C413888   1.596   2.636  14.694 -0.5642  0.2600  0.1599
    2MPD2    C513889   1.679   2.728  14.648 -0.4001  0.3729  0.1917
    2MPD2     H13890   1.377   2.637  14.448  0.4867  0.3400  0.2098
    2MPD2    H113891   1.627   2.581  14.783  0.9133  1.2370  0.2541
    2MPD2    H213892   1.743   2.857  14.496 -2.9267  2.2737  0.6987
    2MPD2    H313893   1.763   2.751  14.713 -0.0947  0.3633 -0.2030
    2MPD2     N13894   1.388   2.519  14.682  0.1238  0.2661 -0.1582
    2MPD2    H513895   1.303   2.502  14.631  0.8737  0.1150 -1.3483
    2MPD2    N113896   1.565   2.801  14.320  1.0879  0.1108  0.2656
    2MPD2    H713897   1.646   2.852  14.288 -0.5766  0.2963 -3.6621
    3TMC2    C113898   1.479   2.850  14.116  0.3546  0.1372 -0.3121
    3TMC2    C213899   1.566   2.955  14.108  0.2097  0.5184  0.0392
    3TMC2    C313900   1.570   3.023  13.984 -0.3749 -0.1343 -0.7266
    3TMC2    C413901   1.406   2.817  14.005 -0.7269 -1.0505  0.2702
    3TMC2    C513902   1.417   2.885  13.885  0.1009 -0.0917 -0.1576
    3TMC2    C613903   1.499   2.989  13.871 -0.9164  0.6979 -0.1716
    3TMC2     C13904   1.463   2.771  14.234  0.1364  1.0455 -0.2182
    3TMC2     O13905   1.356   2.708  14.244 -0.0650 -0.4572 -0.2006
    3TMC2     H13906   1.607   2.999  14.198 -2.3772 -0.4159  1.6612
    3TMC2    H113907   1.351   2.725  14.015  0.2889 -1.5452  1.3516
    3TMC2    H213908   1.517   3.047  13.781 -1.9847  0.2519 -0.6721
    3TMC2    C713909   1.313   2.854  13.784 -0.4856 -0.1834  0.5329
    3TMC2    C813910   1.638   3.145  13.981 -0.7556 -0.6645 -0.5959
    3TMC2    O113911   1.246   2.750  13.796 -0.5797  0.4173  0.1144
    3TMC2    O213912   1.620   3.227  13.890 -0.5917  0.0615 -0.1103
    3TMC2    O513913   1.762   3.102  14.033  0.1381  0.0622 -0.0251
    3TMC2    H513914   1.754   3.026  14.095 -1.9894 -0.7856 -1.3565
    4TMC2    C113915   0.863   3.642  13.392 -0.0702 -0.3253 -0.4383
    4TMC2    C213916   0.825   3.640  13.262  0.0012 -0.1248  0.1518
    4TMC2    C313917   0.841   3.524  13.193  0.7007  0.0400 -0.3557
    4TMC2    C413918   0.920   3.533  13.444 -0.1624  0.6767 -0.5314
    4TMC2    C513919   0.942   3.417  13.370 -0.0485 -0.5684 -1.4017
    4TMC2    C613920   0.901   3.411  13.239  0.5739  0.4460 -0.3174
    4TMC2     C13921   0.850   3.762  13.484  0.5105  0.0069  0.0941
    4TMC2     O13922   0.888   3.751  13.603 -0.3037  0.2128 -0.1491
    4TMC2     H13923   0.780   3.729  13.219  1.1132 -0.2334 -1.2649
    4TMC2    H113924   0.944   3.533  13.550  1.8674 -0.8490 -0.9939
    4TMC2    H213925   0.937   3.340  13.165  1.9743  0.2802  0.5211
    4TMC2    C713926   0.994   3.317  13.455 -0.1422 -0.5013 -0.4382
    4TMC2    C813927   0.815   3.536  13.055 -0.7703 -0.1266 -0.0805
    4TMC2    O113928   1.032   3.339  13.570 -0.2388 -0.0354  0.3785
    4TMC2    O213929   0.792   3.646  13.006  0.1275 -0.0002 -0.3388
    4TMC2    O513930   0.766   3.416  13.012 -0.0483 -0.0802  0.3115
    4TMC2    H513931   0.775   3.336  13.069 -0.9737 -0.1204  0.3954
    5MPD2     C13932   0.732   4.251  13.599  0.3413  0.0993  0.0071
    5MPD2    C113933   0.719   4.228  13.460 -0.1355 -0.4768  0.5167
    5MPD2    C213934   0.741   4.105  13.406 -0.7650 -0.9458  0.2776
    5MPD2    C313935   0.774   4.001  13.490 -0.8857  0.3930 -0.4114
    5MPD2    C413936   0.795   4.024  13.623 -0.1916  0.7590 -0.6004
    5MPD2    C513937   0.775   4.153  13.676 -0.2296  0.2119 -0.0128
    5MPD2     H13938   0.721   4.082  13.302  0.1409  2.8030 -0.7315
    5MPD2    H113939   0.829   3.952  13.697  1.4791  1.2421 -0.8885
    5MPD2    H213940   0.720   4.346  13.649 -1.0477  0.0047 -0.1355
    5MPD2    H313941   0.788   4.166  13.783 -1.8121  0.4777  0.1579
    5MPD2     N13942   0.800   3.877  13.426  0.4845  0.6133  0.7800
    5MPD2    H513943   0.789   3.878  13.325 -0.9088 -0.1580  0.9150
    5MPD2    N113944   0.690   4.344  13.378  0.0805 -0.2672  0.6597
    5MPD2    H713945   0.647   4.420  13.429  0.0926  0.6532 -0.7048
    6MPD1     C13946   4.529   1.218  12.846  0.1325  0.5592 -0.2575
    6MPD1    C113947   4.516   1.149  12.962 -0.3367 -0.4822  0.0241
    6MPD1    C213948   4.519   1.008  12.955 -0.3821 -0.3305  0.0503
    6MPD1    C313949   4.533   0.945  12.830 -0.2588 -0.6071 -0.3412
    6MPD1    C413950   4.543   1.023  12.715  0.3304 -0.2862  0.7183
    6MPD1    C513951   4.536   1.160  12.724  0.7870 -0.4323  0.4982
    6MPD1     H13952   4.504   0.959  13.050  3.0226  0.2150  0.8598
    6MPD1    H113953   4.548   0.971  12.620  0.3141 -1.1983  1.2125
    6MPD1    H213954   4.544   1.325  12.845 -1.1626  0.7421  0.1291
    6MPD1    H313955   4.537   1.212  12.629  2.6618 -0.0169  0.7474
    6MPD1     N13956   4.542   0.806  12.814 -0.5553 -0.0725 -0.0499
    6MPD1    H513957   4.561   0.770  12.720  1.3257 -0.0483  0.3207
    6MPD1    N113958   4.520   1.220  13.085  0.3398 -0.4778  0.2258
    6MPD1    H613959   4.477   1.159  13.153  2.2662 -1.8618  0.2045
    6MPD1    H713960   4.459   1.301  13.072  0.3708 -0.1771  1.9668
    7MPD2     C13961   0.010   0.167  13.374 -0.3848  0.3064 -0.7049
    7MPD2    C113962   0.006   0.125  13.241 -0.3867  0.2087  0.5750
    7MPD2    C213963   0.078   0.010  13.199  0.4480  0.3136 -0.2671
    7MPD2    C313964   0.159   4.678  13.292 -0.5194 -0.1254 -0.0073
    7MPD2    C413965   0.162   4.726  13.421  0.2777  0.0263 -0.1088
    7MPD2    C513966   0.091   0.104  13.455  0.0103  0.0982 -0.5896
    7MPD2     H13967   0.077   4.717  13.094  2.4036 -0.7193 -0.0421
    7MPD2    H113968   0.215   4.674  13.501 -1.0183 -0.8994  0.1444
    7MPD2    H213969   4.698   0.259  13.410 -1.2858  0.4258 -2.1421
    7MPD2    H313970   0.102   0.128  13.560  1.5284 -0.9380 -0.5204
    7MPD2     N13971   0.237   4.566  13.264  0.3797 -0.0185  0.0288
    7MPD2    H513972   0.293   4.541  13.345 -0.3578  1.7868  1.0845
    7MPD2    N113973   4.679   0.207  13.136 -0.2524 -0.6256  0.0206
    7MPD2    H713974   4.693   0.183  13.038  1.8535  1.7967 -0.2783
    8TMC3    C113975   0.366   4.423  13.122 -0.5162  0.2990  0.2214
    8TMC3    C213976   0.470   4.427  13.216 -0.7446 -0.1664  0.3033
    8TMC3    C313977   0.603   4.439  13.176 -0.3661  0.6739  0.7066
    8TMC3    C413978   0.397   4.421  12.989 -0.5977  0.3698  0.1597
    8TMC3    C513979   0.525   4.446  12.949 -0.5927 -0.1380 -0.3703
    8TMC3    C613980   0.621   4.445  13.037  1.1759  0.1282  0.1784
    8TMC3     C13981   0.250   4.502  13.144  0.1843 -0.4521 -0.5169
    8TMC3     O13982   0.188   4.528  13.046 -0.1595 -0.0077 -0.0421
    8TMC3     H13983   0.449   4.422  13.322 -0.0568 -0.9235  0.3999
    8TMC3    H113984   0.325   4.402  12.911 -0.5718 -0.9862  0.4576
    8TMC3    H213985   0.725   4.462  13.009  1.8828 -2.1992  1.3615
    8TMC3    C713986   0.538   4.555  12.855 -0.0856  0.6142  0.0282
    8TMC3    C813987   0.692   4.341  13.241  0.0847  0.1969 -0.3428
    8TMC3    O113988   0.645   4.585  12.806  0.0903 -0.5363  0.1400
    8TMC3    O213989   0.747   4.257  13.165 -1.1742 -0.0543  0.8095
    9TMC3    C113990   4.565   0.584  12.906 -0.1349 -0.2026 -0.3663
    9TMC3    C213991   4.669   0.559  12.818  0.6209 -0.0306  0.0298
    9TMC3    C313992   0.013   0.446  12.839  0.4966 -1.0947 -0.3692
    9TMC3    C413993   4.545   0.510  13.016 -0.3577  0.4066  0.1548
    9TMC3    C513994   4.630   0.402  13.039  0.1890  0.0746 -0.6858
    9TMC3    C613995   0.004   0.379  12.954  0.4344 -0.1633  0.3941
    9TMC3     C13996   4.503   0.716  12.913  0.2159 -0.8209  0.7247
    9TMC3     O13997   4.423   0.740  13.003 -0.3656  0.1254  0.0530
    9TMC3     H13998   4.678   0.616  12.727  0.8975 -0.8269 -0.4413
    9TMC3    H113999   4.464   0.536  13.084  0.1168  0.5067  0.6747
    9TMC3    H214000   0.079   0.304  12.973  0.4152 -0.3128 -0.1097
    9TMC3    C714001   4.605   0.317  13.151 -0.0415  0.8371 -0.1574
    9TMC3    C814002   0.114   0.407  12.739  0.2684 -0.2335  0.2394
    9TMC3    O114003   4.549   0.368  13.250 -0.6610  0.4221 -0.8332
    9TMC3    O214004   0.169   0.488  12.667 -0.2281  0.4511 -0.2196
   10MPD2     C14005   0.510   0.090  12.729 -0.1608  0.4528 -1.0964
   10MPD2    C114006   0.404   0.017  12.775  0.1782  0.5049  0.5378
   10MPD2    C214007   0.284   0.087  12.786 -0.5091  0.3220  0.4857
   10MPD2    C314008   0.266   0.215  12.736  0.1277 -0.2185  0.0604
   10MPD2    C414009   0.372   0.278  12.684  0.1877  0.8024  0.0755
   10MPD2    C514010   0.493   0.215  12.676  0.5165 -0.2958  0.1258
   10MPD2     H14011   0.200   0.038  12.834 -1.2919  1.7164  0.5517
   10MPD2    H114012   0.367   0.374  12.633 -0.8265  0.4688 -0.4467
   10MPD2    H214013   0.609   0.049  12.717  0.7900  2.1304  1.0004
   10MPD2    H314014   0.576   0.270  12.633 -0.6437  1.6516  0.3445
   10MPD2     N14015   0.143   0.275  12.750  0.4021  0.5922 -0.4532
   10MPD2    H514016   0.072   0.222  12.799  1.7258  0.7176  1.5590
   10MPD2    N114017   0.421   4.630  12.854  0.2766 -0.3049  0.3735
   10MPD2    H714018   0.336   4.589  12.891 -0.0458  0.5759  0.6110
   11MPD2     C14019   1.159   2.841  13.533  0.1794 -0.4819  0.6768
   11MPD2    C114020   1.197   2.958  13.590  0.7369  0.7491 -0.1049
   11MPD2    C214021   1.159   3.079  13.539 -0.1462  0.3216 -0.4197
   11MPD2    C314022   1.073   3.079  13.437 -0.0704 -0.1491 -0.0662
   11MPD2    C414023   1.035   2.966  13.374 -0.2632 -0.2576 -0.1216
   11MPD2    C514024   1.091   2.851  13.420 -0.0403  0.3041  0.4236
   11MPD2     H14025   1.188   3.175  13.580  0.1064 -0.3190  0.8959
   11MPD2    H114026   0.954   2.962  13.303  0.2558  0.4814 -0.7454
   11MPD2    H214027   1.199   2.748  13.572  0.3219 -0.0862  1.4820
   11MPD2    H314028   1.057   2.760  13.373 -2.2290  0.8160  0.9844
   11MPD2     N14029   1.009   3.199  13.381 -0.9595  0.1764 -0.0832
   11MPD2    H514030   0.957   3.185  13.296  1.0543  1.4086 -1.5076
   11MPD2    N114031   1.290   2.959  13.699  0.1269 -0.4766 -0.4631
   11MPD2    H714032   1.340   3.045  13.720 -1.1485  0.3046 -0.6301
    1MPD1     C14033   4.596   1.173  16.465  0.2653  0.0759  0.0505
    1MPD1    C114034   4.473   1.125  16.421 -0.3450 -0.1540 -0.0932
    1MPD1    C214035   4.458   1.088  16.291  0.1237  0.6941  0.2524
    1MPD1    C314036   4.561   1.085  16.202 -0.1401  0.0073 -0.2127
    1MPD1    C414037   4.681   1.132  16.245  0.3308 -0.2049  0.2731
    1MPD1    C514038   4.701   1.176  16.370  0.4038  0.3389  0.1810
    1MPD1     H14039   4.356   1.066  16.262  0.1512 -2.4519  2.4980
    1MPD1    H114040   0.030   1.140  16.173 -0.1920  2.2519 -0.0693
    1MPD1    H214041   4.618   1.204  16.567 -0.4175  0.6568  0.0178
    1MPD1    H314042   0.069   1.204  16.399 -0.4854  2.5654  1.0773
    1MPD1     N14043   4.556   1.061  16.064  0.7418 -0.7209  0.1179
    1MPD1    H514044   4.635   1.100  16.014  0.0948  0.8813  0.3579
    1MPD1    N114045   4.358   1.149  16.499  1.2996 -0.6370  0.7851
    1MPD1    H614046   4.287   1.081  16.476 -1.3043  1.2932  3.1164
    1MPD1    H714047   4.368   1.132  16.599  0.3449 -0.7494  0.8589
    2MPD1     C14048   4.034   0.817  15.123 -0.2787  0.6373 -0.6983
    2MPD1    C114049   4.124   0.715  15.159  0.0513 -0.2622  0.2597
    2MPD1    C214050   4.194   0.726  15.278 -0.1208 -0.0544  0.0684
    2MPD1    C314051   4.178   0.832  15.366 -0.3328  1.0944 -0.0841
    2MPD1    C414052   4.090   0.923  15.333 -0.2840 -0.3253 -0.8260
    2MPD1    C514053   4.016   0.916  15.213  0.3326 -0.6300 -0.3542
    2MPD1     H14054   4.267   0.650  15.304  0.1579  0.1015 -0.2564
    2MPD1    H114055   4.063   1.007  15.396 -0.3145 -0.9105 -0.0565
    2MPD1    H214056   3.969   0.819  15.036 -1.6357 -2.2246  0.2514
    2MPD1    H314057   3.940   0.992  15.199  1.7100  0.8397  0.0121
    2MPD1     N14058   4.254   0.829  15.483  0.1460 -0.4021  0.5207
    2MPD1    H514059   4.334   0.766  15.479  1.3379  1.2996 -1.9490
    2MPD1    N114060   4.173   0.629  15.058 -0.2695 -0.1426  0.1820
    2MPD1    H614061   4.198   0.533  15.081 -1.4014 -0.3677  0.4545
    2MPD1    H714062   4.105   0.617  14.984 -3.2279  4.0799  2.2274
    3TMC3    C114063   4.356   0.909  15.671  0.0529  0.2742 -0.5989
    3TMC3    C214064   4.482   0.908  15.608 -0.5887  0.7077 -0.1090
    3TMC3    C314065   4.592   0.943  15.686  0.0863 -0.0171 -0.2870
    3TMC3    C414066   4.344   0.966  15.794 -0.1060  0.0331  0.3354
    3TMC3    C514067   4.451   1.016  15.854 -0.0221  0.0335 -0.3860
    3TMC3    C614068   4.576   1.011  15.798  0.5708  0.1348  0.6356
    3TMC3     C14069   4.234   0.903  15.596 -0.9177  0.5036  0.2455
    3TMC3     O14070   4.135   0.963  15.634 -1.0998 -0.6024 -0.0424
    3TMC3     H14071   4.495   0.890  15.502  0.7705  1.2728 -0.0384
    3TMC3    H114072   4.245   0.974  15.840 -0.0165  0.4229  0.4608
    3TMC3    H214073   4.661   1.045  15.857  0.8750 -1.1244  0.9094
    3TMC3    C714074   4.441   1.020  15.999 -0.0280  0.3784 -0.1179
    3TMC3    C814075   4.730   0.936  15.643  0.2945  0.8784  0.0800
    3TMC3    O114076   4.334   0.985  16.047  0.9443  0.1262 -0.0191
    3TMC3    O214077   0.071   1.019  15.681  0.2976 -0.4405 -0.8871
    4MPD1     C14078   0.400   0.693  15.472 -0.6051  0.3885  0.4484
    4MPD1    C114079   0.290   0.614  15.445 -0.4014 -0.0915  0.1423
    4MPD1    C214080   0.170   0.673  15.462  0.0138  0.4932 -0.3724
    4MPD1    C314081   0.154   0.795  15.527  0.2381 -0.6635  0.3424
    4MPD1    C414082   0.269   0.869  15.563 -0.1942  0.4800 -0.1402
    4MPD1    C514083   0.388   0.820  15.525  0.1610  0.6757  0.4032
    4MPD1     H14084   0.080   0.625  15.425  0.8405 -1.6492  0.4023
    4MPD1    H114085   0.269   0.963  15.618 -0.7653  0.4243 -0.0513
    4MPD1    H214086   0.498   0.650  15.460 -0.6408  0.0778  1.2835
    4MPD1    H314087   0.481   0.873  15.538 -0.0093  1.2585 -0.7640
    4MPD1     N14088   0.019   0.828  15.562 -0.1330  0.0067  0.6225
    4MPD1    H514089   4.671   0.771  15.543  0.1063  0.4472 -1.7667
    4MPD1    N114090   0.309   0.492  15.371 -0.5413  0.2678 -0.0382
    4MPD1    H614091   0.244   0.417  15.393  0.0978  0.1217  1.3549
    4MPD1    H714092   0.406   0.461  15.363 -0.9214 -0.5298 -1.4242
    1TCq1    O114093   0.085   4.255  10.947  0.5395  0.7344  0.6067
    1TCq1    C114094   4.731   4.257  11.048  0.1865  0.1903  0.6516
    1TCq1    O214095   0.007   4.182  11.143  0.1985  0.1450  0.1173
    1TCq1    C214096   4.680   4.386  11.060 -0.5296 -0.2843 -0.3070
    1TCq1    C314097   4.625   4.439  10.941 -0.3834 -0.6234  0.1636
    1TCq1    C414098   4.547   4.546  10.971  0.0902 -0.4059  0.0503
    1TCq1    C514099   4.524   4.589  11.097  0.0920 -0.3520  0.9217
    1TCq1    C614100   4.568   4.535  11.211 -0.1031 -0.1708 -0.1249
    1TCq1    C714101   4.653   4.427  11.188 -0.3025  0.2177  1.1472
    1TCq1    C814102   4.616   4.624  11.323  0.7310 -0.4385  0.5839
    1TCq1    O414103   4.725   4.595  11.361 -0.3522 -0.2419  0.1914
    1TCq1    C914104   4.517   4.637  10.861  0.8129  0.1153  0.0741
    1TCq1    O514105   4.488   4.589  10.745  0.3577 -0.0402 -0.1936
    1TCq1    O614106   4.555   0.025  10.875 -0.3520 -0.0537  0.5944
    1TCq1    H114107   0.081   4.330  10.884 -0.8726 -0.5067 -0.7733
    1TCq1    H214108   4.665   4.412  10.844 -1.2785  2.6338 -1.1023
    1TCq1    H314109   4.485   4.689  11.112 -0.2470 -0.5124  1.1151
    1TCq1    H414110   4.698   4.382  11.276 -2.0188 -1.2064  1.3109
    2MPD1     C14111   4.550   0.239  11.687  0.6101 -0.9591 -0.0968
    2MPD1    C114112   4.452   0.255  11.591 -0.6217  0.1858  0.5105
    2MPD1    C214113   4.458   0.185  11.472  0.0945 -0.6793  0.5299
    2MPD1    C314114   4.546   0.086  11.451  0.0746 -0.2676  1.1925
    2MPD1    C414115   4.641   0.066  11.552 -0.4057  0.3410 -0.2596
    2MPD1    C514116   4.638   0.137  11.670  0.0431  0.9807 -0.3476
    2MPD1     H14117   4.388   0.199  11.390  2.2899  1.8026 -0.9449
    2MPD1    H114118   4.714   4.719  11.537 -0.1364  0.3813  0.8808
    2MPD1    H214119   4.558   0.298  11.777  0.5770 -0.6582 -0.2928
    2MPD1    H314120   4.711   0.117  11.747  0.5852  2.3786 -0.5021
    2MPD1     N14121   4.535   0.000  11.341 -0.7160 -0.3902 -0.0590
    2MPD1    H514122   4.456   0.027  11.282 -0.7997  0.3247  0.3741
    2MPD1    N114123   4.376   0.374  11.604  0.3120 -0.4039  1.2271
    2MPD1    H614124   4.361   0.397  11.703 -0.5445  0.9372  0.7898
    2MPD1    H714125   4.284   0.353  11.566  1.9081 -0.1043 -2.7677
    1TMC1    C114126   0.365   0.088  17.015 -0.2866  0.3236  0.3276
    1TMC1    C214127   0.238   0.060  16.975 -0.6942  0.0032  0.2401
    1TMC1    C314128   0.184   4.680  17.025  0.1030  0.0377  0.2681
    1TMC1    C414129   0.438   0.008  17.095  0.3455 -0.5969 -0.8457
    1TMC1    C514130   0.381   4.623  17.135 -0.9733 -0.1442  0.0161
    1TMC1    C614131   0.247   4.592  17.109  0.1240  0.4173  0.0640
    1TMC1     C14132   0.431   0.190  16.940  0.0101 -0.3479 -0.6254
    1TMC1     O14133   0.361   0.279  16.894 -0.5857 -0.4565 -0.2317
    1TMC1     H14134   0.184   0.116  16.899  0.1478 -1.3174 -1.3496
    1TMC1    H114135   0.540   0.033  17.124 -0.0684  0.5374 -0.3383
    1TMC1    H214136   0.196   4.501  17.140  0.5191 -0.4672 -1.9407
    1TMC1    C714137   0.446   4.539  17.233  0.0335  0.3232  0.3091
    1TMC1    C814138   0.050   4.645  16.989 -0.5796  0.0636  0.2022
    1TMC1    O114139   0.541   4.587  17.299  0.0321 -0.3443  0.4036
    1TMC1    O214140   0.005   4.530  17.011  0.4713  0.1467  1.1157
    1TMC1    O314141   0.446   4.422  17.173  0.0319  0.0020 -0.5551
    1TMC1    H314142   0.389   4.413  17.093 -1.1190 -0.0050  0.2761
    1TMC1    O514143   4.715   0.020  17.023  0.4223  0.2052  0.1314
    1TMC1    H514144   0.036   0.102  17.029  1.0781 -0.1938 -0.1811
    2MPD1     C14145   0.826   0.336  16.655 -0.3453  0.3512  0.0631
    2MPD1    C114146   0.868   0.228  16.725 -0.7783 -0.7363 -0.1493
    2MPD1    C214147   0.782   0.173  16.819 -0.3175  0.9289  0.0343
    2MPD1    C314148   0.648   0.219  16.834  0.4682  0.1225 -0.4987
    2MPD1    C414149   0.608   0.327  16.753 -0.5282  0.2703 -0.0389
    2MPD1    C514150   0.695   0.388  16.671  0.3950 -0.2157 -0.1455
    2MPD1     H14151   0.821   0.089  16.875 -1.1155  1.7011  1.7279
    2MPD1    H114152   0.512   0.376  16.763 -1.0065 -0.2253 -2.3159
    2MPD1    H214153   0.890   0.384  16.582 -0.5628  0.0180 -0.3425
    2MPD1    H314154   0.667   0.483  16.628  1.1346 -0.8970 -2.1283
    2MPD1     N14155   0.564   0.160  16.925 -0.0842  0.3709 -0.2805
    2MPD1    H514156   0.602   0.093  16.991 -0.5314 -0.4235 -0.8357
    2MPD1    N114157   1.002   0.205  16.735  0.5199 -0.1707 -0.4584
    2MPD1    H614158   1.056   0.222  16.651  1.7068  0.6993  0.4891
    2MPD1    H714159   1.012   0.105  16.753  0.2633 -0.1503 -0.1933
    1MPD1     C14160   1.734   1.125  11.381 -0.3077  0.1866  0.1589
    1MPD1    C114161   1.782   1.154  11.507  0.3910 -0.2318 -0.0318
    1MPD1    C214162   1.892   1.239  11.517  0.4133 -0.2098 -0.1801
    1MPD1    C314163   1.939   1.319  11.414  0.0733  0.1861  0.1409
    1MPD1    C414164   1.881   1.297  11.290  0.2742  0.4288  0.0951
    1MPD1    C514165   1.784   1.196  11.278 -0.1769 -0.1100  0.7352
    1MPD1     H14166   1.939   1.248  11.614  0.7226 -1.0609 -0.2531
    1MPD1    H114167   1.888   1.369  11.210 -0.7135 -1.2089 -1.4852
    1MPD1    H214168   1.652   1.056  11.366 -1.3731  0.8199  3.1418
    1MPD1    H314169   1.730   1.189  11.185  0.3550  1.3692  0.3241
    1MPD1     N14170   2.036   1.419  11.442  0.3269  0.1683  0.0369
    1MPD1    H514171   2.072   1.413  11.537  0.2091  0.9752  0.1338
    1MPD1    N114172   1.736   1.078  11.618  0.3834  0.0726  0.9490
    1MPD1    H614173   1.766   1.121  11.705  1.9005  2.0920 -0.5858
    1MPD1    H714174   1.637   1.054  11.621  0.1880  0.8849  0.9030
    2MPD1     C14175   1.435   0.542  11.625  0.1740  0.2631  0.0816
    2MPD1    C114176   1.372   0.428  11.581  0.3009 -0.6114 -0.0809
    2MPD1    C214177   1.404   0.379  11.455 -0.9591 -0.3467 -0.0970
    2MPD1    C314178   1.495   0.451  11.376  0.3931  0.4244 -0.5081
    2MPD1    C414179   1.560   0.567  11.421 -0.0830  0.0569  0.3484
    2MPD1    C514180   1.527   0.609  11.548  0.4324 -0.1899  0.3691
    2MPD1     H14181   1.359   0.291  11.411  1.1742 -1.7787  0.5814
    2MPD1    H114182   1.633   0.627  11.369  1.0142  0.5331  2.4332
    2MPD1    H214183   1.410   0.583  11.722 -2.1890 -0.1582 -0.3534
    2MPD1    H314184   1.562   0.703  11.589 -0.6164  1.2945 -2.1369
    2MPD1     N14185   1.538   0.405  11.244  0.6491  0.4920  0.4513
    2MPD1    H514186   1.604   0.465  11.197 -0.0723 -0.8852 -2.3107
    2MPD1    N114187   1.306   0.347  11.677 -0.1042  0.0338  0.4932
    2MPD1    H614188   1.250   0.405  11.739  1.9246  1.6237  0.8389
    2MPD1    H714189   1.250   0.277  11.629  3.0559 -2.9378  1.1351
    3MPD1     C14190   1.145   4.528  10.564 -1.0610 -0.4832  0.2383
    3MPD1    C114191   1.113   4.659  10.617  0.7074 -0.3064 -0.1899
    3MPD1    C214192   1.212   4.719  10.685  0.3795  0.2986  1.2584
    3MPD1    C314193   1.333   4.665  10.713  0.6451  0.3581  0.4189
    3MPD1    C414194   1.369   4.549  10.654  0.7661 -0.0654  0.7482
    3MPD1    C514195   1.269   4.475  10.584 -0.7213 -0.3984 -0.7142
    3MPD1     H14196   1.196   0.084  10.730 -3.3820  0.1110  0.3044
    3MPD1    H114197   1.472   4.517  10.645  1.1055  0.7170  1.9264
    3MPD1    H214198   1.079   4.470  10.501  2.8523 -1.6359 -2.7947
    3MPD1    H314199   1.300   4.389  10.526 -0.5969  0.6300 -2.1911
    3MPD1     N14200   1.420   0.028  10.773 -0.3706  0.0858  0.0128
    3MPD1    H514201   1.387   0.120  10.801 -1.5745 -0.2350 -0.3456
    3MPD1    N114202   0.999   4.724  10.573  0.3510  0.0214  0.3096
    3MPD1    H614203   0.925   4.657  10.553 -0.0466  0.6982 -0.4548
    3MPD1    H714204   0.955   0.045  10.647 -0.8243  1.7973 -1.6957
    4MPD2     C14205   2.531   1.237  10.996  0.0185 -0.7951 -0.8048
    4MPD2    C114206   2.572   1.243  11.126 -0.2503  0.0347  0.3078
    4MPD2    C214207   2.617   1.120  11.183 -0.1779  0.4720  0.3186
    4MPD2    C314208   2.651   1.010  11.102 -0.8225  0.4471 -0.1450
    4MPD2    C414209   2.636   1.021  10.968 -0.7592  0.5899 -0.4082
    4MPD2    C514210   2.570   1.129  10.922  0.2520 -0.6809 -0.4346
    4MPD2     H14211   2.624   1.110  11.291 -1.0372  1.0086  0.4227
    4MPD2    H114212   2.640   0.941  10.896  0.8389 -0.3207  0.6829
    4MPD2    H214213   2.460   1.312  10.963  0.1418  0.5789  2.1195
    4MPD2    H314214   2.542   1.126  10.817  0.8213  2.7619 -0.6669
    4MPD2     N14215   2.675   0.883  11.162 -0.3707 -0.5245 -0.4470
    4MPD2    H514216   2.664   0.870  11.262  0.8338  1.6101 -0.0592
    4MPD2    N114217   2.525   1.346  11.214 -0.1866  0.0328 -0.3128
    4MPD2    H714218   2.525   1.325  11.313 -0.3548  1.0612 -0.1064
    5TMC3    C114219   2.439   1.547  11.301 -0.2041 -0.2545 -0.3538
    5TMC3    C214220   2.309   1.590  11.295  0.0614  0.4957  0.7123
    5TMC3    C314221   2.221   1.558  11.394  0.1602  0.3853 -0.0106
    5TMC3    C414222   2.483   1.491  11.422  0.9741 -0.1971  0.4022
    5TMC3    C514223   2.392   1.463  11.524  0.1139  0.6097  0.0317
    5TMC3    C614224   2.262   1.496  11.511  0.5205  0.0448  0.0750
    5TMC3     C14225   2.475   1.465  11.190 -0.4575 -0.5248  0.5845
    5TMC3     O14226   2.454   1.520  11.079 -0.7739  0.2949 -0.0895
    5TMC3     H14227   2.274   1.643  11.207  0.4697 -3.8723 -2.0707
    5TMC3    H114228   2.590   1.478  11.434  0.9678  0.0756  0.7341
    5TMC3    H214229   2.197   1.497  11.597 -1.0889  1.4220 -1.1632
    5TMC3    C714230   2.407   1.319  11.547 -0.2227 -0.3908  0.0634
    5TMC3    C814231   2.095   1.492  11.343 -0.6478  0.2998 -0.0705
    5TMC3    O114232   2.482   1.272  11.466  0.1679 -0.0662  0.0372
    5TMC3    O214233   2.081   1.488  11.221 -0.4446  0.0669 -0.0693
    6TMC3    C114234   1.578   0.269  11.063 -0.1225  0.0596 -0.0614
    6TMC3    C214235   1.520   0.187  10.962  0.0865 -0.4662 -0.4079
    6TMC3    C314236   1.604   0.121  10.875 -0.0890 -0.2585  0.1497
    6TMC3    C414237   1.710   0.284  11.071  0.5356  0.5561  0.0332
    6TMC3    C514238   1.787   0.218  10.983  0.3928  0.2536 -0.4435
    6TMC3    C614239   1.740   0.144  10.881  0.4395  0.4809  0.3773
    6TMC3     C14240   1.487   0.302  11.168 -0.0855  0.0038 -0.2996
    6TMC3     O14241   1.383   0.237  11.181  0.4082 -0.2180 -0.4151
    6TMC3     H14242   1.418   0.156  10.978  0.2899 -0.1691  1.5568
    6TMC3    H114243   1.754   0.326  11.161  0.4765 -2.0011  1.2677
    6TMC3    H214244   1.805   0.103  10.805  0.3138  0.6330  0.1862
    6TMC3    C714245   1.926   0.246  10.999 -0.3307 -0.1383  0.8571
    6TMC3    C814246   1.555   0.014  10.788  0.0828  0.1826 -0.3912
    6TMC3    O114247   1.958   0.350  11.056  0.3210 -0.8225 -0.0345
    6TMC3    O214248   1.625   4.674  10.721  0.4778  0.2236 -0.1040
    7MPD2     C14249   2.191   0.858  11.640  0.7475  0.0674  0.0205
    7MPD2    C114250   2.313   0.884  11.581 -0.5812  0.2258  0.4997
    7MPD2    C214251   2.353   1.021  11.576  0.2550  0.8473 -1.4163
    7MPD2    C314252   2.279   1.127  11.625  0.0708 -0.1047 -0.2515
    7MPD2    C414253   2.162   1.090  11.685 -0.4144  0.0232 -0.3785
    7MPD2    C514254   2.120   0.961  11.689  0.1605  0.4385 -0.5016
    7MPD2     H14255   2.447   1.056  11.535  0.2824  1.6760 -0.6337
    7MPD2    H114256   2.103   1.160  11.742 -1.6440 -0.9690 -0.4428
    7MPD2    H214257   2.156   0.756  11.644 -1.8912  0.9516 -0.6865
    7MPD2    H314258   2.022   0.942  11.732 -0.0478  1.5865 -0.4541
    7MPD2     N14259   2.312   1.266  11.625 -0.4947  0.4931 -0.3812
    7MPD2    H514260   2.258   1.323  11.688 -0.7973 -2.5182  2.0571
    7MPD2    N114261   2.396   0.780  11.528 -0.0369 -0.3997  0.3484
    7MPD2    H714262   2.367   0.683  11.540 -0.3480 -0.1593  1.5361
    8TMC3    C114263   2.564   0.690  11.376  0.1113  0.3352  0.1443
    8TMC3    C214264   2.470   0.611  11.317  0.1397 -0.2413  0.2570
    8TMC3    C314265   2.509   0.550  11.203  0.7890 -0.0350  0.8098
    8TMC3    C414266   2.691   0.708  11.322 -0.4901 -0.2067  0.1254
    8TMC3    C514267   2.721   0.658  11.200 -0.0779  0.1656  0.7892
    8TMC3    C614268   2.636   0.569  11.146 -0.1623 -0.1858  0.3216
    8TMC3     C14269   2.514   0.803  11.460 -0.4834 -0.0951  0.4392
    8TMC3     O14270   2.581   0.905  11.442  0.5572  0.4443 -0.3273
    8TMC3     H14271   2.365   0.607  11.344 -0.1015 -1.4215 -0.8464
    8TMC3    H114272   2.758   0.773  11.377 -0.3545 -0.8034  0.6709
    8TMC3    H214273   2.664   0.519  11.054  0.6072 -0.1405  0.5283
    8TMC3    C714274   2.725   0.770  11.105 -0.6640  0.1529 -0.6409
    8TMC3    C814275   2.399   0.478  11.135 -0.5236 -0.2259 -0.6015
    8TMC3    O114276   2.722   0.749  10.983  0.1286 -0.4519  0.1193
    8TMC3    O214277   2.285   0.501  11.174  0.0051 -0.2256 -0.1857
    9MPD2     C14278   2.439   0.192  10.923  0.4238 -0.3658  0.5728
    9MPD2    C114279   2.367   0.290  10.984  0.4742  0.7742  0.5624
    9MPD2    C214280   2.230   0.284  10.993  0.4259 -0.8869  0.0765
    9MPD2    C314281   2.154   0.177  10.932 -0.0362 -0.4053 -0.8746
    9MPD2    C414282   2.232   0.071  10.878  0.3919  0.4923  0.1048
    9MPD2    C514283   2.369   0.079  10.877  0.6160 -0.7529  0.1577
    9MPD2     H14284   2.174   0.367  11.036  0.5921 -0.8912  0.3002
    9MPD2    H114285   2.192   4.714  10.831 -1.2349  0.9707  0.6150
    9MPD2    H214286   2.544   0.204  10.902 -0.2395  1.2376 -1.8126
    9MPD2    H314287   2.421   4.729  10.831  2.2766  1.7313 -2.4628
    9MPD2     N14288   2.019   0.158  10.945 -0.0221 -0.1126  0.1263
    9MPD2    H514289   1.987   0.070  10.907  1.5660 -1.0324  0.9073
    9MPD2    N114290   2.445   0.387  11.043 -0.0992 -0.2784 -0.1475
    9MPD2    H714291   2.544   0.386  11.023 -0.2460 -0.7382 -0.8361
    1MPD1     C14292   1.392   2.611  15.276  0.5376 -0.6388 -0.5340
    1MPD1    C114293   1.323   2.625  15.389 -0.3079  0.0666  0.5767
    1MPD1    C214294   1.353   2.734  15.473 -0.0586 -0.2119  0.0863
    1MPD1    C314295   1.435   2.835  15.427 -0.5967 -0.6643 -0.8219
    1MPD1    C414296   1.499   2.820  15.301  0.5095 -0.1736  0.2181
    1MPD1    C514297   1.486   2.701  15.236 -0.2973 -0.4156 -0.6082
    1MPD1     H14298   1.305   2.732  15.570  1.3396 -2.0243  0.7436
    1MPD1    H114299   1.581   2.881  15.267  1.4228 -0.2164  2.3573
    1MPD1    H214300   1.377   2.527  15.210  0.0101  1.1986 -2.7668
    1MPD1    H314301   1.549   2.689  15.149  0.2474 -1.2974 -0.0926
    1MPD1     N14302   1.461   2.960  15.496 -0.7130  0.3253  0.1098
    1MPD1    H514303   1.525   3.030  15.459  1.0038 -1.8836 -1.0964
    1MPD1    N114304   1.240   2.526  15.441  0.3110 -1.0022 -0.4607
    1MPD1    H614305   1.170   2.502  15.371 -1.5512 -0.8771  1.3564
    1MPD1    H714306   1.185   2.550  15.524  0.0773 -0.0576 -0.8931
    2TMC2    C114307   1.473   3.353  15.604 -1.4783 -0.4114  1.0116
    2TMC2    C214308   1.465   3.380  15.739 -0.0505 -0.9820 -0.2587
    2TMC2    C314309   1.478   3.276  15.825 -0.3781  0.2920  0.3112
    2TMC2    C414310   1.459   3.226  15.553  0.4762  0.1917  0.3446
    2TMC2    C514311   1.458   3.132  15.655 -0.9175  0.4937  0.3003
    2TMC2    C614312   1.471   3.148  15.792 -0.1489 -0.4503 -0.8238
    2TMC2     C14313   1.475   3.459  15.515  0.8823  0.0244  0.5473
    2TMC2     O14314   1.502   3.439  15.398 -0.0873  0.0097 -0.1404
    2TMC2     H14315   1.485   3.481  15.772 -0.1836 -1.4116  1.1125
    2TMC2    H114316   1.439   3.211  15.448  0.5275  0.2260  0.3296
    2TMC2    H214317   1.467   3.069  15.865 -0.7511  0.5230  0.2040
    2TMC2    C714318   1.421   2.995  15.628 -0.0391  0.5068 -0.0672
    2TMC2    C814319   1.518   3.289  15.962  0.2801  0.5597 -0.2706
    2TMC2    O114320   1.372   2.924  15.715  0.6915  0.2214  0.3455
    2TMC2    O214321   1.568   3.199  16.028 -0.6774  0.1032 -0.0142
    2TMC2    O514322   1.469   3.411  16.001 -0.3038 -0.2156  0.3762
    2TMC2    H514323   1.416   3.459  15.933  0.2072  0.9489  0.8035
    3MPD1     C14324   1.352   3.939  15.361  1.1742 -0.5217  0.5117
    3MPD1    C114325   1.342   3.932  15.496  0.1073  0.2056 -0.3424
    3MPD1    C214326   1.364   3.809  15.563  0.0462 -0.1631  0.1352
    3MPD1    C314327   1.403   3.697  15.492 -0.4744 -0.0485  0.2849
    3MPD1    C414328   1.436   3.713  15.355  0.3952  0.4652  0.0023
    3MPD1    C514329   1.408   3.834  15.293  0.0940 -0.1740  0.5938
    3MPD1     H14330   1.361   3.811  15.671 -0.6426  0.0630  0.1124
    3MPD1    H114331   1.470   3.628  15.298  1.5456 -0.6490  2.3448
    3MPD1    H214332   1.330   4.035  15.316  0.9177 -1.3341 -1.1186
    3MPD1    H314333   1.424   3.841  15.186 -1.8763 -3.6892  0.0685
    3MPD1     N14334   1.430   3.580  15.562  0.1386 -0.1560  0.4692
    3MPD1    H514335   1.430   3.591  15.663  1.4003 -2.2505  0.7063
    3MPD1    N114336   1.292   4.042  15.561  0.1655  0.2898  0.1566
    3MPD1    H614337   1.321   4.130  15.518  0.2695  1.2645  2.2410
    3MPD1    H714338   1.340   4.049  15.651  0.6111  0.7884 -0.1148
    1TMC1    C114339   4.527   2.784  13.828  0.4226 -0.2302  0.1819
    1TMC1    C214340   4.447   2.825  13.722  0.4354 -0.6795  0.6828
    1TMC1    C314341   4.319   2.853  13.751  0.5810 -0.1921 -0.2405
    1TMC1    C414342   4.490   2.806  13.958  0.5852 -0.1417  0.2503
    1TMC1    C514343   4.363   2.852  13.984 -0.1166 -0.3108 -0.5224
    1TMC1    C614344   4.277   2.873  13.878 -0.2888  0.7617 -0.0455
    1TMC1     C14345   4.626   2.693  13.793  0.9025  0.0799  0.8423
    1TMC1     O14346   4.624   2.645  13.682  0.2424  0.3509  0.0207
    1TMC1     H14347   4.454   2.803  13.616 -1.0080 -1.5460  0.7631
    1TMC1    H114348   4.542   2.756  14.039  2.1778  1.8455  0.4499
    1TMC1    H214349   4.174   2.906  13.891  0.1405  1.5091  1.4846
    1TMC1    C714350   4.321   2.809  14.104 -0.6933 -0.2023 -0.0526
    1TMC1    C814351   4.234   2.896  13.641  0.0979  0.1095 -0.0349
    1TMC1    O114352   4.344   2.695  14.137 -0.2363  0.1477 -0.4971
    1TMC1    O214353   4.229   2.824  13.541  0.3840  0.5402 -0.0510
    1TMC1    O314354   4.226   2.887  14.151 -0.0132  0.1034  0.1232
    1TMC1    H314355   4.222   2.977  14.113 -0.7218  0.2004  0.4277
    1TMC1    O514356   4.257   3.028  13.630  0.0098 -0.0918 -0.4654
    1TMC1    H514357   4.315   3.055  13.705  0.0519  0.0261 -0.5413
    2MPD2     C14358   0.147   2.543  13.767 -0.5543 -0.0256 -0.3383
    2MPD2    C114359   0.115   2.622  13.874  0.1005 -0.3912  0.2242
    2MPD2    C214360   0.198   2.625  13.985  0.3983 -0.0826 -0.4604
    2MPD2    C314361   0.315   2.562  13.981  0.7015  0.1534 -0.3342
    2MPD2    C414362   0.357   2.488  13.870  0.0768 -0.0455 -0.5290
    2MPD2    C514363   0.269   2.483  13.764  0.1914  0.2982 -0.2988
    2MPD2     H14364   0.170   2.682  14.073  0.3107 -0.3789 -0.2987
    2MPD2    H114365   0.448   2.430  13.860  0.5858  0.8089 -0.9325
    2MPD2    H214366   0.079   2.519  13.686  0.5396  0.3467 -1.3572
    2MPD2    H314367   0.306   2.425  13.681  0.8289  1.2238 -0.6599
    2MPD2     N14368   0.400   2.559  14.097  0.5060  0.3192 -0.7077
    2MPD2    H514369   0.356   2.568  14.188  0.9974  1.3635 -0.5757
    2MPD2    N114370   4.724   2.694  13.886  0.5443 -0.1566  0.5766
    2MPD2    H714371   4.711   2.731  13.979 -1.9724  0.6584 -0.1133
    3TCq1    O114372   0.328   2.332  14.528  0.5318 -0.5823  0.0096
    3TCq1    C114373   0.455   2.291  14.523 -0.0807  0.3626  0.1255
    3TCq1    O214374   0.506   2.184  14.544 -0.4296  0.1111  0.3980
    3TCq1    C214375   0.525   2.401  14.451  0.2239 -0.0365  0.6089
    3TCq1    C314376   0.641   2.453  14.497  0.1456  1.0846  0.5068
    3TCq1    C414377   0.719   2.530  14.409  0.2045 -0.2362  0.1391
    3TCq1    C514378   0.693   2.539  14.276  0.9694  0.5274 -0.3107
    3TCq1    C614379   0.575   2.488  14.235 -0.0795  0.2007 -0.1584
    3TCq1    C714380   0.496   2.409  14.314  1.0512 -0.5859 -0.2234
    3TCq1    C814381   0.529   2.512  14.098 -0.4080 -0.6245  0.1351
    3TCq1    O414382   0.611   2.502  14.007 -0.1047 -0.0224 -0.0768
    3TCq1    C914383   0.838   2.588  14.453  0.3467  0.1480 -1.1088
    3TCq1    O514384   0.879   2.546  14.566  0.3829 -0.1979  0.1703
    3TCq1    O614385   0.857   2.709  14.419  0.0511 -0.4446 -0.0273
    3TCq1    H114386   0.316   2.428  14.540  2.2119 -0.6910  2.6479
    3TCq1    H214387   0.658   2.450  14.604 -2.0049  2.0306  0.8621
    3TCq1    H314388   0.752   2.592  14.201  0.8706  1.4948  0.2944
    3TCq1    H414389   0.414   2.349  14.275  0.9381 -0.7887  0.3239
    1MPD2     C14390   3.782   3.732  15.049 -0.0693  0.0025 -0.1618
    1MPD2    C114391   3.668   3.717  14.984 -0.0508 -0.2569 -0.0823
    1MPD2    C214392   3.582   3.611  15.015 -0.2893 -0.6611  0.2765
    1MPD2    C314393   3.600   3.522  15.125  0.6642 -1.1959 -0.7947
    1MPD2    C414394   3.720   3.537  15.187  0.3278 -0.8185  0.3784
    1MPD2    C514395   3.805   3.644  15.151  0.0828 -0.1784  0.0872
    1MPD2     H14396   3.499   3.605  14.947  0.6328 -1.8957 -0.7457
    1MPD2    H114397   3.746   3.466  15.265 -0.0223 -2.1153 -0.7080
    1MPD2    H214398   3.852   3.812  15.025  0.8618 -0.2409  1.7122
    1MPD2    H314399   3.891   3.659  15.215 -1.0773 -1.6723  1.9932
    1MPD2     N14400   3.501   3.429  15.166  0.6909 -0.0079  0.3843
    1MPD2    H514401   3.522   3.376  15.250 -0.9784  0.3026  0.9906
    1MPD2    N114402   3.619   3.796  14.874 -0.5784 -0.1785  0.3671
    1MPD2    H714403   3.528   3.768  14.838 -0.4411  0.1935 -0.2635
    2TMC3    C114404   3.568   3.977  14.735 -0.5615  0.6811 -0.3059
    2TMC3    C214405   3.438   3.925  14.731 -0.5651  0.1169 -0.0573
    2TMC3    C314406   3.354   3.966  14.625 -0.4430 -0.4214  0.3503
    2TMC3    C414407   3.613   4.076  14.645 -0.0378  0.1571 -0.2103
    2TMC3    C514408   3.528   4.112  14.550  0.4244  0.0603  0.0821
    2TMC3    C614409   3.402   4.060  14.528  0.0759  0.1376  0.8884
    2TMC3     C14410   3.663   3.913  14.827  0.3587  0.2313 -0.1258
    2TMC3     O14411   3.754   3.981  14.865 -0.2458  0.0662 -0.0031
    2TMC3     H14412   3.382   3.881  14.812 -1.8012 -1.3576 -1.7099
    2TMC3    H114413   3.717   4.108  14.652 -0.2994  0.8540  0.3374
    2TMC3    H214414   3.341   4.094  14.445  1.6301 -1.7586 -1.0339
    2TMC3    C714415   3.559   4.244  14.489  0.6882 -0.4794 -0.4358
    2TMC3    C814416   3.218   3.921  14.616 -0.0865  0.4507  0.4003
    2TMC3    O114417   3.459   4.301  14.446 -0.3291  0.3178 -0.2412
    2TMC3    O214418   3.140   3.993  14.552 -0.9492  0.0162  0.2837
    3TCq1    O114419   4.416   4.319  14.636  0.6106 -0.1830 -0.2435
    3TCq1    C114420   4.496   4.426  14.660 -0.3965 -0.2825  0.6166
    3TCq1    O214421   4.617   4.418  14.693  0.3944 -0.3594 -0.1474
    3TCq1    C214422   4.454   4.531  14.568  0.6974 -1.0663  0.3416
    3TCq1    C314423   4.555   4.588  14.493 -0.5329  0.0532 -0.4346
    3TCq1    C414424   4.526   4.680  14.396  0.3864  0.6653  0.9622
    3TCq1    C514425   4.389   4.710  14.371  0.3324 -0.5290  0.0507
    3TCq1    C614426   4.288   4.643  14.448 -0.0793 -0.3445 -0.2869
    3TCq1    C714427   4.321   4.549  14.546  0.0112  0.5884  0.3347
    3TCq1    C814428   4.151   4.678  14.433  0.5022  0.0251 -0.3736
    3TCq1    O414429   4.114   0.039  14.363  0.0364  0.1171 -1.0410
    3TCq1    C914430   4.630   0.004  14.313  0.7855  0.0161  0.0136
    3TCq1    O514431   0.018   4.692  14.323  0.4657 -0.8233 -0.1448
    3TCq1    O614432   4.587   0.068  14.216  0.1595  0.1476  0.4470
    3TCq1    H114433   4.342   4.327  14.571  0.9968  0.7899 -0.5522
    3TCq1    H214434   4.658   4.561  14.512 -0.2967  1.5481  0.3423
    3TCq1    H314435   4.360   0.056  14.303  4.0838  2.2042  1.6158
    3TCq1    H414436   4.252   4.522  14.625 -0.9923  1.6367 -0.1847
    4MPD2     C14437   3.853   4.654  14.399  0.3146 -0.2049  0.3157
    4MPD2    C114438   3.939   4.552  14.448 -0.4644 -0.0073  0.0033
    4MPD2    C214439   3.883   4.434  14.484 -0.1917  0.4043  0.4944
    4MPD2    C314440   3.752   4.404  14.457 -0.2119  0.5635 -0.2005
    4MPD2    C414441   3.678   4.505  14.398 -0.6908  0.2598 -0.7211
    4MPD2    C514442   3.719   4.631  14.375 -0.2761 -0.5712  1.0646
    4MPD2     H14443   3.947   4.357  14.527 -1.9163 -1.2458  0.1185
    4MPD2    H114444   3.577   4.488  14.363 -1.3968  0.7859  1.0622
    4MPD2    H214445   3.873   0.017  14.350 -2.4630 -0.0064 -0.4286
    4MPD2    H314446   3.648   4.697  14.324  0.8503  0.2989  0.6285
    4MPD2     N14447   3.693   4.284  14.502  0.6134  0.0934  0.1462
    4MPD2    H514448   3.754   4.213  14.541 -1.0924 -1.0090  0.7775
    4MPD2    N114449   4.078   4.569  14.470  0.3227 -0.5735  0.3150
    4MPD2    H714450   4.136   4.493  14.505  0.4140 -1.0429 -0.8445
    5TMC2    C114451   3.060   3.295  15.100 -0.3993  0.1665  0.3647
    5TMC2    C214452   3.030   3.300  15.237 -0.5620  0.5932  0.1343
    5TMC2    C314453   3.128   3.315  15.331  0.1297  0.3315 -0.2050
    5TMC2    C414454   3.193   3.295  15.061  0.5505 -0.0654  0.3049
    5TMC2    C514455   3.287   3.326  15.158  0.4282 -0.3075  0.1219
    5TMC2    C614456   3.256   3.346  15.291 -0.3395  0.4184  0.7919
    5TMC2     C14457   2.972   3.366  15.009 -0.4247  1.0264  0.1385
    5TMC2     O14458   2.852   3.379  15.029  0.8523  0.5363 -0.1602
    5TMC2     H14459   2.929   3.279  15.269 -0.4464 -0.6987 -0.3828
    5TMC2    H114460   3.214   3.271  14.957  1.2225 -0.9602  0.6491
    5TMC2    H214461   3.336   3.376  15.358  0.1293  2.6340 -0.7433
    5TMC2    C714462   3.390   3.395  15.092 -0.1858  0.4350  0.6263
    5TMC2    C814463   3.118   3.272  15.472 -0.7251  0.7822 -0.0578
    5TMC2    O114464   3.363   3.431  14.976 -0.1501 -0.8348  0.2502
    5TMC2    O214465   3.215   3.289  15.543 -0.3203 -0.4825 -0.1700
    5TMC2    O514466   3.071   3.150  15.468  0.2832  0.0444  0.1497
    5TMC2    H514467   3.011   3.131  15.393  0.2921 -2.0980  0.6764
    6MPD2     C14468   2.956   3.745  14.672 -0.1780  0.0572 -0.2072
    6MPD2    C114469   3.087   3.725  14.714  0.9085 -0.2374 -0.0588
    6MPD2    C214470   3.114   3.611  14.783 -0.4381 -1.0048  0.0228
    6MPD2    C314471   3.009   3.537  14.832 -0.1121  0.3681 -0.1286
    6MPD2    C414472   2.880   3.561  14.799  0.4271 -0.3241  0.0960
    6MPD2    C514473   2.856   3.659  14.708  0.4178 -0.3130  0.4378
    6MPD2     H14474   3.216   3.596  14.819  0.4012  1.3397 -1.3492
    6MPD2    H114475   2.799   3.506  14.847  1.6507 -1.8910  0.3452
    6MPD2    H214476   2.933   3.832  14.612 -0.1682  0.2349  0.0489
    6MPD2    H314477   2.751   3.676  14.687  0.2652  1.4186  2.5557
    6MPD2     N14478   3.053   3.447  14.933 -0.4185 -0.2657  0.0163
    6MPD2    H514479   3.153   3.447  14.952 -0.7497 -0.7114  1.8394
    6MPD2    N114480   3.202   3.795  14.677 -0.6168 -0.1058  0.3124
    6MPD2    H714481   3.285   3.741  14.699 -0.4484  0.8509  2.0487
  945NH3     N114482   2.485   4.622   8.095 -0.1990 -0.5857  0.1194
  945NH3     H214483   2.460   4.715   8.127  1.6558 -0.1158  0.1887
  945NH3     H314484   2.403   4.565   8.113  0.2056 -0.7529  1.4184
  945NH3     H414485   2.553   4.581   8.158  0.6509 -0.1595 -0.5315
  946SOD     NA14486   0.852   1.578  16.641 -0.1917 -0.1314  0.9194
  947SOD     NA14487   0.325   3.367  12.318  0.1843 -0.3259 -0.4509
  948SOD     NA14488   2.921   4.435   8.627 -0.1223  0.2779 -0.0632
  949SOD     NA14489   1.354   0.138  14.688 -0.4732  0.0593  0.0196
  950SOD     NA14490   3.137   3.334  10.150  0.2564  0.0308  0.5618
  951SOD     NA14491   3.701   0.865   4.779  0.2579  0.5931  0.1684
  952SOD     NA14492   0.933   2.213  13.434  0.3612 -0.2048 -0.0766
  953SOD     NA14493   1.948   3.039   3.629 -0.3098 -0.1312  0.1396
  954SOL     OW14494   4.622   2.526  13.448  0.1232 -0.1617  0.2167
  954SOL    HW114495   4.622   2.552  13.540  0.2346  0.6736 -0.0187
  954SOL    HW214496   4.551   2.581  13.413  0.1205 -1.0314 -1.1582
  955SOL     OW14497   3.542   1.678   2.904 -0.8764  0.4418  0.1998
  955SOL    HW114498   3.560   1.610   2.839 -1.0605 -0.0847  0.6995
  955SOL    HW214499   3.485   1.743   2.862  0.2954  0.0924 -1.9775
  956SOL     OW14500   1.258   4.662   7.895  0.2771  0.3572 -0.0355
  956SOL    HW114501   1.174   4.647   7.853  0.8211 -1.3567 -0.5117
  956SOL    HW214502   1.236   4.708   7.976 -0.3684  0.6237 -0.3597
  957SOL     OW14503   1.429   4.717   7.359 -0.2101 -0.0693 -0.5870
  957SOL    HW114504   1.448   0.002   7.451  1.2074  0.0189 -0.8895
  957SOL    HW214505   1.402   0.069   7.321  1.2197  0.8261  0.3992
  958SOL     OW14506   2.819   2.939  12.486 -0.6613 -0.1571 -0.2466
  958SOL    HW114507   2.844   3.029  12.467 -1.4899  0.2441  0.5658
  958SOL    HW214508   2.767   2.918  12.409 -2.0830  0.3705  0.5764
  959SOL     OW14509   1.989   0.043  10.671 -0.3357  0.0254  0.2797
  959SOL    HW114510   2.012   0.101  10.597  1.4372 -1.9630 -0.7216
  959SOL    HW214511   2.043   4.700  10.650  0.4572  0.7621 -0.3715
  960SOL     OW14512   3.551   3.715   9.178  0.4527 -0.1721  0.9949
  960SOL    HW114513   3.589   3.802   9.188  0.9364 -0.2610 -0.1368
  960SOL    HW214514   3.563   3.677   9.266 -3.8917  1.0649  2.1660
  961SOL     OW14515   2.013   2.419   6.669 -0.1189 -0.1378 -0.3656
  961SOL    HW114516   2.085   2.399   6.730  0.0625 -1.8783 -1.1580
  961SOL    HW214517   1.944   2.382   6.724 -0.7901  0.3476 -0.8859
  962SOL     OW14518   0.996   2.793  14.917  0.5693 -0.0882 -0.4349
  962SOL    HW114519   1.020   2.833  14.833 -0.2451  0.5888 -0.3466
  962SOL    HW214520   0.905   2.770  14.899  1.1228 -3.6303  1.3549
  963SOL     OW14521   0.320   1.875   3.071  0.4611 -0.0647  0.4292
  963SOL    HW114522   0.328   1.814   2.998  3.0593  0.1514  0.5187
  963SOL    HW214523   0.387   1.940   3.048  0.3646 -0.7342 -1.7139
  964SOL     OW14524   1.387   2.829   7.115  0.5661  0.4067  0.4880
  964SOL    HW114525   1.391   2.829   7.210 -2.2913 -0.6104  0.6050
  964SOL    HW214526   1.471   2.868   7.090 -0.6147  0.3755 -3.6277
  965SOL     OW14527   3.447   4.716   3.124  0.0980  0.3747 -0.2505
  965SOL    HW114528   3.383   4.645   3.135  1.6380 -1.2129 -1.3852
  965SOL    HW214529   3.413   0.029   3.047 -0.6027 -0.7229 -0.6027
  966SOL     OW14530   2.724   2.194  16.496  0.1087 -0.3376  0.5023
  966SOL    HW114531   2.673   2.148  16.563 -0.1416 -1.4447 -0.4623
  966SOL    HW214532   2.732   2.116  16.441  0.3893  0.3974 -0.4953
  967SOL     OW14533   2.854   0.851   3.078  0.3487 -0.6918 -0.4595
  967SOL    HW114534   2.882   0.849   2.987  1.8349 -1.7430  0.0177
  967SOL    HW214535   2.812   0.766   3.094 -1.3053  0.1890 -0.1172
  968SOL     OW14536   0.640   0.053   0.628 -0.5797 -0.2132 -0.4773
  968SOL    HW114537   0.735   0.046   0.637 -0.5966 -0.1575 -0.2637
  968SOL    HW214538   0.624   4.692   0.611 -1.4911 -0.3432  1.2013
  969SOL     OW14539   3.864   3.391   7.726 -0.0953 -0.4041  0.6982
  969SOL    HW114540   3.948   3.435   7.716 -0.9572  0.5364 -2.2255
  969SOL    HW214541   3.845   3.394   7.820 -0.9833  0.3048  0.4998
  970SOL     OW14542   3.647   1.142   7.597  0.2464  0.3747  1.3224
  970SOL    HW114543   3.668   1.050   7.580 -1.9142  0.1809 -0.2934
  970SOL    HW214544   3.717   1.163   7.658  1.3189  0.8713 -0.0768
  971SOL     OW14545   3.465   2.220  16.908 -0.1611 -0.1527  0.6728
  971SOL    HW114546   3.449   2.307  16.946  0.9513 -0.4484  1.8302
  971SOL    HW214547   3.435   2.244  16.821  1.6400  1.4538  0.4737
  972SOL     OW14548   1.942   0.869   5.943 -0.8026 -0.5146  0.4910
  972SOL    HW114549   1.954   0.831   6.030 -1.8183  2.2806  1.8607
  972SOL    HW214550   1.879   0.809   5.903  0.3723  0.8488 -3.4302
  973SOL     OW14551   1.372   4.191   3.852 -0.1944 -0.2411 -0.2763
  973SOL    HW114552   1.334   4.120   3.800 -1.7552  0.1393  0.3337
  973SOL    HW214553   1.389   4.168   3.943  0.7021 -0.6408 -0.5473
  974SOL     OW14554   2.963   0.035  12.615  0.6362  0.0953 -0.1706
  974SOL    HW114555   2.873   0.037  12.647  0.7554 -4.2087  0.3849
  974SOL    HW214556   2.968   4.687  12.564  1.3760  0.0856 -0.0787
  975SOL     OW14557   2.919   2.703   6.256  0.2828 -0.3941 -0.4321
  975SOL    HW114558   2.960   2.620   6.281 -0.8885 -0.3701  1.6388
  975SOL    HW214559   2.992   2.761   6.235 -0.6725  1.4258  1.2583
  976SOL     OW14560   4.674   4.055   2.975  0.2397 -0.0154  0.0683
  976SOL    HW114561   4.717   3.971   2.989  0.3568  0.3449  1.8910
  976SOL    HW214562   0.025   4.102   2.982 -0.7558  2.0321 -1.6875
  977SOL     OW14563   3.909   0.285   7.047 -0.0258  0.5509 -0.6699
  977SOL    HW114564   3.968   0.337   6.992  0.0701  1.4186  0.2507
  977SOL    HW214565   3.957   0.203   7.058 -1.1818  0.2451  2.1401
  978SOL     OW14566   1.703   1.847   7.421  0.1739  0.0169  0.6819
  978SOL    HW114567   1.608   1.855   7.432  0.2568  0.5691  1.0303
  978SOL    HW214568   1.716   1.873   7.330  1.1725  0.5007  0.9574
  979SOL     OW14569   4.626   1.535  11.572 -0.1342 -0.1643 -0.3298
  979SOL    HW114570   4.704   1.568  11.617  0.8961  0.1209 -2.2916
  979SOL    HW214571   4.681   1.465  11.534 -1.0659  0.0839 -2.1589
  980SOL     OW14572   3.001   0.993  17.664 -0.3786 -0.0618  0.0268
  980SOL    HW114573   3.018   1.026   0.024 -1.5922 -0.4199  0.3906
  980SOL    HW214574   2.906   0.988  17.673 -0.4699  0.7403 -0.5381
  981SOL     OW14575   1.163   2.534  10.235  0.2397 -0.7307 -0.3697
  981SOL    HW114576   1.079   2.518  10.280  0.6518 -0.8895  0.3429
  981SOL    HW214577   1.173   2.628  10.247  0.9683 -0.7905 -0.5187
  982SOL     OW14578   1.418   0.524  15.640 -0.3336  0.5038  0.1052
  982SOL    HW114579   1.492   0.478  15.598 -1.0310 -2.0766  1.7121
  982SOL    HW214580   1.415   0.489  15.729  0.9466  0.2614  0.0599
  983SOL     OW14581   0.766   2.038  13.407 -0.0178  0.5261 -0.2506
  983SOL    HW114582   0.788   1.946  13.423  1.3550  0.8039 -0.5239
  983SOL    HW214583   0.695   2.021  13.345  0.2904  0.3596 -0.5631
  984SOL     OW14584   1.481   0.475   8.002  0.1147 -0.1596  0.4066
  984SOL    HW114585   1.479   0.519   8.087 -1.0049  0.6152 -0.0103
  984SOL    HW214586   1.512   0.544   7.944  1.6021 -1.2959 -0.1530
  985SOL     OW14587   2.573   0.554   1.720 -0.1714  0.4773  0.1069
  985SOL    HW114588   2.597   0.622   1.656 -2.2807 -1.3098 -2.5985
  985SOL    HW214589   2.564   0.471   1.673  1.8360  0.0407  0.4841
  986SOL     OW14590   2.309   4.502   7.646  0.0968 -0.5527 -0.0756
  986SOL    HW114591   2.267   4.443   7.583  0.7977 -2.7211  1.4575
  986SOL    HW214592   2.347   4.561   7.581 -0.3454  0.7799  0.8760
  987SOL     OW14593   3.486   1.870  11.943 -1.3461  0.2217 -0.1225
  987SOL    HW114594   3.497   1.785  11.900  2.3071  0.9053 -0.4955
  987SOL    HW214595   3.551   1.927  11.903 -0.0749  0.4255  2.2740
  988SOL     OW14596   4.108   2.610  10.761  0.0010  0.3354 -0.0796
  988SOL    HW114597   4.167   2.637  10.831 -0.0505 -0.8114  0.4061
  988SOL    HW214598   4.047   2.683  10.772 -0.6990 -0.3519  0.5893
  989SOL     OW14599   4.347   1.896  13.198 -0.5853 -0.1106 -0.0157
  989SOL    HW114600   4.377   1.951  13.272  0.7980  0.2535 -0.8331
  989SOL    HW214601   4.257   1.927  13.191 -0.1871  0.5331 -2.2550
  990SOL     OW14602   2.215   2.886   9.810  0.0364  0.7945  0.3967
  990SOL    HW114603   2.121   2.890   9.792 -0.3595  0.7768  2.4795
  990SOL    HW214604   2.226   2.981   9.812  0.1063  0.8766 -3.7472
  991SOL     OW14605   0.793   2.418   3.040  0.4021 -0.0115  0.0821
  991SOL    HW114606   0.790   2.456   2.952 -1.7824  0.3501  0.3015
  991SOL    HW214607   0.714   2.364   3.031  1.0320 -0.8689 -0.2533
  992SOL     OW14608   1.089   3.284   2.560 -0.0442  0.1678  0.1584
  992SOL    HW114609   1.177   3.322   2.561 -0.5486  1.3545 -2.3275
  992SOL    HW214610   1.051   3.337   2.630 -0.2890  1.0062 -0.6145
  993SOL     OW14611   0.807   3.797   5.955  0.0197 -0.3662 -0.2444
  993SOL    HW114612   0.872   3.824   5.890  0.7282 -0.6025  0.3644
  993SOL    HW214613   0.739   3.798   5.888 -1.7887  0.1369  1.6136
  994SOL     OW14614   4.584   2.396  15.414  0.2633  0.1926  0.3616
  994SOL    HW114615   4.664   2.369  15.368  0.0962  1.0222 -0.4061
  994SOL    HW214616   4.582   2.482  15.373 -0.5380 -0.1205 -0.2553
  995SOL     OW14617   1.921   4.061   5.061  0.4751  0.4561  0.6033
  995SOL    HW114618   1.831   4.062   5.029  0.4491 -1.9767  0.6150
  995SOL    HW214619   1.916   4.150   5.097  1.3200  0.7389  0.0244
  996SOL     OW14620   1.398   0.135   0.543  0.2468  0.2560 -0.4190
  996SOL    HW114621   1.392   0.223   0.506  0.2158  0.8503  1.0001
  996SOL    HW214622   1.327   0.091   0.496 -0.5377 -0.0445  1.0568
  997SOL     OW14623   0.005   3.894   4.707  0.4963  0.2675 -0.6356
  997SOL    HW114624   0.063   3.817   4.706 -0.5534 -0.5346  0.4493
  997SOL    HW214625   0.068   3.965   4.719 -0.7823  1.2294  0.2681
  998SOL     OW14626   2.082   2.059  15.416  0.5945 -0.3011 -0.2590
  998SOL    HW114627   2.083   1.964  15.432  0.5620 -0.2252  0.1896
  998SOL    HW214628   2.048   2.063  15.327  1.8512 -0.0595 -0.7302
  999SOL     OW14629   2.682   0.964   3.842  0.0236 -0.5968  0.0758
  999SOL    HW114630   2.652   0.879   3.809  4.4116 -1.7770 -0.8530
  999SOL    HW214631   2.644   0.962   3.930 -1.1162 -1.7548 -0.4380
 1000SOL     OW14632   2.676   3.100  17.515 -0.2593  0.4492  0.4828
 1000SOL    HW114633   2.611   3.110  17.445  0.3790  4.2666  0.4191
 1000SOL    HW214634   2.759   3.096  17.468  0.3164 -0.9407  1.6370
 1001SOL     OW14635   2.649   1.030   1.511  0.3463  0.6542  0.9594
 1001SOL    HW114636   2.556   1.012   1.525  0.3381  0.6958  0.9569
 1001SOL    HW214637   2.688   0.947   1.483  0.2984  0.6934  0.7785
 1002SOL     OW14638   0.572   1.119   7.319  0.3619 -0.3215  0.2667
 1002SOL    HW114639   0.644   1.108   7.380  1.2969  1.7790 -0.4539
 1002SOL    HW214640   0.535   1.203   7.348  2.0651  0.8287 -0.8797
 1003SOL     OW14641   1.322   2.525  17.282 -0.1190  0.2625  0.0316
 1003SOL    HW114642   1.393   2.571  17.239  1.3632 -0.9119  1.2225
 1003SOL    HW214643   1.304   2.447  17.229  0.3819 -0.4399  0.8970
 1004SOL     OW14644   1.146   3.113  15.461  0.5630 -0.0276  0.1879
 1004SOL    HW114645   1.135   3.026  15.423 -2.1810  0.0861  0.7254
 1004SOL    HW214646   1.061   3.143  15.491 -0.2408 -1.5652 -0.5447
 1005SOL     OW14647   0.805   3.796  16.949  0.6138 -0.4676 -0.1673
 1005SOL    HW114648   0.753   3.765  17.022 -3.2437  1.6258 -2.0441
 1005SOL    HW214649   0.886   3.748  16.968  0.7796  0.0590  0.4447
 1006SOL     OW14650   2.168   0.116  17.116 -0.1102  0.4236 -0.2162
 1006SOL    HW114651   2.251   0.146  17.153  0.4537 -2.6537  1.0500
 1006SOL    HW214652   2.204   0.032  17.088 -0.8773 -0.5297  1.6808
 1007SOL     OW14653   4.604   3.719   3.584 -0.1414  0.1176  0.1231
 1007SOL    HW114654   4.688   3.729   3.627  0.0928 -1.4444  0.0374
 1007SOL    HW214655   4.622   3.746   3.494  0.8966  0.1771  0.3511
 1008SOL     OW14656   0.331   3.058   9.259  0.3497  0.4836 -0.7979
 1008SOL    HW114657   0.290   2.972   9.266 -0.3927  0.8611 -0.5706
 1008SOL    HW214658   0.418   3.035   9.292  0.9583  0.9709 -2.0412
 1009SOL     OW14659   0.027   2.177  17.568 -1.1279  0.1495 -0.1916
 1009SOL    HW114660   0.020   2.105  17.630 -0.7705  0.7555  0.5627
 1009SOL    HW214661   4.668   2.195  17.550 -1.8159 -1.4853  1.6842
 1010SOL     OW14662   2.871   3.719   5.447 -0.3753  0.1556  0.6372
 1010SOL    HW114663   2.815   3.654   5.405  1.6370  0.7457 -2.9241
 1010SOL    HW214664   2.895   3.679   5.531 -1.0139 -1.7850 -0.1047
 1011SOL     OW14665   2.258   2.092  10.093  0.4949  0.3399 -0.2769
 1011SOL    HW114666   2.330   2.155  10.095 -0.5783  1.5667 -0.4206
 1011SOL    HW214667   2.299   2.009  10.120 -2.4407 -1.5513 -1.5549
 1012SOL     OW14668   2.755   4.113   1.695  0.0991  0.5010  0.1661
 1012SOL    HW114669   2.784   4.182   1.755 -0.0210 -0.7209  1.6264
 1012SOL    HW214670   2.838   4.092   1.652 -0.3972 -0.8639 -0.0996
 1013SOL     OW14671   2.171   0.792   1.447 -0.6983 -0.4330 -0.7319
 1013SOL    HW114672   2.201   0.792   1.356  1.2081 -1.1555 -0.1127
 1013SOL    HW214673   2.078   0.816   1.451 -0.3933  0.4272  1.0731
 1014SOL     OW14674   2.643   0.859   6.449  0.1539  0.2423 -0.1685
 1014SOL    HW114675   2.551   0.843   6.472  1.5724 -1.6086  4.1256
 1014SOL    HW214676   2.692   0.781   6.475 -0.1797 -0.1566 -0.7462
 1015SOL     OW14677   1.270   0.186   3.845  0.0990 -0.3878  0.2210
 1015SOL    HW114678   1.212   0.176   3.770  0.0952  1.7899 -0.0609
 1015SOL    HW214679   1.243   0.113   3.901  1.9020 -0.7016  0.6929
 1016SOL     OW14680   0.437   2.787  14.406 -0.0371 -0.1894  0.8044
 1016SOL    HW114681   0.363   2.746  14.362  1.9766 -0.6433 -2.2390
 1016SOL    HW214682   0.431   2.756  14.496  1.0023 -1.1069  0.5692
 1017SOL     OW14683   4.543   2.826   2.980 -0.1304  0.2478 -0.4874
 1017SOL    HW114684   4.560   2.884   2.906  2.4037 -1.7520 -1.5038
 1017SOL    HW214685   4.451   2.846   2.998  0.4944  0.2936  2.6993
 1018SOL     OW14686   3.803   4.278  15.824  0.4962  0.2932 -0.5617
 1018SOL    HW114687   3.760   4.197  15.796 -1.0552  1.1183 -0.5824
 1018SOL    HW214688   3.732   4.323  15.870  0.7500  0.9357 -0.7948
 1019SOL     OW14689   0.743   2.838   2.665  0.0618 -0.0884 -0.1344
 1019SOL    HW114690   0.815   2.787   2.701 -0.5041  0.9163  2.4326
 1019SOL    HW214691   0.783   2.871   2.584  2.1746 -1.0997  0.5186
 1020SOL     OW14692   0.104   2.617   7.053 -0.3144  0.4914 -0.4333
 1020SOL    HW114693   0.056   2.670   7.117 -0.9354 -1.1099  0.4124
 1020SOL    HW214694   0.052   2.537   7.055 -0.0517  0.2876 -2.1025
 1021SOL     OW14695   4.513   0.834  16.488  0.2289 -0.2279 -0.2751
 1021SOL    HW114696   4.535   0.899  16.555 -2.9343  1.5273 -0.9635
 1021SOL    HW214697   4.600   0.834  16.446  0.3721 -1.7424  0.0081
 1022SOL     OW14698   3.033   0.616   9.778 -0.2511 -0.0022 -0.5131
 1022SOL    HW114699   3.018   0.566   9.858  1.1768 -0.9069 -0.8220
 1022SOL    HW214700   3.119   0.648   9.803 -0.3997  1.0604 -1.3241
 1023SOL     OW14701   3.195   0.649   0.876 -0.0192 -0.0267  0.5301
 1023SOL    HW114702   3.211   0.589   0.949  0.8082 -2.8450 -1.9589
 1023SOL    HW214703   3.259   0.608   0.816 -0.6223  0.4767 -0.4613
 1024SOL     OW14704   2.000   4.532  12.773  0.0732  0.7005 -0.5305
 1024SOL    HW114705   2.081   4.482  12.764  0.7809  1.8249 -0.4342
 1024SOL    HW214706   1.954   4.481  12.706 -2.6310 -0.0913  1.9213
 1025SOL     OW14707   2.576   0.916   9.452  0.1973 -0.0761  0.1152
 1025SOL    HW114708   2.557   1.010   9.454  1.2743  0.1654 -1.0996
 1025SOL    HW214709   2.671   0.924   9.445  0.1334 -1.9684 -3.1657
 1026SOL     OW14710   0.454   1.123   1.029  1.0330  0.0795  0.2511
 1026SOL    HW114711   0.394   1.164   1.091  0.6625 -0.5693  0.3264
 1026SOL    HW214712   0.469   1.198   0.972  0.1450  1.5616  1.9401
 1027SOL     OW14713   0.298   0.069   4.093  0.1689 -0.2115  0.3704
 1027SOL    HW114714   0.218   0.027   4.061  0.9385 -0.4979 -1.1291
 1027SOL    HW214715   0.313   0.009   4.166 -0.0586 -0.4135  0.2501
 1028SOL     OW14716   2.264   0.619   8.376  0.1846  0.9062  0.1805
 1028SOL    HW114717   2.284   0.593   8.466 -1.1683 -0.5499  0.0761
 1028SOL    HW214718   2.194   0.683   8.386  0.8114  1.8919 -1.7736
 1029SOL     OW14719   1.218   0.853   2.782 -0.3930 -0.1283 -0.2099
 1029SOL    HW114720   1.185   0.920   2.722  1.9903  0.6722 -0.6121
 1029SOL    HW214721   1.179   0.892   2.860 -0.6779 -3.0393  1.0863
 1030SOL     OW14722   0.334   1.895   7.794 -0.3720 -0.0091  0.5211
 1030SOL    HW114723   0.379   1.904   7.710 -0.9438 -1.5307  0.0443
 1030SOL    HW214724   0.252   1.850   7.773  1.3955 -2.4558 -1.1279
 1031SOL     OW14725   1.110   1.829   8.208 -0.4340 -0.3207  0.0533
 1031SOL    HW114726   1.062   1.870   8.279  0.0470 -0.6713  0.5804
 1031SOL    HW214727   1.193   1.872   8.229  0.0027 -1.6301  1.0042
 1032SOL     OW14728   0.374   1.485   5.793  0.3467  0.3125  0.5847
 1032SOL    HW114729   0.295   1.432   5.804  0.4860  0.0330  0.2086
 1032SOL    HW214730   0.379   1.531   5.877  2.9659 -1.5857  1.4881
 1033SOL     OW14731   2.975   3.712   2.902  0.3507 -0.8360 -0.0642
 1033SOL    HW114732   3.059   3.726   2.858  0.8314 -1.6407  0.6028
 1033SOL    HW214733   2.951   3.629   2.861 -0.7662  0.0078 -1.1184
 1034SOL     OW14734   2.107   2.874  13.115 -0.0624  0.1950 -0.1435
 1034SOL    HW114735   2.031   2.870  13.173 -0.3882  0.1716 -0.5793
 1034SOL    HW214736   2.133   2.966  13.105  0.0156  0.1735 -0.1369
 1035SOL     OW14737   2.587   1.067   2.659  0.3569  0.0038  0.3033
 1035SOL    HW114738   2.564   1.040   2.570  1.3584  1.9192 -0.5440
 1035SOL    HW214739   2.682   1.058   2.669  0.5282 -0.2576 -1.4811
 1036SOL     OW14740   0.313   4.367  16.922 -0.0324  0.5620 -0.2776
 1036SOL    HW114741   0.345   4.441  16.870 -0.6879  1.2412  0.2877
 1036SOL    HW214742   0.260   4.317  16.861  0.1042  0.6638 -0.4804
 1037SOL     OW14743   3.379   3.368   4.989 -0.3459 -0.2368  0.3932
 1037SOL    HW114744   3.317   3.330   5.051 -1.5829  1.1792  0.0339
 1037SOL    HW214745   3.460   3.352   5.038 -0.3189 -0.6678  0.2017
 1038SOL     OW14746   1.072   1.749  10.456  0.2081  0.3258 -0.2188
 1038SOL    HW114747   1.089   1.798  10.536 -1.3316 -3.3477  2.3734
 1038SOL    HW214748   0.983   1.714  10.466 -0.7588  2.1573 -2.1987
 1039SOL     OW14749   4.426   0.013   3.255  0.8261  0.5451  0.1823
 1039SOL    HW114750   4.442   4.651   3.247  0.4791  0.5879 -0.9694
 1039SOL    HW214751   4.475   0.032   3.335  0.9361  0.3421  0.1641
 1040SOL     OW14752   0.772   2.147  16.747 -0.2266  0.3582 -0.1827
 1040SOL    HW114753   0.831   2.222  16.741  2.1033 -1.5171 -0.2944
 1040SOL    HW214754   0.821   2.069  16.723 -0.4019  0.0944  0.3189
 1041SOL     OW14755   2.089   3.159   2.240 -0.1373 -0.4168 -0.1674
 1041SOL    HW114756   2.157   3.176   2.304  1.1494 -2.5536 -0.9477
 1041SOL    HW214757   2.143   3.159   2.162  0.3689  0.8634  0.1873
 1042SOL     OW14758   2.758   0.804   0.375 -0.4881 -0.7415  0.3355
 1042SOL    HW114759   2.767   0.853   0.457 -1.2363  2.6639 -1.6001
 1042SOL    HW214760   2.699   0.735   0.405  0.1753 -0.9504  1.1708
 1043SOL     OW14761   2.591   1.116   6.530 -0.2222 -0.0042  0.1683
 1043SOL    HW114762   2.628   1.156   6.451 -0.5032  1.1042  0.6026
 1043SOL    HW214763   2.597   1.023   6.508 -1.5004 -0.5823  2.2567
 1044SOL     OW14764   3.057   0.412   4.477 -0.1892 -0.3303  0.2827
 1044SOL    HW114765   3.054   0.336   4.419  1.7974  1.8722 -2.7255
 1044SOL    HW214766   2.967   0.444   4.489  0.1295  0.4183  0.6943
 1045SOL     OW14767   0.519   1.386  17.464  0.6209  0.0864 -0.1783
 1045SOL    HW114768   0.595   1.330  17.448  1.1686  0.6019  0.6375
 1045SOL    HW214769   0.491   1.338  17.542  1.1303 -1.6804 -1.0794
 1046SOL     OW14770   3.964   2.229   6.540  0.0099  0.0163 -0.1494
 1046SOL    HW114771   3.929   2.140   6.534 -0.1276  0.0423  0.2568
 1046SOL    HW214772   3.990   2.214   6.631 -1.3979 -0.7058  0.1312
 1047SOL     OW14773   4.421   2.816   8.730  0.0735  0.0518 -0.1795
 1047SOL    HW114774   4.468   2.895   8.704 -1.9388  1.6067  0.9199
 1047SOL    HW214775   4.469   2.744   8.688 -2.1293 -1.2171 -0.5173
 1048SOL     OW14776   1.943   3.516  16.452 -0.0012  0.4239 -0.1951
 1048SOL    HW114777   1.904   3.600  16.428  1.1563  0.7462 -0.9386
 1048SOL    HW214778   1.865   3.471  16.486  0.7081  0.9549  2.1178
 1049SOL     OW14779   3.386   1.236   8.346 -0.1387  0.2202 -0.1677
 1049SOL    HW114780   3.364   1.314   8.296  2.1941  0.2569 -1.1669
 1049SOL    HW214781   3.378   1.261   8.438 -2.5353 -0.6419 -0.1415
 1050SOL     OW14782   0.109   0.112  11.287  0.6843 -0.4989 -0.4850
 1050SOL    HW114783   0.051   0.058  11.341 -2.1414  0.8068 -2.1835
 1050SOL    HW214784   0.051   0.124  11.212 -1.4333  2.0446  1.5316
 1051SOL     OW14785   1.682   4.416   5.352 -0.6847  0.3923  0.1569
 1051SOL    HW114786   1.686   4.321   5.338  1.5864  0.0999  2.7648
 1051SOL    HW214787   1.647   4.422   5.441  0.2452 -2.0005  0.6834
 1052SOL     OW14788   0.924   3.844   2.422  0.4481  0.4650 -0.0636
 1052SOL    HW114789   0.945   3.767   2.369 -1.3297 -0.6890  0.9200
 1052SOL    HW214790   0.943   3.916   2.362 -1.1898  0.0608 -1.0777
 1053SOL     OW14791   1.866   2.944   9.266 -0.6258 -0.2702  0.1935
 1053SOL    HW114792   1.777   2.926   9.295 -0.6867 -0.9761 -0.4124
 1053SOL    HW214793   1.871   2.887   9.188 -1.1033  1.5733 -1.1787
 1054SOL     OW14794   3.758   2.183   8.521  0.1602  0.2596 -0.7462
 1054SOL    HW114795   3.722   2.097   8.540  0.8389  0.0921 -0.1817
 1054SOL    HW214796   3.686   2.245   8.528 -2.6214 -2.9412 -1.2788
 1055SOL     OW14797   1.332   3.535   7.894 -0.2625 -0.0460 -0.7237
 1055SOL    HW114798   1.359   3.453   7.936 -0.0039 -0.5813 -1.9180
 1055SOL    HW214799   1.265   3.571   7.952 -0.3627 -1.0537 -0.2059
 1056SOL     OW14800   1.037   2.957  16.053 -0.1669  0.8867  0.0796
 1056SOL    HW114801   1.093   2.897  16.101 -1.3397 -0.6357 -0.4342
 1056SOL    HW214802   0.971   2.895  16.022  0.8064 -0.8863  1.5775
 1057SOL     OW14803   3.503   2.443  16.227  0.1907  0.0415  0.2914
 1057SOL    HW114804   3.572   2.384  16.260 -1.1880 -1.7024  0.0703
 1057SOL    HW214805   3.477   2.397  16.147 -1.1679  0.1783  0.6513
 1058SOL     OW14806   4.004   1.586   5.828  0.5091  0.8029 -0.0699
 1058SOL    HW114807   3.959   1.640   5.764  1.3265  2.1221  0.4600
 1058SOL    HW214808   3.957   1.613   5.907 -1.1990  2.3339 -1.6078
 1059SOL     OW14809   3.653   0.527   3.846 -0.1688  0.4765  0.1246
 1059SOL    HW114810   3.655   0.454   3.785 -2.9337  1.3048 -0.9725
 1059SOL    HW214811   3.614   0.596   3.792  1.2185  0.5726 -0.7518
 1060SOL     OW14812   1.350   1.891   4.148  0.1227 -0.0792 -0.1270
 1060SOL    HW114813   1.371   1.903   4.056 -1.0860  0.8599 -0.2753
 1060SOL    HW214814   1.347   1.795   4.151  2.9085 -0.1478  0.0906
 1061SOL     OW14815   2.309   3.274  17.687  0.0036 -0.5096 -0.6713
 1061SOL    HW114816   2.252   3.204  17.657  0.0111 -0.4591 -0.8031
 1061SOL    HW214817   2.351   3.298  17.605  0.0925 -0.0161 -0.4839
 1062SOL     OW14818   1.192   2.172   3.989 -0.1089  0.6233  0.2005
 1062SOL    HW114819   1.244   2.221   3.925  0.3993  2.5614  2.0989
 1062SOL    HW214820   1.123   2.156   3.926  0.6481 -1.2363 -0.1435
 1063SOL     OW14821   0.916   3.964   8.941 -0.2150 -0.2162 -0.3811
 1063SOL    HW114822   0.897   3.875   8.911  0.4722 -0.8708  1.1085
 1063SOL    HW214823   1.012   3.966   8.935 -0.2478  1.0507 -0.3276
 1064SOL     OW14824   3.267   1.583   7.924 -0.0289  0.1596  0.2884
 1064SOL    HW114825   3.195   1.643   7.944 -0.3634  0.5912 -2.2119
 1064SOL    HW214826   3.224   1.510   7.878 -1.3317  1.6699 -0.8983
 1065SOL     OW14827   0.136   1.248   4.380 -0.5207  0.0093 -0.0128
 1065SOL    HW114828   0.103   1.168   4.422  0.9938  0.7008  2.4881
 1065SOL    HW214829   0.162   1.296   4.458 -0.6264  1.8654 -1.1381
 1066SOL     OW14830   0.687   3.595   7.700  0.3152 -0.1974 -0.1597
 1066SOL    HW114831   0.720   3.646   7.774  1.8138 -0.7282 -0.4622
 1066SOL    HW214832   0.730   3.510   7.714  0.8239  0.5078  2.4944
 1067SOL     OW14833   3.881   1.660   7.866  0.2524  0.4931  0.2150
 1067SOL    HW114834   3.907   1.747   7.835 -0.0199  0.2650 -0.6634
 1067SOL    HW214835   3.844   1.687   7.950  1.2623  1.6543  0.2907
 1068SOL     OW14836   4.018   3.837   7.575  0.0860  0.1407 -0.3382
 1068SOL    HW114837   3.968   3.818   7.654 -0.4903  0.0113 -0.7356
 1068SOL    HW214838   4.056   3.921   7.599 -1.8917  1.8417 -3.1136
 1069SOL     OW14839   1.635   1.548   9.312 -0.4151  1.0538 -0.2684
 1069SOL    HW114840   1.573   1.493   9.264 -1.2659 -1.6594  3.8349
 1069SOL    HW214841   1.613   1.504   9.395  1.9904  2.3401  1.0659
 1070SOL     OW14842   3.140   3.322   1.963  0.2057  0.0479 -0.4628
 1070SOL    HW114843   3.052   3.360   1.957 -0.9915 -2.5203  0.8841
 1070SOL    HW214844   3.169   3.319   1.872  0.6670  2.4277 -0.4030
 1071SOL     OW14845   0.708   3.174   1.519  0.3222 -0.5359  1.1040
 1071SOL    HW114846   0.778   3.234   1.543  1.1590 -0.4488 -1.6040
 1071SOL    HW214847   0.766   3.098   1.508  0.9369 -0.2575  2.4531
 1072SOL     OW14848   4.703   3.938  16.804 -0.5607  0.5298  0.0470
 1072SOL    HW114849   0.032   3.867  16.783  0.2899  1.2441  0.1414
 1072SOL    HW214850   4.640   3.896  16.863 -0.2697 -0.1772 -0.1422
 1073SOL     OW14851   1.165   1.073   2.659 -0.3163 -0.0487  0.2808
 1073SOL    HW114852   1.104   1.144   2.639  0.3001  0.6812  1.0005
 1073SOL    HW214853   1.232   1.121   2.707  0.2767 -1.1588  0.5569
 1074SOL     OW14854   2.366   4.264  12.972  0.8367  0.0019  0.0334
 1074SOL    HW114855   2.452   4.269  13.014 -0.2131 -0.0824  2.1629
 1074SOL    HW214856   2.376   4.189  12.912 -1.7235 -0.2735 -0.0449
 1075SOL     OW14857   0.770   3.795  12.786 -0.1266 -0.2754 -0.5266
 1075SOL    HW114858   0.794   3.768  12.874 -2.7877 -0.1900  0.2257
 1075SOL    HW214859   0.706   3.728  12.764  1.1268 -2.1080  1.3722
 1076SOL     OW14860   0.364   3.367   1.715  0.0826  0.3555  0.2061
 1076SOL    HW114861   0.345   3.286   1.667  0.1642  1.5265 -1.7786
 1076SOL    HW214862   0.285   3.419   1.701 -1.0542 -2.1513 -2.7960
 1077SOL     OW14863   0.583   2.670   1.495 -0.1288 -0.0405  0.0289
 1077SOL    HW114864   0.663   2.712   1.526 -0.3175  0.5789 -0.3356
 1077SOL    HW214865   0.624   2.603   1.441 -0.3793 -0.6605  0.6067
 1078SOL     OW14866   1.873   4.712   2.253  0.0907 -0.1922 -0.3732
 1078SOL    HW114867   1.830   0.048   2.203  0.3655  1.8510  2.1827
 1078SOL    HW214868   1.959   0.020   2.261  0.3310 -0.3740 -2.1245
 1079SOL     OW14869   3.496   0.115   5.883 -0.3444 -0.3731  0.2339
 1079SOL    HW114870   3.501   0.122   5.788 -2.4883 -2.2979 -0.0193
 1079SOL    HW214871   3.424   0.171   5.913 -0.5082 -1.0549  1.1312
 1080SOL     OW14872   1.115   4.688   2.193  0.2147  0.0168 -0.6807
 1080SOL    HW114873   1.112   4.686   2.098  0.8162  1.1993 -0.7253
 1080SOL    HW214874   1.030   4.647   2.210 -0.0615  1.0558  0.4930
 1081SOL     OW14875   4.211   1.381   6.514  0.4366  0.0930  0.4013
 1081SOL    HW114876   4.282   1.423   6.563  1.9859 -2.0511  0.0062
 1081SOL    HW214877   4.148   1.366   6.584 -0.2771  4.2753  0.6652
 1082SOL     OW14878   1.721   1.785   8.529  0.0625 -0.2589 -0.8721
 1082SOL    HW114879   1.680   1.853   8.475 -1.0016 -0.2608 -0.0519
 1082SOL    HW214880   1.773   1.845   8.582 -2.3404  2.0217 -1.1035
 1083SOL     OW14881   1.559   0.809   2.074  0.6121  0.1972  0.1635
 1083SOL    HW114882   1.507   0.833   1.997 -1.7237 -0.6141  1.4697
 1083SOL    HW214883   1.589   0.720   2.053  0.9551  0.1613  0.7979
 1084SOL     OW14884   0.455   1.817  15.438  0.0736  0.5186  0.0208
 1084SOL    HW114885   0.462   1.808  15.343 -1.3004 -1.0073  0.0600
 1084SOL    HW214886   0.368   1.783  15.463  0.5034  1.8748  3.4387
 1085SOL     OW14887   2.682   4.240  13.015 -0.2472 -0.2895  0.2209
 1085SOL    HW114888   2.683   4.154  13.059 -0.1366 -0.5560 -0.3065
 1085SOL    HW214889   2.763   4.278  13.048 -1.4594  1.7752  0.8029
 1086SOL     OW14890   1.141   1.519   2.166  0.2320  0.4798  0.3059
 1086SOL    HW114891   1.117   1.611   2.153  0.4450  0.3637 -0.8757
 1086SOL    HW214892   1.220   1.523   2.113  0.2914  0.2241  0.3767
 1087SOL     OW14893   3.308   1.635  15.645 -0.0867  0.1410 -0.0147
 1087SOL    HW114894   3.291   1.593  15.729 -2.6536  2.0644  0.4183
 1087SOL    HW214895   3.372   1.702  15.670 -0.8507  0.3168  1.4796
 1088SOL     OW14896   0.518   1.649  17.444 -0.0331 -0.0766  0.4454
 1088SOL    HW114897   0.496   1.556  17.450  0.8920 -0.3280 -0.0437
 1088SOL    HW214898   0.460   1.684  17.377  0.3444 -0.2677  0.0192
 1089SOL     OW14899   3.993   4.616  11.304 -0.4807  0.3026 -0.4319
 1089SOL    HW114900   4.012   4.660  11.387  0.5768  1.1528 -1.1213
 1089SOL    HW214901   4.045   4.675  11.250 -1.9887  3.3964  1.4358
 1090SOL     OW14902   3.359   3.788  16.383  0.2510  0.1878 -0.3600
 1090SOL    HW114903   3.371   3.845  16.307 -1.7412 -0.2428 -0.9952
 1090SOL    HW214904   3.269   3.758  16.372  0.0778  0.9347 -1.0279
 1091SOL     OW14905   1.324   2.130   2.529  0.3256 -0.2702  0.5138
 1091SOL    HW114906   1.337   2.068   2.601  0.4792 -1.1636 -0.2841
 1091SOL    HW214907   1.264   2.088   2.467  1.5708  1.0410 -1.5754
 1092SOL     OW14908   0.218   1.876   7.024  0.6552 -0.1485 -0.3501
 1092SOL    HW114909   0.126   1.895   7.006  0.7684  0.2869 -0.4832
 1092SOL    HW214910   0.238   1.802   6.967 -0.4748  0.0545 -0.9951
 1093SOL     OW14911   1.032   0.215   6.210 -0.1341  0.2624 -0.3336
 1093SOL    HW114912   0.993   0.230   6.296  1.0969  1.3221  0.0292
 1093SOL    HW214913   0.998   0.279   6.148  0.5438  0.5809 -0.3667
 1094SOL     OW14914   0.416   3.381  12.713 -0.5149 -0.7389  0.4881
 1094SOL    HW114915   0.417   3.298  12.762  1.3429 -1.9616 -1.6045
 1094SOL    HW214916   0.457   3.337  12.638  2.1258 -1.7469  2.5296
 1095SOL     OW14917   1.103   2.934   6.684 -0.0353 -0.2968  0.0757
 1095SOL    HW114918   1.155   2.910   6.607  1.3405 -1.2426  1.3012
 1095SOL    HW214919   1.035   2.868   6.677 -1.0275  0.5526  1.7551
 1096SOL     OW14920   2.078   0.164  11.720  0.6122  0.1071  0.6804
 1096SOL    HW114921   2.024   0.147  11.797  0.8951  1.2639  1.1278
 1096SOL    HW214922   2.048   0.251  11.696 -0.9506  0.2186  3.0727
 1097SOL     OW14923   2.178   3.366   3.355  0.8934 -0.0697 -0.4046
 1097SOL    HW114924   2.266   3.390   3.385  0.7957 -1.7936  1.2692
 1097SOL    HW214925   2.199   3.274   3.338 -1.2383 -0.8673  1.3268
 1098SOL     OW14926   2.237   0.616   1.640  0.0251 -0.5899  0.3966
 1098SOL    HW114927   2.198   0.676   1.576 -0.8034  1.5820  2.9251
 1098SOL    HW214928   2.156   0.569   1.659  0.1263 -0.8314  0.2253
 1099SOL     OW14929   4.345   1.728   4.768 -0.3150  0.7413  0.0658
 1099SOL    HW114930   4.311   1.794   4.829  0.1581  1.9834 -1.0110
 1099SOL    HW214931   4.385   1.802   4.721 -1.0926  2.0092  1.3848
 1100SOL     OW14932   1.093   2.447  17.603 -0.1221  0.1580  0.3126
 1100SOL    HW114933   1.121   2.376  17.545 -0.9027  1.1398 -1.2687
 1100SOL    HW214934   1.133   2.522  17.558  2.5555 -2.4094 -1.5793
 1101SOL     OW14935   2.889   3.481  16.638  0.4082  0.5583  0.1435
 1101SOL    HW114936   2.934   3.448  16.560  0.7769 -2.8288  1.7788
 1101SOL    HW214937   2.875   3.572  16.612  0.2266  0.7213  0.8378
 1102SOL     OW14938   4.381   1.472   7.942  0.4268  0.0067 -0.1093
 1102SOL    HW114939   4.375   1.537   8.012 -0.3283  0.1347 -0.2901
 1102SOL    HW214940   4.311   1.411   7.965  0.0878  0.4753  0.1064
 1103SOL     OW14941   1.946   4.697   6.442  0.1981  0.2774  0.1441
 1103SOL    HW114942   2.007   4.676   6.513 -0.4423 -0.1776  0.5563
 1103SOL    HW214943   2.003   4.715   6.367  1.4797 -1.2175  0.7433
 1104SOL     OW14944   3.393   1.209  11.750  1.1403 -0.2659 -0.1793
 1104SOL    HW114945   3.386   1.183  11.658  0.6483 -1.4149  0.1909
 1104SOL    HW214946   3.447   1.289  11.748  1.1273 -0.2389  0.6135
 1105SOL     OW14947   3.604   3.978   8.736 -0.4177 -0.7096  0.1103
 1105SOL    HW114948   3.672   3.936   8.790 -0.6490 -1.0901  0.1052
 1105SOL    HW214949   3.532   3.915   8.743 -1.0915  0.1225  0.6369
 1106SOL     OW14950   1.409   1.468  15.837 -0.1664 -0.1752 -0.1536
 1106SOL    HW114951   1.503   1.462  15.824 -0.2716  0.5441 -1.2403
 1106SOL    HW214952   1.365   1.471  15.752 -0.3135  1.2856 -0.0258
 1107SOL     OW14953   1.778   4.438   3.850  0.0887 -0.2825 -0.0795
 1107SOL    HW114954   1.772   4.387   3.930 -0.2266 -0.9777 -0.5483
 1107SOL    HW214955   1.873   4.447   3.837 -0.1040 -1.1860 -2.1903
 1108SOL     OW14956   3.548   2.419  11.632  0.3539 -0.0434  0.1987
 1108SOL    HW114957   3.566   2.346  11.693  0.1769  0.5593  0.9770
 1108SOL    HW214958   3.582   2.378  11.553 -1.6547 -1.1080 -0.0912
 1109SOL     OW14959   0.117   1.217   6.394 -0.3735  0.6352 -0.5717
 1109SOL    HW114960   0.191   1.222   6.454  0.6534 -0.9057 -1.7044
 1109SOL    HW214961   0.098   1.123   6.394 -1.5566  0.8806  0.1328
 1110SOL     OW14962   1.632   2.686   2.095  0.4694 -0.2150  0.1070
 1110SOL    HW114963   1.693   2.717   2.029 -0.4882  2.7410  0.6030
 1110SOL    HW214964   1.566   2.755   2.101  0.6533 -0.0631  0.3921
 1111SOL     OW14965   3.303   1.130   7.761 -0.3042  0.0718  0.3651
 1111SOL    HW114966   3.316   1.129   7.666  1.0982  2.1424  0.5234
 1111SOL    HW214967   3.385   1.163   7.796 -0.3854  1.5932 -0.8762
 1112SOL     OW14968   0.043   1.645  10.547 -0.1663 -0.2678  0.0705
 1112SOL    HW114969   0.027   1.695  10.467  0.5964  0.1150  0.1603
 1112SOL    HW214970   0.032   1.711  10.615 -1.8960 -0.1356 -0.3238
 1113SOL     OW14971   1.132   1.195   6.904  0.0896  0.0209 -0.1911
 1113SOL    HW114972   1.169   1.134   6.839  1.9394 -0.9856  1.8209
 1113SOL    HW214973   1.175   1.270   6.863 -0.6423  0.4975 -0.0716
 1114SOL     OW14974   2.888   3.236   1.059  0.2130 -0.2470 -0.3525
 1114SOL    HW114975   2.891   3.303   0.991 -1.8595  1.0384  0.8452
 1114SOL    HW214976   2.797   3.210   1.064  0.2881 -0.5533 -0.5772
 1115SOL     OW14977   3.993   0.223  14.228  0.0573  0.0913  0.4531
 1115SOL    HW114978   4.059   0.263  14.171 -2.8899  1.8394 -1.7087
 1115SOL    HW214979   4.036   0.143  14.258  0.8841  0.1940 -0.4453
 1116SOL     OW14980   0.460   3.497  15.523  0.0904  0.0274 -0.1442
 1116SOL    HW114981   0.551   3.466  15.530 -0.0016 -0.0921  0.5086
 1116SOL    HW214982   0.456   3.522  15.431 -0.4290  1.0455  0.1523
 1117SOL     OW14983   2.674   4.289  13.980 -0.1513 -0.1462 -0.6000
 1117SOL    HW114984   2.586   4.327  13.986  1.3458  3.1156  0.9866
 1117SOL    HW214985   2.733   4.364  13.968 -2.3535  1.4459 -1.5544
 1118SOL     OW14986   2.198   2.634   1.631  0.1780 -0.1946  0.7875
 1118SOL    HW114987   2.261   2.660   1.698  1.5898  0.2590 -0.7207
 1118SOL    HW214988   2.253   2.582   1.572  0.0197 -0.6810  1.0639
 1119SOL     OW14989   2.808   2.148   5.662  0.4665  0.5116 -0.8441
 1119SOL    HW114990   2.792   2.203   5.739 -2.7134 -0.3609 -0.8841
 1119SOL    HW214991   2.723   2.106   5.648  0.4930 -0.1326  0.8780
 1120SOL     OW14992   0.710   4.035   8.137  0.0394 -0.2386 -0.1450
 1120SOL    HW114993   0.804   4.025   8.154  0.0423  0.8473  0.4580
 1120SOL    HW214994   0.673   3.948   8.123  0.1440 -0.6653  2.3070
 1121SOL     OW14995   2.665   3.898   7.582  0.6295 -0.2824  0.2515
 1121SOL    HW114996   2.750   3.876   7.620  0.4637 -1.2612  0.0586
 1121SOL    HW214997   2.656   3.989   7.610 -0.6403 -0.5943  0.8662
 1122SOL     OW14998   3.882   1.509  10.055  0.0907  0.0810  0.1691
 1122SOL    HW114999   3.977   1.504  10.042 -0.0545 -0.4015 -0.7743
 1122SOL    HW215000   3.875   1.604  10.058  1.1278  0.2144 -1.4499
 1123SOL     OW15001   2.928   2.137   7.724  0.2660 -0.5325  0.2400
 1123SOL    HW115002   2.901   2.126   7.633 -0.7404  2.0131  0.2433
 1123SOL    HW215003   2.891   2.054   7.757 -0.5099 -0.2270  0.1419
 1124SOL     OW15004   1.456   0.279   3.665  0.0212 -0.3827 -0.1161
 1124SOL    HW115005   1.421   0.226   3.737  1.8929 -0.2236  0.9179
 1124SOL    HW215006   1.418   0.364   3.686  0.0239 -0.2702 -0.5683
 1125SOL     OW15007   0.419   4.370   8.008  0.3614 -0.2483 -0.1248
 1125SOL    HW115008   0.339   4.390   7.960 -0.7339 -3.6668  0.3164
 1125SOL    HW215009   0.380   4.313   8.075  2.7259  0.7093  2.0875
 1126SOL     OW15010   0.373   2.218   4.853 -0.9945  0.1774 -0.6519
 1126SOL    HW115011   0.313   2.156   4.811  0.0851 -0.5248 -1.1426
 1126SOL    HW215012   0.402   2.154   4.918 -0.2547 -0.6026 -1.7626
 1127SOL     OW15013   0.249   2.271   3.886  0.3396 -0.1919 -0.1422
 1127SOL    HW115014   0.228   2.326   3.810  0.8101 -0.3745 -0.4046
 1127SOL    HW215015   0.343   2.286   3.873  0.5419 -1.4185 -0.0431
 1128SOL     OW15016   2.775   2.318   0.157  0.3254  0.4590  0.3666
 1128SOL    HW115017   2.731   2.359   0.232 -0.3698  0.4403 -0.0390
 1128SOL    HW215018   2.830   2.388   0.122  2.6338 -1.3881  0.2818
 1129SOL     OW15019   2.002   4.308  13.463  0.4419 -0.3408  0.2374
 1129SOL    HW115020   1.926   4.308  13.405  1.9360 -0.9679 -1.7153
 1129SOL    HW215021   2.032   4.397  13.443 -0.0341  0.2893  2.2802
 1130SOL     OW15022   2.069   2.076   6.809  1.0649 -0.3785  0.3254
 1130SOL    HW115023   2.133   2.144   6.828  1.2960 -0.4599 -0.1694
 1130SOL    HW215024   2.008   2.096   6.880  1.1783  0.8467  0.0608
 1131SOL     OW15025   3.585   0.238   4.280  0.1767  0.0497  0.3602
 1131SOL    HW115026   3.636   0.203   4.207  1.4056 -1.2437  1.8139
 1131SOL    HW215027   3.504   0.265   4.236  1.1056  2.6678  0.2611
 1132SOL     OW15028   3.964   0.269   5.971 -0.7824  0.5402 -0.1609
 1132SOL    HW115029   3.931   0.186   5.937  0.2412  0.6638 -1.4841
 1132SOL    HW215030   3.901   0.287   6.040 -1.7216  2.6181 -1.5608
 1133SOL     OW15031   0.973   1.758   7.776  0.1914 -0.2976 -0.1229
 1133SOL    HW115032   1.034   1.807   7.831  1.3658 -2.1612  0.1959
 1133SOL    HW215033   1.011   1.671   7.774  2.6298  0.6867  3.3395
 1134SOL     OW15034   0.473   4.699  15.152  0.8014 -0.1350  0.4552
 1134SOL    HW115035   0.514   4.612  15.154  0.6592 -0.2241 -0.4789
 1134SOL    HW215036   0.445   4.698  15.061  0.3606 -1.3932  0.6034
 1135SOL     OW15037   2.605   0.833  12.201 -0.5192 -0.2420  0.1604
 1135SOL    HW115038   2.658   0.759  12.173 -0.5828 -0.2350  0.0255
 1135SOL    HW215039   2.676   0.898  12.205  0.2130 -0.9551 -1.5786
 1136SOL     OW15040   0.494   0.607   2.391 -0.2888  0.1211  0.5199
 1136SOL    HW115041   0.487   0.694   2.430 -0.5371  0.5470 -0.4971
 1136SOL    HW215042   0.422   0.557   2.432  0.5268 -2.8976 -1.7580
 1137SOL     OW15043   4.526   3.133   8.494  0.2306  0.1578  0.7885
 1137SOL    HW115044   4.542   3.225   8.515  1.2350 -0.1444  1.3585
 1137SOL    HW215045   4.432   3.136   8.508  0.0409 -3.6472  0.3535
 1138SOL     OW15046   1.208   4.181   6.760  0.2279 -0.1809 -0.1778
 1138SOL    HW115047   1.202   4.254   6.822 -0.3140  0.0553 -0.5091
 1138SOL    HW215048   1.263   4.117   6.806  1.1734  1.7986  1.4451
 1139SOL     OW15049   1.821   1.942  17.203 -0.2410  0.0450 -0.2477
 1139SOL    HW115050   1.779   1.922  17.120  1.2094  2.0363 -1.4815
 1139SOL    HW215051   1.798   2.033  17.222 -2.7403 -0.4427 -1.0426
 1140SOL     OW15052   3.789   0.377  14.381  0.1515 -0.5874 -0.5435
 1140SOL    HW115053   3.856   0.323  14.338  2.9581  2.5483 -0.1335
 1140SOL    HW215054   3.828   0.464  14.372  0.6466 -0.5675  1.8040
 1141SOL     OW15055   1.196   0.379   2.632 -0.0873 -0.6830  0.2178
 1141SOL    HW115056   1.135   0.370   2.560 -0.5936  1.1593  0.4013
 1141SOL    HW215057   1.280   0.397   2.590 -0.4810 -1.7096 -0.9887
 1142SOL     OW15058   0.333   4.039   1.240  0.9562  0.3905  0.2062
 1142SOL    HW115059   0.422   4.052   1.271  0.4828  1.1478  1.2329
 1142SOL    HW215060   0.343   3.970   1.175  0.4802  0.9843 -0.4955
 1143SOL     OW15061   1.341   3.846  14.643 -0.0716  0.0108  0.3286
 1143SOL    HW115062   1.316   3.850  14.736  2.2126 -1.4343  0.9957
 1143SOL    HW215063   1.399   3.771  14.630  1.1862  1.1104 -0.4722
 1144SOL     OW15064   4.069   0.955   3.014  0.1096  0.1045 -0.0332
 1144SOL    HW115065   4.014   0.877   3.009  1.0260 -0.4731 -0.9394
 1144SOL    HW215066   4.155   0.918   3.030 -0.3804 -1.9105 -2.1399
 1145SOL     OW15067   2.237   0.287  14.785 -0.2141 -0.1634 -0.0960
 1145SOL    HW115068   2.157   0.298  14.735  0.2926 -3.1589 -1.5630
 1145SOL    HW215069   2.256   0.381  14.790  1.5350 -0.4230 -1.9479
 1146SOL     OW15070   2.716   1.633   7.249 -0.2402 -0.3646  0.2228
 1146SOL    HW115071   2.777   1.703   7.228 -0.3873 -0.2578  0.1481
 1146SOL    HW215072   2.631   1.665   7.219  0.3638  1.1169  0.1024
 1147SOL     OW15073   1.177   3.745   8.744  0.0328  0.0105  0.0086
 1147SOL    HW115074   1.132   3.668   8.780  0.0611  0.3866  0.8627
 1147SOL    HW215075   1.264   3.712   8.766  1.0063  0.5682 -3.0708
 1148SOL     OW15076   4.043   4.205   7.778  0.2702  0.0467  0.5159
 1148SOL    HW115077   3.953   4.185   7.802 -0.2522 -0.9317 -2.2540
 1148SOL    HW215078   4.039   4.301   7.784 -2.1945 -0.0527  0.2907
 1149SOL     OW15079   3.031   3.202   4.965 -0.0914  0.3247 -0.4293
 1149SOL    HW115080   3.028   3.123   5.018  1.1401  0.0023 -0.8451
 1149SOL    HW215081   3.103   3.183   4.906 -1.5534 -1.5114 -1.6341
 1150SOL     OW15082   2.763   4.454   1.118 -0.1509  0.8014  0.2183
 1150SOL    HW115083   2.733   4.532   1.071 -2.3883 -0.2154 -0.0393
 1150SOL    HW215084   2.787   4.484   1.205  0.7348  0.2544  0.1624
 1151SOL     OW15085   0.568   1.972   1.384  0.1079  0.0351 -0.2104
 1151SOL    HW115086   0.569   1.881   1.414 -1.1486  0.1254  0.1004
 1151SOL    HW215087   0.546   1.959   1.291  0.7356 -1.9833 -0.0885
 1152SOL     OW15088   2.124   2.886  13.728 -0.0191 -0.4867 -0.2204
 1152SOL    HW115089   2.163   2.899  13.641  1.6352 -0.1857  0.5670
 1152SOL    HW215090   2.168   2.962  13.766  1.6427 -0.6960 -1.7320
 1153SOL     OW15091   3.713   3.632   8.928  0.3166  0.1858 -0.0062
 1153SOL    HW115092   3.757   3.717   8.923 -0.2308  0.4129 -1.1443
 1153SOL    HW215093   3.757   3.597   9.005  1.8201 -1.3041 -1.5500
 1154SOL     OW15094   1.593   3.998   2.405 -0.5769 -0.2176  0.1958
 1154SOL    HW115095   1.635   3.914   2.424 -1.3704 -0.5857  0.2737
 1154SOL    HW215096   1.563   4.036   2.488 -1.1638  1.9962 -1.0139
 1155SOL     OW15097   1.385   3.109   1.623  0.0980  0.0977 -0.2980
 1155SOL    HW115098   1.385   3.204   1.611  1.3726  0.1647  0.1733
 1155SOL    HW215099   1.312   3.102   1.683  0.7869  0.8775  0.6311
 1156SOL     OW15100   3.774   4.009  16.886  0.0523  0.4232 -0.3819
 1156SOL    HW115101   3.811   4.096  16.902  0.0911  0.1060  1.3265
 1156SOL    HW215102   3.831   3.977  16.816 -0.0779 -1.8366  0.5246
 1157SOL     OW15103   3.551   1.559   2.643  0.3435 -0.2157  0.6831
 1157SOL    HW115104   3.484   1.501   2.678 -0.1595  0.5189  0.9293
 1157SOL    HW215105   3.582   1.502   2.573  3.4380 -0.7444  2.4980
 1158SOL     OW15106   2.258   1.132   7.458 -0.4337 -0.4000 -0.1436
 1158SOL    HW115107   2.178   1.160   7.504 -1.6682 -0.1861 -2.4182
 1158SOL    HW215108   2.318   1.123   7.532  1.4206 -1.6760 -1.8247
 1159SOL     OW15109   0.063   2.817   5.211  0.0680  0.0968 -0.0757
 1159SOL    HW115110   0.094   2.774   5.290  0.9557  0.9280  0.0229
 1159SOL    HW215111   4.702   2.793   5.208  0.5187 -1.6499 -0.0803
 1160SOL     OW15112   4.154   0.445   8.737 -0.0759  0.3853 -0.1446
 1160SOL    HW115113   4.247   0.469   8.732  0.4738 -1.6301  0.7700
 1160SOL    HW215114   4.120   0.463   8.649  2.4767 -1.8827 -1.6064
 1161SOL     OW15115   1.018   1.115   7.555 -0.1284  0.1516 -0.0595
 1161SOL    HW115116   0.990   1.026   7.535  2.6935 -0.5005 -1.1629
 1161SOL    HW215117   0.940   1.159   7.523 -0.9685 -0.0307  1.7355
 1162SOL     OW15118   3.554   0.896  15.839 -0.4754 -0.2443  0.1235
 1162SOL    HW115119   3.643   0.910  15.807 -0.9625  1.8846 -0.3123
 1162SOL    HW215120   3.512   0.876  15.756  0.7691 -0.4814 -0.4397
 1163SOL     OW15121   1.605   2.772   2.761 -0.2310 -0.2434 -0.3576
 1163SOL    HW115122   1.557   2.691   2.746 -0.4057 -0.0531 -0.8281
 1163SOL    HW215123   1.670   2.769   2.691  2.3744 -2.5766  2.1789
 1164SOL     OW15124   4.348   4.401   0.002 -0.4398  0.1180  0.3626
 1164SOL    HW115125   4.436   4.379  17.701 -1.2599 -2.1887 -0.3821
 1164SOL    HW215126   4.324   4.336   0.069 -1.1573  0.3441  0.3278
 1165SOL     OW15127   0.064   0.492   6.711  0.3680 -0.1350  0.1594
 1165SOL    HW115128   0.065   0.402   6.742 -0.8394  1.3324  4.4976
 1165SOL    HW215129   0.020   0.474   6.628  0.9559  1.2207 -0.4559
 1166SOL     OW15130   0.075   3.413   5.480 -0.1309  0.6753  0.1290
 1166SOL    HW115131   4.722   3.454   5.490  0.3882  1.4573  1.3844
 1166SOL    HW215132   0.049   3.321   5.474  2.4622 -0.0146 -0.7104
 1167SOL     OW15133   0.565   4.228   0.749 -0.2631 -0.5779  0.1142
 1167SOL    HW115134   0.592   4.164   0.684 -0.4814 -0.0469 -0.4929
 1167SOL    HW215135   0.585   4.310   0.704  0.9927 -0.7513  0.3561
 1168SOL     OW15136   1.883   1.764   8.213 -0.1823 -0.5040  0.4654
 1168SOL    HW115137   1.949   1.749   8.145  0.2055 -0.2273  0.7868
 1168SOL    HW215138   1.926   1.826   8.272 -0.7460 -0.4792  0.8474
 1169SOL     OW15139   4.242   2.830   2.705 -0.6192 -0.2069  0.9528
 1169SOL    HW115140   4.195   2.885   2.768 -1.8971 -1.4465  1.0807
 1169SOL    HW215141   4.240   2.747   2.751  0.8544 -0.8441 -0.1506
 1170SOL     OW15142   4.470   4.541   2.644  0.0182 -0.0869 -0.2092
 1170SOL    HW115143   4.483   4.587   2.561  0.8636  1.3545  0.7171
 1170SOL    HW215144   4.531   4.469   2.627 -1.2454 -1.4634  1.1840
 1171SOL     OW15145   0.255   2.056   2.845  0.2254 -0.1667  0.3446
 1171SOL    HW115146   0.344   2.030   2.866 -0.1479 -1.2402  0.5729
 1171SOL    HW215147   0.206   2.018   2.918  0.2739  0.8275  0.9027
 1172SOL     OW15148   2.708   0.583   8.581  0.1156 -0.3995  0.1912
 1172SOL    HW115149   2.694   0.489   8.584  0.1925 -0.3904  1.1454
 1172SOL    HW215150   2.748   0.593   8.668 -1.1608  1.8089  0.5215
 1173SOL     OW15151   3.921   3.162   8.450  0.2544 -0.2074 -0.1889
 1173SOL    HW115152   3.845   3.104   8.455  0.4610 -0.2771  1.8629
 1173SOL    HW215153   3.883   3.245   8.479 -0.7774 -0.6024 -0.4056
 1174SOL     OW15154   4.227   3.800   6.928 -0.8345  0.1508 -0.6591
 1174SOL    HW115155   4.168   3.763   6.993  0.3932 -0.5359  0.0651
 1174SOL    HW215156   4.298   3.814   6.990  0.5740  0.3887 -2.3185
 1175SOL     OW15157   0.220   1.097   6.859  0.2539 -0.5256  0.9957
 1175SOL    HW115158   0.278   1.054   6.795 -2.0800 -1.9615 -0.1695
 1175SOL    HW215159   0.254   1.074   6.945  1.7326  1.8600  1.0363
 1176SOL     OW15160   2.225   2.529   3.960 -0.8290  0.6322 -0.5556
 1176SOL    HW115161   2.180   2.475   4.025  3.4879 -1.4672  0.6553
 1176SOL    HW215162   2.176   2.523   3.878  0.4445  2.1498 -1.4351
 1177SOL     OW15163   1.509   1.158  10.840  0.0975 -0.5238  0.4211
 1177SOL    HW115164   1.593   1.153  10.886  0.3943 -0.5030 -0.1097
 1177SOL    HW215165   1.512   1.246  10.802 -0.8322  0.3168  2.3291
 1178SOL     OW15166   2.977   3.824   4.071 -0.0715  0.1902  0.1792
 1178SOL    HW115167   2.892   3.852   4.103 -1.0599 -0.4885 -1.8318
 1178SOL    HW215168   3.027   3.903   4.092  0.8812 -0.9173  2.0345
 1179SOL     OW15169   0.484   2.281  11.230  0.2362  0.4277  0.3315
 1179SOL    HW115170   0.559   2.247  11.278  0.4054 -0.8913 -0.8554
 1179SOL    HW215171   0.455   2.350  11.289  2.7637  2.5881 -0.9720
 1180SOL     OW15172   3.512   1.299   9.201  0.3237  0.4997 -0.0565
 1180SOL    HW115173   3.502   1.240   9.275  1.3444 -1.1290 -1.2022
 1180SOL    HW215174   3.594   1.344   9.224 -1.1686  1.3207  3.6579
 1181SOL     OW15175   2.213   2.435   7.147  0.2610  0.3998  0.1097
 1181SOL    HW115176   2.294   2.478   7.120  0.5479 -1.4330 -1.9762
 1181SOL    HW215177   2.239   2.386   7.225  1.4892  1.2174  0.2116
 1182SOL     OW15178   2.376   0.630  10.813 -0.5206  0.5917  0.1804
 1182SOL    HW115179   2.308   0.665  10.870 -0.0582  0.2910  0.9223
 1182SOL    HW215180   2.404   0.704  10.759  0.2815  1.2137  1.4306
 1183SOL     OW15181   3.847   3.371   5.559  0.8415 -0.3211  0.1628
 1183SOL    HW115182   3.836   3.450   5.505  1.1174  0.1843  0.8507
 1183SOL    HW215183   3.940   3.361   5.541  0.2180 -1.9163 -2.1716
 1184SOL     OW15184   4.296   3.416  10.898 -0.0013 -0.1883  0.0760
 1184SOL    HW115185   4.374   3.407  10.844  0.7249 -0.6682  1.2152
 1184SOL    HW215186   4.321   3.383  10.984 -1.0410  0.6750  0.7142
 1185SOL     OW15187   4.250   1.307   4.720 -0.1350  0.1335 -0.0465
 1185SOL    HW115188   4.191   1.380   4.738  1.0524  0.7037  1.5166
 1185SOL    HW215189   4.290   1.293   4.806  2.8559  1.0796 -1.2578
 1186SOL     OW15190   4.506   4.334  13.763 -0.2179  0.0000  0.7271
 1186SOL    HW115191   4.560   4.411  13.780  1.7541 -0.7576 -2.2814
 1186SOL    HW215192   4.416   4.367  13.765 -0.0087  0.4985  1.8440
 1187SOL     OW15193   1.634   1.280   0.639  0.4819  0.4129  0.3433
 1187SOL    HW115194   1.624   1.357   0.694 -0.8569  0.1942  0.4039
 1187SOL    HW215195   1.544   1.262   0.610  0.7584  1.8759 -1.4594
 1188SOL     OW15196   1.626   0.392   6.225 -0.0978  0.2604 -0.0595
 1188SOL    HW115197   1.618   0.363   6.134  2.4101 -0.4790 -0.0313
 1188SOL    HW215198   1.584   0.319   6.271  0.6386 -1.4822 -2.1534
 1189SOL     OW15199   1.536   3.256  11.897  0.1988 -0.2263  0.4273
 1189SOL    HW115200   1.608   3.200  11.924  1.2896  0.9877  0.0389
 1189SOL    HW215201   1.527   3.234  11.804  2.0583 -1.9489  0.6644
 1190SOL     OW15202   3.749   4.278   1.774  0.2881 -0.6613  0.1415
 1190SOL    HW115203   3.711   4.332   1.843  0.2369 -0.4322 -0.0666
 1190SOL    HW215204   3.759   4.197   1.823 -0.8533 -0.5961  0.4783
 1191SOL     OW15205   0.993   3.794   4.186 -0.2245 -0.6731  0.1534
 1191SOL    HW115206   0.978   3.748   4.104 -2.5803 -2.2958  1.4917
 1191SOL    HW215207   0.969   3.883   4.163  2.2328 -0.5247 -1.7772
 1192SOL     OW15208   3.119   2.423   7.202  0.3058 -0.1948  0.0566
 1192SOL    HW115209   3.099   2.499   7.256  0.2889 -0.1084 -0.0709
 1192SOL    HW215210   3.182   2.380   7.260  0.2535 -0.6229 -0.2051
 1193SOL     OW15211   2.296   3.532   5.625  0.4297  0.3567 -0.0200
 1193SOL    HW115212   2.278   3.582   5.705 -2.7465 -0.4909 -0.1952
 1193SOL    HW215213   2.290   3.587   5.547 -0.8166  1.0291  0.5500
 1194SOL     OW15214   3.097   1.847   3.286  0.2969 -0.3506 -0.1054
 1194SOL    HW115215   3.180   1.894   3.279  0.3551 -0.3632  0.5478
 1194SOL    HW215216   3.071   1.861   3.195  0.8147 -0.2951 -0.2450
 1195SOL     OW15217   1.910   2.132   2.286 -0.0473 -0.2241  0.5943
 1195SOL    HW115218   1.920   2.044   2.249 -1.2973  0.5355 -1.5192
 1195SOL    HW215219   1.967   2.143   2.362  0.3328 -1.1177  0.4389
 1196SOL     OW15220   1.065   0.616   0.919 -1.1611 -0.6539 -0.5932
 1196SOL    HW115221   0.983   0.656   0.946 -0.4052  1.4458 -1.4640
 1196SOL    HW215222   1.117   0.642   0.994  0.9015  0.4614 -2.4031
 1197SOL     OW15223   1.533   2.636  17.082 -0.0495  0.1783 -0.1287
 1197SOL    HW115224   1.615   2.617  17.036  0.4641  0.4162  0.6915
 1197SOL    HW215225   1.469   2.655  17.013 -0.1716  0.0595 -0.0504
 1198SOL     OW15226   4.079   1.289   8.573  0.4672  0.5882 -0.7853
 1198SOL    HW115227   4.100   1.368   8.623  0.4654 -0.2544  0.5492
 1198SOL    HW215228   3.984   1.296   8.563  0.3565 -0.2415 -0.2903
 1199SOL     OW15229   0.840   2.832  15.856 -0.3118 -0.1051 -0.0743
 1199SOL    HW115230   0.795   2.809  15.775  0.9043 -2.0878 -0.1707
 1199SOL    HW215231   0.928   2.855  15.828 -0.2434  2.0876  1.9312
 1200SOL     OW15232   2.379   2.774   5.956 -0.5170  0.1689  0.1168
 1200SOL    HW115233   2.307   2.778   5.893  0.0401  1.6096 -0.4122
 1200SOL    HW215234   2.442   2.823   5.904 -0.7809  2.3546  1.8587
 1201SOL     OW15235   1.022   1.477  10.301  0.1716  0.4686  0.2987
 1201SOL    HW115236   0.957   1.485  10.371 -0.5000  0.5644 -0.3388
 1201SOL    HW215237   1.099   1.513  10.345  0.4716  1.7079 -1.2392
 1202SOL     OW15238   2.635   2.871  12.788  0.4085  0.4812 -0.1763
 1202SOL    HW115239   2.610   2.846  12.699  0.9649  1.6847 -0.6733
 1202SOL    HW215240   2.672   2.959  12.775 -0.8588  0.9008 -0.8925
 1203SOL     OW15241   0.984   0.842   6.610 -0.2538 -0.3079  0.3749
 1203SOL    HW115242   1.054   0.801   6.661  3.0543  3.8675 -0.7972
 1203SOL    HW215243   1.008   0.805   6.524 -2.5139  1.5041 -1.0413
 1204SOL     OW15244   4.658   1.087   7.831 -0.3614 -0.5229  0.0939
 1204SOL    HW115245   0.008   1.121   7.865 -0.7028  1.3440 -0.9603
 1204SOL    HW215246   4.609   1.168   7.820  0.6285  0.1453  0.5810
 1205SOL     OW15247   0.374   3.857   6.614 -0.0965  0.1717  0.0347
 1205SOL    HW115248   0.315   3.902   6.554 -1.5928  1.5273  2.5430
 1205SOL    HW215249   0.310   3.819   6.675 -1.2698  0.8423 -0.7882
 1206SOL     OW15250   4.155   3.308   4.615 -0.2412 -0.6528 -0.2722
 1206SOL    HW115251   4.215   3.247   4.656  0.1099 -0.1076  0.0324
 1206SOL    HW215252   4.188   3.294   4.526  4.0767  0.1499  1.2228
 1207SOL     OW15253   0.739   2.588  15.256 -0.0775  0.1555  0.4916
 1207SOL    HW115254   0.758   2.677  15.285 -1.1145 -0.1269  1.9997
 1207SOL    HW215255   0.814   2.568  15.199  0.4049  0.3056  1.0699
 1208SOL     OW15256   2.670   2.099   7.872 -0.3429  0.1749  0.1497
 1208SOL    HW115257   2.628   2.044   7.806 -0.6619  1.0975 -0.4224
 1208SOL    HW215258   2.679   2.185   7.830 -1.3894 -0.1158 -0.6742
 1209SOL     OW15259   2.040   1.522   6.782  0.5794 -0.2812 -0.4844
 1209SOL    HW115260   2.081   1.469   6.851 -1.4732 -0.3857  0.6608
 1209SOL    HW215261   2.071   1.611   6.801  1.3127 -0.7677  0.6215
 1210SOL     OW15262   2.898   4.715   2.581  0.8346  0.0795 -0.2260
 1210SOL    HW115263   2.814   4.670   2.584  0.1160  1.4510  0.1714
 1210SOL    HW215264   2.879   0.051   2.517 -0.6598 -2.7099 -2.7707
 1211SOL     OW15265   1.501   3.047   6.536  0.3042  0.3382 -0.0755
 1211SOL    HW115266   1.536   2.986   6.471 -0.0052 -0.3745  0.4338
 1211SOL    HW215267   1.410   3.026   6.516 -0.7379  3.2780  1.5076
 1212SOL     OW15268   2.003   0.742   7.083 -0.8664 -0.3052 -0.4264
 1212SOL    HW115269   1.971   0.778   7.000 -2.6988  0.9105  0.7827
 1212SOL    HW215270   1.994   0.816   7.144 -1.1060 -2.4047  2.0854
 1213SOL     OW15271   3.818   3.621  11.089  0.5494  0.2267 -0.5045
 1213SOL    HW115272   3.783   3.709  11.099  0.2817  0.0822 -0.1492
 1213SOL    HW215273   3.733   3.577  11.080  1.2503 -1.1875 -0.1819
 1214SOL     OW15274   2.630   3.888   5.950  0.1889 -0.2258 -0.0130
 1214SOL    HW115275   2.599   3.849   6.032 -1.0329  0.1452 -0.3009
 1214SOL    HW215276   2.691   3.816   5.932 -0.4243 -0.2944 -1.7738
 1215SOL     OW15277   4.429   3.055  14.344 -0.0329 -0.2117  0.1904
 1215SOL    HW115278   4.461   2.976  14.387 -0.6679 -0.4852  0.1522
 1215SOL    HW215279   4.372   3.083  14.416 -0.5753 -0.9711  0.0482
 1216SOL     OW15280   2.388   0.933   9.999 -0.0407  0.0815 -0.6734
 1216SOL    HW115281   2.460   0.908   9.941  1.7433 -0.5676  1.8419
 1216SOL    HW215282   2.328   0.988   9.949  1.3010  0.1079 -2.2427
 1217SOL     OW15283   4.322   0.781   1.723  0.1162  0.2953 -0.1253
 1217SOL    HW115284   4.301   0.801   1.814  0.6535 -0.1579  0.0881
 1217SOL    HW215285   4.254   0.841   1.691 -1.5273 -0.6712  1.5569
 1218SOL     OW15286   0.894   3.561   1.368  0.3609  0.0610 -0.5456
 1218SOL    HW115287   0.799   3.549   1.368  0.5542 -1.5264  1.5568
 1218SOL    HW215288   0.916   3.493   1.432 -1.8621 -0.4789 -0.3787
 1219SOL     OW15289   4.009   3.581   2.946  0.1983 -0.3329 -0.2244
 1219SOL    HW115290   4.024   3.628   2.864  0.8337 -0.0827  0.0402
 1219SOL    HW215291   4.056   3.644   3.000  1.8902  0.1828 -2.3202
 1220SOL     OW15292   1.397   0.631   6.634 -0.1329 -0.1259  0.3972
 1220SOL    HW115293   1.466   0.572   6.663 -0.0570  0.7203  1.9535
 1220SOL    HW215294   1.372   0.593   6.550 -0.6106  0.5891  0.2151
 1221SOL     OW15295   1.916   3.583   7.421 -0.1474 -0.2487  0.7040
 1221SOL    HW115296   1.959   3.541   7.346 -0.7723 -0.0847  0.2488
 1221SOL    HW215297   1.838   3.527   7.422  0.0454 -0.5226  0.3348
 1222SOL     OW15298   1.075   2.813  10.526  0.0136  0.2967  0.1289
 1222SOL    HW115299   0.999   2.762  10.550  0.0544  0.1285 -0.1010
 1222SOL    HW215300   1.148   2.751  10.534  0.2435  0.6107  0.5203
 1223SOL     OW15301   4.397   2.168   4.120  0.0921 -0.0697  0.1031
 1223SOL    HW115302   4.440   2.127   4.046  0.7291 -2.4559  1.7842
 1223SOL    HW215303   4.305   2.139   4.124  1.0177 -3.0379  0.0967
 1224SOL     OW15304   2.429   4.466  11.833  0.0191 -0.0430  0.3133
 1224SOL    HW115305   2.431   4.371  11.830 -0.7887 -0.0827  1.1158
 1224SOL    HW215306   2.406   4.480  11.925  0.1712  3.9594 -0.2234
 1225SOL     OW15307   1.880   3.975   3.550 -0.0426  0.0452 -0.1027
 1225SOL    HW115308   1.900   3.966   3.457 -0.2578  0.9933 -0.2410
 1225SOL    HW215309   1.921   3.900   3.592 -0.5804  1.4675  2.9296
 1226SOL     OW15310   3.424   2.023   3.816  0.2094  0.1364  0.2719
 1226SOL    HW115311   3.351   2.061   3.768  2.4106  1.5677 -1.9681
 1226SOL    HW215312   3.500   2.065   3.777  1.3822 -2.5827 -0.4110
 1227SOL     OW15313   1.136   2.128  10.161 -0.0133  0.1604 -0.4315
 1227SOL    HW115314   1.064   2.079  10.203 -0.3522 -0.2605 -1.4917
 1227SOL    HW215315   1.208   2.110  10.221 -2.5291  0.4223  2.6783
 1228SOL     OW15316   2.650   3.347   8.950 -0.0057  0.3993 -0.0920
 1228SOL    HW115317   2.556   3.356   8.966 -0.0606  0.0258 -0.2161
 1228SOL    HW215318   2.658   3.253   8.962 -0.1048  0.6574  1.9224
 1229SOL     OW15319   0.328   2.551   6.127  0.0534 -0.1054  0.4164
 1229SOL    HW115320   0.412   2.597   6.134 -0.7470  1.1978  1.6088
 1229SOL    HW215321   0.268   2.622   6.102 -0.4041 -0.9349 -0.8200
 1230SOL     OW15322   2.924   3.265  12.684  0.0390 -0.2761 -0.3067
 1230SOL    HW115323   2.917   3.360  12.692 -2.3604 -0.5181  0.3758
 1230SOL    HW215324   2.843   3.249  12.637  1.4559 -0.0539 -2.8326
 1231SOL     OW15325   0.595   0.829   5.821  0.2424  0.1628 -0.2920
 1231SOL    HW115326   0.502   0.811   5.806 -0.0281  1.1780  0.1804
 1231SOL    HW215327   0.603   0.918   5.787 -0.7524 -0.1841 -1.4294
 1232SOL     OW15328   4.667   2.850  12.530  0.2212  0.8106 -0.4824
 1232SOL    HW115329   0.007   2.799  12.564 -0.2834  0.4419  0.0561
 1232SOL    HW215330   4.624   2.789  12.471 -0.1458  1.2868 -0.7067
 1233SOL     OW15331   3.138   4.256   3.590  0.0655  0.3046  0.5841
 1233SOL    HW115332   3.169   4.241   3.501 -3.2758  0.7828 -0.6605
 1233SOL    HW215333   3.053   4.213   3.584  0.0848 -0.0025  2.5195
 1234SOL     OW15334   0.435   2.551   3.886 -0.2876  0.4184  0.1532
 1234SOL    HW115335   0.528   2.555   3.911  0.2721  1.8053 -2.1851
 1234SOL    HW215336   0.446   2.502   3.805 -2.1049  1.8943 -0.9825
 1235SOL     OW15337   3.331   3.032   7.935 -0.8336 -0.1895 -0.2906
 1235SOL    HW115338   3.408   3.055   7.986 -0.7371  0.3346 -0.6722
 1235SOL    HW215339   3.321   3.108   7.878 -0.8325  1.2809  1.6720
 1236SOL     OW15340   1.671   1.985  13.849 -0.2186 -0.6508  0.3964
 1236SOL    HW115341   1.640   1.970  13.939  2.7614 -0.2124  1.5063
 1236SOL    HW215342   1.638   1.901  13.816 -1.3569 -0.1746  0.3433
 1237SOL     OW15343   4.265   0.573   7.345  0.0949 -0.6872  0.1085
 1237SOL    HW115344   4.283   0.645   7.406 -0.4658  0.9916 -1.6983
 1237SOL    HW215345   4.252   0.625   7.265  0.3834 -1.6374 -0.5561
 1238SOL     OW15346   2.497   2.539   5.705 -0.3249 -0.1463  0.1049
 1238SOL    HW115347   2.501   2.631   5.677 -2.3638  0.3358  1.4274
 1238SOL    HW215348   2.575   2.545   5.761  0.0310  0.4812 -0.4576
 1239SOL     OW15349   3.439   3.026   9.514 -0.3606 -0.9011 -0.3092
 1239SOL    HW115350   3.386   3.104   9.530 -2.6638 -3.1457  3.1531
 1239SOL    HW215351   3.423   2.975   9.594 -0.0363  1.2561  1.1416
 1240SOL     OW15352   3.015   3.427   5.386 -0.4486 -0.1525 -0.3877
 1240SOL    HW115353   2.980   3.396   5.469  0.7632 -0.1098  0.1326
 1240SOL    HW215354   2.949   3.394   5.324 -1.6941  1.3540  0.1526
 1241SOL     OW15355   3.520   3.550   5.575  0.0432  0.1129 -0.1720
 1241SOL    HW115356   3.502   3.609   5.502 -1.1612 -3.1983 -2.5325
 1241SOL    HW215357   3.575   3.611   5.625 -2.1346  1.7785  0.1534
 1242SOL     OW15358   4.091   2.461   5.285  0.0291  0.0784 -0.0131
 1242SOL    HW115359   4.151   2.530   5.314 -1.3364  0.7560  1.2468
 1242SOL    HW215360   4.016   2.513   5.256  0.4133  1.0899  0.8122
 1243SOL     OW15361   0.563   1.728  13.500  0.2573  0.0459 -0.1034
 1243SOL    HW115362   0.651   1.764  13.490  0.2099 -0.0302 -0.8222
 1243SOL    HW215363   0.572   1.636  13.475 -1.0599  0.2215 -1.1776
 1244SOL     OW15364   0.109   0.571  15.980 -0.2587  0.0814 -0.1940
 1244SOL    HW115365   0.088   0.627  15.906  1.2991 -0.7911 -1.2986
 1244SOL    HW215366   0.193   0.539  15.946 -0.2363  2.1747 -2.1254
 1245SOL     OW15367   3.656   2.801  17.480 -0.1385 -0.3588  0.1738
 1245SOL    HW115368   3.608   2.869  17.527 -0.2535  0.2378 -0.8214
 1245SOL    HW215369   3.748   2.822  17.493 -0.5776 -0.4268  3.3159
 1246SOL     OW15370   2.673   4.686  11.555  0.1900  0.0386 -0.4749
 1246SOL    HW115371   2.685   0.048  11.565  1.2667  0.0515 -1.7327
 1246SOL    HW215372   2.582   4.686  11.585  0.5431  1.9104  0.5384
 1247SOL     OW15373   1.711   4.110   8.742  0.1814 -0.3386 -0.1056
 1247SOL    HW115374   1.778   4.172   8.714  2.4141 -0.8347  4.1952
 1247SOL    HW215375   1.708   4.057   8.662  1.5506  1.2139 -1.1722
 1248SOL     OW15376   3.112   0.760   6.833 -0.8084  0.1642  0.1705
 1248SOL    HW115377   3.198   0.731   6.802 -0.4812  1.4150 -0.0994
 1248SOL    HW215378   3.096   0.825   6.764 -0.7021 -0.7208 -0.6875
 1249SOL     OW15379   1.123   3.142   6.443  0.6946 -0.0626 -0.0922
 1249SOL    HW115380   1.125   3.174   6.353  1.4100  0.0472 -0.0355
 1249SOL    HW215381   1.186   3.071   6.434 -1.0535 -1.1492 -3.5598
 1250SOL     OW15382   3.546   2.582  17.564  0.0835 -0.1639  0.2717
 1250SOL    HW115383   3.594   2.661  17.540 -3.3140  1.9324  0.4551
 1250SOL    HW215384   3.534   2.531  17.484 -0.5360 -1.1154  0.9620
 1251SOL     OW15385   4.485   4.142   1.989  0.1424 -0.6144 -0.3287
 1251SOL    HW115386   4.405   4.135   1.936  0.6054  1.4441 -1.2777
 1251SOL    HW215387   4.530   4.221   1.960 -1.4923  0.8773  1.1802
 1252SOL     OW15388   4.589   4.434   2.984 -0.2861  0.0626  0.2047
 1252SOL    HW115389   4.654   4.494   2.949  1.0112 -1.3541  0.1742
 1252SOL    HW215390   4.641   4.358   3.009 -2.5509 -1.2836  0.8851
 1253SOL     OW15391   4.106   2.510   8.326 -0.1467 -0.0400  0.2001
 1253SOL    HW115392   4.186   2.467   8.296 -0.8862  0.0466 -1.8976
 1253SOL    HW215393   4.120   2.514   8.421  1.6155  4.1836 -0.2406
 1254SOL     OW15394   1.253   4.566  12.891 -0.4096  0.1747  0.6706
 1254SOL    HW115395   1.281   4.653  12.863 -0.1724  0.0112  0.4043
 1254SOL    HW215396   1.173   4.599  12.933 -1.0794 -0.6967  0.0862
 1255SOL     OW15397   3.733   2.699   4.201  0.8683 -0.2964  0.5097
 1255SOL    HW115398   3.658   2.655   4.239 -0.8862  1.4471 -0.9111
 1255SOL    HW215399   3.764   2.655   4.122  0.5092  0.1865  0.0962
 1256SOL     OW15400   4.224   1.784   9.668  0.0970  0.3070 -0.0571
 1256SOL    HW115401   4.247   1.693   9.646 -2.8228 -0.5030  0.2806
 1256SOL    HW215402   4.222   1.827   9.583  0.8692 -0.5814 -0.5343
 1257SOL     OW15403   1.722   4.421   1.702 -0.3437  0.0584  0.2063
 1257SOL    HW115404   1.817   4.420   1.712 -0.2532 -0.5013 -0.7207
 1257SOL    HW215405   1.707   4.339   1.654 -0.8909 -0.3640  1.0899
 1258SOL     OW15406   3.918   2.606  17.554  0.2723 -0.0224 -0.0812
 1258SOL    HW115407   3.960   2.692  17.559  1.4139 -0.5131 -1.1869
 1258SOL    HW215408   3.902   2.584  17.645 -0.3377 -0.5567 -0.3157
 1259SOL     OW15409   3.931   1.133   8.149 -0.0984  0.4951  0.9753
 1259SOL    HW115410   3.891   1.215   8.179  1.0113 -0.1579  4.2535
 1259SOL    HW215411   3.954   1.089   8.231 -0.4203 -2.4671 -0.5303
 1260SOL     OW15412   2.783   0.327   6.173 -0.2815  0.3498  0.5091
 1260SOL    HW115413   2.800   0.421   6.166 -2.7032  0.7408 -0.1789
 1260SOL    HW215414   2.862   0.274   6.180 -0.9562 -0.6286  0.7563
 1261SOL     OW15415   3.281   2.200   6.952  0.0378 -0.9076  0.5148
 1261SOL    HW115416   3.262   2.269   6.888  1.3294  1.1766  2.3639
 1261SOL    HW215417   3.364   2.164   6.922  1.4367  3.1443 -0.4373
 1262SOL     OW15418   1.040   1.950   7.962 -0.0935  0.0893 -0.1430
 1262SOL    HW115419   1.087   1.902   8.030 -0.5874 -2.0732 -1.3197
 1262SOL    HW215420   1.091   2.029   7.946  0.2560  0.0705  0.8905
 1263SOL     OW15421   3.950   3.205  10.809  0.1141  0.4571  0.1869
 1263SOL    HW115422   3.976   3.289  10.771  0.0812  0.9170  1.1902
 1263SOL    HW215423   3.896   3.232  10.883 -0.7777 -0.6043 -0.0800
 1264SOL     OW15424   1.205   4.342   6.979  0.1721 -0.0625  0.6172
 1264SOL    HW115425   1.144   4.336   7.052 -1.4483  0.6260 -0.6854
 1264SOL    HW215426   1.274   4.401   7.009  0.9375 -1.2662  1.2395
 1265SOL     OW15427   0.585   2.279  10.992  0.0761  0.2743  0.9083
 1265SOL    HW115428   0.540   2.338  10.931 -0.3960  1.2816  2.2406
 1265SOL    HW215429   0.540   2.284  11.076  0.2380  0.9283  0.9538
 1266SOL     OW15430   0.300   3.506   4.963  0.0190 -0.6478 -0.7365
 1266SOL    HW115431   0.389   3.534   4.987 -0.3656  0.0761 -0.1335
 1266SOL    HW215432   0.279   3.450   5.038  0.8750 -0.9813 -0.7414
 1267SOL     OW15433   0.323   0.774   4.603 -0.1788  0.0311  0.3669
 1267SOL    HW115434   0.294   0.706   4.543  1.0920 -2.6293  2.7542
 1267SOL    HW215435   0.353   0.724   4.678 -0.7348 -0.4620  0.2571
 1268SOL     OW15436   0.925   2.726   7.759 -0.3759 -0.1725 -0.0703
 1268SOL    HW115437   0.896   2.652   7.705  0.6103 -2.3247  2.3512
 1268SOL    HW215438   0.999   2.683   7.802  0.2142  1.0407  0.1367
 1269SOL     OW15439   0.166   2.722  10.438 -0.0706 -0.1357 -0.4798
 1269SOL    HW115440   0.158   2.645  10.493 -1.2410  2.4345  2.9508
 1269SOL    HW215441   0.200   2.687  10.356 -1.1079 -0.4850 -0.7546
 1270SOL     OW15442   0.095   1.754  17.185 -0.2344 -0.0084  0.0275
 1270SOL    HW115443   0.071   1.838  17.145  0.3954  0.7031  1.1443
 1270SOL    HW215444   0.068   1.695  17.115 -3.8567 -1.5940  2.7319
 1271SOL     OW15445   0.805   1.633   1.781 -0.5749  0.1098  0.3288
 1271SOL    HW115446   0.877   1.661   1.839 -2.0808  2.8670  0.8593
 1271SOL    HW215447   0.798   1.706   1.720 -1.3578  0.5809  0.9822
 1272SOL     OW15448   0.076   4.150  13.091  0.1327  0.3790  1.0023
 1272SOL    HW115449   0.171   4.162  13.086  0.4881 -2.4328  0.9554
 1272SOL    HW215450   0.064   4.087  13.161  3.5695 -0.9029  0.4386
 1273SOL     OW15451   1.525   0.167   6.344  0.8755 -0.2398 -0.4515
 1273SOL    HW115452   1.443   0.125   6.321 -0.4922  2.0056  0.2901
 1273SOL    HW215453   1.588   0.096   6.331  2.9227  1.0961  2.2560
 1274SOL     OW15454   2.488   0.124  14.936 -0.2561  0.5771  0.2981
 1274SOL    HW115455   2.443   0.119  15.020 -0.0049  2.0641  0.5132
 1274SOL    HW215456   2.581   0.136  14.955 -0.1677  0.7919 -0.2498
 1275SOL     OW15457   2.315   1.838   1.484  0.1264 -0.0659  0.0542
 1275SOL    HW115458   2.402   1.813   1.514  1.2067  2.2941 -1.1097
 1275SOL    HW215459   2.272   1.752   1.483  0.0572 -0.0275 -0.4497
 1276SOL     OW15460   1.365   2.557   6.669 -0.5093  0.2346 -0.0659
 1276SOL    HW115461   1.446   2.576   6.622 -1.3285 -1.8221 -2.2647
 1276SOL    HW215462   1.311   2.535   6.593 -0.6547  0.9996 -0.1823
 1277SOL     OW15463   0.508   2.190   8.718 -0.2019 -0.1037  0.1538
 1277SOL    HW115464   0.473   2.158   8.801  1.3165 -0.7408  0.5439
 1277SOL    HW215465   0.592   2.225   8.746  0.3400 -0.2334 -1.3381
 1278SOL     OW15466   2.871   0.637   3.348  0.5224  0.4778 -0.0491
 1278SOL    HW115467   2.789   0.662   3.388  0.7194  0.2101  0.5171
 1278SOL    HW215468   2.845   0.636   3.256 -0.4191 -1.8174  0.2416
 1279SOL     OW15469   0.685   2.399   0.142 -0.0138 -1.2557  0.2109
 1279SOL    HW115470   0.696   2.324   0.201  1.4232 -1.8351 -0.7730
 1279SOL    HW215471   0.620   2.363   0.082 -0.0803 -1.0041  0.1314
 1280SOL     OW15472   4.577   3.992   4.528  0.3167  0.8324 -0.4595
 1280SOL    HW115473   4.522   4.001   4.605 -0.1960 -2.0689 -0.4873
 1280SOL    HW215474   4.649   3.944   4.568 -0.0716 -0.5011 -1.3484
 1281SOL     OW15475   0.038   1.174   2.041  0.4396 -0.3126 -0.9453
 1281SOL    HW115476   4.726   1.092   2.018 -1.8823  0.9736 -1.0479
 1281SOL    HW215477   0.125   1.148   2.071 -1.2079 -3.0472  1.5579
 1282SOL     OW15478   3.272   0.411   3.928 -0.2525 -0.4598 -0.1285
 1282SOL    HW115479   3.333   0.337   3.934 -0.5312 -0.4336  2.6908
 1282SOL    HW215480   3.318   0.476   3.980 -1.5949 -0.4189  0.9951
 1283SOL     OW15481   0.716   2.998   5.704 -0.4670  0.7359 -0.4251
 1283SOL    HW115482   0.743   3.061   5.637  1.3759 -0.2021 -0.5655
 1283SOL    HW215483   0.710   3.059   5.777  1.8137 -1.2822  1.4488
 1284SOL     OW15484   4.624   3.381   9.222  1.1971 -1.2136  0.4396
 1284SOL    HW115485   4.687   3.330   9.272  0.6912 -1.5652  0.7107
 1284SOL    HW215486   4.632   3.470   9.255 -0.8138 -0.5644 -0.7837
 1285SOL     OW15487   4.445   3.655   1.813  0.1929 -0.5245 -0.0949
 1285SOL    HW115488   4.499   3.712   1.868  1.8636 -1.6279 -0.6005
 1285SOL    HW215489   4.363   3.706   1.812  1.0177  0.8310  1.7585
 1286SOL     OW15490   0.987   3.280   8.012  0.2390  0.1117  0.4545
 1286SOL    HW115491   0.947   3.195   8.030  1.8325 -0.6276  0.5031
 1286SOL    HW215492   0.926   3.341   8.052  0.9475  1.3531 -0.3456
 1287SOL     OW15493   1.937   1.287  12.844 -0.1238 -0.5069  0.3531
 1287SOL    HW115494   2.012   1.228  12.854  1.7543  1.7071 -0.6561
 1287SOL    HW215495   1.905   1.295  12.934  1.2520 -1.1398  0.8907
 1288SOL     OW15496   0.496   2.776   2.041 -0.2415 -0.4034 -0.4542
 1288SOL    HW115497   0.429   2.724   2.085 -0.4319 -1.5094 -2.0261
 1288SOL    HW215498   0.432   2.820   1.984 -0.9649 -1.5145 -0.5275
 1289SOL     OW15499   3.612   2.131   5.111  0.8180 -0.3471  0.3779
 1289SOL    HW115500   3.661   2.137   5.029 -0.2727  1.7221 -0.1441
 1289SOL    HW215501   3.574   2.043   5.107  0.3719 -0.0553 -1.7719
 1290SOL     OW15502   4.336   3.684   7.925  0.6218 -0.2437  0.0570
 1290SOL    HW115503   4.342   3.762   7.871 -0.1230 -0.9977 -1.1169
 1290SOL    HW215504   4.357   3.733   8.004 -0.5908 -0.3046  0.4063
 1291SOL     OW15505   3.306   1.780   2.515 -0.2265  0.1169 -0.4706
 1291SOL    HW115506   3.328   1.692   2.547 -0.4174  0.2386 -0.0174
 1291SOL    HW215507   3.384   1.797   2.462  0.0839 -0.4878 -0.2041
 1292SOL     OW15508   2.490   3.765   6.694 -0.4080  0.9660  0.0944
 1292SOL    HW115509   2.550   3.744   6.622  1.0889 -2.6894  2.4376
 1292SOL    HW215510   2.454   3.678   6.711  0.4308  0.6235  0.1207
 1293SOL     OW15511   4.334   0.707   2.531 -0.0326  0.4526 -0.1303
 1293SOL    HW115512   4.415   0.666   2.559 -1.1933 -1.6660  0.0865
 1293SOL    HW215513   4.355   0.801   2.537 -0.2122  0.4989 -0.2284
 1294SOL     OW15514   1.971   3.853  12.848  0.0550  0.5109 -0.5394
 1294SOL    HW115515   1.941   3.943  12.861 -0.2333  0.5178 -1.3042
 1294SOL    HW215516   1.977   3.853  12.753  0.3949 -0.8987 -0.5306
 1295SOL     OW15517   3.831   1.213   5.742 -0.4042 -0.0811 -0.3696
 1295SOL    HW115518   3.827   1.130   5.790 -1.2647 -0.3442 -0.8870
 1295SOL    HW215519   3.813   1.276   5.811 -1.1234  0.6470 -1.2172
 1296SOL     OW15520   2.686   1.678   4.413  0.4717 -0.4207 -0.4661
 1296SOL    HW115521   2.776   1.709   4.416  0.2887 -0.0801  1.1331
 1296SOL    HW215522   2.650   1.767   4.408 -1.5065 -1.2695 -1.6511
 1297SOL     OW15523   2.417   2.558   8.052  0.0017  0.1509 -0.4082
 1297SOL    HW115524   2.395   2.646   8.020 -1.7417  0.3401  1.2575
 1297SOL    HW215525   2.388   2.507   7.976 -0.8265 -0.3877  0.2644
 1298SOL     OW15526   4.332   0.959  17.179 -0.2706 -0.3499 -0.1718
 1298SOL    HW115527   4.294   0.945  17.092  0.4218  0.1095 -0.5521
 1298SOL    HW215528   4.425   0.940  17.162 -0.1675  0.0169 -0.0099
 1299SOL     OW15529   2.005   2.401   2.410 -0.2955 -0.4089  0.5572
 1299SOL    HW115530   1.935   2.425   2.349  1.0649  2.2810  0.0406
 1299SOL    HW215531   1.965   2.348   2.478 -0.8557 -0.1323  0.4422
 1300SOL     OW15532   4.336   4.441   6.312  1.1483 -0.2344  0.2949
 1300SOL    HW115533   4.281   4.366   6.335 -0.1633  0.1865 -1.5212
 1300SOL    HW215534   4.269   4.510   6.312  0.0840 -1.2606  0.1633
 1301SOL     OW15535   3.093   3.812   4.595  0.3850 -0.1537  0.4335
 1301SOL    HW115536   3.070   3.720   4.609  1.1719 -0.6437 -1.4649
 1301SOL    HW215537   3.181   3.807   4.632  1.0707 -1.2220 -1.3020
 1302SOL     OW15538   4.235   2.848   6.719 -0.4330 -0.3718  0.6355
 1302SOL    HW115539   4.191   2.789   6.780 -1.8119  0.0203  0.0069
 1302SOL    HW215540   4.285   2.792   6.659  0.3848  0.1603  0.8235
 1303SOL     OW15541   3.026   3.959   7.333 -0.6342  0.0174  0.6860
 1303SOL    HW115542   3.113   3.921   7.345 -0.6249 -0.4371 -0.8226
 1303SOL    HW215543   2.984   3.886   7.286  1.0877  0.0404 -0.9048
 1304SOL     OW15544   0.873   3.412  16.600  0.2714  0.1133 -0.2816
 1304SOL    HW115545   0.796   3.401  16.655  1.7739  0.1936  1.8662
 1304SOL    HW215546   0.832   3.404  16.514 -0.7804  3.0626 -0.0493
 1305SOL     OW15547   1.639   2.678   7.539 -0.2795 -1.1484  0.1898
 1305SOL    HW115548   1.700   2.608   7.516  1.6611  0.8326 -0.7294
 1305SOL    HW215549   1.654   2.687   7.633  1.4991  0.0744 -0.2042
 1306SOL     OW15550   3.918   2.457   9.023 -0.3049  0.4302  0.2311
 1306SOL    HW115551   3.878   2.542   9.010  0.5437  1.0119  1.4640
 1306SOL    HW215552   3.838   2.407   9.038 -0.0050 -0.2322 -0.3106
 1307SOL     OW15553   1.566   1.889   2.462 -0.1612  0.1262 -0.6890
 1307SOL    HW115554   1.629   1.869   2.532 -0.7390 -3.1498 -1.0943
 1307SOL    HW215555   1.493   1.933   2.506  3.1067  3.5088  1.3401
 1308SOL     OW15556   4.069   3.453   5.102 -0.2252  0.3516  0.3122
 1308SOL    HW115557   4.027   3.410   5.177  0.9914 -1.3209  0.0426
 1308SOL    HW215558   4.120   3.524   5.141  1.6773 -0.8933  0.0652
 1309SOL     OW15559   1.405   4.081   2.217 -0.5621  0.3113  0.0480
 1309SOL    HW115560   1.448   4.053   2.297 -0.9921 -2.3752 -0.6302
 1309SOL    HW215561   1.340   4.139   2.256  0.6888  2.1737 -0.6679
 1310SOL     OW15562   2.598   4.153   4.043 -0.8350 -0.2608 -0.1248
 1310SOL    HW115563   2.617   4.222   4.105  0.9376 -1.7596  0.9982
 1310SOL    HW215564   2.556   4.188   3.964  0.9753  1.5707 -0.2728
 1311SOL     OW15565   1.580   2.055  16.020 -0.2292 -0.0454 -0.2597
 1311SOL    HW115566   1.584   2.114  16.095 -3.3110 -0.1114 -0.0766
 1311SOL    HW215567   1.497   2.063  15.973  0.8792 -0.9877 -2.4211
 1312SOL     OW15568   4.082   3.499  11.732  0.0377  0.6155  0.5317
 1312SOL    HW115569   4.061   3.502  11.639  1.0389  2.7307  0.3750
 1312SOL    HW215570   4.130   3.418  11.715  2.5757  1.7018  2.5937
 1313SOL     OW15571   2.580   3.681  10.599 -0.3538  0.3751  0.5404
 1313SOL    HW115572   2.657   3.674  10.542  0.1756 -0.6803  1.3944
 1313SOL    HW215573   2.518   3.723  10.539  0.0433  0.7607  0.3955
 1314SOL     OW15574   0.048   0.928   9.653 -0.0624 -0.0714  0.1422
 1314SOL    HW115575   0.093   0.847   9.628  0.2053  1.0184 -2.9526
 1314SOL    HW215576   0.014   0.969   9.573  1.6624 -0.4521 -0.7853
 1315SOL     OW15577   0.472   1.190   2.534 -0.6106 -0.0078 -0.6230
 1315SOL    HW115578   0.513   1.201   2.448 -2.5419  2.1257 -1.2835
 1315SOL    HW215579   0.413   1.266   2.532 -2.0036 -1.0985 -0.3268
 1316SOL     OW15580   1.454   1.716   3.924 -0.0850  0.6338 -0.3626
 1316SOL    HW115581   1.546   1.690   3.925 -0.4349 -0.5901  0.2673
 1316SOL    HW215582   1.410   1.640   3.887 -1.1247  1.3266 -0.5581
 1317SOL     OW15583   1.092   4.320   7.671 -0.0091 -0.0608 -0.1074
 1317SOL    HW115584   1.057   4.405   7.645  1.6089  1.4576  2.6755
 1317SOL    HW215585   1.121   4.354   7.756  1.5887  1.3169 -1.2054
 1318SOL     OW15586   1.908   1.460   9.512 -0.1474  0.4841  0.3030
 1318SOL    HW115587   1.882   1.531   9.572 -1.3030  0.6841 -0.4241
 1318SOL    HW215588   1.914   1.386   9.572 -1.9382  0.4527  0.4636
 1319SOL     OW15589   4.298   1.188   8.680 -0.7863 -0.7163 -0.6812
 1319SOL    HW115590   4.232   1.225   8.621 -0.6773  1.6329  0.6943
 1319SOL    HW215591   4.344   1.132   8.617 -1.8224 -1.3879 -0.8533
 1320SOL     OW15592   1.389   0.436  12.687  0.0450 -0.3396  0.3905
 1320SOL    HW115593   1.349   0.423  12.601  0.9654  2.6491 -0.4738
 1320SOL    HW215594   1.455   0.367  12.690 -0.5384 -0.8543  1.9582
 1321SOL     OW15595   3.676   4.182   4.853 -0.3991 -0.5755  1.3128
 1321SOL    HW115596   3.756   4.229   4.877 -1.3867  1.3980  0.7591
 1321SOL    HW215597   3.648   4.222   4.771  2.9935 -2.6894 -0.8869
 1322SOL     OW15598   3.693   2.997   8.509  0.4404  0.1330 -0.0511
 1322SOL    HW115599   3.749   2.944   8.566  0.3092  2.0395  1.8732
 1322SOL    HW215600   3.656   3.052   8.578 -0.4696 -0.4988 -0.0384
 1323SOL     OW15601   1.024   3.585   3.098 -0.2023  0.2235  0.0351
 1323SOL    HW115602   0.950   3.646   3.096  1.7376  2.5888 -0.1228
 1323SOL    HW215603   1.091   3.644   3.062  1.4724 -0.6618  1.7205
 1324SOL     OW15604   3.603   4.413   1.406  0.5327 -0.1042 -0.4093
 1324SOL    HW115605   3.659   4.384   1.335  0.2628  2.3552 -1.6081
 1324SOL    HW215606   3.672   4.450   1.460  2.2900 -0.4712 -2.4142
 1325SOL     OW15607   3.912   1.990   5.094 -0.4734  0.6623 -0.0891
 1325SOL    HW115608   3.849   1.972   5.025  0.5262  0.0477 -0.8495
 1325SOL    HW215609   3.976   2.042   5.045  1.0993 -0.4608  0.7618
 1326SOL     OW15610   1.632   1.309  15.526 -0.3959 -0.1340 -0.4568
 1326SOL    HW115611   1.643   1.223  15.486  0.1375  0.2753 -1.1847
 1326SOL    HW215612   1.568   1.350  15.469 -2.1507 -0.1453  1.5030
 1327SOL     OW15613   3.121   3.180  10.668  0.5888 -0.6293  0.1731
 1327SOL    HW115614   3.105   3.116  10.599 -1.5703 -0.4073  0.4674
 1327SOL    HW215615   3.188   3.227  10.619  0.6207 -0.8974 -0.0407
 1328SOL     OW15616   1.357   3.517   7.387  0.6420  0.3987 -0.5111
 1328SOL    HW115617   1.263   3.505   7.373  0.5462  1.9904 -1.1875
 1328SOL    HW215618   1.354   3.554   7.476  0.0132 -1.4531  0.2470
 1329SOL     OW15619   4.503   0.940  16.749 -0.5130 -0.0268  0.0514
 1329SOL    HW115620   4.408   0.938  16.745 -0.5397 -0.2504  0.7855
 1329SOL    HW215621   4.524   0.869  16.809  0.9896 -2.1552 -3.0000
 1330SOL     OW15622   3.975   4.530   6.109 -0.2458  0.2620  0.5296
 1330SOL    HW115623   3.985   4.486   6.193 -1.3433  0.5526  0.8218
 1330SOL    HW215624   4.044   4.496   6.052  0.0520 -0.5897  1.4048
 1331SOL     OW15625   4.166   0.983   0.072 -0.1690  0.5878  0.2359
 1331SOL    HW115626   4.212   1.047   0.018  0.4201 -0.6077 -0.6805
 1331SOL    HW215627   4.115   0.942   0.003 -1.3983  2.4399  0.0444
 1332SOL     OW15628   1.547   0.690   4.625 -0.5452 -0.6553  0.6790
 1332SOL    HW115629   1.605   0.623   4.661  0.8965 -0.4632 -1.2783
 1332SOL    HW215630   1.586   0.706   4.539 -2.3823 -0.7287 -0.1654
 1333SOL     OW15631   2.544   3.494   7.796 -0.0457 -0.0501 -0.1259
 1333SOL    HW115632   2.587   3.447   7.724 -1.0858 -1.7658  0.3767
 1333SOL    HW215633   2.523   3.415   7.845  0.2615  0.1847  0.3804
 1334SOL     OW15634   0.141   3.068   0.785  0.3225  0.1219  0.0784
 1334SOL    HW115635   0.209   3.098   0.846  0.4118  0.9027 -0.4075
 1334SOL    HW215636   0.111   3.149   0.744  0.3435  0.7115  1.2103
 1335SOL     OW15637   3.346   0.446   3.661  0.1534 -0.4505  0.0527
 1335SOL    HW115638   3.297   0.454   3.743 -0.9601 -1.8297 -0.4604
 1335SOL    HW215639   3.281   0.474   3.596  1.3667  3.3393  0.5109
 1336SOL     OW15640   0.683   3.589   3.908  0.2199  0.2499  0.5826
 1336SOL    HW115641   0.718   3.500   3.905  0.1165  0.2660 -1.0735
 1336SOL    HW215642   0.619   3.584   3.979 -1.0358 -0.3503 -0.5750
 1337SOL     OW15643   1.548   0.981   6.318  0.0383  0.3000  0.2020
 1337SOL    HW115644   1.559   1.050   6.252  2.2098 -0.5492 -0.3347
 1337SOL    HW215645   1.620   0.991   6.381 -1.0171 -2.5623  1.8709
 1338SOL     OW15646   0.367   2.846   4.413  0.4295  0.2870 -0.1230
 1338SOL    HW115647   0.449   2.838   4.463  0.7453  1.2192 -0.5069
 1338SOL    HW215648   0.325   2.768   4.449  0.3367 -0.8208 -2.6906
 1339SOL     OW15649   4.061   1.278   4.422  0.6070 -0.7397 -0.6450
 1339SOL    HW115650   4.009   1.353   4.396  0.6713 -0.3985  0.2241
 1339SOL    HW215651   4.051   1.287   4.517 -2.2231 -2.9898 -0.7244
 1340SOL     OW15652   3.050   1.752   9.086  0.4278  0.3265 -0.1909
 1340SOL    HW115653   3.043   1.759   8.991 -0.3827  0.9165 -0.0901
 1340SOL    HW215654   3.144   1.740   9.097 -0.0255 -1.7115  1.4483
 1341SOL     OW15655   0.304   3.578   4.355  0.1215  0.0279  0.1905
 1341SOL    HW115656   0.260   3.517   4.414  1.2248 -1.1620 -0.2149
 1341SOL    HW215657   0.375   3.521   4.324  2.3685  1.9655  1.7761
 1342SOL     OW15658   0.302   2.404   9.119 -0.2810  0.0594  0.1608
 1342SOL    HW115659   0.233   2.455   9.077  1.2939  0.7233 -1.6591
 1342SOL    HW215660   0.381   2.430   9.071 -0.2688 -1.1554 -0.4578
 1343SOL     OW15661   3.185   1.471   5.555 -0.3386  0.1648  0.0979
 1343SOL    HW115662   3.135   1.458   5.636  1.0547 -0.6410  0.8209
 1343SOL    HW215663   3.194   1.566   5.565  0.1784  0.1047  0.2179
 1344SOL     OW15664   2.256   3.164   5.761 -0.5413  0.2521 -0.0088
 1344SOL    HW115665   2.327   3.104   5.739 -0.7104  0.5497 -1.3666
 1344SOL    HW215666   2.221   3.194   5.677 -2.6743 -0.2083  0.7023
 1345SOL     OW15667   3.127   0.235   4.273  0.8044  0.6711 -0.2237
 1345SOL    HW115668   3.211   0.279   4.259  1.5225 -0.7240 -0.2525
 1345SOL    HW215669   3.074   0.282   4.208  1.9507  0.5279 -1.2643
 1346SOL     OW15670   0.847   4.548   7.282  0.2816  0.4823 -0.2986
 1346SOL    HW115671   0.837   4.462   7.325 -2.2158  0.4658 -0.9185
 1346SOL    HW215672   0.847   4.603   7.360 -2.6367 -2.0364  1.4926
 1347SOL     OW15673   3.970   4.615  10.001  0.2846 -0.2917 -0.2820
 1347SOL    HW115674   3.995   4.527   9.973 -1.5665 -1.2135  0.9936
 1347SOL    HW215675   3.944   4.594  10.091 -0.3048 -2.1633 -0.8877
 1348SOL     OW15676   4.656   1.406   1.966  0.3781  0.4861 -0.7823
 1348SOL    HW115677   4.725   1.466   1.995  2.3466 -0.9771 -2.4209
 1348SOL    HW215678   4.691   1.321   1.993 -0.3343  0.6842  0.7313
 1349SOL     OW15679   4.424   4.633   3.638  0.8975  0.2113 -0.3620
 1349SOL    HW115680   4.442   4.651   3.546 -0.9755 -0.6369 -0.8972
 1349SOL    HW215681   4.458   4.713   3.677 -0.9839  1.8810 -2.0871
 1350SOL     OW15682   4.172   3.605   5.311 -0.3751  0.6627  0.1772
 1350SOL    HW115683   4.094   3.647   5.348 -0.8431  0.0248 -0.0827
 1350SOL    HW215684   4.201   3.670   5.247 -0.3623  0.6253  0.1448
 1351SOL     OW15685   3.087   2.712  14.876 -0.0263  0.3970 -0.4481
 1351SOL    HW115686   3.091   2.742  14.785 -1.3638 -1.0188 -0.9675
 1351SOL    HW215687   3.113   2.799  14.909 -2.2578 -0.5115  3.6403
 1352SOL     OW15688   0.617   1.477  14.768 -0.4169 -0.1506  0.5859
 1352SOL    HW115689   0.685   1.538  14.738 -1.7639  1.1854  0.2707
 1352SOL    HW215690   0.669   1.411  14.813 -0.9304 -0.1395  1.1887
 1353SOL     OW15691   4.353   0.544  15.614  0.8698  0.2289  0.0759
 1353SOL    HW115692   4.340   0.462  15.566  0.9444  0.6195 -0.6148
 1353SOL    HW215693   4.289   0.535  15.684  2.2409  2.3612  1.5958
 1354SOL     OW15694   2.658   0.291   1.060 -0.3009 -0.1707 -0.0390
 1354SOL    HW115695   2.633   0.336   1.140  0.9694  0.4347  0.0188
 1354SOL    HW215696   2.724   0.237   1.102 -1.8707 -2.1761 -0.1468
 1355SOL     OW15697   3.009   0.901  12.931  0.6624 -1.1725 -0.1575
 1355SOL    HW115698   3.069   0.892  12.858  1.2331  1.5626 -0.0222
 1355SOL    HW215699   2.986   0.810  12.950  0.4388 -1.0599  0.1163
 1356SOL     OW15700   3.492   0.523  15.128  0.3559 -0.7734  0.0033
 1356SOL    HW115701   3.573   0.483  15.158  0.5480 -0.1145  0.3603
 1356SOL    HW215702   3.431   0.490  15.194  0.3145  1.1456  0.9196
 1357SOL     OW15703   1.882   1.540  15.916 -0.6789  0.5999  0.1872
 1357SOL    HW115704   1.885   1.625  15.958 -0.1922  0.5963  0.1537
 1357SOL    HW215705   1.926   1.563  15.834 -2.2025 -2.3605 -1.4891
 1358SOL     OW15706   0.916   3.641  15.780  0.2773 -0.3621  0.1733
 1358SOL    HW115707   0.894   3.681  15.864  0.9032  0.1302  0.1017
 1358SOL    HW215708   0.953   3.560  15.814 -3.7477 -1.7962  1.1580
 1359SOL     OW15709   2.863   2.453   7.514  0.6809 -0.0091  0.3117
 1359SOL    HW115710   2.852   2.413   7.428 -2.6084 -2.5081  1.8858
 1359SOL    HW215711   2.937   2.510   7.497  0.2227  0.1075 -1.2644
 1360SOL     OW15712   0.730   4.191  15.129  0.2893 -0.0446 -0.1881
 1360SOL    HW115713   0.676   4.139  15.069  0.4361  1.5060 -1.6722
 1360SOL    HW215714   0.697   4.166  15.215 -2.0612  2.4278 -0.3884
 1361SOL     OW15715   3.374   0.887   3.607 -0.5223  0.7042 -0.0756
 1361SOL    HW115716   3.371   0.919   3.516  2.2189 -1.7008 -0.9886
 1361SOL    HW215717   3.286   0.850   3.603  1.0148 -2.6716 -3.1823
 1362SOL     OW15718   3.763   2.387  13.807  0.3619  0.2128 -0.4278
 1362SOL    HW115719   3.704   2.457  13.836 -1.0846 -0.4599 -1.7092
 1362SOL    HW215720   3.763   2.325  13.879  0.8977  0.5953 -0.1012
 1363SOL     OW15721   4.687   0.919   4.981 -0.0596  0.2704 -0.3171
 1363SOL    HW115722   4.648   1.006   4.973 -0.2393  0.2449  0.2655
 1363SOL    HW215723   0.048   0.935   4.965  0.6640 -4.6007 -0.9033
 1364SOL     OW15724   4.384   0.947   3.642  0.2153  0.4058  0.4459
 1364SOL    HW115725   4.325   0.890   3.593  1.0320 -1.2337  1.3651
 1364SOL    HW215726   4.349   0.929   3.729 -1.0174  0.8767  0.0354
 1365SOL     OW15727   3.881   2.915   8.674  0.0091 -0.2222 -0.4512
 1365SOL    HW115728   3.974   2.923   8.657 -0.3483 -0.2390 -2.3407
 1365SOL    HW215729   3.860   2.842   8.617 -0.3910 -0.6019  0.1795
 1366SOL     OW15730   4.569   0.179   6.434 -0.0359  0.1189 -0.1588
 1366SOL    HW115731   4.606   0.264   6.458 -1.7699  1.3896 -1.9278
 1366SOL    HW215732   4.629   0.119   6.478 -0.7278  0.5889  1.4029
 1367SOL     OW15733   2.777   0.340   1.512  0.6215  0.5554 -0.5107
 1367SOL    HW115734   2.723   0.376   1.442  0.0705 -0.6452 -0.7104
 1367SOL    HW215735   2.819   0.415   1.553  1.8542 -0.0638 -0.6471
 1368SOL     OW15736   0.367   3.179   6.536 -0.2458 -0.1120  0.1873
 1368SOL    HW115737   0.410   3.258   6.503 -2.1077  1.7964  2.3288
 1368SOL    HW215738   0.326   3.223   6.611 -0.1472 -1.9528  1.3181
 1369SOL     OW15739   2.217   3.487  10.451  0.2021  0.1706  0.3872
 1369SOL    HW115740   2.182   3.576  10.453  0.9734  0.5272 -1.6202
 1369SOL    HW215741   2.140   3.437  10.425 -0.5155  1.4179  0.1002
 1370SOL     OW15742   2.002   1.722   5.012 -0.4370  0.1762 -0.0305
 1370SOL    HW115743   2.049   1.648   4.974  0.6406  0.0123  1.6215
 1370SOL    HW215744   2.023   1.785   4.943 -1.9399 -0.0101 -0.6612
 1371SOL     OW15745   2.181   0.395   5.529 -0.3197 -0.3869  0.4148
 1371SOL    HW115746   2.223   0.481   5.540  0.8025 -0.7037 -1.4741
 1371SOL    HW215747   2.226   0.366   5.450 -0.5667  0.2440  0.0419
 1372SOL     OW15748   4.291   2.256   6.886 -0.1070  0.3691  0.3693
 1372SOL    HW115749   4.277   2.173   6.931 -1.0044  0.4299  0.2020
 1372SOL    HW215750   4.198   2.275   6.881 -0.1756  0.1714  0.9275
 1373SOL     OW15751   0.399   2.859   8.011  0.4548 -0.2813  0.3099
 1373SOL    HW115752   0.339   2.802   7.964  1.2213 -0.8081 -0.0394
 1373SOL    HW215753   0.452   2.897   7.941 -1.1231  2.6711  0.7303
 1374SOL     OW15754   0.974   4.039   2.251  0.2625  0.2427 -0.4686
 1374SOL    HW115755   0.989   4.050   2.157  1.6830 -0.2375 -0.2958
 1374SOL    HW215756   0.986   4.128   2.284  1.1923 -0.4160  0.9399
 1375SOL     OW15757   1.947   1.199   9.698  0.2758  0.4695 -0.4358
 1375SOL    HW115758   1.857   1.178   9.723 -0.3531 -0.1086 -3.2352
 1375SOL    HW215759   1.989   1.113   9.691  2.7827  1.5775  1.0145
 1376SOL     OW15760   3.914   0.094   8.661 -0.0484 -0.2051  0.2518
 1376SOL    HW115761   3.893   0.174   8.710 -1.1951 -0.6972  0.5633
 1376SOL    HW215762   3.978   0.047   8.715 -2.8798 -2.3771  1.6748
 1377SOL     OW15763   3.966   0.540   5.084 -0.1229 -0.0818 -0.5524
 1377SOL    HW115764   3.892   0.490   5.049  0.5310  0.4343 -2.6549
 1377SOL    HW215765   4.026   0.546   5.010 -0.0554  1.1115 -0.3916
 1378SOL     OW15766   4.633   1.982   8.785 -0.0778  0.4651 -0.0488
 1378SOL    HW115767   4.553   1.980   8.733 -0.7681  0.2122  1.0236
 1378SOL    HW215768   4.694   2.002   8.714 -1.1314  0.1997 -1.0132
 1379SOL     OW15769   2.243   4.511   7.908 -0.4331  0.2632 -0.7043
 1379SOL    HW115770   2.164   4.563   7.905 -1.0623 -0.6613 -0.2622
 1379SOL    HW215771   2.281   4.509   7.820  0.1173 -1.6251 -0.4343
 1380SOL     OW15772   4.624   2.096  16.065  0.5696 -0.0039  0.6532
 1380SOL    HW115773   4.694   2.035  16.045  0.7435  0.3228  0.2777
 1380SOL    HW215774   4.677   2.157  16.115  0.3571  0.6952  0.0197
 1381SOL     OW15775   0.520   2.902   0.695 -0.0602  0.1684 -0.3026
 1381SOL    HW115776   0.581   2.962   0.738 -0.3742 -0.2978  0.7872
 1381SOL    HW215777   0.457   2.889   0.766 -0.4592 -0.9952 -0.8771
 1382SOL     OW15778   0.638   2.344   5.218  0.4072  0.0710  0.3932
 1382SOL    HW115779   0.695   2.383   5.284  1.3308 -2.5428  1.1279
 1382SOL    HW215780   0.551   2.366   5.251  0.3907  1.1330 -0.3454
 1383SOL     OW15781   0.125   2.699  12.637 -0.5720 -0.2716  0.2268
 1383SOL    HW115782   0.210   2.657  12.623 -0.2032  0.2281  0.9649
 1383SOL    HW215783   0.134   2.699  12.732 -0.4958  1.4375  0.2174
 1384SOL     OW15784   2.005   3.003   5.738 -0.0364  0.5727  0.2639
 1384SOL    HW115785   2.045   3.088   5.723 -0.0807  0.7864  1.4113
 1384SOL    HW215786   1.929   3.038   5.784 -0.9991  0.9288 -1.5687
 1385SOL     OW15787   3.416   4.115   0.838  0.5140 -0.2749  1.0313
 1385SOL    HW115788   3.444   4.026   0.860  1.1428 -1.1208 -3.2308
 1385SOL    HW215789   3.351   4.101   0.769 -1.5106 -0.9411  3.0735
 1386SOL     OW15790   2.564   0.148  13.739  0.2643 -0.6750  0.1073
 1386SOL    HW115791   2.575   0.170  13.832  0.3865  1.8506 -0.5166
 1386SOL    HW215792   2.470   0.158  13.728  0.4637  1.6131  0.5799
 1387SOL     OW15793   3.761   1.803   8.869  0.0563 -0.5007  0.6112
 1387SOL    HW115794   3.773   1.714   8.902  0.9835 -1.2657 -1.7700
 1387SOL    HW215795   3.823   1.849   8.926  1.7350 -2.5157  0.4226
 1388SOL     OW15796   4.668   0.029  12.588  0.2131 -0.5075  0.4733
 1388SOL    HW115797   4.577   0.021  12.560  0.1948  0.7112  0.1692
 1388SOL    HW215798   4.689   0.077  12.508 -2.9206  1.0614  0.6112
 1389SOL     OW15799   4.016   2.643   7.900 -0.1854  0.0934 -0.6949
 1389SOL    HW115800   4.007   2.667   7.993 -0.2512 -1.2912 -0.3478
 1389SOL    HW215801   4.108   2.664   7.882 -0.3981  1.8222  0.2169
 1390SOL     OW15802   2.928   4.491   3.074  0.2537  0.3357  0.4075
 1390SOL    HW115803   2.857   4.429   3.091 -0.5174  1.1043 -0.0241
 1390SOL    HW215804   2.996   4.423   3.071 -1.4866 -1.2580 -3.4602
 1391SOL     OW15805   2.505   2.250   5.273  0.4056 -0.4945  0.5230
 1391SOL    HW115806   2.570   2.184   5.298  0.0890  0.4237  3.7178
 1391SOL    HW215807   2.527   2.324   5.329  2.8213 -1.6223  1.0572
 1392SOL     OW15808   2.385   4.172  13.990  0.4677  0.3643  0.1969
 1392SOL    HW115809   2.308   4.218  13.957 -0.7247 -1.5831  0.2914
 1392SOL    HW215810   2.349   4.157  14.078 -1.2428 -2.4441 -0.9917
 1393SOL     OW15811   4.616   3.566  15.507 -0.3353 -0.3566 -0.3295
 1393SOL    HW115812   4.538   3.541  15.457 -0.8692  0.0538  0.3052
 1393SOL    HW215813   4.574   3.612  15.579 -0.1937  2.2137 -1.8691
 1394SOL     OW15814   1.448   3.785   8.834  0.5941  0.7296 -0.0135
 1394SOL    HW115815   1.524   3.727   8.829  0.5565  0.6132  0.7731
 1394SOL    HW215816   1.439   3.791   8.929  0.7645  2.7993 -0.1392
 1395SOL     OW15817   4.696   3.061   2.124  0.0502  0.2946 -0.5255
 1395SOL    HW115818   4.670   3.024   2.209  0.8405  1.3639  0.1789
 1395SOL    HW215819   4.663   3.149   2.143  2.1501  1.0152 -0.2808
 1396SOL     OW15820   2.318   0.347  12.184 -0.7190 -1.0378  0.3840
 1396SOL    HW115821   2.330   0.441  12.201 -1.2586 -0.9958  0.5492
 1396SOL    HW215822   2.241   0.337  12.240 -0.9854  0.1937  0.2416
 1397SOL     OW15823   0.498   3.438   2.921 -0.1491  0.0857  0.5534
 1397SOL    HW115824   0.501   3.446   3.016  0.9524  0.5261  0.4759
 1397SOL    HW215825   0.577   3.391   2.894  0.7881  3.0116 -1.7631
 1398SOL     OW15826   2.254   2.202   2.571  0.2498 -0.0692  0.3886
 1398SOL    HW115827   2.281   2.164   2.487 -0.0258  0.9228 -0.1570
 1398SOL    HW215828   2.159   2.190   2.578  0.3636 -1.6475 -0.7840
 1399SOL     OW15829   1.323   2.451   3.557  0.1181 -0.4473  0.0728
 1399SOL    HW115830   1.386   2.511   3.597 -0.3497  0.3347 -0.3599
 1399SOL    HW215831   1.312   2.491   3.471  2.6069 -0.0943 -0.0870
 1400SOL     OW15832   3.439   3.952   4.555  0.3202  0.3357  0.5690
 1400SOL    HW115833   3.440   3.868   4.601 -1.2367 -0.1513 -0.2750
 1400SOL    HW215834   3.374   4.004   4.601 -0.0446  0.4562 -0.0790
 1401SOL     OW15835   0.378   1.369   7.928  0.3473  0.1629 -0.0268
 1401SOL    HW115836   0.310   1.331   7.873  0.8820 -0.8874  0.0385
 1401SOL    HW215837   0.425   1.292   7.961  0.8108 -0.2435 -1.6580
 1402SOL     OW15838   1.209   3.636   2.712 -0.3726 -0.6260 -0.0810
 1402SOL    HW115839   1.204   3.726   2.681  1.4990 -0.6750 -0.5314
 1402SOL    HW215840   1.291   3.629   2.760 -1.2861  2.7963  2.0282
 1403SOL     OW15841   3.306   2.738   0.739  0.6765 -0.2820  0.3004
 1403SOL    HW115842   3.279   2.799   0.808 -1.3250 -1.6859  0.7848
 1403SOL    HW215843   3.394   2.712   0.766  0.5974  1.4222  2.2124
 1404SOL     OW15844   3.504   1.459   4.775  0.2843  0.4532 -0.1393
 1404SOL    HW115845   3.522   1.371   4.740 -1.2462  0.5022 -1.0742
 1404SOL    HW215846   3.472   1.501   4.695  2.4482  3.7239  0.7380
 1405SOL     OW15847   4.301   3.348   4.976  0.0360  0.2888  0.3661
 1405SOL    HW115848   4.212   3.382   4.970  0.1898 -0.0101 -3.6808
 1405SOL    HW215849   4.309   3.364   5.070  0.5596  0.0923  0.3521
 1406SOL     OW15850   2.415   0.317  10.391 -0.2854  0.0937 -0.3825
 1406SOL    HW115851   2.351   0.387  10.400  1.4677  1.3978  1.8808
 1406SOL    HW215852   2.498   0.343  10.431 -1.7638 -1.4842  3.7748
 1407SOL     OW15853   0.933   0.824   6.002 -0.0903  0.8752 -0.5724
 1407SOL    HW115854   0.839   0.840   6.003 -0.2444 -0.0135 -0.7142
 1407SOL    HW215855   0.944   0.777   5.919 -0.1417 -1.1965  0.5856
 1408SOL     OW15856   1.687   0.394   1.601  0.3763 -0.4939  0.5476
 1408SOL    HW115857   1.598   0.365   1.582  1.3898 -3.0667 -0.2992
 1408SOL    HW215858   1.658   0.485   1.609 -0.9770 -0.9024  0.3443
 1409SOL     OW15859   1.495   2.808   7.372 -0.2672  0.1870  0.0889
 1409SOL    HW115860   1.567   2.766   7.419 -0.1893  1.4835  1.1320
 1409SOL    HW215861   1.423   2.772   7.425  0.8109  1.1757  2.2322
 1410SOL     OW15862   0.454   0.643   1.717 -0.1160 -1.4082 -0.2395
 1410SOL    HW115863   0.405   0.720   1.744 -0.0515 -0.8338 -1.8199
 1410SOL    HW215864   0.494   0.667   1.634  0.0971  1.5541  0.7228
 1411SOL     OW15865   4.617   2.534   9.024  0.4717 -0.0068 -0.4629
 1411SOL    HW115866   4.665   2.611   8.995 -2.0460  0.4748 -3.3095
 1411SOL    HW215867   4.647   2.520   9.114 -0.1142  1.6730 -0.0248
 1412SOL     OW15868   2.958   3.156   3.687 -0.1198  0.8160  0.0546
 1412SOL    HW115869   2.884   3.125   3.635 -0.3665 -1.0770  1.5085
 1412SOL    HW215870   2.909   3.195   3.759 -2.7859 -2.3967 -0.0225
 1413SOL     OW15871   1.416   3.142   3.102 -0.4325 -0.0653 -0.1340
 1413SOL    HW115872   1.448   3.096   3.025  1.7006  1.7839 -0.3498
 1413SOL    HW215873   1.491   3.144   3.161  0.0148  1.2343 -0.7297
 1414SOL     OW15874   4.614   2.056   0.071  0.3741 -0.8252 -0.3152
 1414SOL    HW115875   4.524   2.086   0.058  1.4239  1.7380 -1.5825
 1414SOL    HW215876   4.591   1.964   0.079 -1.4631 -0.6102 -3.1186
 1415SOL     OW15877   4.277   4.198   7.336  0.4205  0.2002 -0.4775
 1415SOL    HW115878   4.211   4.152   7.284  0.5132  0.0928 -0.5010
 1415SOL    HW215879   4.348   4.205   7.272  0.8016  0.0248 -0.0722
 1416SOL     OW15880   0.462   0.566  12.896 -0.4579 -0.3910 -0.2884
 1416SOL    HW115881   0.387   0.618  12.866 -0.4380 -0.5952 -0.7014
 1416SOL    HW215882   0.409   0.500  12.941 -1.0737  0.3265  0.0375
 1417SOL     OW15883   0.258   2.219   2.360 -0.6596 -0.3355  0.2615
 1417SOL    HW115884   0.274   2.311   2.383 -1.7652 -0.7233  2.5488
 1417SOL    HW215885   0.224   2.235   2.272  0.8327 -0.4239 -0.3284
 1418SOL     OW15886   3.370   2.875   5.239  0.3141  0.5978  0.1228
 1418SOL    HW115887   3.342   2.911   5.155  2.0324  1.4789 -0.0802
 1418SOL    HW215888   3.285   2.844   5.270 -1.8270  3.4570 -2.8355
 1419SOL     OW15889   3.617   0.210  13.877  0.0203  0.4709 -0.2179
 1419SOL    HW115890   3.681   0.280  13.880  2.8197 -2.0892  0.1901
 1419SOL    HW215891   3.662   0.149  13.936  0.1421  1.0541  0.2917
 1420SOL     OW15892   0.774   0.364   3.156  0.3196 -0.0642 -0.8640
 1420SOL    HW115893   0.714   0.290   3.147 -1.4613  1.2319  0.4110
 1420SOL    HW215894   0.748   0.421   3.084  0.4288  1.0825  0.0050
 1421SOL     OW15895   1.578   3.515   0.133 -0.0453 -0.3279  0.0790
 1421SOL    HW115896   1.622   3.600   0.135 -1.3106  0.3878 -2.2489
 1421SOL    HW215897   1.565   3.513   0.227 -1.3386 -0.6418 -0.1125
 1422SOL     OW15898   1.219   2.566   9.274  0.7100 -0.3564  0.9890
 1422SOL    HW115899   1.149   2.504   9.291 -0.4139  0.8950  0.9991
 1422SOL    HW215900   1.170   2.649   9.274  0.6590 -0.3544 -2.1307
 1423SOL     OW15901   2.615   4.234  15.507  0.3186  0.1956  0.0474
 1423SOL    HW115902   2.550   4.164  15.498  0.7975 -0.4690  1.7114
 1423SOL    HW215903   2.556   4.304  15.536 -1.1188 -0.9177 -0.1800
 1424SOL     OW15904   1.562   3.550   9.504  0.7811  0.1795 -0.2180
 1424SOL    HW115905   1.584   3.632   9.548 -2.2111  0.4459  0.7718
 1424SOL    HW215906   1.642   3.536   9.453  0.5782 -0.9295 -0.2217
 1425SOL     OW15907   2.307   3.448  17.001 -0.0679  0.3618  0.4539
 1425SOL    HW115908   2.221   3.479  17.031 -0.5137 -0.0531 -0.4071
 1425SOL    HW215909   2.337   3.391  17.072 -2.7506  0.6997  1.8867
 1426SOL     OW15910   4.130   2.456   9.547 -0.3412 -0.3814 -0.6753
 1426SOL    HW115911   4.062   2.484   9.486 -3.2929 -0.0894  2.7527
 1426SOL    HW215912   4.190   2.530   9.538  0.5329 -1.0682 -0.4489
 1427SOL     OW15913   4.465   0.277  14.097 -0.5617 -0.0839  0.4124
 1427SOL    HW115914   4.456   0.227  14.016 -0.1948 -0.3858  0.5582
 1427SOL    HW215915   4.524   0.214  14.139  0.7857  0.4594 -0.6768
 1428SOL     OW15916   3.110   1.811   7.895 -0.7288  0.1236  0.1117
 1428SOL    HW115917   3.018   1.802   7.868 -1.2250 -3.6106  3.1025
 1428SOL    HW215918   3.118   1.906   7.882 -0.2520  0.0950  0.2035
 1429SOL     OW15919   3.284   0.097   4.420 -0.0243 -0.5936  0.4508
 1429SOL    HW115920   3.229   0.098   4.498  0.0800 -1.3091  0.5320
 1429SOL    HW215921   3.223   0.140   4.360 -0.0360 -0.3147  0.6663
 1430SOL     OW15922   4.009   4.064  14.875  0.1282 -0.5024 -0.0078
 1430SOL    HW115923   4.018   4.067  14.970  1.7268  3.4020 -0.2977
 1430SOL    HW215924   3.914   4.053  14.870 -0.1888  2.3400 -0.0758
 1431SOL     OW15925   1.790   2.535  16.994  0.4048  0.3370 -0.0704
 1431SOL    HW115926   1.851   2.606  17.012 -0.1708  0.8649 -0.1750
 1431SOL    HW215927   1.837   2.485  16.927 -0.5454 -0.2717 -0.2877
 1432SOL     OW15928   2.034   1.470   3.819 -0.5470  0.0545  0.1204
 1432SOL    HW115929   2.004   1.460   3.909 -0.0103 -0.3964  0.2505
 1432SOL    HW215930   2.080   1.388   3.806 -2.1586 -0.9421  0.6214
 1433SOL     OW15931   0.460   3.766   6.992 -0.7554 -0.4141 -0.1330
 1433SOL    HW115932   0.536   3.758   7.050 -0.4463 -2.0265 -0.7503
 1433SOL    HW215933   0.496   3.835   6.936  3.0625 -0.5251  2.1591
 1434SOL     OW15934   2.093   0.000   6.213  0.4343  0.1195 -0.1657
 1434SOL    HW115935   2.013   0.048   6.191 -0.4875 -0.5295  1.7117
 1434SOL    HW215936   2.161   0.036   6.156  2.9890 -2.8209  0.9943
 1435SOL     OW15937   4.019   2.849  15.537  0.4342  0.3386  0.7352
 1435SOL    HW115938   3.968   2.866  15.617 -1.1774 -0.1003 -0.1902
 1435SOL    HW215939   4.105   2.873  15.569  1.3546 -1.5041 -0.3547
 1436SOL     OW15940   1.633   0.018   0.620 -0.2401 -0.3809 -0.2047
 1436SOL    HW115941   1.557   0.034   0.564  0.7830 -1.3270 -1.8892
 1436SOL    HW215942   1.603   0.055   0.703 -1.3970  0.2412 -0.9098
 1437SOL     OW15943   4.646   0.673   7.465  0.7144  0.0383 -0.0446
 1437SOL    HW115944   4.711   0.669   7.395  0.7408 -1.1646  0.0453
 1437SOL    HW215945   4.654   0.758   7.509 -0.7909  0.8248 -1.2825
 1438SOL     OW15946   1.281   1.716   6.350 -0.5077  0.0944 -0.2142
 1438SOL    HW115947   1.240   1.803   6.353  0.1218  0.3470  1.3032
 1438SOL    HW215948   1.375   1.730   6.367 -0.3315 -2.4375  0.9208
 1439SOL     OW15949   1.908   1.322   5.361  0.5787  0.8468 -0.3016
 1439SOL    HW115950   1.863   1.252   5.408  0.7529  0.9495  0.0233
 1439SOL    HW215951   1.926   1.281   5.277  1.9388  0.1632  0.3263
 1440SOL     OW15952   2.737   1.390   7.127 -0.1076 -0.4241 -0.4806
 1440SOL    HW115953   2.782   1.417   7.048 -0.2419 -0.9147 -0.7264
 1440SOL    HW215954   2.735   1.473   7.174  0.3233 -0.9268  0.4464
 1441SOL     OW15955   2.846   0.524   7.843  0.1830  0.9194 -0.6158
 1441SOL    HW115956   2.802   0.466   7.781  0.6420  0.1827 -0.2470
 1441SOL    HW215957   2.934   0.542   7.809  0.2903  1.9219  0.1886
 1442SOL     OW15958   0.742   0.600   6.998  0.1423 -0.2949 -0.3830
 1442SOL    HW115959   0.734   0.689   6.964  1.2848  0.0690  0.3081
 1442SOL    HW215960   0.721   0.546   6.922  1.9401 -0.0779 -1.0399
 1443SOL     OW15961   3.399   0.423   6.749  0.3242  0.2060  0.5394
 1443SOL    HW115962   3.304   0.431   6.748  0.4262  1.6194  1.5410
 1443SOL    HW215963   3.422   0.379   6.667 -2.2766  0.3650 -0.2801
 1444SOL     OW15964   4.328   2.098  15.455  0.0956 -0.2011 -1.4580
 1444SOL    HW115965   4.316   2.074  15.546  1.4781  2.4879 -0.5433
 1444SOL    HW215966   4.423   2.092  15.441  0.1715  1.0763 -1.5260
 1445SOL     OW15967   3.417   1.642   8.569  0.3552 -0.3425  0.6793
 1445SOL    HW115968   3.404   1.613   8.479  1.6973  0.5920  0.1779
 1445SOL    HW215969   3.367   1.724   8.578  1.9252  0.6264  0.5818
 1446SOL     OW15970   2.649   1.348   2.782  0.6681  0.2940  0.0705
 1446SOL    HW115971   2.618   1.271   2.735 -0.2806 -0.3141  1.6719
 1446SOL    HW215972   2.676   1.404   2.710 -0.2402  0.2426 -0.3020
 1447SOL     OW15973   0.235   4.069   7.860  0.9486  0.1398  0.1343
 1447SOL    HW115974   0.313   4.038   7.815 -0.2680 -1.1663 -1.0991
 1447SOL    HW215975   0.171   4.018   7.809  2.8517  0.3940 -2.5096
 1448SOL     OW15976   0.119   4.716   5.967  0.1206 -0.0232 -0.4099
 1448SOL    HW115977   0.047   0.024   6.017 -0.0185 -0.5366 -0.1933
 1448SOL    HW215978   0.186   0.052   5.972 -0.8937  1.0726 -1.5746
 1449SOL     OW15979   4.665   4.071   2.611  0.4021  0.6287  0.5347
 1449SOL    HW115980   4.661   4.014   2.534  1.1521 -0.3694  1.2307
 1449SOL    HW215981   0.004   4.033   2.662  0.0239  0.9271  1.2866
 1450SOL     OW15982   0.415   3.455  15.246  0.8770 -0.0466 -0.6952
 1450SOL    HW115983   0.333   3.409  15.233  0.0680  1.4666 -0.9797
 1450SOL    HW215984   0.388   3.547  15.238 -0.7516 -0.4937 -0.1155
 1451SOL     OW15985   4.543   4.684  15.862 -0.0701  0.3427 -0.4595
 1451SOL    HW115986   4.638   4.673  15.859  0.2169  2.7922 -0.1787
 1451SOL    HW215987   4.510   4.675  15.772 -1.7140 -2.8244  0.4627
 1452SOL     OW15988   0.098   0.682   4.816  0.0011 -0.1163 -0.7354
 1452SOL    HW115989   0.148   0.600   4.820  0.0780 -0.1974 -3.3622
 1452SOL    HW215990   0.137   0.716   4.897  0.2068 -0.4243 -0.7058
 1453SOL     OW15991   1.311   1.847   9.225  0.5619 -0.0212  0.2510
 1453SOL    HW115992   1.320   1.876   9.316 -1.1734  2.4559 -0.3704
 1453SOL    HW215993   1.307   1.753   9.246 -1.2049 -0.2944 -1.2762
 1454SOL     OW15994   1.301   1.254   8.051 -0.2453 -0.4338  0.4770
 1454SOL    HW115995   1.242   1.314   8.097 -1.3176  0.3424 -1.8796
 1454SOL    HW215996   1.239   1.182   8.039 -0.7049 -0.0307  0.4104
 1455SOL     OW15997   4.574   0.266   5.711 -0.6101 -0.3700  0.2921
 1455SOL    HW115998   4.667   0.245   5.707 -0.4672  0.5486 -1.1600
 1455SOL    HW215999   4.552   0.192   5.768 -4.4931  0.9811  0.5408
 1456SOL     OW16000   3.846   0.667   5.705 -0.6626  0.2182  0.2527
 1456SOL    HW116001   3.808   0.755   5.706  0.3848  0.6920 -1.1967
 1456SOL    HW216002   3.898   0.650   5.784 -0.5265  0.3949  0.2009
 1457SOL     OW16003   0.865   3.836   1.194  0.2875  0.4091 -0.5431
 1457SOL    HW116004   0.883   3.781   1.270 -1.4194  1.8716  0.8998
 1457SOL    HW216005   0.852   3.776   1.120 -0.5322 -3.2298  2.5466
 1458SOL     OW16006   2.109   2.445  12.701 -0.5999 -0.2194  0.0972
 1458SOL    HW116007   2.161   2.499  12.761  0.1770  1.4765 -2.1145
 1458SOL    HW216008   2.023   2.455  12.743 -0.7028  0.4822 -0.2787
 1459SOL     OW16009   4.103   2.586   8.817 -0.1162  0.3307 -0.1332
 1459SOL    HW116010   4.171   2.633   8.865 -0.7529  0.7257  0.3751
 1459SOL    HW216011   4.024   2.630   8.849  0.8171  3.3743 -1.9829
 1460SOL     OW16012   3.647   3.589   4.747  0.3289  0.1334  0.6044
 1460SOL    HW116013   3.572   3.641   4.779 -0.6009 -0.8167 -0.0273
 1460SOL    HW216014   3.705   3.581   4.822 -0.4820  0.6577  1.2816
 1461SOL     OW16015   3.445   4.156   0.040  0.0442 -0.0832 -0.0741
 1461SOL    HW116016   3.485   4.233  17.729  0.0208 -1.0346 -1.8765
 1461SOL    HW216017   3.520   4.096   0.043  0.3685  0.2276 -2.0514
 1462SOL     OW16018   1.379   0.061   6.755  0.0367  0.0047  0.1651
 1462SOL    HW116019   1.302   0.005   6.766  1.2059 -1.2241  2.1454
 1462SOL    HW216020   1.336   0.140   6.721  1.4358 -1.1573 -4.2842
 1463SOL     OW16021   4.457   3.144   9.872  0.0120  0.3592 -0.2519
 1463SOL    HW116022   4.453   3.069   9.932 -1.1629 -1.2396 -2.3315
 1463SOL    HW216023   4.375   3.141   9.823 -0.0796 -1.0640 -0.0241
 1464SOL     OW16024   0.630   3.058   3.639 -0.5298 -0.0803  0.0560
 1464SOL    HW116025   0.547   3.013   3.655  0.0699 -0.9549  0.6935
 1464SOL    HW216026   0.620   3.088   3.548  0.1510 -0.5109 -0.1582
 1465SOL     OW16027   0.203   1.628  14.241  0.0451 -0.5447 -0.3278
 1465SOL    HW116028   0.207   1.589  14.328  0.6050  1.0028  0.3364
 1465SOL    HW216029   0.119   1.674  14.242 -0.3020 -1.1670 -0.3557
 1466SOL     OW16030   1.576   4.038   5.719 -0.4438 -0.7046 -0.4406
 1466SOL    HW116031   1.487   4.005   5.733 -0.0783 -1.6609 -0.3643
 1466SOL    HW216032   1.616   3.966   5.671 -0.9903 -1.2116 -0.1282
 1467SOL     OW16033   0.078   1.473   8.340 -0.2463  0.2045 -0.4435
 1467SOL    HW116034   0.128   1.499   8.417 -1.0106  0.8493 -0.1697
 1467SOL    HW216035   0.114   1.392   8.305 -1.9473  0.0225 -1.8033
 1468SOL     OW16036   4.649   1.124   2.625  0.0897 -0.1632 -0.0322
 1468SOL    HW116037   0.005   1.116   2.589 -0.0099 -0.8546 -0.1383
 1468SOL    HW216038   4.654   1.055   2.691 -1.2961  0.3176  0.5690
 1469SOL     OW16039   1.375   1.148  14.879 -0.0608 -0.1752 -0.6236
 1469SOL    HW116040   1.330   1.076  14.925  1.2182 -1.1527 -0.9181
 1469SOL    HW216041   1.405   1.097  14.804  0.0241 -0.8708 -0.1226
 1470SOL     OW16042   1.722   1.643   6.249 -0.2756  0.7082 -0.6987
 1470SOL    HW116043   1.704   1.719   6.193 -0.4339  0.1755 -1.3615
 1470SOL    HW216044   1.816   1.642   6.265 -0.1355 -2.1678 -1.7685
 1471SOL     OW16045   1.519   3.814   1.119  0.0181 -0.1347  0.4209
 1471SOL    HW116046   1.431   3.834   1.151 -0.1858 -0.1328 -0.1376
 1471SOL    HW216047   1.531   3.741   1.181 -0.5423 -1.0994 -0.5959
 1472SOL     OW16048   1.040   3.077   4.301  0.1556  0.7570  0.4059
 1472SOL    HW116049   0.975   3.147   4.295  0.1597  0.7502  0.2746
 1472SOL    HW216050   0.984   3.006   4.268  1.3310  0.3400 -0.6652
 1473SOL     OW16051   4.057   2.670   3.738  0.2612  0.3006 -0.4950
 1473SOL    HW116052   4.137   2.682   3.687 -0.0723  1.9763 -0.6339
 1473SOL    HW216053   4.000   2.702   3.668 -1.6695 -2.0978 -0.0315
 1474SOL     OW16054   3.755   0.925   3.525 -0.2533 -0.2769 -0.1529
 1474SOL    HW116055   3.822   0.961   3.583  0.5215 -2.7712  0.5218
 1474SOL    HW216056   3.711   1.000   3.486 -1.8083 -0.6618  0.8277
 1475SOL     OW16057   1.519   2.913  12.003 -0.4721  0.2711  0.3200
 1475SOL    HW116058   1.596   2.915  11.946 -1.2030 -2.2140 -0.7737
 1475SOL    HW216059   1.552   2.970  12.072 -0.0699  1.5967 -0.9838
 1476SOL     OW16060   3.488   4.580   5.762  0.1910  0.1032  0.1084
 1476SOL    HW116061   3.523   4.515   5.823  0.9398 -0.0394 -0.4664
 1476SOL    HW216062   3.494   4.663   5.808  2.0623 -0.6939  1.2838
 1477SOL     OW16063   3.578   3.468   8.761 -0.1527  0.8494  0.7227
 1477SOL    HW116064   3.609   3.523   8.832 -0.4386  0.3392  1.2377
 1477SOL    HW216065   3.486   3.495   8.762 -0.4572 -0.2823  3.2052
 1478SOL     OW16066   2.894   2.041   0.144  0.1205  0.3146  0.0030
 1478SOL    HW116067   2.859   2.125   0.174 -0.1393  0.5959 -1.1167
 1478SOL    HW216068   2.821   2.006   0.093 -0.5360  1.4644  0.1452
 1479SOL     OW16069   2.833   0.956   0.158  0.2270 -0.2534  0.4001
 1479SOL    HW116070   2.799   0.911   0.235 -0.4922  0.9238  0.7553
 1479SOL    HW216071   2.916   0.990   0.192  1.0056 -1.8235  0.0955
 1480SOL     OW16072   2.497   1.208   4.476 -0.4514  0.3525 -0.1464
 1480SOL    HW116073   2.537   1.246   4.398  0.2248  3.4426  1.7259
 1480SOL    HW216074   2.426   1.272   4.485 -1.0524 -0.2843 -0.3651
 1481SOL     OW16075   4.042   4.091   7.231  0.6370 -0.4551 -0.4263
 1481SOL    HW116076   3.954   4.055   7.234  0.6816 -0.4778  0.9275
 1481SOL    HW216077   4.023   4.184   7.243 -0.8573 -0.6785 -1.1000
 1482SOL     OW16078   4.655   2.783  11.028  0.0137 -0.0391 -0.0723
 1482SOL    HW116079   4.723   2.836  11.071 -0.0242  0.9081 -1.1781
 1482SOL    HW216080   4.590   2.852  11.014  1.1718  0.9086 -0.8304
 1483SOL     OW16081   3.286   4.644  12.044 -0.4898  0.0414 -0.5873
 1483SOL    HW116082   3.334   4.710  12.094  2.1571 -2.0327 -0.3843
 1483SOL    HW216083   3.229   4.706  11.999  0.4188  1.0884 -0.3058
 1484SOL     OW16084   1.410   1.004   4.165  0.2185 -0.1096  0.5070
 1484SOL    HW116085   1.423   0.945   4.092  0.6124  0.6881 -0.0654
 1484SOL    HW216086   1.444   1.085   4.129  0.5535  0.2868  1.6915
 1485SOL     OW16087   4.704   3.932   3.411  0.5513 -0.6239 -0.3733
 1485SOL    HW116088   4.652   4.008   3.438 -0.2296 -1.3858  0.2837
 1485SOL    HW216089   0.051   3.935   3.463  0.8605 -0.6511 -0.8406
 1486SOL     OW16090   1.563   1.732  17.015 -0.3415  0.1270 -0.6190
 1486SOL    HW116091   1.606   1.647  17.008 -1.4133 -0.4037 -0.8632
 1486SOL    HW216092   1.509   1.727  17.094 -1.2931  0.1635 -1.2605
 1487SOL     OW16093   3.390   3.170   6.004 -0.5695  0.4058  0.4632
 1487SOL    HW116094   3.388   3.115   6.082 -3.5798  0.7182  0.6073
 1487SOL    HW216095   3.297   3.159   5.981 -0.2305  1.5150 -1.4156
 1488SOL     OW16096   1.002   0.774   4.455  0.6477  0.7517 -0.1695
 1488SOL    HW116097   0.927   0.750   4.401  2.2250  0.5111 -2.2410
 1488SOL    HW216098   1.068   0.713   4.423 -0.4870 -0.0715 -0.9328
 1489SOL     OW16099   4.215   3.067  14.522  0.4731 -0.0035 -0.6863
 1489SOL    HW116100   4.189   2.975  14.513 -2.2606  0.6504  0.5450
 1489SOL    HW216101   4.188   3.092  14.611 -2.0393  1.1640 -1.7845
 1490SOL     OW16102   4.444   3.537   5.939 -0.3174 -0.0808 -0.2434
 1490SOL    HW116103   4.485   3.511   6.022  0.3823  0.4529 -0.4239
 1490SOL    HW216104   4.364   3.484   5.939  0.8740 -1.8891 -0.6079
 1491SOL     OW16105   4.455   0.469  10.316  0.2493  0.4880  0.6799
 1491SOL    HW116106   4.440   0.376  10.328  1.8562  0.1365  0.0016
 1491SOL    HW216107   4.478   0.492  10.406 -1.8809 -2.4019  1.9547
 1492SOL     OW16108   0.809   1.769   0.974 -0.0756 -0.0439  0.1831
 1492SOL    HW116109   0.854   1.833   1.030 -0.1189  1.4325 -1.4899
 1492SOL    HW216110   0.721   1.807   0.977 -1.4027 -3.2126  0.7757
 1493SOL     OW16111   3.921   0.534   3.852 -0.1563 -0.3019  0.2419
 1493SOL    HW116112   3.825   0.535   3.851 -0.2095 -2.4936  3.4844
 1493SOL    HW216113   3.943   0.551   3.760  1.7739  1.6757  1.0779
 1494SOL     OW16114   4.280   2.314   7.964  0.1851 -0.1287 -0.1356
 1494SOL    HW116115   4.302   2.326   8.056  1.5154 -1.5507 -0.2733
 1494SOL    HW216116   4.186   2.332   7.971  0.5216  0.5679  2.5295
 1495SOL     OW16117   0.716   3.321   2.841 -0.2282 -0.1381 -0.1743
 1495SOL    HW116118   0.692   3.234   2.810  0.3945  0.0651 -1.2178
 1495SOL    HW216119   0.765   3.354   2.766  0.2075  1.4923  0.8469
 1496SOL     OW16120   2.021   4.460   9.190  0.7574 -0.0253 -0.7838
 1496SOL    HW116121   2.081   4.514   9.139  1.7450  2.3826  2.8861
 1496SOL    HW216122   1.993   4.517   9.261 -1.1178 -1.1980 -0.5869
 1497SOL     OW16123   2.154   0.233   7.528  0.1678 -0.1223  0.0608
 1497SOL    HW116124   2.070   0.212   7.487 -0.4092 -1.7805  2.0859
 1497SOL    HW216125   2.133   0.198   7.615 -2.2452  1.1914  0.0075
 1498SOL     OW16126   4.528   4.701   5.480  0.1616  0.3416 -0.2147
 1498SOL    HW116127   4.505   4.609   5.481 -0.7029  0.5547 -0.7670
 1498SOL    HW216128   4.461   0.012   5.533  0.3690  1.4556 -0.8527
 1499SOL     OW16129   4.071   4.379   9.914 -0.1287 -0.1362 -0.0866
 1499SOL    HW116130   4.160   4.390   9.880  0.0420  0.1144  0.4521
 1499SOL    HW216131   4.098   4.362  10.004  0.6628 -0.2052 -0.3297
 1500SOL     OW16132   2.156   2.721  16.129  0.1174 -0.3103 -0.7048
 1500SOL    HW116133   2.186   2.653  16.069 -0.2941  0.4662 -1.7977
 1500SOL    HW216134   2.156   2.794  16.067 -0.2695  0.8934  0.6892
 1501SOL     OW16135   1.981   0.529   1.747  0.9839 -0.3268 -0.3292
 1501SOL    HW116136   1.899   0.577   1.738  2.2972  2.0377  0.2247
 1501SOL    HW216137   2.006   0.552   1.837  0.8190  0.9577 -0.6073
 1502SOL     OW16138   3.494   4.154   1.678 -0.0733  0.0518 -0.3621
 1502SOL    HW116139   3.575   4.204   1.679 -0.8291  1.2344  1.2283
 1502SOL    HW216140   3.535   4.068   1.693 -0.5624  0.1085  1.3640
 1503SOL     OW16141   1.988   2.863   7.537 -0.1583  0.1663  0.1604
 1503SOL    HW116142   1.973   2.957   7.531  0.6085  0.3954  1.7049
 1503SOL    HW216143   1.998   2.842   7.444 -1.6380  1.2535 -0.2514
 1504SOL     OW16144   3.974   1.270   7.547 -0.0226  0.4264 -0.3458
 1504SOL    HW116145   4.012   1.357   7.549  1.5032 -0.2647  0.6868
 1504SOL    HW216146   3.884   1.286   7.519 -0.4232 -3.0235 -1.0385
 1505SOL     OW16147   0.683   1.357   7.935  0.1436  0.7689 -0.4358
 1505SOL    HW116148   0.626   1.305   7.992  0.9598 -1.3336 -1.5289
 1505SOL    HW216149   0.647   1.371   7.847 -1.1265 -0.6109 -0.1472
 1506SOL     OW16150   1.641   2.440  14.305  0.6760  0.6791  0.0921
 1506SOL    HW116151   1.646   2.526  14.346  0.1564  0.6469  0.2167
 1506SOL    HW216152   1.727   2.421  14.267  1.3728  2.5219  0.7588
 1507SOL     OW16153   3.808   2.023   5.444 -0.2552 -0.3256  0.0261
 1507SOL    HW116154   3.722   2.023   5.401 -0.6424 -1.9830  0.7788
 1507SOL    HW216155   3.858   2.074   5.380  2.0794 -0.5903  1.6332
 1508SOL     OW16156   3.402   3.024  12.652 -0.5176 -0.1290  0.8804
 1508SOL    HW116157   3.482   3.065  12.685  1.0283 -1.5710 -1.0723
 1508SOL    HW216158   3.406   3.040  12.558 -0.7207  1.1805  1.1037
 1509SOL     OW16159   4.726   1.424   6.957 -0.0473  0.1719 -0.4750
 1509SOL    HW116160   4.716   1.419   6.862  1.2774 -3.2445 -0.4551
 1509SOL    HW216161   0.088   1.411   6.966  0.0548 -0.8490 -2.9029
 1510SOL     OW16162   4.079   3.190   2.765  0.3832  0.1983  0.0688
 1510SOL    HW116163   4.006   3.131   2.747 -1.1927  2.1012  0.3051
 1510SOL    HW216164   4.120   3.197   2.679  0.6168  0.2603  0.1854
 1511SOL     OW16165   0.036   4.144   5.059 -0.0174  0.3910 -0.6262
 1511SOL    HW116166   4.728   4.209   5.117 -2.0327 -1.3036 -0.1660
 1511SOL    HW216167   4.700   4.078   5.056 -0.4750  0.9210 -1.5781
 1512SOL     OW16168   0.377   4.164  12.745  0.0509 -0.1983 -0.4827
 1512SOL    HW116169   0.310   4.132  12.684 -0.6790  0.6165 -0.1193
 1512SOL    HW216170   0.316   4.231  12.777  0.2337  0.9799 -2.6303
 1513SOL     OW16171   0.521   1.504   3.218 -0.2763 -0.2875 -0.5506
 1513SOL    HW116172   0.461   1.553   3.274  0.5573  0.6289 -0.4809
 1513SOL    HW216173   0.530   1.416   3.255 -0.5783 -0.5017 -0.9729
 1514SOL     OW16174   0.575   4.087   4.323  0.0962  0.3379 -0.7447
 1514SOL    HW116175   0.637   4.027   4.363 -0.4015  0.8778  0.8274
 1514SOL    HW216176   0.499   4.073   4.379 -0.7596  0.3932 -1.8890
 1515SOL     OW16177   4.131   1.156   6.080  0.2774 -0.4805  0.0646
 1515SOL    HW116178   4.093   1.189   5.999  0.9781  0.9675  0.3327
 1515SOL    HW216179   4.139   1.232   6.137  0.2946 -1.3119  1.1765
 1516SOL     OW16180   2.287   4.313   5.062 -0.3732 -0.2144  0.2538
 1516SOL    HW116181   2.257   4.245   5.001 -0.7162 -0.5407  0.7940
 1516SOL    HW216182   2.325   4.253   5.126  1.2664  1.5344  0.9048
 1517SOL     OW16183   2.840   3.467   3.806 -0.1901 -0.1485  0.0904
 1517SOL    HW116184   2.930   3.438   3.821 -0.7116 -2.5200 -1.3647
 1517SOL    HW216185   2.852   3.523   3.730 -3.0013  0.4000  0.0641
 1518SOL     OW16186   2.914   0.114   1.401 -0.0281 -0.3298  0.6319
 1518SOL    HW116187   2.968   0.097   1.479  1.9803  0.3904 -0.5982
 1518SOL    HW216188   2.852   0.178   1.436 -1.6755 -1.1625 -0.7948
 1519SOL     OW16189   0.689   1.626   4.709  0.2628 -0.0488 -0.2277
 1519SOL    HW116190   0.688   1.717   4.680 -2.0164 -0.5871 -1.8314
 1519SOL    HW216191   0.598   1.601   4.725  0.4391 -0.8799 -0.5177
 1520SOL     OW16192   3.153   0.894  17.461 -0.3332 -0.4919 -0.2943
 1520SOL    HW116193   3.090   0.940  17.516  0.4047  0.5097 -0.2955
 1520SOL    HW216194   3.129   0.935  17.378 -1.3292 -0.1476  0.1655
 1521SOL     OW16195   1.700   3.803   5.650  0.0620  0.1517 -0.1878
 1521SOL    HW116196   1.698   3.750   5.729  1.5464  0.1650 -0.1403
 1521SOL    HW216197   1.649   3.749   5.590  0.8261 -1.8807  1.0020
 1522SOL     OW16198   1.544   2.406   9.005  0.7438 -0.0669  0.0030
 1522SOL    HW116199   1.501   2.418   8.920  1.0875 -1.3099 -0.3375
 1522SOL    HW216200   1.576   2.494   9.027  0.8678 -0.6389  2.0507
 1523SOL     OW16201   4.585   0.507   9.787  0.3834  0.3088  0.1567
 1523SOL    HW116202   4.583   0.600   9.765 -0.9486  0.3296  0.3540
 1523SOL    HW216203   4.514   0.502   9.851  0.0572 -3.2106 -0.4673
 1524SOL     OW16204   0.314   3.192   3.452  0.4165 -0.4526  0.6603
 1524SOL    HW116205   0.257   3.134   3.402 -1.1033 -2.1445  4.4030
 1524SOL    HW216206   0.394   3.140   3.444 -0.1177 -1.1035 -0.4016
 1525SOL     OW16207   4.680   0.195   0.130 -0.3374  0.2007  0.7152
 1525SOL    HW116208   0.035   0.174   0.097 -0.2003  0.9216  0.6232
 1525SOL    HW216209   4.630   0.122   0.092  0.2810 -0.8676  1.9582
 1526SOL     OW16210   3.447   1.328   4.350  0.5400  0.7158 -0.2966
 1526SOL    HW116211   3.365   1.327   4.400  1.7735  3.4477  1.7746
 1526SOL    HW216212   3.409   1.307   4.265  0.1325 -1.1796  0.3647
 1527SOL     OW16213   1.296   1.953   9.960 -0.2346 -0.4084 -0.4192
 1527SOL    HW116214   1.387   1.946   9.990 -0.9684  0.2481  1.9982
 1527SOL    HW216215   1.265   1.882  10.017 -0.7576 -2.9226 -3.7929
 1528SOL     OW16216   2.479   3.648  16.612 -0.2454 -0.7072 -0.5716
 1528SOL    HW116217   2.486   3.650  16.707  0.3788 -1.2709 -0.6046
 1528SOL    HW216218   2.464   3.553  16.605  1.4144 -1.1288  1.6977
 1529SOL     OW16219   2.491   1.651   4.160 -0.0737  0.4110 -0.2428
 1529SOL    HW116220   2.520   1.594   4.232  0.9801  0.2819 -0.7665
 1529SOL    HW216221   2.429   1.711   4.202  0.3065 -1.0051  2.3544
 1530SOL     OW16222   0.327   2.992  14.714  0.0601  0.1830 -0.3938
 1530SOL    HW116223   0.332   2.896  14.710  0.5777  0.1651  0.6108
 1530SOL    HW216224   0.323   3.006  14.809  0.2415 -1.3786 -0.1499
 1531SOL     OW16225   3.550   4.201  12.118 -0.2863  1.0360  0.4090
 1531SOL    HW116226   3.507   4.199  12.033 -1.5633  2.9171  1.0207
 1531SOL    HW216227   3.638   4.174  12.092 -0.4473  0.8509  0.0490
 1532SOL     OW16228   2.131   3.246  12.522 -0.2977 -0.1543 -0.1468
 1532SOL    HW116229   2.177   3.319  12.565 -1.5579 -0.0802  1.0484
 1532SOL    HW216230   2.077   3.196  12.583  0.8515  0.6619  1.5577
 1533SOL     OW16231   1.180   1.806  14.466  0.6132 -0.5507 -0.0026
 1533SOL    HW116232   1.179   1.715  14.437 -1.0972  0.5470 -3.3024
 1533SOL    HW216233   1.087   1.825  14.474  0.5352 -0.8133 -0.2726
 1534SOL     OW16234   1.871   3.291   5.711 -0.5155 -0.1048  0.3273
 1534SOL    HW116235   1.855   3.224   5.644 -1.4138  2.0298 -1.5767
 1534SOL    HW216236   1.832   3.241   5.783  0.6325  0.1795  1.1435
 1535SOL     OW16237   1.740   0.102   2.689 -0.1751  0.6830 -0.3259
 1535SOL    HW116238   1.754   0.125   2.598  1.0977  0.6323 -0.1467
 1535SOL    HW216239   1.803   0.166   2.721  0.1349  0.8184 -1.2094
 1536SOL     OW16240   2.646   1.429   9.539  0.4355  0.5924 -0.4220
 1536SOL    HW116241   2.685   1.404   9.623 -3.2210 -0.2593  1.0618
 1536SOL    HW216242   2.632   1.522   9.558  0.7163  0.8088 -1.3011
 1537SOL     OW16243   2.719   4.539   8.291  0.2245 -0.1396 -0.2198
 1537SOL    HW116244   2.678   4.544   8.377 -1.0245 -1.4962 -0.7431
 1537SOL    HW216245   2.784   4.474   8.318  1.2815  0.2666 -1.7386
 1538SOL     OW16246   4.449   0.273   7.131  0.6875  0.5250 -0.5822
 1538SOL    HW116247   4.409   0.297   7.214 -0.0050  0.3418 -0.8690
 1538SOL    HW216248   4.499   0.200   7.168 -2.3119 -1.3477 -0.2537
 1539SOL     OW16249   3.976   3.945   4.875  0.1579 -0.2457  1.0980
 1539SOL    HW116250   4.032   4.022   4.866  0.7565 -0.8074 -0.0392
 1539SOL    HW216251   3.981   3.907   4.787  1.2946  0.7317  0.7360
 1540SOL     OW16252   4.494   2.474   5.918  0.1698 -0.3223 -0.1210
 1540SOL    HW116253   4.461   2.560   5.941 -1.7373 -0.6725 -1.5470
 1540SOL    HW216254   4.414   2.422   5.922 -0.4895  0.6095 -1.1121
 1541SOL     OW16255   1.576   3.201  17.281  0.1085 -0.4314  0.0675
 1541SOL    HW116256   1.666   3.226  17.261  0.1300  0.8213  1.7243
 1541SOL    HW216257   1.576   3.106  17.268 -0.0755 -0.2732 -1.0615
 1542SOL     OW16258   3.597   4.609   8.304  0.3330 -0.0609 -0.3543
 1542SOL    HW116259   3.684   4.631   8.271  0.2800  0.9919  0.1883
 1542SOL    HW216260   3.535   4.664   8.257 -0.3447 -1.2541 -0.8297
 1543SOL     OW16261   2.962   1.976   4.577 -0.1401 -0.7464 -0.2509
 1543SOL    HW116262   2.881   2.027   4.569 -0.1730 -0.6835  0.4152
 1543SOL    HW216263   2.973   1.991   4.671  0.2762 -0.2374 -0.3847
 1544SOL     OW16264   4.457   4.568   1.386  0.1570  0.4014  0.4765
 1544SOL    HW116265   4.396   4.541   1.317  2.2975 -3.3692  0.0600
 1544SOL    HW216266   4.427   4.529   1.468 -0.1826 -0.6206 -0.1254
 1545SOL     OW16267   1.332   0.598   5.655 -0.4963  0.0601 -0.2684
 1545SOL    HW116268   1.357   0.565   5.741 -1.8669  0.8197  0.4136
 1545SOL    HW216269   1.402   0.557   5.604 -0.3234  1.2711 -1.0265
 1546SOL     OW16270   3.622   2.442   6.136  0.9315  0.1469  0.4959
 1546SOL    HW116271   3.553   2.378   6.155  1.1119  0.7254  3.1312
 1546SOL    HW216272   3.688   2.390   6.090  0.2513 -0.5494  0.3171
 1547SOL     OW16273   3.838   1.081  11.887 -0.3663 -0.0296  0.1087
 1547SOL    HW116274   3.896   1.055  11.958 -0.1297 -0.6113 -0.2942
 1547SOL    HW216275   3.865   1.172  11.876 -0.5010  0.2439  2.0286
 1548SOL     OW16276   2.721   0.727   1.527 -0.7139 -0.2430 -0.5889
 1548SOL    HW116277   2.735   0.744   1.434  1.1172 -1.5443 -0.5652
 1548SOL    HW216278   2.808   0.694   1.550 -0.5088 -0.1914 -1.2946
 1549SOL     OW16279   0.654   1.159   1.292 -0.1269 -0.2062  0.4647
 1549SOL    HW116280   0.626   1.138   1.381 -0.3603  0.1883  0.4880
 1549SOL    HW216281   0.623   1.077   1.254 -3.4313  1.3504 -0.2398
 1550SOL     OW16282   3.145   2.840  11.319 -0.6604  0.2169  0.1769
 1550SOL    HW116283   3.100   2.756  11.326 -0.7961  0.1638 -1.3021
 1550SOL    HW216284   3.094   2.888  11.385  0.0159  0.5854  0.4259
 1551SOL     OW16285   2.324   0.479  11.856  0.0943  0.2120 -0.4078
 1551SOL    HW116286   2.390   0.545  11.878 -2.2291  2.3336  0.1910
 1551SOL    HW216287   2.244   0.513  11.895  1.4628  2.3982  0.5396
 1552SOL     OW16288   4.153   3.684   8.508  0.5463 -0.0775  0.2379
 1552SOL    HW116289   4.127   3.747   8.575  0.6841  0.9746 -0.6944
 1552SOL    HW216290   4.156   3.735   8.427 -0.1163 -3.7648 -2.1044
 1553SOL     OW16291   0.450   4.719   4.317 -1.1391 -0.4245 -0.6975
 1553SOL    HW116292   0.489   0.031   4.242 -0.9774  1.6275  0.6214
 1553SOL    HW216293   0.514   4.653   4.345  1.2058  0.6545 -3.4134
 1554SOL     OW16294   1.064   0.761   3.688 -0.1096 -0.4820  0.2289
 1554SOL    HW116295   0.977   0.789   3.716 -1.0255 -2.8020 -0.2964
 1554SOL    HW216296   1.062   0.743   3.594 -0.2620 -0.3793  0.2121
 1555SOL     OW16297   3.293   4.718   8.998 -0.2155  0.4430  0.3162
 1555SOL    HW116298   3.308   0.029   9.082 -2.1603 -1.6124  1.7324
 1555SOL    HW216299   3.381   4.711   8.961 -0.1825 -0.6972  0.6225
 1556SOL     OW16300   1.783   1.088  14.834  0.0135 -0.1260 -0.2157
 1556SOL    HW116301   1.790   1.132  14.919 -0.1289 -0.1634 -0.1842
 1556SOL    HW216302   1.872   1.088  14.799  0.9781  1.8589  2.2261
 1557SOL     OW16303   1.769   0.660   3.191  0.0464 -0.9807  0.1658
 1557SOL    HW116304   1.716   0.740   3.198 -0.6084 -1.3288 -0.9487
 1557SOL    HW216305   1.848   0.670   3.245 -1.0102 -3.5980  2.1826
 1558SOL     OW16306   1.483   1.589   0.413  0.1132 -0.1319  0.0307
 1558SOL    HW116307   1.444   1.505   0.440 -2.1720  1.2002  0.8503
 1558SOL    HW216308   1.576   1.564   0.411  0.0487 -0.4099  0.4247
 1559SOL     OW16309   4.324   0.443   3.304  0.4518  0.0601  0.5322
 1559SOL    HW116310   4.257   0.511   3.310 -1.7829 -1.9216 -1.9944
 1559SOL    HW216311   4.319   0.424   3.398 -0.7261 -0.3140  0.3844
 1560SOL     OW16312   4.032   1.030  11.450  0.1984  0.1526  0.1185
 1560SOL    HW116313   4.068   1.046  11.538  0.7460  0.8864 -0.2309
 1560SOL    HW216314   4.064   1.113  11.413 -1.5928 -0.1294 -2.0293
 1561SOL     OW16315   0.098   3.861   2.634 -0.8496 -0.5452  0.6056
 1561SOL    HW116316   0.025   3.801   2.646  1.6690 -3.7510 -0.4002
 1561SOL    HW216317   0.172   3.822   2.682 -0.2322 -0.2686 -0.1120
 1562SOL     OW16318   4.218   2.826   3.374  0.3794 -0.1692 -0.0618
 1562SOL    HW116319   4.160   2.902   3.373  0.4754 -0.1048 -1.5684
 1562SOL    HW216320   4.179   2.770   3.306  0.4262  0.2603 -0.4415
 1563SOL     OW16321   4.330   2.942  10.008 -0.1787 -0.3050  0.5239
 1563SOL    HW116322   4.305   2.857   9.971 -0.7785 -0.7800  2.0411
 1563SOL    HW216323   4.252   2.954  10.062 -0.5060 -2.0371  0.4446
 1564SOL     OW16324   1.887   3.874   2.713  0.0302 -0.2725 -0.1951
 1564SOL    HW116325   1.854   3.833   2.633 -1.0871 -0.6971  0.4833
 1564SOL    HW216326   1.975   3.841   2.697 -0.3145 -1.1282 -0.3137
 1565SOL     OW16327   1.946   0.277   2.762  0.5338  0.1457 -0.4573
 1565SOL    HW116328   1.951   0.287   2.667  0.7368 -0.8146 -0.5494
 1565SOL    HW216329   1.953   0.365   2.800  1.2981 -0.3975  0.6631
 1566SOL     OW16330   2.053   1.055   5.760  0.0771  0.4398  0.4684
 1566SOL    HW116331   2.023   1.005   5.836 -0.8290  2.1054  1.1939
 1566SOL    HW216332   1.974   1.077   5.710 -1.3068 -1.1244  1.9728
 1567SOL     OW16333   3.779   3.822  12.015 -0.2133  0.3184 -0.8148
 1567SOL    HW116334   3.797   3.915  12.024  2.6193 -0.1553 -1.6448
 1567SOL    HW216335   3.865   3.787  11.990 -0.1908  0.8506 -1.4930
 1568SOL     OW16336   2.813   3.727   4.500 -0.3405 -0.3380 -0.4387
 1568SOL    HW116337   2.760   3.649   4.517  1.0899 -1.3760 -0.7192
 1568SOL    HW216338   2.820   3.765   4.587  0.6478 -0.8437 -0.3035
 1569SOL     OW16339   2.846   1.287   2.963 -0.4818 -0.0901  0.1524
 1569SOL    HW116340   2.797   1.322   3.037 -0.2459  1.5877 -0.4868
 1569SOL    HW216341   2.782   1.304   2.894 -1.7567  1.4845  1.7218
 1570SOL     OW16342   1.044   0.530   7.937  0.6215 -0.5718  0.1445
 1570SOL    HW116343   0.951   0.508   7.941  0.8124 -1.2787  0.6858
 1570SOL    HW216344   1.090   0.448   7.953  1.5687 -0.5276 -2.4129
 1571SOL     OW16345   1.806   3.333   2.233  0.2633  0.4474  0.1351
 1571SOL    HW116346   1.714   3.345   2.255  0.4594  0.2788  1.0255
 1571SOL    HW216347   1.802   3.265   2.165 -0.3108 -0.8958  1.5137
 1572SOL     OW16348   4.019   1.492  11.188 -0.1179  0.1851 -0.0645
 1572SOL    HW116349   4.094   1.467  11.134  1.6196 -1.1445  2.9965
 1572SOL    HW216350   4.062   1.551  11.250 -2.1051  1.0798  0.4728
 1573SOL     OW16351   3.628   1.005   7.156  0.1424  0.6112  0.0336
 1573SOL    HW116352   3.708   0.952   7.152 -0.0640  0.3094 -0.0793
 1573SOL    HW216353   3.572   0.952   7.099  1.2030 -0.9433  0.4409
 1574SOL     OW16354   1.384   3.646   4.852 -0.5758  0.0223 -0.6707
 1574SOL    HW116355   1.311   3.695   4.815 -1.1251 -0.4258 -0.1750
 1574SOL    HW216356   1.404   3.581   4.784  0.2524  1.2292 -1.5885
 1575SOL     OW16357   3.420   1.609   0.776  0.0516  0.1448 -0.3040
 1575SOL    HW116358   3.390   1.668   0.707  0.2335 -0.0804 -0.5734
 1575SOL    HW216359   3.495   1.658   0.810 -0.2230  0.3361  0.0298
 1576SOL     OW16360   1.238   1.717   6.970  0.3472  0.2694  0.3896
 1576SOL    HW116361   1.300   1.716   7.043  1.1431  0.9317 -0.2774
 1576SOL    HW216362   1.289   1.738   6.892  2.6789  1.0024  2.1032
 1577SOL     OW16363   3.038   1.608   2.633 -0.0570  0.0097  0.0124
 1577SOL    HW116364   3.072   1.674   2.692 -1.2032  2.1007 -1.6714
 1577SOL    HW216365   3.028   1.529   2.687  0.8874 -1.0666 -1.3673
 1578SOL     OW16366   2.341   1.651   9.333  0.1911 -0.2005  0.2114
 1578SOL    HW116367   2.345   1.725   9.395  1.9328 -1.0026  1.0431
 1578SOL    HW216368   2.405   1.682   9.269 -0.9377  3.0101  0.6190
 1579SOL     OW16369   1.995   2.048   7.625 -0.0718 -0.5069 -0.5142
 1579SOL    HW116370   2.073   2.017   7.671  0.3882 -1.1706 -1.7472
 1579SOL    HW216371   1.993   1.994   7.546 -1.0219  0.6212 -1.2646
 1580SOL     OW16372   4.146   4.451   3.053 -0.2375  0.3710  0.7325
 1580SOL    HW116373   4.215   4.452   2.987 -1.4965 -1.4303 -0.6070
 1580SOL    HW216374   4.089   4.524   3.027  0.3092  0.6489  0.3147
 1581SOL     OW16375   2.552   2.916  13.750  0.5644 -0.3387 -0.2574
 1581SOL    HW116376   2.541   2.977  13.823  0.4365 -0.9807  0.2609
 1581SOL    HW216377   2.529   2.972  13.677  0.4284  0.6204  0.5302
 1582SOL     OW16378   3.245   3.032   1.961  1.0621 -0.1659  0.9434
 1582SOL    HW116379   3.178   3.017   1.894 -1.1561  1.2323  2.8350
 1582SOL    HW216380   3.250   3.127   1.955 -2.0262 -0.0062  0.7982
 1583SOL     OW16381   3.584   0.548   6.923  0.3380 -0.5892  0.5759
 1583SOL    HW116382   3.517   0.495   6.879  0.6524 -1.0578  0.6596
 1583SOL    HW216383   3.639   0.569   6.847  0.8010 -1.0759  0.7838
 1584SOL     OW16384   2.421   3.249  10.468 -0.2787  0.4260  0.3300
 1584SOL    HW116385   2.407   3.297  10.549 -0.7802  0.1388  0.4158
 1584SOL    HW216386   2.504   3.288  10.438 -0.5202  1.2667  0.7540
 1585SOL     OW16387   2.061   1.083   6.163  0.2790  0.0930 -0.2461
 1585SOL    HW116388   2.000   1.012   6.182  0.2266 -0.0614 -0.9702
 1585SOL    HW216389   2.023   1.156   6.212  0.3617  1.1232 -1.7012
 1586SOL     OW16390   1.848   3.617  12.945  0.6034  0.3844 -0.2134
 1586SOL    HW116391   1.889   3.697  12.911 -1.7922  2.3806  1.6649
 1586SOL    HW216392   1.855   3.556  12.872 -0.1395 -0.8451  0.7340
 1587SOL     OW16393   1.370   2.326  15.547 -0.5400 -0.1159 -0.4495
 1587SOL    HW116394   1.322   2.397  15.505  0.1645  0.4077 -0.3644
 1587SOL    HW216395   1.305   2.256  15.544  2.9726 -3.4645  0.2177
 1588SOL     OW16396   1.455   3.437   5.246  0.0362  0.0235 -0.0632
 1588SOL    HW116397   1.402   3.516   5.238  0.9765  0.7548  1.0320
 1588SOL    HW216398   1.468   3.413   5.154 -0.1008 -2.7094  0.6139
 1589SOL     OW16399   0.364   2.643   8.500 -0.2655 -0.6405 -0.3836
 1589SOL    HW116400   0.350   2.629   8.407  2.7568  0.5237 -1.0061
 1589SOL    HW216401   0.377   2.552   8.525  0.2201 -0.4459  0.0857
 1590SOL     OW16402   2.643   0.267   2.812 -1.0412  0.0095  0.2460
 1590SOL    HW116403   2.611   0.180   2.836  2.3019 -1.5273 -0.8899
 1590SOL    HW216404   2.589   0.307   2.744 -1.1662 -0.9098 -0.1913
 1591SOL     OW16405   1.250   1.419   6.744 -0.5288 -0.8231  0.5350
 1591SOL    HW116406   1.159   1.448   6.750 -0.0058  0.5094  1.8283
 1591SOL    HW216407   1.260   1.411   6.649 -1.2217 -1.0854  0.4813
 1592SOL     OW16408   3.143   4.685  12.804 -0.2734 -0.0298  0.1400
 1592SOL    HW116409   3.078   0.003  12.756  0.2188  0.8938  0.4489
 1592SOL    HW216410   3.108   4.596  12.797  0.1184 -0.1997  0.3035
 1593SOL     OW16411   0.945   1.333  10.094  0.1830  0.0100  0.5394
 1593SOL    HW116412   0.969   1.380  10.174  0.6183 -2.3736  1.8225
 1593SOL    HW216413   0.971   1.391  10.022  0.4053 -1.3772 -0.5068
 1594SOL     OW16414   1.038   4.100   1.954 -0.2114  0.2982 -0.6690
 1594SOL    HW116415   1.034   4.196   1.945 -1.7699  0.3423  0.5740
 1594SOL    HW216416   1.112   4.070   1.901  0.0369  0.1816 -0.2574
 1595SOL     OW16417   3.166   3.635   3.940  0.0374  0.4107 -0.2998
 1595SOL    HW116418   3.116   3.713   3.961  0.9175  0.0813  3.0958
 1595SOL    HW216419   3.172   3.641   3.845 -2.4794  0.8323 -0.4151
 1596SOL     OW16420   4.080   1.910   8.062 -0.0680  0.9217  0.1523
 1596SOL    HW116421   4.172   1.914   8.087 -0.5045  1.5405  1.6469
 1596SOL    HW216422   4.049   1.985   8.113  3.2288  1.2428  1.7067
 1597SOL     OW16423   4.039   1.001   5.744  0.0080 -0.1165  0.5329
 1597SOL    HW116424   4.048   0.936   5.675 -0.9128  1.9403 -1.5533
 1597SOL    HW216425   4.072   1.080   5.701 -1.1353 -0.0418 -0.1998
 1598SOL     OW16426   0.524   4.321   5.716  0.9805  0.3641  0.2086
 1598SOL    HW116427   0.448   4.332   5.773  0.4478 -1.6794 -0.1241
 1598SOL    HW216428   0.536   4.227   5.706  0.2496  0.1362  1.5720
 1599SOL     OW16429   4.669   2.640  15.880  0.6716 -0.0517 -0.5220
 1599SOL    HW116430   4.655   2.572  15.814 -0.1612  0.7427 -1.1594
 1599SOL    HW216431   4.585   2.684  15.875  2.0515  2.5719 -0.6258
 1600SOL     OW16432   0.008   4.539  11.734 -0.3471  0.4103  0.7936
 1600SOL    HW116433   0.059   4.505  11.807 -1.0840 -0.4005  0.9396
 1600SOL    HW216434   0.071   4.584  11.679  0.2480 -1.2042  0.1547
 1601SOL     OW16435   3.394   4.383   7.699  0.5062 -0.5843  0.1209
 1601SOL    HW116436   3.383   4.473   7.731 -1.1384 -1.1862  1.2197
 1601SOL    HW216437   3.356   4.405   7.614 -1.2690  1.4835  1.4704
 1602SOL     OW16438   1.185   0.292   0.696 -0.0188 -0.1019  0.0990
 1602SOL    HW116439   1.277   0.273   0.713 -0.4877 -2.4575  0.0279
 1602SOL    HW216440   1.182   0.386   0.678 -0.9244 -0.0883  0.3244
 1603SOL     OW16441   0.977   3.060  10.002 -0.4517  0.4504 -0.6199
 1603SOL    HW116442   0.955   3.152   9.986  0.4204  0.2821 -2.7404
 1603SOL    HW216443   0.920   3.042  10.077 -0.2576  1.0713 -0.3224
 1604SOL     OW16444   2.519   1.515  10.319  0.4773  0.1504  0.2557
 1604SOL    HW116445   2.500   1.535  10.410  2.7605  1.8689  0.3481
 1604SOL    HW216446   2.432   1.496  10.282  0.8280 -0.8197 -0.0888
 1605SOL     OW16447   4.053   1.843  12.964 -0.1223 -0.2968  0.3193
 1605SOL    HW116448   3.989   1.773  12.976 -1.5737  0.9472 -0.1500
 1605SOL    HW216449   4.067   1.887  13.048 -0.4327 -0.1122  0.2726
 1606SOL     OW16450   3.654   0.669   9.368  0.0935 -0.0557  0.2916
 1606SOL    HW116451   3.629   0.743   9.423  0.9662  0.5608 -0.1412
 1606SOL    HW216452   3.749   0.665   9.379 -0.0321  0.3345  1.5509
 1607SOL     OW16453   0.596   0.579   9.734  0.5997 -0.2935  0.1504
 1607SOL    HW116454   0.566   0.557   9.822 -0.2442 -0.5377 -0.2035
 1607SOL    HW216455   0.681   0.535   9.744  0.3834 -1.0555 -1.4185
 1608SOL     OW16456   1.484   3.435   0.736  0.3576 -0.2426 -0.6026
 1608SOL    HW116457   1.392   3.411   0.737  0.0839  0.7769 -1.9222
 1608SOL    HW216458   1.529   3.396   0.661  1.5074 -1.1936  0.5645
 1609SOL     OW16459   0.536   3.188   5.625 -0.5350  0.4595  0.5627
 1609SOL    HW116460   0.514   3.131   5.699  1.9760 -1.8283 -0.4692
 1609SOL    HW216461   0.455   3.234   5.602 -1.3303 -1.6224 -0.8058
 1610SOL     OW16462   2.853   0.991   2.218  0.2056 -0.0186  0.2943
 1610SOL    HW116463   2.816   0.988   2.130 -0.2876 -1.0947  0.5482
 1610SOL    HW216464   2.786   0.941   2.265 -0.6362  1.9668  1.2659
 1611SOL     OW16465   0.538   2.695   0.508  0.7456  0.2040 -0.2184
 1611SOL    HW116466   0.519   2.767   0.568  0.0299  0.5550 -0.8689
 1611SOL    HW216467   0.634   2.699   0.512  0.6371  0.5612  2.1209
 1612SOL     OW16468   0.510   1.347  14.523 -0.3326  0.9825 -0.2653
 1612SOL    HW116469   0.604   1.331  14.508 -0.5756 -1.6502  0.9767
 1612SOL    HW216470   0.520   1.395  14.605  1.1481  1.0888 -0.5014
 1613SOL     OW16471   1.309   1.505   7.615  0.4302  0.3462 -0.1918
 1613SOL    HW116472   1.381   1.565   7.594 -1.1136  2.3609  0.3550
 1613SOL    HW216473   1.285   1.462   7.532  2.9945 -1.3582 -0.0574
 1614SOL     OW16474   2.152   2.151  14.412  0.3252 -0.1531  0.4196
 1614SOL    HW116475   2.180   2.062  14.433 -0.2462 -0.8002 -1.6070
 1614SOL    HW216476   2.211   2.164  14.338 -2.3710 -0.7260 -1.8458
 1615SOL     OW16477   0.370   0.447   7.207 -0.0096  0.2379  0.3249
 1615SOL    HW116478   0.441   0.384   7.217 -0.1314 -0.1494 -1.2238
 1615SOL    HW216479   0.337   0.419   7.122 -1.1646  0.2851  0.7609
 1616SOL     OW16480   4.356   3.565   4.502  0.9300 -0.1319  0.3860
 1616SOL    HW116481   4.280   3.579   4.445  1.2673 -2.3236 -0.6069
 1616SOL    HW216482   4.433   3.561   4.445  1.4834  2.9147  0.9211
 1617SOL     OW16483   2.997   2.325   5.149 -0.5504 -0.3967 -0.5396
 1617SOL    HW116484   3.021   2.417   5.159 -2.3356  0.0472 -0.2996
 1617SOL    HW216485   3.063   2.286   5.092 -0.0059  0.1712 -0.2931
 1618SOL     OW16486   1.627   2.005   9.518  0.3070 -0.1964 -0.0112
 1618SOL    HW116487   1.660   1.924   9.479 -0.7969 -0.2755 -0.7669
 1618SOL    HW216488   1.535   1.983   9.529 -0.1141  1.8181  0.5517
 1619SOL     OW16489   3.790   1.488   6.510  0.4218 -0.2953  0.7198
 1619SOL    HW116490   3.784   1.523   6.599 -0.6891  0.6290  0.2739
 1619SOL    HW216491   3.709   1.438   6.519  0.4513 -0.2870  1.0162
 1620SOL     OW16492   4.533   3.440   2.586  0.3567  0.1934  0.8153
 1620SOL    HW116493   4.457   3.440   2.644 -0.4026  0.3803 -0.1692
 1620SOL    HW216494   4.576   3.376   2.643  2.5156  2.8781  2.2055
 1621SOL     OW16495   2.013   0.759   0.178  0.4917  0.1970 -0.5232
 1621SOL    HW116496   1.947   0.817   0.215 -1.5478 -3.1684  1.0940
 1621SOL    HW216497   1.961   0.698   0.126  0.1956  0.4671 -0.5395
 1622SOL     OW16498   2.216   3.198   8.026 -0.3043  0.4480  0.5848
 1622SOL    HW116499   2.220   3.259   8.099  0.4173 -0.2832  1.1481
 1622SOL    HW216500   2.130   3.201   7.983 -0.3870 -0.2892  0.7078
 1623SOL     OW16501   1.851   3.119   7.559 -0.0831 -0.1020 -0.0975
 1623SOL    HW116502   1.765   3.119   7.518 -0.9492  0.0752  1.6923
 1623SOL    HW216503   1.815   3.112   7.648  1.7898 -0.3858  0.6432
 1624SOL     OW16504   0.735   3.037  11.865  0.5321  0.0320 -0.2466
 1624SOL    HW116505   0.735   3.092  11.943  1.4545  1.3352 -1.1701
 1624SOL    HW216506   0.825   3.050  11.834  0.2740 -1.6198 -1.6753
 1625SOL     OW16507   2.716   0.924  15.799  0.0026 -0.1745 -0.1856
 1625SOL    HW116508   2.701   0.850  15.857  0.0214  0.3250  0.4501
 1625SOL    HW216509   2.689   0.995  15.858 -0.4342  1.9341 -2.9030
 1626SOL     OW16510   4.614   0.385   3.515 -0.4631 -0.4268 -0.4989
 1626SOL    HW116511   4.569   0.300   3.517 -0.0932 -0.6805 -2.9853
 1626SOL    HW216512   4.655   0.390   3.429  1.0495  1.5652  0.3373
 1627SOL     OW16513   0.833   3.708   8.835 -0.8242 -0.2629  0.0953
 1627SOL    HW116514   0.820   3.719   8.740 -1.8378  0.8367  0.3691
 1627SOL    HW216515   0.822   3.613   8.835  0.7179 -0.4555  3.0318
 1628SOL     OW16516   2.316   1.117   4.781  0.0931  0.2814  0.0267
 1628SOL    HW116517   2.267   1.200   4.785  0.0787  0.3715 -2.1399
 1628SOL    HW216518   2.406   1.144   4.800  0.5926  0.4717 -2.6675
 1629SOL     OW16519   2.823   2.405   9.074 -0.6238  0.1203  0.5058
 1629SOL    HW116520   2.876   2.364   9.006  0.0502  1.8806 -0.0396
 1629SOL    HW216521   2.803   2.334   9.135  1.0294 -1.6151 -0.9776
 1630SOL     OW16522   3.646   0.575   1.824 -0.5533 -0.0076 -0.1225
 1630SOL    HW116523   3.646   0.521   1.745  2.4139  0.9809 -0.8043
 1630SOL    HW216524   3.741   0.585   1.836 -0.4787 -1.5800  0.5490
 1631SOL     OW16525   1.068   3.189   5.818  0.4788  0.5064  0.1790
 1631SOL    HW116526   1.058   3.096   5.836  2.2860  0.1132 -0.8590
 1631SOL    HW216527   1.146   3.213   5.868  0.3419  1.2439  0.0347
 1632SOL     OW16528   3.785   4.126  15.288 -0.0830  0.8542 -0.1113
 1632SOL    HW116529   3.691   4.143  15.282 -0.1101  0.9965  0.8546
 1632SOL    HW216530   3.786   4.032  15.308  0.2354  1.1594  1.2630
 1633SOL     OW16531   4.282   3.728   6.486  0.1851 -0.2825 -0.0344
 1633SOL    HW116532   4.287   3.643   6.443  1.9581 -0.1210 -0.1409
 1633SOL    HW216533   4.367   3.771   6.474 -0.2099  0.3632 -0.5143
 1634SOL     OW16534   4.553   1.845   7.037  0.4183  0.0374 -0.4667
 1634SOL    HW116535   4.583   1.781   7.102 -0.2101 -2.6937 -2.8389
 1634SOL    HW216536   4.486   1.898   7.081  0.2157 -0.3114 -0.3465
 1635SOL     OW16537   1.211   3.567   1.752 -0.2276  0.3182 -0.8511
 1635SOL    HW116538   1.239   3.543   1.841  1.0742  0.9362 -1.1055
 1635SOL    HW216539   1.117   3.566   1.771 -0.0262 -1.2120  0.1639
 1636SOL     OW16540   2.046   1.873   8.911  0.0179  0.1924  0.7795
 1636SOL    HW116541   1.991   1.880   8.990 -1.8337  1.5214 -0.6154
 1636SOL    HW216542   2.104   1.806   8.946 -1.5400 -1.0344  1.0178
 1637SOL     OW16543   3.545   2.609   5.584  0.1080  0.4618  0.5514
 1637SOL    HW116544   3.605   2.637   5.515  2.0090 -0.6456  1.7492
 1637SOL    HW216545   3.596   2.608   5.665  2.3690  4.2841 -0.8236
 1638SOL     OW16546   1.477   4.583   2.218  0.1227 -0.0790 -0.3439
 1638SOL    HW116547   1.480   4.520   2.290 -0.8190 -1.4964 -1.5485
 1638SOL    HW216548   1.453   4.662   2.265 -2.6045 -1.3387  0.3702
 1639SOL     OW16549   0.163   0.745   9.044  0.1632  0.1943 -0.5669
 1639SOL    HW116550   0.241   0.773   8.995  0.8197 -1.1830 -0.3288
 1639SOL    HW216551   0.154   0.818   9.104 -0.1670  1.2285 -1.8759
 1640SOL     OW16552   0.779   0.875   1.382  0.8243 -0.6069 -0.1123
 1640SOL    HW116553   0.845   0.812   1.353  1.6097 -0.2690  0.9294
 1640SOL    HW216554   0.748   0.926   1.308  0.0794 -1.2955 -0.2780
 1641SOL     OW16555   2.930   0.312   3.173 -0.8597  0.0924 -0.3501
 1641SOL    HW116556   2.844   0.322   3.132 -2.1576 -0.0409  2.3552
 1641SOL    HW216557   2.930   0.373   3.247  2.0953  3.2818 -2.9711
 1642SOL     OW16558   0.967   3.951  16.171  0.0656  0.6229  0.2317
 1642SOL    HW116559   0.935   4.015  16.235 -0.5662 -0.4044  0.9420
 1642SOL    HW216560   1.062   3.959  16.180  0.3153 -2.1889  0.1065
 1643SOL     OW16561   2.923   0.797   0.974 -0.1741  0.3722 -0.7226
 1643SOL    HW116562   2.996   0.764   0.922 -0.6137 -2.3348  0.4115
 1643SOL    HW216563   2.905   0.721   1.029  2.6646 -0.1162 -0.5070
 1644SOL     OW16564   0.600   3.953   1.187 -0.2494 -0.1272 -0.4943
 1644SOL    HW116565   0.619   4.004   1.108 -0.4736 -2.3082 -1.9689
 1644SOL    HW216566   0.690   3.951   1.222 -1.4475 -0.3867  2.5488
 1645SOL     OW16567   1.119   2.763   2.985 -0.3215  0.3474 -0.7173
 1645SOL    HW116568   1.055   2.829   3.012 -2.1050 -0.4936 -2.9163
 1645SOL    HW216569   1.097   2.760   2.892  2.8677  1.5843 -1.5402
 1646SOL     OW16570   0.878   3.181   5.560 -0.0282 -0.3358 -0.3661
 1646SOL    HW116571   0.954   3.131   5.530 -0.8309 -1.7457 -0.0375
 1646SOL    HW216572   0.918   3.239   5.625  0.5582  0.5424 -1.4911
 1647SOL     OW16573   1.259   1.173   3.116 -0.1413  0.6665 -0.3636
 1647SOL    HW116574   1.291   1.187   3.027  2.7143 -0.4235  0.4815
 1647SOL    HW216575   1.221   1.087   3.095  2.7494 -0.7328  0.1539
 1648SOL     OW16576   0.222   1.045  16.531  0.2458 -0.1544 -1.1003
 1648SOL    HW116577   0.177   1.030  16.614  1.6080 -0.8817 -0.4838
 1648SOL    HW216578   0.163   0.995  16.476  0.1010  1.7572 -2.6912
 1649SOL     OW16579   1.484   1.447   3.429  0.1856 -0.3595 -0.3681
 1649SOL    HW116580   1.570   1.483   3.407  0.1703 -0.4097 -0.5120
 1649SOL    HW216581   1.442   1.433   3.344  0.0057 -0.1711 -0.3081
 1650SOL     OW16582   3.413   3.956   5.348 -0.6355 -0.0537  0.0524
 1650SOL    HW116583   3.477   3.887   5.364  0.3927  0.9018  0.0553
 1650SOL    HW216584   3.458   4.004   5.279 -2.4976 -0.6101 -1.5486
 1651SOL     OW16585   1.675   0.197   2.150 -0.5583  0.1598  0.1601
 1651SOL    HW116586   1.611   0.240   2.094  1.7569  1.0937 -1.7916
 1651SOL    HW216587   1.643   0.108   2.136 -1.4198  0.6531 -0.9617
 1652SOL     OW16588   0.291   0.355   8.768 -0.2694 -0.5376  0.1892
 1652SOL    HW116589   0.245   0.272   8.780  0.3349 -0.8430  0.4262
 1652SOL    HW216590   0.272   0.391   8.854  2.9935 -0.8816  1.0554
 1653SOL     OW16591   0.604   1.857  13.266 -0.1595 -0.3140 -0.2438
 1653SOL    HW116592   0.587   1.783  13.208  3.1291 -0.3500 -1.1635
 1653SOL    HW216593   0.539   1.835  13.333  0.5931  1.6516  1.1304
 1654SOL     OW16594   2.182   2.926   9.164  0.3967 -0.1738 -0.0808
 1654SOL    HW116595   2.142   2.839   9.170  2.2796 -1.0514  0.0941
 1654SOL    HW216596   2.137   2.969   9.237 -1.4464  0.1877 -1.4429
 1655SOL     OW16597   3.906   3.359   4.714 -0.1274  0.3475 -0.0726
 1655SOL    HW116598   3.994   3.337   4.681 -0.0962  0.8612 -0.3223
 1655SOL    HW216599   3.902   3.448   4.681  2.5302  0.5818  0.2145
 1656SOL     OW16600   2.991   1.804   1.170  0.5710  0.1017  0.0369
 1656SOL    HW116601   2.919   1.781   1.112 -0.3763  0.2355  1.1863
 1656SOL    HW216602   2.949   1.841   1.247  0.8946  1.1220 -0.2707
 1657SOL     OW16603   3.931   1.443   8.814  0.2781  0.0915  0.4572
 1657SOL    HW116604   3.935   1.348   8.812  0.0529  0.0744  0.9009
 1657SOL    HW216605   3.847   1.454   8.770 -0.3883 -3.3027  0.8672
 1658SOL     OW16606   0.285   3.682   8.354 -0.7231  0.8341  0.2631
 1658SOL    HW116607   0.360   3.722   8.397  1.7891 -2.6027 -0.9103
 1658SOL    HW216608   0.213   3.725   8.400 -1.9553  1.1447 -1.9573
 1659SOL     OW16609   4.232   3.826  11.826 -0.7584  0.2436  0.1370
 1659SOL    HW116610   4.286   3.750  11.802  0.2256  0.6055  1.2061
 1659SOL    HW216611   4.146   3.789  11.847 -1.0851  0.6972 -0.3957
 1660SOL     OW16612   3.028   2.113   7.013 -0.5031  0.1365  0.2527
 1660SOL    HW116613   3.021   2.108   7.108  0.2589  0.0495  0.3001
 1660SOL    HW216614   3.113   2.153   6.996 -0.3534 -0.9477 -1.5765
 1661SOL     OW16615   4.574   2.821  16.134  0.1732  0.5475  0.4445
 1661SOL    HW116616   4.655   2.810  16.084 -0.5159  0.6779 -0.7021
 1661SOL    HW216617   4.531   2.901  16.104  0.4405 -0.5632 -2.9391
 1662SOL     OW16618   0.278   0.868  15.972 -0.2842  0.1584  0.1545
 1662SOL    HW116619   0.279   0.793  15.912 -0.6579 -0.6496  1.1582
 1662SOL    HW216620   0.363   0.864  16.017  0.8589  0.0549 -2.0246
 1663SOL     OW16621   4.084   3.876   2.256 -0.1707 -0.1910 -0.5133
 1663SOL    HW116622   4.065   3.921   2.338 -1.2041 -1.0174 -0.3011
 1663SOL    HW216623   4.110   3.789   2.285  1.3591  0.5618  0.3959
 1664SOL     OW16624   1.669   1.280   6.574  0.2393 -0.3220 -0.0406
 1664SOL    HW116625   1.705   1.192   6.562  0.9714 -0.0507  0.1087
 1664SOL    HW216626   1.641   1.306   6.486  0.2767  0.9029  0.3116
 1665SOL     OW16627   4.426   1.957   5.335 -0.6760  0.1292 -0.4591
 1665SOL    HW116628   4.361   2.011   5.291  1.0342  3.4297  1.0464
 1665SOL    HW216629   4.388   1.869   5.329  1.6478 -0.8880 -0.1654
 1666SOL     OW16630   2.794   3.792   1.545  0.2805 -0.1421  0.2361
 1666SOL    HW116631   2.833   3.737   1.476  2.2507 -0.8798  1.9407
 1666SOL    HW216632   2.789   3.872   1.493 -0.2936  0.4346  1.1935
 1667SOL     OW16633   2.382   2.606   7.499 -0.2030  0.7025 -0.0418
 1667SOL    HW116634   2.464   2.613   7.547 -0.0961 -1.8779  0.1562
 1667SOL    HW216635   2.420   2.606   7.411 -1.1515  0.7267 -0.4437
 1668SOL     OW16636   3.336   0.346   5.944  0.3491  0.0570 -0.7407
 1668SOL    HW116637   3.251   0.305   5.956  1.2421 -0.6455  3.1975
 1668SOL    HW216638   3.349   0.371   6.035  0.3478  1.8246 -1.2393
 1669SOL     OW16639   2.960   1.938   3.035 -0.3146 -0.1302  0.1931
 1669SOL    HW116640   2.931   2.017   3.079  0.3969 -0.0680  0.5585
 1669SOL    HW216641   2.930   1.956   2.946 -1.9340  1.2664  1.0313
 1670SOL     OW16642   3.820   0.013   7.928  0.5419 -0.4066  0.1890
 1670SOL    HW116643   3.812   0.041   8.019  0.7673 -0.8456  0.3446
 1670SOL    HW216644   3.739   4.694   7.923  1.1478 -1.5991  2.5524
 1671SOL     OW16645   2.741   4.602   5.408 -0.5323  0.3683  0.2158
 1671SOL    HW116646   2.808   4.578   5.343 -1.1662 -1.8197  0.3865
 1671SOL    HW216647   2.795   4.628   5.482 -3.3033  2.6132  1.4359
 1672SOL     OW16648   3.881   0.973  16.938  0.4278  0.2811 -0.5046
 1672SOL    HW116649   3.865   1.045  16.877 -1.3569 -0.5069 -0.9700
 1672SOL    HW216650   3.866   0.901  16.876 -1.0092  0.1101  0.0411
 1673SOL     OW16651   0.668   1.721   5.059 -0.3370  0.3225 -0.7447
 1673SOL    HW116652   0.597   1.731   5.122 -0.8021 -1.6244 -0.9714
 1673SOL    HW216653   0.626   1.745   4.976 -1.6136 -1.3088 -0.5592
 1674SOL     OW16654   0.391   3.801  11.878  0.2220 -0.9999  0.4117
 1674SOL    HW116655   0.366   3.800  11.971 -1.4789 -1.3901 -0.0496
 1674SOL    HW216656   0.365   3.711  11.860  1.6985 -1.4511  0.5309
 1675SOL     OW16657   1.528   0.235   7.803  0.8002 -0.0743 -0.3998
 1675SOL    HW116658   1.539   0.302   7.871  0.2292  1.0427 -1.4012
 1675SOL    HW216659   1.537   0.156   7.856  0.3040  1.0295  1.3326
 1676SOL     OW16660   3.562   3.306   7.851 -0.3554 -0.0851 -0.4385
 1676SOL    HW116661   3.653   3.321   7.828 -0.3679 -1.4482 -1.3473
 1676SOL    HW216662   3.527   3.395   7.853 -0.7347 -0.2429 -0.0427
 1677SOL     OW16663   0.165   2.719  16.856 -0.8575  0.5137  0.4170
 1677SOL    HW116664   0.150   2.810  16.834 -0.0083  0.5326 -0.1015
 1677SOL    HW216665   0.093   2.685  16.804 -2.3229  2.3886  1.2068
 1678SOL     OW16666   1.426   1.497   8.555  0.7094  0.8792  0.1436
 1678SOL    HW116667   1.481   1.519   8.479  0.3357 -0.0082 -0.3768
 1678SOL    HW216668   1.382   1.582   8.561 -0.8711  0.2538 -2.4714
 1679SOL     OW16669   0.024   2.264  16.799  0.2878  0.6833  0.0147
 1679SOL    HW116670   4.697   2.190  16.813 -0.7849  1.7598  1.2524
 1679SOL    HW216671   4.701   2.342  16.796  0.8496  1.0340 -1.1927
 1680SOL     OW16672   3.886   4.562   9.243  0.1488  0.5207 -0.2280
 1680SOL    HW116673   3.844   4.492   9.294 -0.4709 -0.0245 -1.4818
 1680SOL    HW216674   3.863   4.547   9.151  1.0652  0.8925 -0.5269
 1681SOL     OW16675   4.587   1.707   2.093  0.8005 -0.1416  0.6837
 1681SOL    HW116676   4.571   1.733   2.184 -1.9692  1.5234 -0.2641
 1681SOL    HW216677   4.661   1.765   2.079  0.2979  0.1462 -0.8028
 1682SOL     OW16678   1.385   0.761  10.387  0.2918  0.0991  0.5777
 1682SOL    HW116679   1.409   0.715  10.306  1.3178  1.4569  0.1132
 1682SOL    HW216680   1.357   0.845  10.350 -1.5218 -0.1819  1.2965
 1683SOL     OW16681   0.688   0.460  13.751 -0.0694  0.0043 -0.1581
 1683SOL    HW116682   0.604   0.450  13.705  1.0177 -2.1738 -1.6768
 1683SOL    HW216683   0.731   0.377  13.730 -2.1811 -1.0188 -0.5541
 1684SOL     OW16684   0.743   1.197   4.658  0.4175 -0.1111 -0.4085
 1684SOL    HW116685   0.794   1.143   4.719 -0.9578  0.8396  1.5706
 1684SOL    HW216686   0.812   1.195   4.592  0.1034  0.5519 -0.7558
 1685SOL     OW16687   0.393   3.391  16.554  0.5036  0.7127 -0.0553
 1685SOL    HW116688   0.417   3.394  16.461 -0.3660  1.2580 -0.2554
 1685SOL    HW216689   0.456   3.323  16.579 -0.3800  0.0889  0.4824
 1686SOL     OW16690   0.513   0.506   0.071 -0.1936  0.4163 -0.0652
 1686SOL    HW116691   0.424   0.512   0.038  0.0130  0.7431 -0.5694
 1686SOL    HW216692   0.503   0.465   0.157  0.4979 -0.6245 -0.4782
 1687SOL     OW16693   3.240   4.623   5.081  0.7813 -0.7885  0.3871
 1687SOL    HW116694   3.227   4.717   5.094  1.1660 -0.3573 -2.3738
 1687SOL    HW216695   3.194   4.584   5.156  3.7868 -0.3742  2.4463
 1688SOL     OW16696   3.513   1.467  13.850  0.5884  0.7807 -0.2498
 1688SOL    HW116697   3.479   1.552  13.879 -0.9035  0.2846 -0.5072
 1688SOL    HW216698   3.437   1.416  13.823 -0.5799  1.3359  1.9373
 1689SOL     OW16699   2.902   0.303   2.551  0.2978  0.1258 -0.1975
 1689SOL    HW116700   2.897   0.307   2.647 -0.4525 -2.1782 -0.1531
 1689SOL    HW216701   2.814   0.270   2.537  0.6783 -1.3585  0.9444
 1690SOL     OW16702   1.424   3.029  11.753  1.1850 -0.2502  0.0316
 1690SOL    HW116703   1.426   2.979  11.834 -0.9777  0.5594  0.5963
 1690SOL    HW216704   1.335   3.063  11.760  1.3724  0.5940 -1.5473
 1691SOL     OW16705   2.370   3.452   2.226 -0.0821  0.3739 -0.8067
 1691SOL    HW116706   2.280   3.482   2.238  0.2200  0.6227  0.8646
 1691SOL    HW216707   2.357   3.360   2.251  1.2941  0.0885 -1.1168
 1692SOL     OW16708   0.552   4.276   7.567 -0.2715 -0.5811  0.0807
 1692SOL    HW116709   0.545   4.345   7.632 -1.2412 -0.4759 -0.1379
 1692SOL    HW216710   0.468   4.232   7.581 -0.3460 -0.4327  0.0985
 1693SOL     OW16711   0.597   0.276  15.707 -0.0333  0.0808 -0.3232
 1693SOL    HW116712   0.639   0.214  15.648 -1.0486  0.4076 -1.3792
 1693SOL    HW216713   0.653   0.353  15.695  1.3575 -0.7648  0.7191
 1694SOL     OW16714   1.156   0.074   8.316 -0.3023  0.2293 -0.3412
 1694SOL    HW116715   1.085   0.010   8.311 -0.6005  0.6532 -1.5829
 1694SOL    HW216716   1.155   0.098   8.408  0.8984 -1.2008  0.0515
 1695SOL     OW16717   2.122   4.531   4.642  0.1115 -0.6375 -0.0137
 1695SOL    HW116718   2.043   4.551   4.593  2.4018  2.6247 -2.3553
 1695SOL    HW216719   2.147   4.441   4.619  0.4660 -0.4702 -0.2864
 1696SOL     OW16720   2.630   1.539  13.876 -0.4345  0.1135 -0.9848
 1696SOL    HW116721   2.605   1.457  13.919  0.1094  0.1262 -0.6400
 1696SOL    HW216722   2.694   1.515  13.808 -0.7410 -3.2575 -0.0736
 1697SOL     OW16723   0.269   0.863   1.710 -0.1049 -0.0262 -0.1516
 1697SOL    HW116724   0.251   0.855   1.616  2.5108 -2.1212 -0.4739
 1697SOL    HW216725   0.272   0.958   1.715 -0.5903  0.1510 -3.3593
 1698SOL     OW16726   0.482   2.571   6.506  0.2054  1.1350  0.2115
 1698SOL    HW116727   0.470   2.478   6.485 -1.3956  1.4874 -0.4661
 1698SOL    HW216728   0.394   2.596   6.535 -0.7065 -1.2565 -0.4974
 1699SOL     OW16729   3.636   0.180   6.982  0.4895 -0.3012  0.0395
 1699SOL    HW116730   3.644   0.095   7.023 -0.4478 -0.5250 -0.2424
 1699SOL    HW216731   3.722   0.221   6.991 -0.0177  0.6718  0.4682
 1700SOL     OW16732   1.105   1.174  13.196  0.1150  0.3292  0.4330
 1700SOL    HW116733   1.127   1.112  13.127 -0.4187  0.0836  0.4808
 1700SOL    HW216734   1.193   1.209  13.212  0.2770  0.2235 -0.2327
 1701SOL     OW16735   4.683   4.614   7.428 -0.2465  0.2479 -0.6610
 1701SOL    HW116736   4.732   4.565   7.362  0.3427  2.4450 -1.8365
 1701SOL    HW216737   4.604   4.636   7.378 -0.6275 -1.1245 -0.6655
 1702SOL     OW16738   0.186   1.348  14.763 -0.1225  0.4162 -0.2038
 1702SOL    HW116739   0.102   1.394  14.758  0.0529  0.4685 -2.4216
 1702SOL    HW216740   0.240   1.424  14.785 -0.0721  0.3764 -0.1884
 1703SOL     OW16741   0.966   3.936   5.153  0.0312 -0.3117 -0.3325
 1703SOL    HW116742   0.907   3.969   5.085  0.0837  1.3951  0.4441
 1703SOL    HW216743   0.960   3.843   5.130  0.9822 -0.7029  0.9875
 1704SOL     OW16744   2.786   2.324   4.021  0.1467 -0.0196 -0.1116
 1704SOL    HW116745   2.837   2.361   3.950 -0.3521 -0.7071 -0.8376
 1704SOL    HW216746   2.727   2.398   4.034  0.1808 -0.4925  2.7570
 1705SOL     OW16747   3.954   2.963   5.612  0.3807 -0.0181  0.0611
 1705SOL    HW116748   3.898   2.891   5.584  1.2611 -0.5998 -0.1904
 1705SOL    HW216749   3.887   3.020   5.649 -0.3565 -1.4714  0.9337
 1706SOL     OW16750   3.975   0.419   7.981 -0.0304  0.0788 -0.4083
 1706SOL    HW116751   4.006   0.342   7.935  1.1958  0.2173  0.1867
 1706SOL    HW216752   3.978   0.403   8.076  1.8395  2.1997 -0.1113
 1707SOL     OW16753   0.770   2.419   5.691 -0.9601 -0.1529 -0.3056
 1707SOL    HW116754   0.724   2.350   5.739 -0.3427 -1.1136 -1.0849
 1707SOL    HW216755   0.807   2.366   5.620 -0.5894  2.0201 -1.7118
 1708SOL     OW16756   2.445   3.836  16.952 -0.1063  0.1982  0.4736
 1708SOL    HW116757   2.425   3.823  17.045  0.8109 -0.0606  0.6268
 1708SOL    HW216758   2.520   3.894  16.960  0.7655 -0.5803 -2.0327
 1709SOL     OW16759   4.689   2.759   7.259 -0.2174 -0.6649  0.4657
 1709SOL    HW116760   4.604   2.715   7.267 -1.2862  1.2133 -0.6195
 1709SOL    HW216761   4.667   2.846   7.290 -1.5375 -0.7969 -0.0843
 1710SOL     OW16762   2.513   2.676   8.789  0.3272 -0.1316  0.0638
 1710SOL    HW116763   2.529   2.663   8.696 -0.0150 -0.3656  0.0379
 1710SOL    HW216764   2.587   2.645   8.842 -1.0290  1.5686  2.9205
 1711SOL     OW16765   3.552   2.890   2.388  0.0199  0.2496 -0.5456
 1711SOL    HW116766   3.463   2.856   2.383  0.0995 -0.1806  1.1446
 1711SOL    HW216767   3.577   2.921   2.300 -2.0167  1.0082 -0.8537
 1712SOL     OW16768   1.068   2.390  13.437 -0.3905 -0.1883  0.3838
 1712SOL    HW116769   1.100   2.445  13.509  1.4954 -0.2992 -0.3954
 1712SOL    HW216770   1.143   2.393  13.379 -0.2798 -1.8075  0.4449
 1713SOL     OW16771   1.155   1.042   8.398  0.0410 -0.3053 -0.0918
 1713SOL    HW116772   1.195   1.009   8.478  0.1946 -0.1310 -0.0981
 1713SOL    HW216773   1.217   1.112   8.378  0.9724 -0.9790  0.4913
 1714SOL     OW16774   1.763   3.146  10.639  0.2115  0.1776  0.3965
 1714SOL    HW116775   1.732   3.154  10.549  4.7319  0.1009 -1.1682
 1714SOL    HW216776   1.789   3.237  10.656  0.4010  0.5175 -1.7187
 1715SOL     OW16777   3.927   1.493  15.291 -0.5750 -0.1323  0.1523
 1715SOL    HW116778   3.913   1.471  15.199 -2.1248 -0.9919  0.5804
 1715SOL    HW216779   3.853   1.554  15.293  1.3759  2.1887  1.3828
 1716SOL     OW16780   2.664   0.958  15.322 -0.3990 -0.0194  0.0640
 1716SOL    HW116781   2.695   0.940  15.233 -0.9686 -2.1686  0.2906
 1716SOL    HW216782   2.747   0.970  15.369  0.1368  1.5657 -1.3036
 1717SOL     OW16783   1.250   0.309   5.135 -0.6688  0.2279 -0.2138
 1717SOL    HW116784   1.316   0.274   5.076  0.4501 -0.3032  1.3475
 1717SOL    HW216785   1.253   0.253   5.214  2.0889 -0.4359 -0.8110
 1718SOL     OW16786   1.840   0.326  12.097 -0.1679 -0.8052 -0.4181
 1718SOL    HW116787   1.826   0.286  12.182 -1.1604  1.3790  0.4611
 1718SOL    HW216788   1.755   0.314  12.055  0.4839 -1.3743 -1.5654
 1719SOL     OW16789   4.130   3.870   9.263 -0.3746  0.2981 -0.4134
 1719SOL    HW116790   4.134   3.835   9.351 -2.6702  0.1915 -0.3522
 1719SOL    HW216791   4.056   3.823   9.225 -0.2429 -0.6409  0.5142
 1720SOL     OW16792   1.580   0.068   8.184 -0.4401  0.2763  0.2987
 1720SOL    HW116793   1.607   0.012   8.257  0.7671 -0.4114 -0.6684
 1720SOL    HW216794   1.606   0.156   8.211  0.1097 -0.0659  0.8748
 1721SOL     OW16795   0.147   2.125  12.170 -0.2234 -0.4526  0.2437
 1721SOL    HW116796   0.177   2.188  12.235  0.6406  1.1446 -1.7196
 1721SOL    HW216797   0.069   2.089  12.212 -1.3106 -0.4124 -1.7084
 1722SOL     OW16798   4.568   0.789   9.775 -0.5795 -0.4062  0.6023
 1722SOL    HW116799   4.581   0.809   9.867  2.1344 -0.1695  0.1616
 1722SOL    HW216800   4.638   0.840   9.734 -0.4455 -0.8743  0.2533
 1723SOL     OW16801   0.138   3.055   3.734 -0.1529  0.3875  0.2259
 1723SOL    HW116802   0.101   3.024   3.651  0.0010  0.4431  0.1382
 1723SOL    HW216803   0.145   3.147   3.710  1.1684  0.2095 -0.0835
 1724SOL     OW16804   1.810   2.402   7.939 -0.2251 -0.1067 -0.1450
 1724SOL    HW116805   1.874   2.411   8.009 -0.9675  1.0890  0.3746
 1724SOL    HW216806   1.743   2.363   7.996  1.2947 -1.7367  0.5133
 1725SOL     OW16807   4.317   2.308   8.246 -0.5323 -0.2224  0.4134
 1725SOL    HW116808   4.393   2.334   8.298 -0.7175 -2.8142  2.0100
 1725SOL    HW216809   4.312   2.214   8.261 -2.3552 -0.4285 -1.4538
 1726SOL     OW16810   3.506   1.777   3.256  0.1368 -0.0170  0.0397
 1726SOL    HW116811   3.578   1.748   3.200  0.3484  1.1667 -0.2914
 1726SOL    HW216812   3.437   1.754   3.194  0.1334 -0.3036  0.1502
 1727SOL     OW16813   0.472   0.417   3.419 -0.4757  0.3515  0.2780
 1727SOL    HW116814   0.552   0.469   3.431  1.0544 -1.5838 -1.5928
 1727SOL    HW216815   0.437   0.440   3.505  0.2532  3.3151 -0.1973
 1728SOL     OW16816   2.565   4.423   6.433 -0.1791 -0.1636 -0.2961
 1728SOL    HW116817   2.590   4.437   6.342  0.0370 -2.7837 -0.6580
 1728SOL    HW216818   2.479   4.464   6.437 -0.2419 -0.4466  1.4659
 1729SOL     OW16819   3.812   1.857   6.300 -0.3095  0.3840 -0.8757
 1729SOL    HW116820   3.872   1.918   6.258 -0.2306  1.5174  0.9224
 1729SOL    HW216821   3.852   1.771   6.287 -1.7528 -0.3390 -0.5276
 1730SOL     OW16822   0.787   1.361  16.678  0.8009 -0.2765  0.0043
 1730SOL    HW116823   0.826   1.371  16.765  0.2951  1.2690  0.0529
 1730SOL    HW216824   0.747   1.275  16.687  0.6505  0.0705  2.7429
 1731SOL     OW16825   0.990   4.625  15.386  0.3551  0.5404 -0.1506
 1731SOL    HW116826   0.990   4.625  15.482 -0.5771 -1.7236 -0.1521
 1731SOL    HW216827   0.966   4.714  15.361  0.6831  0.6108 -0.2132
 1732SOL     OW16828   3.249   2.245   5.978  0.0395  0.1353  0.3745
 1732SOL    HW116829   3.156   2.250   6.004 -0.3524  0.1187 -1.0648
 1732SOL    HW216830   3.253   2.152   5.954 -2.2414  0.3490 -0.7947
 1733SOL     OW16831   4.523   4.628  13.009 -0.0984  0.0703  0.2324
 1733SOL    HW116832   4.587   4.556  13.007  0.6917  0.7720  0.3603
 1733SOL    HW216833   4.469   4.595  13.081 -0.1323 -1.1538 -0.3446
 1734SOL     OW16834   0.752   2.585  16.436 -0.2205  0.6820 -0.6238
 1734SOL    HW116835   0.807   2.662  16.449 -0.3067  0.7874 -0.8728
 1734SOL    HW216836   0.810   2.546  16.369 -0.0138 -0.6368  0.3313
 1735SOL     OW16837   1.946   1.463   4.066 -0.4832  0.3796 -0.1377
 1735SOL    HW116838   1.907   1.511   4.139 -0.4393 -0.5196  0.4770
 1735SOL    HW216839   1.989   1.391   4.112 -0.3080  0.6386  0.1062
 1736SOL     OW16840   1.773   2.562   2.318  0.3479 -0.2531 -0.2718
 1736SOL    HW116841   1.731   2.477   2.334 -1.4383  1.0111  1.8050
 1736SOL    HW216842   1.713   2.608   2.260  0.7123  0.1103 -0.3567
 1737SOL     OW16843   3.263   4.422   7.450 -0.5097  0.3683  0.3519
 1737SOL    HW116844   3.212   4.344   7.427 -0.2880  1.2833 -3.2247
 1737SOL    HW216845   3.209   4.490   7.410 -0.0672  1.6769  1.9778
 1738SOL     OW16846   3.256   1.440   8.209  0.6321 -0.5946  0.0728
 1738SOL    HW116847   3.233   1.515   8.264 -0.1964 -0.1888 -0.8192
 1738SOL    HW216848   3.279   1.487   8.128 -1.3253  2.4632  1.2715
 1739SOL     OW16849   1.800   2.053   8.168  0.0598  0.4628  1.0282
 1739SOL    HW116850   1.833   2.027   8.082 -0.5373  0.1982  0.8745
 1739SOL    HW216851   1.879   2.077   8.216 -0.1719  1.2181  1.0370
 1740SOL     OW16852   4.499   0.240  15.764  0.0269 -0.6180  0.7336
 1740SOL    HW116853   4.532   0.305  15.827  3.8938  0.3067 -2.2743
 1740SOL    HW216854   4.522   0.156  15.805 -1.4323 -1.2613  0.2253
 1741SOL     OW16855   1.389   3.948  14.389  0.0869  0.0626  0.1258
 1741SOL    HW116856   1.473   3.957  14.434  0.7824  2.5094 -1.6322
 1741SOL    HW216857   1.338   3.924  14.466 -1.5743  1.9733 -0.3611
 1742SOL     OW16858   1.243   3.464   0.415  0.4238 -0.3662  0.6309
 1742SOL    HW116859   1.234   3.379   0.371 -1.6451  0.2688 -0.1440
 1742SOL    HW216860   1.173   3.511   0.371  1.6145  1.8031  1.0723
 1743SOL     OW16861   1.369   2.236   9.133 -0.7633 -0.0457  0.2330
 1743SOL    HW116862   1.393   2.168   9.070 -0.8458  0.2214 -0.0800
 1743SOL    HW216863   1.429   2.306   9.111  1.3428 -1.6954  0.7623
 1744SOL     OW16864   1.602   0.660   1.610 -0.2507  0.0958  0.0621
 1744SOL    HW116865   1.525   0.652   1.667  0.5581  3.4017  1.5664
 1744SOL    HW216866   1.667   0.693   1.671  3.0008 -2.8808 -1.8078
 1745SOL     OW16867   0.269   1.878  12.109 -0.2506 -0.1231  0.0605
 1745SOL    HW116868   0.256   1.966  12.146  1.1347  0.2690 -0.3791
 1745SOL    HW216869   0.361   1.864  12.130 -0.5255 -2.3967 -0.2948
 1746SOL     OW16870   0.396   2.972   3.799  0.1919  0.0881 -0.3109
 1746SOL    HW116871   0.382   2.911   3.727  0.8802 -2.0823  1.3812
 1746SOL    HW216872   0.318   3.025   3.784 -1.3879 -1.8428  0.9686
 1747SOL     OW16873   4.278   0.648   2.281  0.1211  0.5705 -0.3720
 1747SOL    HW116874   4.321   0.660   2.366  0.7557  1.2139 -0.7878
 1747SOL    HW216875   4.209   0.712   2.300 -0.2775  0.1054 -0.2404
 1748SOL     OW16876   0.025   0.900   8.829 -0.2977  0.3830 -0.2455
 1748SOL    HW116877   0.108   0.910   8.876 -1.8014  1.8350  2.0726
 1748SOL    HW216878   4.693   0.865   8.890  2.7432 -2.4876  1.3363
 1749SOL     OW16879   0.299   2.630   7.929  0.1400 -0.0616  0.0458
 1749SOL    HW116880   0.213   2.589   7.937 -0.1922  0.8107  0.9030
 1749SOL    HW216881   0.346   2.574   7.867 -0.1007  1.2183 -1.3165
 1750SOL     OW16882   3.763   3.736   8.640 -0.0053 -0.4068  0.1065
 1750SOL    HW116883   3.770   3.643   8.661  0.0571 -0.6596 -1.0288
 1750SOL    HW216884   3.691   3.730   8.577 -0.0592 -1.0507  0.2297
 1751SOL     OW16885   1.787   2.340   5.793  0.1422 -0.5563 -0.3503
 1751SOL    HW116886   1.823   2.260   5.754  0.7765 -1.4254  1.9831
 1751SOL    HW216887   1.862   2.373   5.843 -0.2955 -0.2678  0.1231
 1752SOL     OW16888   3.163   1.113   7.067 -0.2050 -0.1900 -0.3031
 1752SOL    HW116889   3.216   1.187   7.037 -1.4679 -0.3084 -2.8253
 1752SOL    HW216890   3.076   1.142   7.039 -0.7039 -1.3281  0.0888
 1753SOL     OW16891   4.123   2.045  16.573  0.0982  0.0088 -0.3119
 1753SOL    HW116892   4.197   2.102  16.597 -0.3482 -0.2356  1.6139
 1753SOL    HW216893   4.051   2.108  16.571  0.6703  0.6945  0.5591
 1754SOL     OW16894   1.035   3.438  15.287 -0.2757 -0.8383 -0.0916
 1754SOL    HW116895   0.989   3.440  15.372  3.3912 -3.2582  1.9513
 1754SOL    HW216896   1.068   3.528  15.282  0.2739 -1.0994 -1.0195
 1755SOL     OW16897   0.630   2.803   5.303 -0.1315 -0.0548 -0.5670
 1755SOL    HW116898   0.594   2.885   5.336 -1.9592 -1.2242  0.3744
 1755SOL    HW216899   0.557   2.743   5.320  0.3957 -0.6444 -0.4006
 1756SOL     OW16900   2.418   3.431   3.144  0.0243 -0.8163 -0.4554
 1756SOL    HW116901   2.412   3.336   3.155  1.3156 -0.7414  0.9020
 1756SOL    HW216902   2.477   3.446   3.217 -0.6829 -2.3311  0.4317
 1757SOL     OW16903   1.574   3.598   3.841  0.1543 -0.1475 -0.1477
 1757SOL    HW116904   1.630   3.660   3.795 -1.1142 -0.5211 -2.2107
 1757SOL    HW216905   1.644   3.550   3.886  0.3758  0.4832  0.1720
 1758SOL     OW16906   3.502   1.102   9.797  0.3003 -0.3250  0.0118
 1758SOL    HW116907   3.417   1.142   9.778  0.7204  0.4630 -0.2172
 1758SOL    HW216908   3.548   1.146   9.725  0.9260  0.1563  0.7137
 1759SOL     OW16909   1.778   1.043   6.491 -0.0133  0.2872 -0.5138
 1759SOL    HW116910   1.830   0.971   6.528 -0.4379 -0.2140 -0.8929
 1759SOL    HW216911   1.845   1.097   6.448  0.9187 -1.1109 -0.8108
 1760SOL     OW16912   2.294   2.593   8.939  0.3050  0.1058 -0.2641
 1760SOL    HW116913   2.217   2.614   8.886 -0.7340 -1.7188  0.5230
 1760SOL    HW216914   2.362   2.638   8.889  1.2538  1.4855  2.2794
 1761SOL     OW16915   2.629   1.179   6.794 -0.2360  0.1099 -0.3472
 1761SOL    HW116916   2.595   1.267   6.778  2.1459  0.9573 -0.7069
 1761SOL    HW216917   2.599   1.143   6.711  0.7505  0.0127 -0.6626
 1762SOL     OW16918   2.485   3.580  16.856  0.0563  0.2635 -0.2266
 1762SOL    HW116919   2.430   3.527  16.914  0.7315 -2.0005 -1.6782
 1762SOL    HW216920   2.459   3.665  16.893  0.9022 -0.0519  1.0948
 1763SOL     OW16921   0.311   2.027   4.652  0.0408  0.0814 -0.2480
 1763SOL    HW116922   0.361   2.067   4.580 -0.3486 -0.7080 -0.9612
 1763SOL    HW216923   0.315   1.938   4.617  3.3429  0.8751 -1.9136
 1764SOL     OW16924   2.938   2.562   1.750  0.1907  0.1987  0.0221
 1764SOL    HW116925   2.985   2.590   1.672  0.0259  0.1135 -0.1094
 1764SOL    HW216926   3.013   2.540   1.805  1.1911  0.0640 -1.3921
 1765SOL     OW16927   3.429   4.042   6.706 -0.1805 -0.2146 -0.1241
 1765SOL    HW116928   3.420   4.030   6.801  1.3768 -1.6834 -0.1685
 1765SOL    HW216929   3.360   3.981   6.678  0.1108  0.0374 -1.3992
 1766SOL     OW16930   3.120   4.694   7.606  0.3921 -0.4937  0.9153
 1766SOL    HW116931   3.049   4.648   7.649 -0.6952 -1.6991 -2.1991
 1766SOL    HW216932   3.195   4.653   7.648 -0.4114 -1.9454  0.9046
 1767SOL     OW16933   0.789   1.913   2.293 -0.1361 -0.3451 -0.1475
 1767SOL    HW116934   0.770   1.999   2.332  1.8069  1.1517 -2.4861
 1767SOL    HW216935   0.859   1.953   2.240 -2.2205  0.8187 -2.0416
 1768SOL     OW16936   1.769   3.629   8.312 -0.1920 -0.6663  0.0177
 1768SOL    HW116937   1.673   3.635   8.314 -0.3360 -2.8299  0.4359
 1768SOL    HW216938   1.774   3.546   8.266 -0.4207 -0.3946 -0.4921
 1769SOL     OW16939   0.296   2.986   6.359 -0.3106 -0.4009  0.2160
 1769SOL    HW116940   0.306   3.055   6.425 -2.0885 -1.0684  1.1604
 1769SOL    HW216941   0.275   2.910   6.413  1.7252 -0.2242  1.2476
 1770SOL     OW16942   1.035   3.675   7.663 -0.0485  0.0632  0.2583
 1770SOL    HW116943   0.944   3.672   7.695 -0.1905 -2.4009 -0.4302
 1770SOL    HW216944   1.040   3.769   7.644  0.0499 -0.2579 -1.3621
 1771SOL     OW16945   0.732   0.336   5.721 -0.0836 -0.3699 -0.1678
 1771SOL    HW116946   0.780   0.260   5.689 -0.6274 -0.4877 -0.7132
 1771SOL    HW216947   0.795   0.390   5.769  1.6696 -1.1470 -1.5716
 1772SOL     OW16948   2.942   1.209   6.838  0.5363 -0.5660 -0.3780
 1772SOL    HW116949   2.933   1.285   6.780 -1.2691 -1.0061 -0.6816
 1772SOL    HW216950   2.847   1.201   6.849  0.6155  0.3856  1.0059
 1773SOL     OW16951   3.043   4.297  11.803 -0.4086  0.5328 -0.4625
 1773SOL    HW116952   2.953   4.326  11.787 -0.7992  0.0411  0.8128
 1773SOL    HW216953   3.047   4.285  11.898 -0.0801  0.7112 -0.4524
 1774SOL     OW16954   0.877   2.755   5.396 -0.4265  0.5923  0.1297
 1774SOL    HW116955   0.915   2.825   5.342 -2.2771  1.4728 -0.0031
 1774SOL    HW216956   0.786   2.752   5.366  0.6067 -1.4052 -2.8124
 1775SOL     OW16957   0.058   4.116   3.981  0.6099  0.5416 -0.7643
 1775SOL    HW116958   0.130   4.140   4.040  0.7681  1.4100 -1.3011
 1775SOL    HW216959   0.063   4.021   3.991 -1.9631  0.4699 -0.3099
 1776SOL     OW16960   0.464   4.461   6.179  0.7867 -0.2835 -0.1023
 1776SOL    HW116961   0.435   4.465   6.087  1.1719  0.6647 -0.1828
 1776SOL    HW216962   0.546   4.510   6.177 -0.5723  2.0771  1.2395
 1777SOL     OW16963   2.222   1.393   7.914 -0.1922 -0.0816  0.3767
 1777SOL    HW116964   2.244   1.300   7.919  2.2329  0.3231 -3.1260
 1777SOL    HW216965   2.149   1.398   7.976 -0.1280  0.8212  0.3705
 1778SOL     OW16966   3.707   3.414   7.521  0.2174  0.1002 -0.0650
 1778SOL    HW116967   3.766   3.416   7.596 -2.1187  1.2377  1.7405
 1778SOL    HW216968   3.694   3.319   7.520 -0.2366  0.1535  0.7037
 1779SOL     OW16969   1.230   1.908  15.605  0.1429 -0.2998  0.3661
 1779SOL    HW116970   1.235   1.870  15.517  0.3470 -0.8246  0.6079
 1779SOL    HW216971   1.207   1.999  15.586 -0.5100 -0.1073  2.0846
 1780SOL     OW16972   2.692   3.698  16.447 -0.2862 -0.6878  0.6249
 1780SOL    HW116973   2.620   3.727  16.504 -1.5473 -0.9576 -0.8240
 1780SOL    HW216974   2.653   3.616  16.416  2.2282 -1.4700 -0.4602
 1781SOL     OW16975   3.788   1.365   3.287 -0.8898  0.1959 -0.5681
 1781SOL    HW116976   3.865   1.308   3.291 -0.6142  0.4476 -2.2797
 1781SOL    HW216977   3.819   1.430   3.350  2.9622 -3.3921  1.2627
 1782SOL     OW16978   2.427   0.977   4.348  0.0596 -0.4090  0.0219
 1782SOL    HW116979   2.421   1.055   4.404  0.1164 -0.1008 -0.3984
 1782SOL    HW216980   2.459   0.905   4.402 -1.1433 -0.2599  0.9611
 1783SOL     OW16981   3.101   0.844   7.097 -0.0883 -0.8707 -0.1363
 1783SOL    HW116982   3.106   0.819   7.005 -3.7083 -1.5526 -0.1269
 1783SOL    HW216983   3.115   0.939   7.102  0.0055 -0.7779 -2.1039
 1784SOL     OW16984   0.941   2.796  17.031  0.8412  0.3940  0.2380
 1784SOL    HW116985   1.033   2.771  17.043  1.1748  0.5204 -2.0791
 1784SOL    HW216986   0.898   2.721  17.073  1.7901  0.0361  0.5780
 1785SOL     OW16987   4.119   2.334  16.352 -0.4191 -0.7988  0.2097
 1785SOL    HW116988   4.185   2.301  16.413  1.1382  2.0172  0.0552
 1785SOL    HW216989   4.178   2.390  16.302  0.6034 -1.4335  0.6943
 1786SOL     OW16990   0.823   0.905   3.759  0.3348  0.0170  0.2606
 1786SOL    HW116991   0.788   0.942   3.678  0.0765 -0.3273  0.2174
 1786SOL    HW216992   0.777   0.950   3.830 -1.8550 -0.0949 -1.0820
 1787SOL     OW16993   0.423   2.137   6.698  0.1235  0.9416  0.8752
 1787SOL    HW116994   0.386   2.224   6.684  1.8347  1.3129 -1.4319
 1787SOL    HW216995   0.392   2.095   6.617  2.3417 -0.3547  0.7230
 1788SOL     OW16996   4.042   2.110   9.415  0.1885  0.0737 -0.4443
 1788SOL    HW116997   4.016   2.193   9.378 -0.4538  0.3595  0.6467
 1788SOL    HW216998   3.962   2.057   9.414  0.1640  0.1084 -0.3155
 1789SOL     OW16999   2.579   0.621  15.724 -0.2676  0.4435 -0.3929
 1789SOL    HW117000   2.622   0.609  15.639  1.0415  0.2682  0.2908
 1789SOL    HW217001   2.490   0.632  15.690  0.0631  0.0140 -1.4019
 1790SOL     OW17002   3.274   1.291   8.635 -0.1289  0.1739 -0.4526
 1790SOL    HW117003   3.262   1.383   8.657  0.6046 -0.0784  0.9475
 1790SOL    HW217004   3.252   1.251   8.719 -0.8087  2.4028  0.4073
 1791SOL     OW17005   2.168   4.269  13.883  0.0870 -0.0832 -0.0535
 1791SOL    HW117006   2.139   4.204  13.819  1.2800  1.4184 -2.1240
 1791SOL    HW217007   2.200   4.336  13.822 -0.2529  0.5309  0.4472
 1792SOL     OW17008   1.036   1.244   5.291 -0.3745  0.2319  0.7562
 1792SOL    HW117009   1.085   1.162   5.294  1.0462  1.0593  0.1555
 1792SOL    HW217010   1.033   1.257   5.196 -3.3075  1.8238  1.0899
 1793SOL     OW17011   2.171   2.364  13.083  0.8117 -0.4708 -0.5729
 1793SOL    HW117012   2.140   2.453  13.099 -0.6433 -0.9133 -0.8880
 1793SOL    HW217013   2.255   2.370  13.129 -0.2197  0.6174  1.1785
 1794SOL     OW17014   0.469   1.917   7.385  0.3342 -0.2255  0.0204
 1794SOL    HW117015   0.526   1.840   7.383  1.8329  0.8859  0.5088
 1794SOL    HW217016   0.523   1.986   7.347 -1.8400  2.5273  1.9013
 1795SOL     OW17017   1.704   1.528   2.812 -0.3590  0.0650  0.0353
 1795SOL    HW117018   1.719   1.496   2.722 -0.1679  0.5836 -0.1154
 1795SOL    HW217019   1.629   1.586   2.799  0.0257  0.8968  1.6571
 1796SOL     OW17020   2.792   4.339  15.272  0.2203  0.2361 -0.1173
 1796SOL    HW117021   2.732   4.284  15.322  0.4509  1.1027  1.1067
 1796SOL    HW217022   2.872   4.287  15.277  0.1901  0.3297  1.3031
 1797SOL     OW17023   0.056   3.754   2.296 -0.3324 -0.1809  0.3624
 1797SOL    HW117024   0.113   3.688   2.336  2.9006  0.3133 -3.2946
 1797SOL    HW217025   4.708   3.704   2.284 -0.0743 -0.1768 -1.3760
 1798SOL     OW17026   4.061   3.071  11.783 -0.0993  0.6085 -0.1951
 1798SOL    HW117027   4.013   3.049  11.862  1.4470  1.0717  0.8824
 1798SOL    HW217028   4.026   3.014  11.714 -1.6731  1.9168 -0.4651
 1799SOL     OW17029   0.860   0.359   9.254 -0.1906  0.6650 -0.7135
 1799SOL    HW117030   0.836   0.420   9.324 -0.6539  0.2029 -0.4631
 1799SOL    HW217031   0.936   0.406   9.220 -0.5774  0.8808 -1.2693
 1800SOL     OW17032   0.983   4.154   0.656  0.1962 -0.4493  0.0037
 1800SOL    HW117033   0.946   4.242   0.654  0.6602 -0.2733 -0.7329
 1800SOL    HW217034   0.956   4.133   0.566 -1.8639 -1.8001  0.9154
 1801SOL     OW17035   3.125   0.421   6.782 -1.4089 -0.5551  0.2666
 1801SOL    HW117036   3.054   0.474   6.820  0.2145  1.4176  0.5927
 1801SOL    HW217037   3.079   0.349   6.740 -1.2613 -0.9413  0.7581
 1802SOL     OW17038   1.781   2.686   2.572 -0.3092  0.4066  0.9583
 1802SOL    HW117039   1.778   2.669   2.478  4.1604 -2.6379  1.3446
 1802SOL    HW217040   1.876   2.676   2.584  0.0058  0.6971 -1.3710
 1803SOL     OW17041   2.820   1.124   5.667 -0.1861 -0.0049 -0.8607
 1803SOL    HW117042   2.880   1.086   5.732 -0.6354  1.6818  0.5565
 1803SOL    HW217043   2.758   1.058   5.638 -2.0776  1.1495  0.5313
 1804SOL     OW17044   4.321   0.967   4.888  0.0533  0.4585  0.3163
 1804SOL    HW117045   4.348   0.955   4.797  1.1773 -0.4174  0.7544
 1804SOL    HW217046   4.347   1.055   4.913 -1.5958  0.6439  1.3689
 1805SOL     OW17047   3.768   1.097   4.119  0.0858  0.0761 -0.0210
 1805SOL    HW117048   3.725   1.022   4.078 -0.0885  0.6564 -0.8950
 1805SOL    HW217049   3.732   1.165   4.063 -2.4997 -1.9008 -0.7811
 1806SOL     OW17050   2.585   0.440   3.487  0.3847 -0.1092  0.4148
 1806SOL    HW117051   2.612   0.508   3.549  0.3042  0.4327 -0.1530
 1806SOL    HW217052   2.575   0.369   3.551  0.3692  0.3902  0.9662
 1807SOL     OW17053   3.524   2.781   3.813 -0.5589 -0.2085  0.3247
 1807SOL    HW117054   3.555   2.847   3.874 -1.8928  1.2196 -0.5471
 1807SOL    HW217055   3.512   2.836   3.736 -1.1546 -0.4287  0.2534
 1808SOL     OW17056   4.196   0.162   6.684  0.2004 -0.2969 -0.0167
 1808SOL    HW117057   4.232   0.207   6.760 -1.0734 -0.3393  0.6097
 1808SOL    HW217058   4.206   0.233   6.621 -2.2992  0.9136  0.9747
 1809SOL     OW17059   0.118   4.070   0.692  0.0699 -0.1457  0.5987
 1809SOL    HW117060   0.194   4.075   0.635 -0.8234  0.9715 -0.4890
 1809SOL    HW217061   0.124   4.149   0.745  0.5145  0.5951 -0.5668
 1810SOL     OW17062   0.322   3.310   7.230 -0.1847  0.3776 -0.3408
 1810SOL    HW117063   0.243   3.297   7.284  0.1766 -1.1710 -0.2012
 1810SOL    HW217064   0.287   3.380   7.175  1.9296  1.0791 -0.7807
 1811SOL     OW17065   0.419   3.474   7.967 -0.2481  0.6177 -0.0076
 1811SOL    HW117066   0.350   3.449   8.029  0.2135 -0.8460 -0.0695
 1811SOL    HW217067   0.410   3.567   7.987  0.8276  0.2388  2.2328
 1812SOL     OW17068   2.571   4.449   2.886 -0.2709 -0.6805  0.3401
 1812SOL    HW117069   2.547   4.486   2.971 -2.5889 -0.3868 -0.4317
 1812SOL    HW217070   2.619   4.373   2.919 -0.5202  0.0696  2.3931
 1813SOL     OW17071   0.768   0.291   8.552 -0.1613 -0.1519 -0.5879
 1813SOL    HW117072   0.849   0.333   8.523 -0.5870 -0.4100 -2.1052
 1813SOL    HW217073   0.811   0.212   8.587  1.0773 -0.2432 -2.3189
 1814SOL     OW17074   1.413   1.805  11.515 -0.0121 -0.2957 -0.4649
 1814SOL    HW117075   1.321   1.786  11.529  0.0728  0.5607  1.2120
 1814SOL    HW217076   1.466   1.739  11.559 -0.1379  0.1460  0.3517
 1815SOL     OW17077   1.329   3.043  17.131  0.2641  0.5265 -0.1573
 1815SOL    HW117078   1.328   3.128  17.175 -3.0939 -0.9426  2.6120
 1815SOL    HW217079   1.367   3.074  17.049  1.0590 -0.2332 -0.0797
 1816SOL     OW17080   1.391   1.954   5.615 -0.6891 -0.4980  0.0496
 1816SOL    HW117081   1.463   1.918   5.666  0.1973  2.3237  0.8016
 1816SOL    HW217082   1.392   1.892   5.542 -1.9990 -2.5979  1.7998
 1817SOL     OW17083   3.555   4.054  17.047 -0.1424 -0.7133 -0.3761
 1817SOL    HW117084   3.515   3.990  16.989  1.1245 -2.0367  0.1970
 1817SOL    HW217085   3.626   4.086  16.992 -1.2776  2.8488  0.2533
 1818SOL     OW17086   4.336   4.417   2.866 -0.0252 -0.1611  0.3630
 1818SOL    HW117087   4.372   4.452   2.785 -1.0281 -1.2929 -0.5736
 1818SOL    HW217088   4.420   4.408   2.912 -0.1944 -2.8969  0.1425
 1819SOL     OW17089   2.197   1.979   9.204 -0.1886 -0.0259  0.0785
 1819SOL    HW117090   2.240   2.011   9.125  0.6434 -1.8678 -0.2081
 1819SOL    HW217091   2.155   1.897   9.178  0.9932 -1.4092  2.5377
 1820SOL     OW17092   4.406   2.685   7.368  0.1965 -0.2242 -0.4755
 1820SOL    HW117093   4.378   2.742   7.440 -1.5009 -0.4760 -0.9506
 1820SOL    HW217094   4.335   2.623   7.350 -1.6915  1.5996  0.6831
 1821SOL     OW17095   4.195   0.570   9.801  0.2143  0.4557  0.6664
 1821SOL    HW117096   4.283   0.575   9.839  0.3170 -0.2015  0.5072
 1821SOL    HW217097   4.201   0.546   9.708 -0.7549 -1.7990  1.2082
 1822SOL     OW17098   4.263   1.589   2.384  0.1467  0.4364  0.3158
 1822SOL    HW117099   4.349   1.551   2.368 -0.0220 -1.3383  3.7841
 1822SOL    HW217100   4.277   1.667   2.330  0.6261  1.2668  1.6431
 1823SOL     OW17101   0.076   3.787   8.483  0.3682 -0.0109 -0.0331
 1823SOL    HW117102   0.111   3.792   8.572  0.8850 -0.4113 -0.2181
 1823SOL    HW217103   0.065   3.880   8.463  0.3045 -0.1685 -0.7350
 1824SOL     OW17104   0.782   0.579   8.107  0.3772 -0.1376 -0.4518
 1824SOL    HW117105   0.794   0.670   8.079 -2.8956 -0.2049 -1.9873
 1824SOL    HW217106   0.853   0.576   8.171  0.3370  2.6524 -0.2600
 1825SOL     OW17107   1.090   3.213   4.019  0.4262  0.3553 -0.9055
 1825SOL    HW117108   1.030   3.175   4.084  0.0658 -1.0040 -2.0414
 1825SOL    HW217109   1.082   3.307   4.038 -1.0250  0.3610 -1.5546
 1826SOL     OW17110   1.948   1.205   4.854 -0.3637 -0.0690 -0.3854
 1826SOL    HW117111   1.876   1.260   4.885  0.6041 -0.2404  2.1807
 1826SOL    HW217112   2.004   1.199   4.932 -0.7703  0.5565 -0.0422
 1827SOL     OW17113   2.738   1.326   7.609 -0.6570 -0.8464 -0.1484
 1827SOL    HW117114   2.709   1.236   7.621 -1.6429 -0.5927 -0.6584
 1827SOL    HW217115   2.812   1.311   7.550  0.9106 -2.0016  2.1067
 1828SOL     OW17116   3.235   4.714  11.139  0.6414  0.2985 -0.0349
 1828SOL    HW117117   3.164   0.012  11.196  0.6015 -1.2535  0.7380
 1828SOL    HW217118   3.295   0.057  11.138  3.0470 -1.6273 -2.4034
 1829SOL     OW17119   1.428   0.161   4.933 -0.1115  0.2472  0.4122
 1829SOL    HW117120   1.506   0.206   4.965  0.2913 -0.4634  0.4322
 1829SOL    HW217121   1.423   0.081   4.985  0.4224  0.5465  0.9168
 1830SOL     OW17122   2.777   1.286   2.115 -0.3450  0.4877 -0.3675
 1830SOL    HW117123   2.799   1.202   2.074  1.0206 -0.6028  2.5679
 1830SOL    HW217124   2.759   1.341   2.039 -1.6362 -2.0635 -1.9021
 1831SOL     OW17125   4.220   1.301  12.434 -0.0479 -0.7119 -0.4328
 1831SOL    HW117126   4.290   1.336  12.378 -1.8732  1.8360 -1.0829
 1831SOL    HW217127   4.262   1.224  12.472 -1.4766 -0.9560  0.6371
 1832SOL     OW17128   1.251   3.653  16.882  0.2953  0.2573 -0.1107
 1832SOL    HW117129   1.236   3.732  16.831  1.6447  0.6985  0.1556
 1832SOL    HW217130   1.186   3.598  16.840 -0.6488  1.1846  0.1382
 1833SOL     OW17131   4.649   0.002   2.056  0.5637  0.2168 -0.5494
 1833SOL    HW117132   4.706   0.019   1.981  2.2948  1.4806  1.0453
 1833SOL    HW217133   4.568   4.704   2.016  0.4911  0.1052 -0.3192
 1834SOL     OW17134   0.465   0.941   4.003 -0.3258  0.4074 -0.2976
 1834SOL    HW117135   0.453   0.942   4.098  2.3171  1.7264  0.0248
 1834SOL    HW217136   0.532   0.874   3.989 -0.8624  0.2506 -2.1504
 1835SOL     OW17137   1.730   4.310   8.516  0.0893  0.3872 -0.1982
 1835SOL    HW117138   1.717   4.252   8.442  1.9058 -0.7859  0.3964
 1835SOL    HW217139   1.826   4.305   8.519  0.0060 -0.4003  1.4603
 1836SOL     OW17140   1.226   4.140   8.235  0.4433  0.2800 -0.0164
 1836SOL    HW117141   1.218   4.228   8.197 -0.4971  0.2407  0.0965
 1836SOL    HW217142   1.316   4.131   8.265  1.1181  0.0633 -2.0953
 1837SOL     OW17143   1.373   2.505   4.324 -0.0837  0.0782 -0.5016
 1837SOL    HW117144   1.444   2.510   4.259 -1.0737 -0.3147 -1.6038
 1837SOL    HW217145   1.319   2.443   4.276 -1.1824  0.2927  0.4719
 1838SOL     OW17146   1.823   0.130  11.819 -0.2978  0.1159  0.1659
 1838SOL    HW117147   1.843   0.155  11.910 -1.4483 -0.7871  0.6661
 1838SOL    HW217148   1.761   0.190  11.777 -0.7337 -2.2144 -2.4951
 1839SOL     OW17149   1.530   3.270   7.591  0.6822 -0.1596  0.3808
 1839SOL    HW117150   1.524   3.191   7.536  1.3093 -0.3300  0.5613
 1839SOL    HW217151   1.445   3.263   7.635 -0.2191  0.3413 -1.2467
 1840SOL     OW17152   0.271   2.563   9.735  0.3705  0.4894 -0.3537
 1840SOL    HW117153   0.241   2.651   9.758  1.2647  0.4939  0.7882
 1840SOL    HW217154   0.347   2.581   9.680 -0.1746 -0.3510 -1.3787
 1841SOL     OW17155   4.639   1.024  13.451  0.3547 -0.4317 -0.0123
 1841SOL    HW117156   4.670   1.064  13.369  1.8518  0.8222  1.1563
 1841SOL    HW217157   4.545   1.015  13.437  0.1374  0.6323  0.7599
 1842SOL     OW17158   4.560   0.198   2.231 -0.4368  0.4064  0.5843
 1842SOL    HW117159   4.478   0.149   2.241  0.9254 -1.5044  2.4278
 1842SOL    HW217160   4.605   0.131   2.180 -0.4383 -0.0934  1.2343
 1843SOL     OW17161   3.763   3.195   7.176  0.2629 -0.2614  0.0618
 1843SOL    HW117162   3.830   3.256   7.207  1.3301 -1.3027 -0.2304
 1843SOL    HW217163   3.727   3.146   7.250 -0.3926  1.5777  0.9763
 1844SOL     OW17164   1.594   0.260   5.952 -0.0427  0.6589  0.0549
 1844SOL    HW117165   1.674   0.206   5.951  0.3600  1.2619 -0.4514
 1844SOL    HW217166   1.531   0.197   5.987  0.9890 -0.6930 -0.4838
 1845SOL     OW17167   1.062   0.668   3.409 -0.8310  0.1844  0.3789
 1845SOL    HW117168   1.088   0.739   3.351 -0.5195  0.1652  0.4946
 1845SOL    HW217169   1.128   0.603   3.384 -0.7421  1.1969 -1.9993
 1846SOL     OW17170   2.920   0.898   8.204 -0.0108  0.1502 -0.2192
 1846SOL    HW117171   2.826   0.883   8.206 -0.0584  0.6463  0.8129
 1846SOL    HW217172   2.937   0.925   8.114  1.9577 -1.2728 -0.2911
 1847SOL     OW17173   4.575   4.316  17.583 -0.4424  0.4494  0.0114
 1847SOL    HW117174   4.661   4.276  17.574 -0.5805  0.0648  0.3603
 1847SOL    HW217175   4.550   4.315  17.490 -0.2181 -1.4911 -0.0304
 1848SOL     OW17176   4.260   0.950   7.819 -1.0508  0.2666 -0.0009
 1848SOL    HW117177   4.189   1.013   7.809 -1.4002  0.0549  1.2078
 1848SOL    HW217178   4.202   0.886   7.859 -2.0235  0.7108 -0.7091
 1849SOL     OW17179   2.561   3.270   2.520  0.2220  0.5449  0.0691
 1849SOL    HW117180   2.523   3.236   2.601 -0.4105 -0.7762 -0.7823
 1849SOL    HW217181   2.646   3.226   2.519  0.1131  0.3191  1.1483
 1850SOL     OW17182   1.339   4.170  13.346  0.1568 -0.3352  0.0711
 1850SOL    HW117183   1.252   4.189  13.382  1.0825 -0.6759  2.4828
 1850SOL    HW217184   1.323   4.081  13.315  0.9562 -0.8682  1.1669
 1851SOL     OW17185   1.692   0.194   4.372 -0.2596 -0.2703  0.6498
 1851SOL    HW117186   1.723   0.136   4.302  0.0162  2.2900 -1.3433
 1851SOL    HW217187   1.612   0.150   4.400 -0.5683  0.0863  0.3295
 1852SOL     OW17188   1.634   0.276   6.615 -0.3632  0.0622  0.8499
 1852SOL    HW117189   1.647   0.232   6.698 -2.3872 -2.4224 -0.1584
 1852SOL    HW217190   1.540   0.263   6.606  0.4030 -2.9715 -3.1510
 1853SOL     OW17191   3.603   4.558  13.705  0.0001  0.1841 -0.0154
 1853SOL    HW117192   3.591   4.463  13.709 -0.3110  0.3235  3.0237
 1853SOL    HW217193   3.545   4.593  13.637  1.4733 -0.0746 -1.3795
 1854SOL     OW17194   3.278   3.423   2.510 -0.1600 -0.0135 -0.3607
 1854SOL    HW117195   3.357   3.407   2.458  0.5547  0.2365  0.6469
 1854SOL    HW217196   3.288   3.362   2.583 -0.2337 -0.1992 -0.5056
 1855SOL     OW17197   0.601   0.674  15.850 -0.0188  0.6957  0.1882
 1855SOL    HW117198   0.651   0.755  15.851  1.4389 -0.1696 -1.2005
 1855SOL    HW217199   0.517   0.692  15.891  0.1547  0.5592  0.6003
 1856SOL     OW17200   3.950   4.192   8.602  0.1985 -0.1900 -0.4868
 1856SOL    HW117201   3.877   4.165   8.658  0.1089  1.4588  0.2084
 1856SOL    HW217202   3.962   4.107   8.560 -0.9750 -0.5786 -0.0564
 1857SOL     OW17203   3.449   0.600   6.415  1.2889 -0.4555  0.3345
 1857SOL    HW117204   3.492   0.656   6.480  1.6512 -1.9270  1.3431
 1857SOL    HW217205   3.389   0.665   6.378 -0.0783 -1.7623  0.2864
 1858SOL     OW17206   3.596   1.784   2.538  0.0209 -0.1297  0.3781
 1858SOL    HW117207   3.679   1.784   2.585  0.1767  0.4410  0.1025
 1858SOL    HW217208   3.561   1.706   2.580 -0.3112 -1.3321 -2.1177
 1859SOL     OW17209   1.948   0.285  15.690  0.2259  0.0660  0.2018
 1859SOL    HW117210   1.933   0.301  15.597 -1.3468 -1.3939  0.2180
 1859SOL    HW217211   1.940   0.374  15.722  2.6600 -0.4168  2.1595
 1860SOL     OW17212   0.797   2.441   9.511  0.6336 -0.5317 -0.0174
 1860SOL    HW117213   0.857   2.433   9.585  0.1988  2.5823  0.6798
 1860SOL    HW217214   0.771   2.349   9.502  1.5664 -1.1350  3.5225
 1861SOL     OW17215   4.015   0.752  13.176 -0.2402  0.4550 -0.1624
 1861SOL    HW117216   3.931   0.742  13.221  1.2511 -2.2719  1.9831
 1861SOL    HW217217   4.041   0.660  13.170  1.7458  1.0973 -1.1593
 1862SOL     OW17218   3.275   3.227   6.258  0.2641  0.1480  0.1534
 1862SOL    HW117219   3.203   3.189   6.208 -0.5443 -0.3410  1.6875
 1862SOL    HW217220   3.341   3.158   6.255 -0.1816 -0.3394  1.4394
 1863SOL     OW17221   3.821   2.472  14.927  0.2046 -0.6697  0.6217
 1863SOL    HW117222   3.799   2.415  15.000 -1.9177 -1.2473 -0.4726
 1863SOL    HW217223   3.874   2.538  14.972 -0.0236 -1.0105  1.3788
 1864SOL     OW17224   0.696   2.409   1.639 -0.0931 -0.2741 -0.7895
 1864SOL    HW117225   0.716   2.496   1.676  1.4689 -0.3732 -1.3901
 1864SOL    HW217226   0.707   2.428   1.546  3.4865  1.4641 -0.0392
 1865SOL     OW17227   1.190   3.692  14.244 -0.3901 -0.5428 -0.5101
 1865SOL    HW117228   1.232   3.735  14.170  0.9714  1.5105  1.4538
 1865SOL    HW217229   1.113   3.650  14.207 -0.8713  0.1521 -0.2777
 1866SOL     OW17230   2.511   2.820   2.745 -0.4043  0.0579  0.2195
 1866SOL    HW117231   2.518   2.776   2.830 -0.6524 -0.3088  0.0520
 1866SOL    HW217232   2.433   2.773   2.716 -0.6047  0.3357  0.3069
 1867SOL     OW17233   4.291   3.399  14.034 -0.2541  0.3319  0.3878
 1867SOL    HW117234   4.356   3.426  13.970 -0.3372 -0.8505 -0.1997
 1867SOL    HW217235   4.334   3.429  14.114 -1.6887  1.0715  0.8979
 1868SOL     OW17236   0.392   0.334   6.950 -0.5807  0.3131 -0.0095
 1868SOL    HW117237   0.355   0.246   6.944  3.3380 -1.3407  0.0783
 1868SOL    HW217238   0.475   0.324   6.905 -0.1542  2.1986  0.3650
 1869SOL     OW17239   0.753   4.619   5.296  0.1765 -0.2802 -0.1550
 1869SOL    HW117240   0.840   4.652   5.319 -1.6399  2.7625  2.3084
 1869SOL    HW217241   0.730   4.585   5.382 -0.8616  2.1631  0.5311
 1870SOL     OW17242   1.331   1.197   6.313  0.1236 -0.0989  0.5547
 1870SOL    HW117243   1.330   1.256   6.389  0.0540  0.4798  0.1001
 1870SOL    HW217244   1.426   1.196   6.298 -0.0853  3.3416 -0.8592
 1871SOL     OW17245   3.221   1.552  17.213  0.4773  0.2038 -0.3289
 1871SOL    HW117246   3.139   1.546  17.262  0.2152  0.0680 -0.7835
 1871SOL    HW217247   3.288   1.549  17.280  0.3966  0.1814 -0.2493
 1872SOL     OW17248   1.205   2.376   4.711  0.1452  0.4906  0.2222
 1872SOL    HW117249   1.256   2.297   4.696 -1.2903 -0.4522  0.2580
 1872SOL    HW217250   1.275   2.437   4.735 -0.8553  0.9339  2.0296
 1873SOL     OW17251   3.280   1.417   0.481  0.2965  0.1980 -0.0868
 1873SOL    HW117252   3.374   1.403   0.476  0.3899  0.5711  0.6405
 1873SOL    HW217253   3.270   1.501   0.436  2.5104  0.5855  0.1432
 1874SOL     OW17254   1.545   3.233   9.017  0.0151  0.1141  0.4816
 1874SOL    HW117255   1.537   3.324   9.047 -0.9859  0.1994 -0.0814
 1874SOL    HW217256   1.636   3.216   9.041  0.3983  0.0788 -1.0128
 1875SOL     OW17257   2.269   3.464   2.667  0.0975 -0.0648  0.0968
 1875SOL    HW117258   2.334   3.460   2.737 -0.4940 -1.0161  0.5878
 1875SOL    HW217259   2.297   3.537   2.611  0.9408 -0.6720 -0.2727
 1876SOL     OW17260   2.977   4.627   4.792 -0.1417 -0.4804 -0.0770
 1876SOL    HW117261   3.031   4.580   4.856 -1.1910 -2.1287 -0.4212
 1876SOL    HW217262   2.933   4.556   4.745  0.9495  0.5350 -2.6560
 1877SOL     OW17263   1.762   2.357   7.252  0.4674 -0.0694 -0.2091
 1877SOL    HW117264   1.731   2.313   7.331  1.5981 -1.8703 -0.7514
 1877SOL    HW217265   1.699   2.428   7.239  1.3015  0.7700  0.4040
 1878SOL     OW17266   0.284   2.900   8.791  0.3296 -0.3569  0.1751
 1878SOL    HW117267   0.268   2.994   8.799  0.4906 -0.1487 -1.8332
 1878SOL    HW217268   0.244   2.864   8.869  0.5608  1.0183  0.9304
 1879SOL     OW17269   4.390   3.873   3.730 -0.6156  0.3436 -0.3339
 1879SOL    HW117270   4.419   3.832   3.649 -0.1339 -0.2509  0.1464
 1879SOL    HW217271   4.298   3.846   3.733 -0.0522 -1.6256 -1.0202
 1880SOL     OW17272   3.731   4.644   2.624 -0.6992  0.5912 -0.7987
 1880SOL    HW117273   3.755   4.698   2.699 -1.6772  0.6813 -0.5426
 1880SOL    HW217274   3.644   4.683   2.618 -0.9339  0.3415  1.0117
 1881SOL     OW17275   4.046   2.570   4.097  0.2130  0.0056 -0.1743
 1881SOL    HW117276   3.974   2.601   4.042  0.4081 -1.1320 -1.0704
 1881SOL    HW217277   4.117   2.618   4.055  0.9850 -1.6841 -0.7942
 1882SOL     OW17278   1.102   4.662  14.359  0.3276  0.1483 -0.9134
 1882SOL    HW117279   1.109   4.638  14.266  0.8711 -0.9428 -0.5965
 1882SOL    HW217280   1.150   0.012  14.357  0.6775 -0.1129 -3.1536
 1883SOL     OW17281   1.739   3.734   6.806 -0.3208  0.1245 -0.3316
 1883SOL    HW117282   1.754   3.711   6.897 -2.0238 -0.4572 -0.2014
 1883SOL    HW217283   1.746   3.829   6.804 -1.2316  0.1901  0.3538
 1884SOL     OW17284   3.974   2.946  10.753 -0.4502 -0.5857  0.4385
 1884SOL    HW117285   3.974   3.039  10.775 -1.1374 -0.7303  1.0478
 1884SOL    HW217286   4.031   2.943  10.676  1.8671 -3.1226  2.2004
 1885SOL     OW17287   1.626   1.860  10.401 -0.0568 -0.3377  0.2305
 1885SOL    HW117288   1.680   1.905  10.466  0.3500 -1.4055  0.6225
 1885SOL    HW217289   1.657   1.770  10.402  1.6917  0.2185 -2.3582
 1886SOL     OW17290   1.659   2.186   5.510 -0.1541  0.5208 -0.0484
 1886SOL    HW117291   1.683   2.182   5.417  3.4555 -2.8891  1.0383
 1886SOL    HW217292   1.564   2.179   5.518 -0.3357 -0.1930 -2.7282
 1887SOL     OW17293   4.576   2.115   1.965 -0.3773 -0.1317  0.0894
 1887SOL    HW117294   4.622   2.185   1.919 -0.6862 -2.0762 -3.1700
 1887SOL    HW217295   4.646   2.075   2.016 -1.5404 -0.3326  1.5406
 1888SOL     OW17296   4.373   2.893  11.115  0.0873 -0.1396 -0.4273
 1888SOL    HW117297   4.431   2.955  11.161  2.1259 -0.6561 -2.2826
 1888SOL    HW217298   4.312   2.875  11.186 -2.5873  2.9575 -1.9604
 1889SOL     OW17299   4.581   2.367   5.415  0.3067  0.7021  0.3511
 1889SOL    HW117300   4.628   2.294   5.377 -1.6506 -0.8486  0.8797
 1889SOL    HW217301   4.494   2.343   5.382  1.4199 -0.9302 -1.3436
 1890SOL     OW17302   3.998   3.156  17.524 -0.2070  0.0895 -0.0474
 1890SOL    HW117303   3.972   3.197  17.607 -0.7424 -0.6475  0.1530
 1890SOL    HW217304   4.018   3.236  17.476 -0.4680 -0.4373 -1.0183
 1891SOL     OW17305   0.311   1.726   8.425 -0.1624 -0.0931  0.3142
 1891SOL    HW117306   0.346   1.637   8.431  1.9656  0.7514  0.1729
 1891SOL    HW217307   0.237   1.715   8.484 -0.7740  1.2607 -0.2044
 1892SOL     OW17308   1.109   2.123   2.787 -0.1778  0.7827  0.1686
 1892SOL    HW117309   1.175   2.061   2.818 -0.3834  2.1683  3.4695
 1892SOL    HW217310   1.175   2.183   2.752  0.9727 -1.0905 -0.8081
 1893SOL     OW17311   2.041   1.094   8.335  0.8508  0.1532 -0.0053
 1893SOL    HW117312   2.004   1.112   8.422  0.8795  0.3667 -0.0356
 1893SOL    HW217313   2.133   1.122   8.345  0.9048 -0.9027  2.5108
 1894SOL     OW17314   0.152   2.868   8.506 -0.2434 -0.0299 -0.6182
 1894SOL    HW117315   0.115   2.803   8.446 -0.8682 -0.9835  0.8254
 1894SOL    HW217316   0.224   2.816   8.542 -0.6885  0.1102  0.4593
 1895SOL     OW17317   4.203   0.101  13.405  0.3044  0.4564  0.3382
 1895SOL    HW117318   4.120   0.082  13.448  0.2158 -1.3414 -0.6135
 1895SOL    HW217319   4.184   0.124  13.314  2.2539  0.5659 -0.0273
 1896SOL     OW17320   4.033   0.222  15.401 -0.1761 -0.2405 -0.0898
 1896SOL    HW117321   4.012   0.315  15.390 -0.1318 -0.2958 -0.6204
 1896SOL    HW217322   4.003   0.214  15.492 -1.0667  0.3295 -0.3356
 1897SOL     OW17323   0.776   4.242   8.469 -0.2198 -0.1491  0.1123
 1897SOL    HW117324   0.702   4.261   8.411  1.1830 -1.1535 -2.0010
 1897SOL    HW217325   0.844   4.221   8.405 -0.5841  2.4389 -1.1036
 1898SOL     OW17326   2.531   1.613   6.167  0.3059  0.2592 -0.1064
 1898SOL    HW117327   2.602   1.591   6.228 -0.6018 -0.5043  0.6682
 1898SOL    HW217328   2.477   1.534   6.174  0.4121  0.0499 -1.7561
 1899SOL     OW17329   2.765   1.284   0.858  0.1308 -0.0372 -0.1242
 1899SOL    HW117330   2.841   1.335   0.886 -0.8838  0.1473  2.2671
 1899SOL    HW217331   2.799   1.252   0.774  0.0765  1.5561 -0.7654
 1900SOL     OW17332   1.704   3.228  12.963 -0.2720  0.2049 -0.0034
 1900SOL    HW117333   1.778   3.262  13.012 -1.3255  0.1596  1.6164
 1900SOL    HW217334   1.755   3.150  12.942  0.3527  0.2466  1.3756
 1901SOL     OW17335   1.335   2.950   7.721 -0.0217  0.1847 -0.4383
 1901SOL    HW117336   1.246   2.983   7.732  1.3640  3.5629  0.7071
 1901SOL    HW217337   1.340   2.864   7.679 -1.0205 -0.7974  1.4226
 1902SOL     OW17338   3.999   0.105   4.397  0.0090  0.0266 -0.0089
 1902SOL    HW117339   4.072   0.136   4.343  0.0015 -2.0766 -1.2506
 1902SOL    HW217340   3.985   0.017   4.362 -0.3583 -0.7559  2.0845
 1903SOL     OW17341   0.542   1.581   1.911 -0.2022  0.5494 -0.9713
 1903SOL    HW117342   0.619   1.610   1.862  0.0902 -0.9826 -1.4124
 1903SOL    HW217343   0.533   1.491   1.880 -0.1669  1.1022 -2.5805
 1904SOL     OW17344   4.635   2.643   8.692 -0.2469  0.4307 -0.8651
 1904SOL    HW117345   4.697   2.580   8.656 -1.9944  0.3055 -3.6893
 1904SOL    HW217346   4.673   2.676   8.773 -0.2301  1.4621 -1.2899
 1905SOL     OW17347   4.397   2.577  11.339 -0.2443 -0.6779 -0.0052
 1905SOL    HW117348   4.320   2.573  11.281  0.0367  0.5146 -0.4461
 1905SOL    HW217349   4.463   2.546  11.277 -0.3874  1.9156 -1.4534
 1906SOL     OW17350   1.916   1.112  17.171 -0.1301 -0.0101 -0.1081
 1906SOL    HW117351   1.844   1.124  17.110 -0.0842  0.6183 -0.0339
 1906SOL    HW217352   1.892   1.032  17.218  0.1411 -1.4065 -2.3168
 1907SOL     OW17353   3.648   0.103   9.303  0.4545  0.4082  0.1159
 1907SOL    HW117354   3.729   0.152   9.292  1.4446 -1.2675 -0.0155
 1907SOL    HW217355   3.600   0.140   9.377  0.1142  1.3640 -0.5953
 1908SOL     OW17356   3.861   1.541   5.177 -0.0247  0.2853 -0.2429
 1908SOL    HW117357   3.770   1.567   5.188 -0.6099 -2.0122  0.1988
 1908SOL    HW217358   3.852   1.447   5.186 -0.2130  0.0508 -3.1821
 1909SOL     OW17359   0.539   0.609  17.038 -0.0671 -0.8115  0.2413
 1909SOL    HW117360   0.543   0.693  17.082 -1.8213 -1.7993  2.2788
 1909SOL    HW217361   0.597   0.625  16.963  0.0186 -0.7758  0.3154
 1910SOL     OW17362   4.193   0.306  14.041 -0.3680  1.0296  0.1432
 1910SOL    HW117363   4.201   0.293  13.946  0.1512  2.2724  0.0122
 1910SOL    HW217364   4.281   0.283  14.070 -0.6837 -0.3574  0.0021
 1911SOL     OW17365   1.216   3.984   8.938 -0.4130 -0.1292  0.3819
 1911SOL    HW117366   1.204   3.928   8.861 -0.7346  1.4182 -0.6964
 1911SOL    HW217367   1.311   3.977   8.948 -0.3154 -1.7084 -1.6048
 1912SOL     OW17368   0.691   4.111   6.631 -0.2830 -0.4935  0.0303
 1912SOL    HW117369   0.755   4.068   6.688 -0.6291 -1.1134 -0.0460
 1912SOL    HW217370   0.724   4.103   6.542 -1.4797  0.5728 -0.5101
 1913SOL     OW17371   0.596   3.219  12.854  0.7625 -0.1137 -0.3734
 1913SOL    HW117372   0.613   3.313  12.861  0.1109 -0.0994  0.8559
 1913SOL    HW217373   0.549   3.202  12.935  3.0834  1.0270  1.2302
 1914SOL     OW17374   4.731   1.825   8.161  0.2613  0.0292  0.4590
 1914SOL    HW117375   4.669   1.783   8.221  2.2616 -2.1204  0.9994
 1914SOL    HW217376   0.016   1.900   8.219  1.6207 -0.1787  0.3167
 1915SOL     OW17377   4.379   0.434   4.145 -0.4180  0.0334 -0.3202
 1915SOL    HW117378   4.327   0.509   4.117 -2.2052 -1.1156 -0.0652
 1915SOL    HW217379   4.444   0.483   4.195  0.5854 -1.8683  0.2282
 1916SOL     OW17380   4.532   4.168   5.480 -0.9555  0.1149 -1.1582
 1916SOL    HW117381   4.536   4.154   5.386  2.4858  1.9413 -1.3003
 1916SOL    HW217382   4.582   4.095   5.518 -1.7935  0.7039  1.0997
 1917SOL     OW17383   2.550   0.915  10.217  0.2462  0.1562 -0.2369
 1917SOL    HW117384   2.489   0.939  10.148 -2.3956 -2.1391  1.3396
 1917SOL    HW217385   2.499   0.836  10.232  1.6492 -0.1131  3.2688
 1918SOL     OW17386   3.305   3.233   4.106 -0.2597  0.1412  0.4710
 1918SOL    HW117387   3.300   3.159   4.167  0.2091  0.7340  1.2190
 1918SOL    HW217388   3.398   3.229   4.083 -0.4236  3.0830 -0.6803
 1919SOL     OW17389   3.396   2.226   1.922 -0.0684 -0.0094  0.1781
 1919SOL    HW117390   3.479   2.260   1.956  0.5316  0.3009 -1.6010
 1919SOL    HW217391   3.382   2.143   1.968 -1.6077  1.5025  2.4155
 1920SOL     OW17392   1.333   3.370  14.109  0.4290  0.2446  0.1685
 1920SOL    HW117393   1.425   3.355  14.132  0.8642  0.3014 -1.5819
 1920SOL    HW217394   1.342   3.457  14.071 -0.1789 -0.3871 -1.4292
 1921SOL     OW17395   3.011   1.079  11.796 -0.1326 -0.1470 -0.2997
 1921SOL    HW117396   3.068   1.150  11.826 -1.3419  0.7044 -0.0524
 1921SOL    HW217397   3.030   1.077  11.702 -0.1181 -0.4634 -0.2914
 1922SOL     OW17398   2.109   0.590   8.056  0.5393  0.1184 -0.0615
 1922SOL    HW117399   2.013   0.587   8.051  0.6073 -0.4284 -1.1914
 1922SOL    HW217400   2.136   0.559   8.142 -0.2276  3.2067  1.3208
 1923SOL     OW17401   0.380   2.303   8.263  0.3751  0.0688  0.1645
 1923SOL    HW117402   0.458   2.351   8.290  0.5311 -0.6771  1.0302
 1923SOL    HW217403   0.390   2.217   8.304  1.7053 -1.0500 -2.4803
 1924SOL     OW17404   1.810   3.976  10.662 -0.2220 -0.0541  0.7340
 1924SOL    HW117405   1.900   3.979  10.695 -0.3371  1.1622  0.9253
 1924SOL    HW217406   1.802   4.067  10.636 -1.6779 -0.5318 -0.5104
 1925SOL     OW17407   0.933   3.917   3.739 -0.8538  0.2030  0.2427
 1925SOL    HW117408   0.904   3.881   3.656 -2.2697  0.1539  0.7558
 1925SOL    HW217409   1.011   3.962   3.708  0.7831 -2.9508 -0.3001
 1926SOL     OW17410   3.229   0.467   1.095 -0.4584  0.4925 -0.6365
 1926SOL    HW117411   3.260   0.377   1.091  0.1099  0.6459  0.3830
 1926SOL    HW217412   3.303   0.509   1.140  1.0558 -2.5028 -0.3689
 1927SOL     OW17413   3.740   0.068  10.855  0.4486  0.7053 -0.0627
 1927SOL    HW117414   3.750   0.136  10.922  1.9805  0.2919  0.1367
 1927SOL    HW217415   3.779   0.107  10.776  1.5782 -0.5293 -0.1130
 1928SOL     OW17416   2.639   4.236   1.248  0.3336  0.0581 -0.2635
 1928SOL    HW117417   2.687   4.318   1.237 -0.1327  0.4746  0.9566
 1928SOL    HW217418   2.689   4.197   1.319  0.7468 -1.7374 -1.5281
 1929SOL     OW17419   0.920   1.383   4.378  0.4733 -0.2853  0.4938
 1929SOL    HW117420   0.911   1.390   4.283  1.1721  1.0784  0.5350
 1929SOL    HW217421   0.897   1.292   4.398 -1.1848 -0.5669 -2.5706
 1930SOL     OW17422   2.332   1.535   7.234  0.5985 -0.0274  0.1891
 1930SOL    HW117423   2.401   1.594   7.201  0.1588  1.5924  2.1550
 1930SOL    HW217424   2.330   1.474   7.160 -0.6329  1.8104 -1.2762
 1931SOL     OW17425   1.341   4.618   2.602  0.0842  0.9678 -0.1505
 1931SOL    HW117426   1.267   4.595   2.658  0.4410 -0.5481 -0.2958
 1931SOL    HW217427   1.306   4.695   2.558  0.2563  1.3396  0.3675
 1932SOL     OW17428   3.337   4.521   0.575  0.2605 -0.2640 -0.0507
 1932SOL    HW117429   3.370   4.603   0.539 -0.1267 -0.6887 -1.3595
 1932SOL    HW217430   3.416   4.468   0.564  1.1525  1.0140  0.2022
 1933SOL     OW17431   2.934   0.604   7.574 -0.3765 -0.4243  0.5124
 1933SOL    HW117432   2.857   0.601   7.631  0.7029 -0.0756  1.9798
 1933SOL    HW217433   2.896   0.608   7.486  1.8554  0.9922 -0.3752
 1934SOL     OW17434   0.534   4.142  14.466 -0.2494 -0.1042 -0.2287
 1934SOL    HW117435   0.477   4.199  14.415  1.0873  0.9744 -0.5023
 1934SOL    HW217436   0.624   4.171  14.456 -0.7218  0.6727 -2.0685
 1935SOL     OW17437   2.854   0.660   8.797  0.3862 -0.0090 -0.5440
 1935SOL    HW117438   2.937   0.678   8.753  1.4308 -0.5787  1.1816
 1935SOL    HW217439   2.881   0.588   8.853 -0.5523 -0.1092 -0.2263
 1936SOL     OW17440   1.568   4.565   4.992  0.0574  0.0494 -0.1610
 1936SOL    HW117441   1.642   4.551   5.051 -0.7028 -2.7687  0.1273
 1936SOL    HW217442   1.547   4.478   4.959  2.2295 -0.2965 -0.5955
 1937SOL     OW17443   1.915   2.725   1.979  0.0595  0.3178  0.1384
 1937SOL    HW117444   1.899   2.784   1.906 -1.4040 -0.7785 -0.3998
 1937SOL    HW217445   1.957   2.655   1.929 -0.7315 -1.2312  1.6529
 1938SOL     OW17446   3.129   1.900  14.026  0.0912  0.0103  0.2185
 1938SOL    HW117447   3.142   1.842  14.101 -1.5721  1.8211  1.9023
 1938SOL    HW217448   3.161   1.983  14.060  0.4697  0.0604 -0.2499
 1939SOL     OW17449   4.346   0.350   2.149  0.4578  0.1099 -0.6719
 1939SOL    HW117450   4.440   0.332   2.153  0.4236 -0.0410 -0.5394
 1939SOL    HW217451   4.335   0.428   2.203 -0.1803 -0.7913  0.4983
 1940SOL     OW17452   3.440   3.124   0.880 -0.3732  0.1772 -0.1167
 1940SOL    HW117453   3.497   3.168   0.818  0.5586  0.8008  1.1915
 1940SOL    HW217454   3.373   3.191   0.895 -0.2113  0.4472 -0.6172
 1941SOL     OW17455   4.501   2.308  17.461 -0.1019 -0.3004  0.6479
 1941SOL    HW117456   4.514   2.305  17.366 -2.1048  2.0182  0.2801
 1941SOL    HW217457   4.406   2.312  17.473 -0.1321  1.1554 -0.0680
 1942SOL     OW17458   3.997   0.746  15.841  0.0008 -0.2946 -0.3370
 1942SOL    HW117459   3.994   0.840  15.823 -0.3109  0.1385  1.9950
 1942SOL    HW217460   3.967   0.748  15.932  0.4397 -2.2553 -0.1560
 1943SOL     OW17461   2.352   1.761   1.835  0.3427 -0.8774 -0.7816
 1943SOL    HW117462   2.321   1.806   1.914 -0.2706  0.1705 -1.6341
 1943SOL    HW217463   2.446   1.776   1.846 -0.0899  0.8789  0.5825
 1944SOL     OW17464   4.252   2.196   7.521 -0.4971 -0.4826  0.0704
 1944SOL    HW117465   4.259   2.179   7.615  2.7589 -0.2988 -0.1462
 1944SOL    HW217466   4.162   2.229   7.517 -0.0652  0.4286 -1.9476
 1945SOL     OW17467   4.610   2.781   9.630 -0.4492  0.3420 -0.2076
 1945SOL    HW117468   4.690   2.756   9.584  0.0966  0.5744  0.6060
 1945SOL    HW217469   4.651   2.843   9.690  0.1332  0.6870 -0.9674
 1946SOL     OW17470   4.403   0.635  10.675 -0.0263  0.2185  0.2322
 1946SOL    HW117471   4.419   0.552  10.631 -0.1600  1.1355 -1.5586
 1946SOL    HW217472   4.463   0.694  10.629  1.0222 -1.3340 -0.3881
 1947SOL     OW17473   2.926   2.038   8.157 -0.2799 -0.2898  0.1235
 1947SOL    HW117474   2.902   2.008   8.245  1.3754  0.4018  0.8241
 1947SOL    HW217475   2.860   2.103   8.134  0.4074  0.5988  0.6194
 1948SOL     OW17476   1.364   1.096   7.207 -0.6496 -0.9526  0.2572
 1948SOL    HW117477   1.400   1.184   7.196  0.9025 -1.4793  1.1336
 1948SOL    HW217478   1.438   1.054   7.163  0.7948 -0.3638  2.0992
 1949SOL     OW17479   3.598   3.709  11.455 -0.0016  0.4424 -0.8709
 1949SOL    HW117480   3.548   3.756  11.522 -1.2752  0.2222 -1.6571
 1949SOL    HW217481   3.613   3.625  11.500  2.8240  2.3543  1.7286
 1950SOL     OW17482   2.661   1.049   7.677  0.3482 -0.3537  0.1263
 1950SOL    HW117483   2.660   1.046   7.773  0.4259  1.5644  0.1949
 1950SOL    HW217484   2.735   0.995   7.649  0.2915 -1.1284  1.4506
 1951SOL     OW17485   1.050   2.970  17.461  0.0266 -0.0275 -0.1698
 1951SOL    HW117486   1.000   2.890  17.480 -0.2369  0.3419  0.7206
 1951SOL    HW217487   0.997   3.038  17.504  0.6874  0.1923  0.2974
 1952SOL     OW17488   3.523   0.579   3.452  0.3514  0.1765 -0.4446
 1952SOL    HW117489   3.522   0.600   3.545 -1.3812 -1.8275 -0.0048
 1952SOL    HW217490   3.454   0.635   3.418 -1.2448 -1.5704 -0.0491
 1953SOL     OW17491   4.322   0.979  10.643 -0.4149 -0.0054 -0.0071
 1953SOL    HW117492   4.247   0.934  10.681  0.3607 -1.4787 -0.2051
 1953SOL    HW217493   4.278   1.026  10.572  1.2258  1.4878 -0.0564
 1954SOL     OW17494   3.093   0.118   8.087  0.0208  0.1200 -0.0037
 1954SOL    HW117495   3.075   0.180   8.157 -1.8596  1.0899 -1.3333
 1954SOL    HW217496   3.083   0.172   8.009 -0.2836 -0.9576 -0.7145
 1955SOL     OW17497   3.542   2.146   1.530  0.0263 -0.4158  0.0327
 1955SOL    HW117498   3.513   2.236   1.517  1.6997  0.3301  1.3923
 1955SOL    HW217499   3.456   2.105   1.532 -0.8353  1.3985  0.3614
 1956SOL     OW17500   2.418   2.375   9.039 -0.6392 -0.0322 -0.0840
 1956SOL    HW117501   2.381   2.416   9.117 -0.5745 -1.0561  0.4937
 1956SOL    HW217502   2.404   2.452   8.985  4.4272  0.3830 -0.8197
 1957SOL     OW17503   2.196   2.356  11.755  0.1332 -0.5877 -0.6972
 1957SOL    HW117504   2.199   2.353  11.659 -0.7090  0.7971 -0.7536
 1957SOL    HW217505   2.129   2.289  11.766 -1.4005  0.7755 -1.8132
 1958SOL     OW17506   3.507   0.215   4.569  0.0459 -0.0249  0.3704
 1958SOL    HW117507   3.413   0.207   4.585  0.0481  1.0583  0.9234
 1958SOL    HW217508   3.517   0.209   4.474 -0.2854  0.2738  0.3184
 1959SOL     OW17509   2.490   0.781   6.779  0.3096  0.3355 -0.2958
 1959SOL    HW117510   2.574   0.823   6.764  0.0804  0.9014  0.0016
 1959SOL    HW217511   2.452   0.825   6.855  1.7481  2.9102 -1.1013
 1960SOL     OW17512   4.546   2.511   5.650 -0.1961  0.2824  0.2122
 1960SOL    HW117513   4.523   2.454   5.724  0.2792 -0.0891  0.0687
 1960SOL    HW217514   4.577   2.449   5.585 -3.7187 -1.4297  0.1790
 1961SOL     OW17515   3.825   2.489   8.704  0.2959  0.3582 -0.3603
 1961SOL    HW117516   3.894   2.444   8.753 -0.4290 -1.5680 -1.1002
 1961SOL    HW217517   3.749   2.442   8.737  0.6266 -0.9932 -1.5241
 1962SOL     OW17518   1.237   3.277  15.243  0.0422  0.5933 -0.2568
 1962SOL    HW117519   1.168   3.338  15.267  0.4762  1.0986 -0.2990
 1962SOL    HW217520   1.222   3.206  15.306  1.6319 -1.0410 -1.6856
 1963SOL     OW17521   2.585   0.104   5.427  0.4936  0.3954 -0.1588
 1963SOL    HW117522   2.601   0.134   5.338  1.7738 -1.4333 -0.5394
 1963SOL    HW217523   2.633   0.022   5.422  0.1320  0.1246  0.7081
 1964SOL     OW17524   1.324   0.053   2.344  0.2983  0.0088 -0.1901
 1964SOL    HW117525   1.297   0.139   2.311  0.9122 -0.7365 -2.6422
 1964SOL    HW217526   1.254   0.002   2.303 -1.4022 -0.1360  2.8586
 1965SOL     OW17527   0.053   0.852   3.303  0.1784  0.0405  0.3182
 1965SOL    HW117528   4.692   0.850   3.326  0.1591  1.1239  0.3325
 1965SOL    HW217529   0.075   0.944   3.288  0.0442  0.3148  1.8385
 1966SOL     OW17530   3.233   3.015   2.487  0.3754  0.0129 -0.1870
 1966SOL    HW117531   3.160   3.071   2.513  1.5482  0.9631  1.0907
 1966SOL    HW217532   3.227   3.009   2.392 -1.7427  0.7378 -0.0800
 1967SOL     OW17533   3.297   3.221   7.728 -0.6829 -0.4563 -0.3267
 1967SOL    HW117534   3.306   3.168   7.648 -0.2154 -2.1438  0.8366
 1967SOL    HW217535   3.384   3.254   7.750 -0.7142 -0.6036  0.0267
 1968SOL     OW17536   3.250   0.022  15.467  0.3148 -0.3298  0.4505
 1968SOL    HW117537   3.344   0.005  15.463  0.8565  2.2617  1.9707
 1968SOL    HW217538   3.202   0.002  15.386  3.0196 -1.3451 -0.9000
 1969SOL     OW17539   2.998   4.145   7.809  0.4050  0.0079  0.2283
 1969SOL    HW117540   2.990   4.069   7.751 -1.5164  0.7273 -0.4206
 1969SOL    HW217541   3.093   4.143   7.826  0.1362  0.1004  1.7179
 1970SOL     OW17542   2.275   0.358  12.550  0.4284 -0.5169  0.5049
 1970SOL    HW117543   2.204   0.293  12.546 -1.3644  1.4409  0.5685
 1970SOL    HW217544   2.261   0.421  12.480  2.5741  0.8450  1.3197
 1971SOL     OW17545   1.337   3.931   4.713 -0.6322  0.3163 -0.5403
 1971SOL    HW117546   1.425   3.956   4.743 -0.6065 -0.0274 -0.3209
 1971SOL    HW217547   1.301   3.926   4.802 -2.7754  1.6007 -1.3418
 1972SOL     OW17548   0.077   0.905  10.622  0.3362  0.0431  0.4433
 1972SOL    HW117549   0.072   0.997  10.645  1.6371  0.3201 -0.4027
 1972SOL    HW217550   4.723   0.884  10.588  0.8303  1.3670 -1.6275
 1973SOL     OW17551   3.699   3.912   6.950  0.4133 -0.2160  0.0171
 1973SOL    HW117552   3.613   3.895   6.989  0.0714 -0.0996 -0.6852
 1973SOL    HW217553   3.720   3.824   6.920  1.6968  0.5155 -1.1906
 1974SOL     OW17554   2.626   0.733  15.965  0.8208  0.0321 -0.0429
 1974SOL    HW117555   2.542   0.773  15.985  0.5217 -1.0718  0.9219
 1974SOL    HW217556   2.601   0.674  15.894 -0.1474  0.9979 -0.4914
 1975SOL     OW17557   1.823   2.162   6.345  0.0583  0.0952 -0.4660
 1975SOL    HW117558   1.816   2.069   6.327 -3.1929  0.1954  0.2299
 1975SOL    HW217559   1.890   2.161   6.413 -0.1719 -0.2034 -0.2422
 1976SOL     OW17560   4.209   0.655  11.392 -0.0768 -0.2302  0.0619
 1976SOL    HW117561   4.150   0.620  11.459  0.9069 -1.5577  0.2447
 1976SOL    HW217562   4.148   0.712  11.345 -0.3057  0.4636  1.1876
 1977SOL     OW17563   3.659   1.571   3.996  1.0129 -0.4060 -0.2829
 1977SOL    HW117564   3.568   1.594   4.011  0.8621 -0.8527 -0.5056
 1977SOL    HW217565   3.709   1.640   4.039  0.3432 -0.3361  0.3647
 1978SOL     OW17566   1.124   3.164   2.890  0.4411  0.7027 -0.6241
 1978SOL    HW117567   1.082   3.193   2.971  2.1411 -0.5199  0.6877
 1978SOL    HW217568   1.183   3.239   2.881 -0.9616  1.9647  0.7722
 1979SOL     OW17569   3.076   0.445   5.446  0.2241 -0.3217  0.0270
 1979SOL    HW117570   3.172   0.444   5.454  0.5444  1.3511 -3.4785
 1979SOL    HW217571   3.065   0.436   5.351  1.4428 -1.7249  0.0183
 1980SOL     OW17572   1.576   2.871   6.345 -0.0311  0.1672 -0.6688
 1980SOL    HW117573   1.517   2.796   6.347  0.2949 -0.0742  0.3852
 1980SOL    HW217574   1.659   2.828   6.366  0.4969  0.4789 -2.1508
 1981SOL     OW17575   1.992   3.614   4.683 -0.0516  0.0668 -0.4096
 1981SOL    HW117576   1.928   3.551   4.650 -3.1269  1.7582  2.4675
 1981SOL    HW217577   2.063   3.550   4.696 -2.1236 -2.2240 -0.3542
 1982SOL     OW17578   3.016   3.678   6.590 -0.0915 -0.1805  1.1343
 1982SOL    HW117579   3.073   3.626   6.534 -0.8907  2.2010 -1.8672
 1982SOL    HW217580   3.085   3.733   6.626 -1.4226  2.5946 -0.5407
 1983SOL     OW17581   3.599   1.399  11.762  0.3354  0.5196 -0.7232
 1983SOL    HW117582   3.615   1.406  11.668  0.8680 -0.0048 -0.6682
 1983SOL    HW217583   3.683   1.365  11.794  0.1820  1.7397  0.9996
 1984SOL     OW17584   1.405   0.708  10.692 -0.0532 -0.1451  0.2290
 1984SOL    HW117585   1.452   0.791  10.677  1.8291 -1.5297 -1.5973
 1984SOL    HW217586   1.397   0.685  10.600 -1.2679  0.6251  0.1423
 1985SOL     OW17587   3.625   0.951   1.695 -0.1468 -0.2115 -0.4959
 1985SOL    HW117588   3.534   0.981   1.696  0.3039  1.1690 -1.1325
 1985SOL    HW217589   3.683   1.024   1.671 -1.2358  1.1910  1.0791
 1986SOL     OW17590   0.390   2.436   4.696 -0.1223  0.3144 -0.0738
 1986SOL    HW117591   0.368   2.370   4.762  0.0750  0.4078  0.0834
 1986SOL    HW217592   0.359   2.510   4.749  3.6032  0.8989  1.2981
 1987SOL     OW17593   2.276   1.553  15.447  0.0167 -0.3574  0.0009
 1987SOL    HW117594   2.234   1.491  15.387  2.5916 -1.9792 -0.0959
 1987SOL    HW217595   2.365   1.519  15.453 -0.0008 -0.5950 -1.2003
 1988SOL     OW17596   1.864   2.721   3.908 -0.5527 -0.5018 -0.1608
 1988SOL    HW117597   1.777   2.748   3.879 -0.9212 -0.7770  0.7243
 1988SOL    HW217598   1.870   2.720   4.003 -0.2820  0.7298 -0.1560
 1989SOL     OW17599   2.391   3.844   2.950  1.0003 -0.4596 -0.8379
 1989SOL    HW117600   2.300   3.872   2.965  2.1601  1.3788  2.9164
 1989SOL    HW217601   2.425   3.837   3.039 -2.2087 -1.5128  0.2999
 1990SOL     OW17602   2.618   0.927  16.732 -0.4516 -0.4506  0.2133
 1990SOL    HW117603   2.641   0.845  16.688 -0.0256 -1.0757  1.6052
 1990SOL    HW217604   2.542   0.905  16.786  0.0598  0.3962  1.2756
 1991SOL     OW17605   1.415   2.238   6.873 -0.4453  0.4327  0.2471
 1991SOL    HW117606   1.337   2.263   6.823  0.1429  2.4345  0.3274
 1991SOL    HW217607   1.478   2.295   6.830 -0.7621 -0.4007 -1.3232
 1992SOL     OW17608   1.957   4.329   1.500 -0.3069  0.6006 -0.4514
 1992SOL    HW117609   1.944   4.336   1.595 -0.0287 -2.1456 -0.2262
 1992SOL    HW217610   2.020   4.257   1.500 -0.7034  0.2486  1.2268
 1993SOL     OW17611   2.464   3.201  15.565 -0.1802  0.0601  0.5502
 1993SOL    HW117612   2.416   3.172  15.643 -0.0925 -1.5355  0.0117
 1993SOL    HW217613   2.413   3.274  15.529  0.0872 -0.4179 -0.7944
 1994SOL     OW17614   4.627   1.588  15.780 -0.1997 -0.7835  0.0232
 1994SOL    HW117615   4.670   1.518  15.829 -0.3614 -1.7716 -1.2529
 1994SOL    HW217616   4.560   1.619  15.841  1.0963 -0.5511  1.3110
 1995SOL     OW17617   3.411   3.887   3.599  0.2316  0.2902  0.1775
 1995SOL    HW117618   3.381   3.920   3.515  2.4397  1.2474 -0.2265
 1995SOL    HW217619   3.395   3.960   3.660  0.3596 -0.3597  0.9952
 1996SOL     OW17620   0.118   1.912   4.235  0.1946  0.4920  0.2455
 1996SOL    HW117621   0.192   1.859   4.263 -0.3504 -0.8920 -0.9356
 1996SOL    HW217622   0.050   1.869   4.287 -0.0442  1.2678  0.5793
 1997SOL     OW17623   0.627   3.430   1.756  0.3644  0.0562  0.1976
 1997SOL    HW117624   0.535   3.409   1.740  0.8320 -0.4826 -1.8145
 1997SOL    HW217625   0.643   3.502   1.695  1.6022  0.5319  1.0748
 1998SOL     OW17626   4.513   0.911   6.274  0.1428 -0.1764 -0.3589
 1998SOL    HW117627   4.480   0.921   6.184 -1.2964 -0.4705  0.1445
 1998SOL    HW217628   4.532   1.000   6.302  0.5225  0.3362 -2.2308
 1999SOL     OW17629   2.520   1.016   2.397 -0.2374 -0.6651 -0.2882
 1999SOL    HW117630   2.487   1.101   2.369  1.3175  0.5799  1.5635
 1999SOL    HW217631   2.523   0.973   2.312  0.4458  0.5384 -0.8737
 2000SOL     OW17632   2.166   2.212  13.402 -0.0225  0.5467 -0.0851
 2000SOL    HW117633   2.244   2.265  13.388 -0.1323  0.7246 -0.0149
 2000SOL    HW217634   2.122   2.264  13.469  0.1663  0.2851  0.2444
 2001SOL     OW17635   4.468   2.824  11.436 -0.9072  0.0823 -0.9010
 2001SOL    HW117636   4.508   2.794  11.518 -1.6430 -0.1676 -0.6403
 2001SOL    HW217637   4.455   2.736  11.400 -3.2989 -0.0997  0.3976
 2002SOL     OW17638   0.816   4.089   7.094  0.5129  0.2524 -0.2479
 2002SOL    HW117639   0.892   4.148   7.096  0.5626  0.0780  2.2958
 2002SOL    HW217640   0.751   4.154   7.068  1.8927  1.3030 -1.0839
 2003SOL     OW17641   1.185   0.471   9.513  0.5207 -0.1316  0.8980
 2003SOL    HW117642   1.096   0.440   9.530 -0.4580  0.8327 -2.3666
 2003SOL    HW217643   1.185   0.465   9.417 -0.4573 -1.0735  0.9676
 2004SOL     OW17644   3.142   0.895   8.399  0.1259 -0.5104 -0.3905
 2004SOL    HW117645   3.195   0.839   8.341  0.5216  0.0408 -0.5572
 2004SOL    HW217646   3.077   0.931   8.339 -1.5676 -1.9463  0.6028
 2005SOL     OW17647   0.971   2.348  15.527 -0.4050 -0.5164  0.3536
 2005SOL    HW117648   0.973   2.422  15.587 -2.2008 -0.6996  0.6311
 2005SOL    HW217649   0.926   2.375  15.447  0.4356 -0.9130 -0.2492
 2006SOL     OW17650   1.503   0.349  13.412 -0.7293 -0.0512 -0.6234
 2006SOL    HW117651   1.427   0.291  13.413  1.6744 -3.1682 -0.4143
 2006SOL    HW217652   1.477   0.407  13.483  0.2582  0.8687 -1.0020
 2007SOL     OW17653   0.856   2.309   7.901  0.6581  0.3208 -0.1087
 2007SOL    HW117654   0.842   2.214   7.894  0.2545  0.5279 -2.0699
 2007SOL    HW217655   0.936   2.305   7.954  1.0767  2.1250 -0.5877
 2008SOL     OW17656   1.265   3.234  11.669  0.0484  0.0454 -0.7455
 2008SOL    HW117657   1.347   3.188  11.650  0.0253  0.6375 -2.2259
 2008SOL    HW217658   1.261   3.292  11.593 -2.8499  0.0275 -0.6025
 2009SOL     OW17659   1.826   3.445   4.582  0.1965 -0.1002  0.0851
 2009SOL    HW117660   1.782   3.365   4.611  1.5633 -0.3445  1.4325
 2009SOL    HW217661   1.746   3.495   4.566  1.0496  1.4749  0.8088
 2010SOL     OW17662   0.865   3.007   8.075  0.0095 -0.0576  0.1712
 2010SOL    HW117663   0.844   2.950   8.001 -1.4119  0.3937  0.2210
 2010SOL    HW217664   0.774   3.012   8.103  0.2877  1.4778  0.7984
 2011SOL     OW17665   2.343   1.132   6.353 -0.6132  0.0922  0.0785
 2011SOL    HW117666   2.284   1.128   6.428  0.4566  0.3988  0.9426
 2011SOL    HW217667   2.421   1.106   6.403 -0.5787  1.5980  0.7935
 2012SOL     OW17668   3.336   1.209  13.848 -0.5112  0.5438 -0.1774
 2012SOL    HW117669   3.369   1.128  13.886  0.3587  0.1803 -1.7269
 2012SOL    HW217670   3.282   1.239  13.922 -2.8003  0.4448 -1.7962
 2013SOL     OW17671   2.115   3.244   7.590 -0.0919 -0.9906 -0.3092
 2013SOL    HW117672   2.085   3.294   7.665 -2.5626 -0.6931 -1.4915
 2013SOL    HW217673   2.037   3.194   7.568  0.3383 -1.6641 -0.3173
 2014SOL     OW17674   1.721   2.850  14.967  0.7660  0.4114 -0.4315
 2014SOL    HW117675   1.747   2.758  14.974  2.9245  1.0821  0.4506
 2014SOL    HW217676   1.779   2.890  15.032  0.7345  0.7866 -0.6320
 2015SOL     OW17677   4.544   0.076   2.700 -0.3993  0.0733 -0.3264
 2015SOL    HW117678   4.468   0.114   2.744  0.5484  0.1337  1.2615
 2015SOL    HW217679   4.533   4.719   2.733 -1.7996  0.4116  0.1268
 2016SOL     OW17680   0.564   3.103   1.755 -0.2510 -0.2181 -0.2916
 2016SOL    HW117681   0.568   3.137   1.666 -1.7027 -2.8648 -1.3581
 2016SOL    HW217682   0.630   3.161   1.795 -0.7160  0.9439 -1.2283
 2017SOL     OW17683   1.088   3.444   2.265 -0.6561 -0.5611  0.0070
 2017SOL    HW117684   1.095   3.442   2.360 -0.2088  0.5568 -0.0002
 2017SOL    HW217685   1.150   3.376   2.240 -0.0273  0.3272 -0.9113
 2018SOL     OW17686   2.929   2.446  13.022  0.2790 -0.2889  0.4768
 2018SOL    HW117687   2.965   2.478  13.105  2.3322  1.1111 -0.9608
 2018SOL    HW217688   2.902   2.527  12.979 -0.2399 -0.0004  1.3263
 2019SOL     OW17689   3.556   2.237   4.317 -0.0121 -0.0358  0.0413
 2019SOL    HW117690   3.537   2.283   4.399 -1.8510 -2.4480  0.9520
 2019SOL    HW217691   3.513   2.291   4.251  1.7970  0.8309 -0.4403
 2020SOL     OW17692   2.919   1.819   5.071  0.1474  0.9968 -0.0145
 2020SOL    HW117693   2.902   1.895   5.126 -1.5233  1.1772 -0.7615
 2020SOL    HW217694   2.930   1.750   5.136 -1.0727 -0.4887 -1.3739
 2021SOL     OW17695   1.495   2.249   7.132  0.2451 -0.0654 -0.2053
 2021SOL    HW117696   1.464   2.253   7.041 -1.6689  0.5283  0.4855
 2021SOL    HW217697   1.519   2.341   7.145  1.1088 -0.2984 -0.1122
 2022SOL     OW17698   2.103   1.122  15.381 -0.0914 -0.1579 -0.0400
 2022SOL    HW117699   2.059   1.186  15.438  0.2681 -1.2251  1.4277
 2022SOL    HW217700   2.116   1.050  15.442  4.4910  0.4165 -0.3570
 2023SOL     OW17701   0.601   3.055   0.915 -0.1454  0.2570 -0.2446
 2023SOL    HW117702   0.606   2.987   0.982  0.2517  0.8538  0.3351
 2023SOL    HW217703   0.632   3.133   0.962  2.0348  0.4079 -1.9535
 2024SOL     OW17704   1.168   1.494   6.204 -0.0757 -0.3138 -0.1778
 2024SOL    HW117705   1.099   1.505   6.269 -0.4380  0.5171 -0.6957
 2024SOL    HW217706   1.233   1.557   6.237 -0.0289 -2.0044  2.9583
 2025SOL     OW17707   0.243   3.843   1.894  0.0214 -0.0109  0.3672
 2025SOL    HW117708   0.181   3.846   1.821  0.7131  0.9485 -0.1818
 2025SOL    HW217709   0.218   3.757   1.927 -0.5395 -0.2864 -0.7914
 2026SOL     OW17710   1.715   0.449  10.739 -0.6692 -0.2539 -0.3533
 2026SOL    HW117711   1.639   0.451  10.797  0.3143  2.0283  0.8737
 2026SOL    HW217712   1.776   0.487  10.803 -1.0351  1.7759 -1.1983
 2027SOL     OW17713   1.551   0.028   3.550 -0.1983  0.0223  0.0054
 2027SOL    HW117714   1.505   0.111   3.563  1.1739  0.5721  1.3876
 2027SOL    HW217715   1.631   0.072   3.523 -0.0803  0.4161  0.9840
 2028SOL     OW17716   2.545   0.885   5.329  0.1894 -0.1932  0.1922
 2028SOL    HW117717   2.522   0.944   5.401 -0.9756  0.6564 -0.8580
 2028SOL    HW217718   2.458   0.852   5.305 -0.0415 -0.1853  1.0116
 2029SOL     OW17719   3.808   2.247   3.340 -0.1609 -0.2723  0.6284
 2029SOL    HW117720   3.852   2.169   3.373  1.3831 -0.0282 -0.8598
 2029SOL    HW217721   3.747   2.274   3.408 -0.7328  0.5127 -0.1859
 2030SOL     OW17722   4.015   1.255  10.765 -0.0762  0.0333  0.0438
 2030SOL    HW117723   4.010   1.192  10.838 -0.3538 -0.9745 -0.8525
 2030SOL    HW217724   4.072   1.321  10.804 -1.4175  1.8399 -1.0517
 2031SOL     OW17725   3.859   4.690   0.657 -0.4518 -0.5138 -0.3872
 2031SOL    HW117726   3.794   4.655   0.719  1.2193 -0.2451  1.5175
 2031SOL    HW217727   3.807   4.695   0.577 -0.3581 -1.6244 -0.5119
 2032SOL     OW17728   3.583   2.450   7.684  0.4336  0.4190 -0.3406
 2032SOL    HW117729   3.577   2.469   7.590  2.9582 -0.4684 -0.6957
 2032SOL    HW217730   3.653   2.511   7.707  1.7193 -0.3880 -2.0620
 2033SOL     OW17731   3.663   1.987   0.539  0.3778  0.0088  0.0147
 2033SOL    HW117732   3.682   2.019   0.451 -0.3418 -0.4335 -0.3082
 2033SOL    HW217733   3.749   1.986   0.580  1.4675  1.2298 -2.2764
 2034SOL     OW17734   4.162   2.511  16.664  0.5933 -0.3997 -0.4514
 2034SOL    HW117735   4.230   2.455  16.630  0.7738 -0.2396 -0.3559
 2034SOL    HW217736   4.100   2.446  16.697  0.2731 -0.1537 -0.5684
 2035SOL     OW17737   0.573   2.702   6.252 -0.3645  0.1109  0.3781
 2035SOL    HW117738   0.539   2.783   6.289  0.7754  0.9779 -0.4860
 2035SOL    HW217739   0.567   2.640   6.325 -0.7756  0.2263  0.4434
 2036SOL     OW17740   0.593   0.372  15.409  0.2534 -0.0209 -0.1895
 2036SOL    HW117741   0.679   0.382  15.449  0.9097 -1.7217 -1.2084
 2036SOL    HW217742   0.581   0.278  15.416  2.1561 -0.1267  1.4334
 2037SOL     OW17743   1.809   3.808  12.473  0.4313 -0.0116  0.2824
 2037SOL    HW117744   1.789   3.726  12.519 -2.0451  0.0747 -0.6589
 2037SOL    HW217745   1.744   3.865  12.513  2.0705  1.0796  1.3853
 2038SOL     OW17746   4.562   2.047   4.418  0.1988  0.1173  0.2928
 2038SOL    HW117747   4.521   2.106   4.354  1.7525 -0.9181 -1.6404
 2038SOL    HW217748   4.644   2.097   4.421 -1.0298  1.8960  4.7898
 2039SOL     OW17749   4.454   0.524  14.895  0.0127 -0.5443  0.3330
 2039SOL    HW117750   4.427   0.614  14.912  0.5532 -0.3625  0.2406
 2039SOL    HW217751   4.496   0.535  14.810 -1.4316  1.4920 -0.1226
 2040SOL     OW17752   3.110   4.116   4.595  0.2771 -0.4532 -0.2635
 2040SOL    HW117753   3.044   4.139   4.661 -0.7282  0.2088 -1.5132
 2040SOL    HW217754   3.193   4.123   4.642  0.5468  0.7884 -0.9329
 2041SOL     OW17755   4.148   1.919  12.724 -0.5351  0.0708  0.1819
 2041SOL    HW117756   4.131   1.918  12.818  3.8249  0.1522  0.9318
 2041SOL    HW217757   4.144   1.825  12.709 -0.4878  0.4677 -2.3723
 2042SOL     OW17758   1.089   1.794   2.875 -0.0269 -0.1582  0.2922
 2042SOL    HW117759   1.022   1.726   2.884 -0.0579 -0.2388 -0.4982
 2042SOL    HW217760   1.086   1.809   2.780 -0.8676 -0.3812  0.2838
 2043SOL     OW17761   3.508   0.740  15.571  0.1912  1.2470  0.8400
 2043SOL    HW117762   3.453   0.754  15.494  2.1881  2.6141 -0.3448
 2043SOL    HW217763   3.528   0.651  15.544 -1.0904  0.1677  3.5019
 2044SOL     OW17764   4.593   1.959   5.569  0.7572 -0.1210 -0.3386
 2044SOL    HW117765   4.545   1.958   5.487  1.6084  3.1001 -0.8704
 2044SOL    HW217766   4.620   1.868   5.577  0.9806 -0.0951 -0.8319
 2045SOL     OW17767   1.402   2.791  16.260 -0.0024 -0.2638 -0.3091
 2045SOL    HW117768   1.441   2.838  16.333  1.3592 -1.1575 -0.4689
 2045SOL    HW217769   1.442   2.704  16.267  0.6667  0.1283  0.5795
 2046SOL     OW17770   0.340   3.158   0.917  0.0952  0.1909 -0.8629
 2046SOL    HW117771   0.319   3.162   1.010  4.0710  1.6721 -0.0244
 2046SOL    HW217772   0.435   3.143   0.921 -0.3267 -0.8162  4.8445
 2047SOL     OW17773   3.047   2.857   5.980 -0.7714  0.3693 -0.7037
 2047SOL    HW117774   3.127   2.823   5.940 -0.1238  0.8711  0.1663
 2047SOL    HW217775   3.016   2.921   5.915  3.6542  2.1017 -1.0952
 2048SOL     OW17776   3.287   0.307   7.343  0.1272  0.2316 -0.5992
 2048SOL    HW117777   3.288   0.213   7.322 -1.4765 -0.1336  0.9838
 2048SOL    HW217778   3.342   0.342   7.272 -0.1894  0.5222 -0.6964
 2049SOL     OW17779   2.074   1.441  10.053  0.3526  0.5533  1.0675
 2049SOL    HW117780   2.132   1.426   9.978 -0.0482  2.1636  0.4283
 2049SOL    HW217781   2.070   1.355  10.095  0.4760 -1.3411 -2.7860
 2050SOL     OW17782   0.466   2.538   9.541  0.6656 -0.0228  0.3822
 2050SOL    HW117783   0.537   2.590   9.502 -2.0837  1.7403 -2.2410
 2050SOL    HW217784   0.424   2.495   9.467  0.6374  1.0003 -0.1981
 2051SOL     OW17785   2.080   1.783   6.802 -0.1015 -0.2410  0.3627
 2051SOL    HW117786   2.160   1.771   6.750 -2.1705 -0.2056 -2.8294
 2051SOL    HW217787   2.057   1.867   6.761 -0.5404 -0.6256 -0.1718
 2052SOL     OW17788   2.854   0.947   9.138 -0.0567 -0.7291  0.4192
 2052SOL    HW117789   2.924   0.905   9.089  1.1397  0.6890  0.9144
 2052SOL    HW217790   2.902   0.999   9.202  1.7051 -1.8634 -0.0103
 2053SOL     OW17791   0.507   2.215   8.031 -0.4799  0.1460  0.1423
 2053SOL    HW117792   0.510   2.129   8.074  2.4338  0.4111  0.4652
 2053SOL    HW217793   0.483   2.265   8.110 -0.2234  0.4234  0.0456
 2054SOL     OW17794   0.053   0.994   5.600 -0.7509  0.7819 -0.4129
 2054SOL    HW117795   0.146   0.973   5.595 -1.1963 -0.5675 -3.0925
 2054SOL    HW217796   0.016   0.930   5.661 -1.1095 -0.7169 -2.2212
 2055SOL     OW17797   1.436   4.177   1.795 -0.2068 -0.2569  0.4458
 2055SOL    HW117798   1.510   4.231   1.765 -0.2559 -0.2969  0.2481
 2055SOL    HW217799   1.398   4.247   1.848  0.3334  0.5287 -0.2043
 2056SOL     OW17800   3.231   1.807   6.571 -0.2611 -0.8998  0.2257
 2056SOL    HW117801   3.227   1.897   6.537  0.4584 -1.4062 -1.1931
 2056SOL    HW217802   3.250   1.818   6.664  0.6946 -1.3282  0.0814
 2057SOL     OW17803   0.139   1.995  10.460 -0.1311 -0.6380  0.2683
 2057SOL    HW117804   0.199   1.923  10.482  0.4411 -0.6772 -1.3865
 2057SOL    HW217805   0.076   1.948  10.406  1.4206 -0.2393 -1.9121
 2058SOL     OW17806   2.700   0.802   3.551  0.1478 -0.5346 -0.4010
 2058SOL    HW117807   2.773   0.864   3.550  0.3069 -0.6847  1.4161
 2058SOL    HW217808   2.703   0.756   3.635 -1.6140  2.1792  1.1674
 2059SOL     OW17809   0.864   4.688   4.804 -0.3500 -0.3963 -0.8399
 2059SOL    HW117810   0.797   0.003   4.755  0.7661  1.2789 -0.7275
 2059SOL    HW217811   0.951   4.699   4.765  1.2153 -2.2319  2.0671
 2060SOL     OW17812   3.973   0.418   1.880  0.4253 -0.3982  0.0443
 2060SOL    HW117813   4.033   0.378   1.817  0.5642  0.0209 -0.0906
 2060SOL    HW217814   4.012   0.396   1.964  1.5890  1.7580  0.0623
 2061SOL     OW17815   1.866   3.174  17.523 -0.0590 -0.5631  0.1239
 2061SOL    HW117816   1.940   3.231  17.500  0.0213 -0.5639  0.3770
 2061SOL    HW217817   1.798   3.241  17.531  0.3303  0.1021 -2.1399
 2062SOL     OW17818   1.959   2.913   9.797  0.4626  0.6115 -0.8532
 2062SOL    HW117819   1.910   2.995   9.788 -1.1070 -0.2657 -0.3525
 2062SOL    HW217820   1.901   2.848   9.756 -1.4019 -0.9120  4.2070
 2063SOL     OW17821   3.593   1.706   5.899  0.2671  0.0171  0.0002
 2063SOL    HW117822   3.619   1.701   5.807 -1.5450  1.7781 -0.6121
 2063SOL    HW217823   3.646   1.776   5.936  0.0540  0.7953 -1.1700
 2064SOL     OW17824   2.773   3.222   3.894 -0.4504  0.2348 -0.1893
 2064SOL    HW117825   2.797   3.314   3.887  0.5859  0.1547  2.1004
 2064SOL    HW217826   2.710   3.216   3.966 -0.9401 -1.8202 -0.7984
 2065SOL     OW17827   2.538   2.088   0.971  0.6083 -0.4200  0.8850
 2065SOL    HW117828   2.612   2.028   0.964  0.0922 -0.7490 -1.5657
 2065SOL    HW217829   2.584   2.170   0.949 -0.3470 -0.4189 -1.1048
 2066SOL     OW17830   2.151   3.635   8.915 -0.0441 -0.1627 -0.9505
 2066SOL    HW117831   2.224   3.637   8.978 -0.3253 -0.2318 -0.6234
 2066SOL    HW217832   2.205   3.658   8.839  0.4055  0.5762 -0.4057
 2067SOL     OW17833   1.720   2.089   6.055 -0.2892  0.1343 -0.0773
 2067SOL    HW117834   1.798   2.034   6.044  1.2351  2.6197 -1.8924
 2067SOL    HW217835   1.658   2.026   6.089 -0.2940  0.8259  1.1906
 2068SOL     OW17836   1.982   0.620  11.533 -0.4819  0.5348 -0.0351
 2068SOL    HW117837   1.910   0.683  11.525  0.8849  2.1347  0.2618
 2068SOL    HW217838   1.981   0.567  11.453 -2.0287  0.6393 -0.0709
 2069SOL     OW17839   2.936   0.440   8.940 -0.1596 -0.0938  0.4484
 2069SOL    HW117840   2.896   0.356   8.965  2.3521  0.0370  4.9551
 2069SOL    HW217841   2.982   0.461   9.021 -0.3681  0.9951  0.2756
 2070SOL     OW17842   1.098   2.514   3.140 -0.1262  0.3651  0.0203
 2070SOL    HW117843   1.034   2.581   3.117 -0.1580  0.3260 -0.0049
 2070SOL    HW217844   1.132   2.544   3.224 -0.8438 -1.2324  0.8713
 2071SOL     OW17845   3.084   3.070   8.167  0.4831 -0.2930 -0.0409
 2071SOL    HW117846   3.163   3.097   8.120 -0.2096  0.4494 -0.7732
 2071SOL    HW217847   3.018   3.134   8.139 -0.6267 -1.0869  0.8057
 2072SOL     OW17848   3.168   0.590   9.079  0.0849 -0.0487 -0.1412
 2072SOL    HW117849   3.102   0.588   9.149  1.2686  2.1449  1.0222
 2072SOL    HW217850   3.248   0.601   9.131 -0.1345 -0.0548  0.2000
 2073SOL     OW17851   3.473   4.606   2.164 -0.4233 -0.3500 -0.1083
 2073SOL    HW117852   3.501   4.682   2.215  0.8323 -0.6274 -0.3663
 2073SOL    HW217853   3.426   4.564   2.236 -1.1868  2.4925  1.0427
 2074SOL     OW17854   4.278   1.575   9.071  0.3551 -0.0784  0.2149
 2074SOL    HW117855   4.296   1.507   9.007 -0.2051 -0.2391  0.2231
 2074SOL    HW217856   4.208   1.616   9.019  1.7764  2.3103  0.2046
 2075SOL     OW17857   2.276   4.247   2.312 -0.0998  0.2352 -0.0847
 2075SOL    HW117858   2.219   4.174   2.288 -0.8920  0.2346  1.8157
 2075SOL    HW217859   2.352   4.207   2.353 -0.2322 -2.6673 -2.6826
 2076SOL     OW17860   1.499   2.184   0.885 -0.1877 -0.3001  0.2181
 2076SOL    HW117861   1.527   2.104   0.841 -1.6680  0.2570 -1.7586
 2076SOL    HW217862   1.568   2.203   0.949 -1.6830 -4.0878  2.9261
 2077SOL     OW17863   3.847   0.663   8.038  0.2812  0.6034 -0.0396
 2077SOL    HW117864   3.879   0.589   7.988 -2.2154 -0.5886  0.1271
 2077SOL    HW217865   3.754   0.649   8.020  0.8054 -0.4879 -1.8414
 2078SOL     OW17866   1.251   3.886   7.508  0.4916  0.0410 -0.1095
 2078SOL    HW117867   1.258   3.804   7.557  1.2714 -0.4828 -1.1158
 2078SOL    HW217868   1.227   3.939   7.584  0.9342 -0.4862  0.4036
 2079SOL     OW17869   3.997   2.317   8.043  0.2794 -0.2417  0.2182
 2079SOL    HW117870   3.913   2.283   8.074  0.8625 -1.6595  0.2922
 2079SOL    HW217871   3.986   2.412   8.047 -0.7401 -0.3247 -0.7059
 2080SOL     OW17872   1.816   0.996  17.690  0.0901  0.0922  0.0581
 2080SOL    HW117873   1.789   0.968   0.048  0.2552  1.7076  0.6442
 2080SOL    HW217874   1.755   0.960  17.627 -0.0500  0.2029  0.1302
 2081SOL     OW17875   2.882   0.948   9.555  0.9511  0.2051  0.3553
 2081SOL    HW117876   2.868   0.938   9.649 -0.6743 -0.3880  0.0518
 2081SOL    HW217877   2.862   0.857   9.531 -0.5522  1.2267 -2.2015
 2082SOL     OW17878   3.882   3.096   1.253 -0.0345 -0.7217 -0.1498
 2082SOL    HW117879   3.809   3.115   1.194 -0.9577  0.7111  1.4640
 2082SOL    HW217880   3.846   3.140   1.330  1.8355 -1.1836  1.0002
 2083SOL     OW17881   1.721   2.980   8.483 -0.6886 -0.0655  0.0575
 2083SOL    HW117882   1.786   2.914   8.460 -0.5306 -0.3661  1.3859
 2083SOL    HW217883   1.671   2.983   8.401  1.3614  0.3193 -1.1810
 2084SOL     OW17884   4.149   3.156   1.540  0.0471 -0.1874 -0.7347
 2084SOL    HW117885   4.134   3.237   1.492  0.8254  0.4473  0.0888
 2084SOL    HW217886   4.234   3.173   1.582 -0.6149 -0.6519  0.7837
 2085SOL     OW17887   2.408   0.050   2.789  0.7220  0.4330 -0.0608
 2085SOL    HW117888   2.412   4.711   2.725 -0.1235  0.6528 -0.3608
 2085SOL    HW217889   2.479   0.019   2.844  0.6610 -0.0435 -0.2533
 2086SOL     OW17890   0.185   3.321   2.658 -0.0090 -0.0356 -0.7435
 2086SOL    HW117891   0.123   3.251   2.636 -1.1042  1.2024 -1.6111
 2086SOL    HW217892   0.210   3.297   2.747  2.3461  3.9476 -0.3113
 2087SOL     OW17893   2.788   1.675   2.820 -0.6419 -0.2696  0.2601
 2087SOL    HW117894   2.791   1.612   2.748  2.6030 -1.6448  1.6020
 2087SOL    HW217895   2.873   1.669   2.862  0.3578  0.1269 -1.7341
 2088SOL     OW17896   3.293   3.575   0.472 -0.6392 -0.4132 -0.0362
 2088SOL    HW117897   3.276   3.497   0.525 -0.3060  0.2387  1.0335
 2088SOL    HW217898   3.201   3.593   0.451 -0.3987 -0.3003 -0.9886
 2089SOL     OW17899   2.542   2.835   5.522 -0.5108 -0.1523  0.9555
 2089SOL    HW117900   2.455   2.818   5.487  0.7529 -1.7864 -1.4346
 2089SOL    HW217901   2.590   2.868   5.446  1.5954 -1.5563  1.6502
 2090SOL     OW17902   2.512   3.826   7.369  0.2309  0.2758 -0.1778
 2090SOL    HW117903   2.454   3.754   7.396  0.6861 -0.5914 -1.5206
 2090SOL    HW217904   2.568   3.842   7.444  1.5284 -1.5519 -0.7491
 2091SOL     OW17905   2.711   0.616   3.100  0.0242  0.3213 -0.4875
 2091SOL    HW117906   2.699   0.522   3.113  0.2895  0.0550 -2.1276
 2091SOL    HW217907   2.637   0.645   3.047 -0.8813 -0.9729  0.0916
 2092SOL     OW17908   2.257   2.074   8.431  0.6531  0.1827  0.0089
 2092SOL    HW117909   2.326   2.140   8.436  0.7571 -0.0287  1.2349
 2092SOL    HW217910   2.225   2.067   8.521  1.7292 -1.1825  0.2903
 2093SOL     OW17911   2.244   3.164   5.461  0.3362 -0.3703 -0.3877
 2093SOL    HW117912   2.176   3.221   5.426 -0.9007 -1.3618  0.4102
 2093SOL    HW217913   2.326   3.214   5.467  1.7198 -2.6979 -0.1156
 2094SOL     OW17914   1.388   3.768   1.756 -0.0145  0.1053 -0.3693
 2094SOL    HW117915   1.422   3.796   1.671 -1.2146 -1.0516 -1.2179
 2094SOL    HW217916   1.341   3.685   1.748 -1.1235  0.7658 -0.6044
 2095SOL     OW17917   3.031   3.736   8.420  0.2242 -0.0786  0.4118
 2095SOL    HW117918   3.099   3.801   8.399 -0.7669  1.5006  2.1070
 2095SOL    HW217919   3.084   3.664   8.384  0.0051  1.2847 -2.5914
 2096SOL     OW17920   3.991   1.863   8.488  0.3663  0.5397  0.4409
 2096SOL    HW117921   3.898   1.884   8.495  0.4518  0.5251  1.5946
 2096SOL    HW217922   3.994   1.808   8.409 -0.3415 -1.5703  1.8932
 2097SOL     OW17923   2.015   1.873   7.420  0.1479 -0.4719 -0.0035
 2097SOL    HW117924   1.939   1.818   7.437 -0.8631  1.6338  2.2627
 2097SOL    HW217925   2.084   1.807   7.429 -0.4933 -1.1114  0.2128
 2098SOL     OW17926   2.053   1.451   2.481  0.5999  0.1211  0.0917
 2098SOL    HW117927   2.022   1.538   2.506  4.2492  1.4320  0.1139
 2098SOL    HW217928   2.104   1.475   2.403 -0.4096 -1.1970 -0.9772
 2099SOL     OW17929   1.045   3.092   3.454 -0.2796 -0.5448  0.5879
 2099SOL    HW117930   1.098   3.150   3.400  0.1772 -0.7036  0.8612
 2099SOL    HW217931   1.006   3.028   3.395 -0.9225  2.6317 -2.3993
 2100SOL     OW17932   2.692   2.365  16.274  1.2892 -0.2144 -0.1710
 2100SOL    HW117933   2.677   2.314  16.194 -0.3468 -0.8813  0.5580
 2100SOL    HW217934   2.688   2.301  16.345 -1.3659 -0.4613 -0.5450
 2101SOL     OW17935   4.572   4.479   8.253  0.0244  0.5988  0.4602
 2101SOL    HW117936   4.648   4.464   8.310  0.5776 -0.2785 -0.4966
 2101SOL    HW217937   4.518   4.539   8.305 -2.5802  0.8417 -2.5139
 2102SOL     OW17938   2.199   4.178   4.850 -0.1008 -0.1453 -0.4812
 2102SOL    HW117939   2.191   4.228   4.768 -0.1888  0.0324 -0.3644
 2102SOL    HW217940   2.160   4.092   4.833 -1.6095  0.5758 -0.7289
 2103SOL     OW17941   4.527   3.277   7.684  0.0378  0.4540  0.3318
 2103SOL    HW117942   4.578   3.328   7.622  0.1870  0.7528  0.6987
 2103SOL    HW217943   4.536   3.344   7.752 -1.3808  0.6240  0.3596
 2104SOL     OW17944   2.104   2.826   4.218 -0.2953  0.0855  0.1318
 2104SOL    HW117945   2.021   2.783   4.200 -1.4523  1.5866  1.8936
 2104SOL    HW217946   2.149   2.763   4.275 -2.3038  0.2854  1.9366
 2105SOL     OW17947   1.487   2.585   9.305  0.1855  0.4810  0.1963
 2105SOL    HW117948   1.493   2.609   9.212  0.8317  2.4935  0.7618
 2105SOL    HW217949   1.396   2.555   9.305 -0.5069  2.5385 -2.2597
 2106SOL     OW17950   2.674   0.692  16.598 -0.8734  0.0672 -0.1083
 2106SOL    HW117951   2.704   0.604  16.620 -1.0585  0.0452  0.0522
 2106SOL    HW217952   2.752   0.730  16.558  0.5291 -2.5171  0.1844
 2107SOL     OW17953   2.090   0.691   7.516 -0.3861  0.4601  0.0429
 2107SOL    HW117954   2.036   0.754   7.469 -0.5075  0.5928  0.3592
 2107SOL    HW217955   2.145   0.655   7.447  0.2929  1.2334  0.1780
 2108SOL     OW17956   1.095   0.767   9.833 -0.2962  0.4255 -0.3467
 2108SOL    HW117957   1.106   0.752   9.740 -2.1618 -1.6079 -0.2407
 2108SOL    HW217958   1.002   0.785   9.848 -0.3372 -1.6046  1.9130
 2109SOL     OW17959   3.354   3.920   3.081  0.1711  0.3502 -0.3094
 2109SOL    HW117960   3.416   3.887   3.017  0.9291 -0.0733  0.6486
 2109SOL    HW217961   3.285   3.956   3.025  1.7188 -1.1822 -3.1764
 2110SOL     OW17962   4.355   1.222   5.835 -0.5220  0.1642  0.5224
 2110SOL    HW117963   4.390   1.302   5.876  0.0876  0.0168  0.2839
 2110SOL    HW217964   4.260   1.234   5.843 -0.9231 -2.4551 -0.3334
 2111SOL     OW17965   0.052   3.282  11.687  0.1648 -0.2070 -0.2809
 2111SOL    HW117966   0.028   3.344  11.618 -0.7587  0.5443  0.7093
 2111SOL    HW217967   0.004   3.313  11.764 -2.2044  0.3639 -1.9866
 2112SOL     OW17968   1.445   3.421  15.134 -0.3673  0.1378 -0.0575
 2112SOL    HW117969   1.471   3.444  15.223 -1.0560 -0.3217  0.2642
 2112SOL    HW217970   1.363   3.371  15.142  0.1952 -0.3772  2.6025
 2113SOL     OW17971   3.490   0.172   5.631 -0.2741  0.0955 -0.4130
 2113SOL    HW117972   3.579   0.152   5.601 -0.4659  1.3301 -1.8137
 2113SOL    HW217973   3.448   0.181   5.546 -0.4701 -1.6712 -0.4963
 2114SOL     OW17974   0.710   2.298  12.302  0.8734 -0.0362  0.1180
 2114SOL    HW117975   0.778   2.353  12.264  0.0819  0.6465 -0.3025
 2114SOL    HW217976   0.757   2.244  12.365  1.8011 -1.0835 -1.5066
 2115SOL     OW17977   1.829   4.110   2.797 -0.0662  0.2418  0.0985
 2115SOL    HW117978   1.819   4.025   2.755  1.9323 -0.7187  1.5909
 2115SOL    HW217979   1.910   4.146   2.763  1.3389 -1.0001  2.1081
 2116SOL     OW17980   3.853   1.804   2.695  0.3409 -1.0471  0.0286
 2116SOL    HW117981   3.939   1.839   2.671 -0.1423 -0.0654 -0.2827
 2116SOL    HW217982   3.878   1.718   2.728  1.0155 -1.3160 -1.1508
 2117SOL     OW17983   3.521   2.194  14.849  0.1192 -0.1455  0.1092
 2117SOL    HW117984   3.458   2.239  14.906  0.4790  1.6304 -0.8928
 2117SOL    HW217985   3.601   2.172  14.896 -0.5116 -0.4675  1.0400
 2118SOL     OW17986   0.848   4.511  12.070  0.4210 -0.2930  0.4523
 2118SOL    HW117987   0.924   4.473  12.113  0.5645 -1.3942 -0.7850
 2118SOL    HW217988   0.857   4.471  11.983  0.2972  1.2083 -0.2685
 2119SOL     OW17989   2.265   3.710  12.715  0.0413  0.2126  0.0288
 2119SOL    HW117990   2.230   3.731  12.628 -1.8744  0.9942  0.9938
 2119SOL    HW217991   2.349   3.755  12.705 -0.5769  1.3853  0.0877
 2120SOL     OW17992   4.714   3.475   7.554 -0.8290  0.2052  0.1545
 2120SOL    HW117993   4.706   3.544   7.488 -0.9369  0.1742  0.1354
 2120SOL    HW217994   0.031   3.413   7.501  0.9941  1.6042  0.2298
 2121SOL     OW17995   3.109   3.518   1.143  0.3366 -0.0777 -0.0951
 2121SOL    HW117996   3.019   3.506   1.114  0.5194  1.4015 -1.2848
 2121SOL    HW217997   3.139   3.598   1.099  1.7779 -0.5458  0.0222
 2122SOL     OW17998   0.118   0.653   3.075 -0.1745 -0.0163  0.1710
 2122SOL    HW117999   0.213   0.657   3.065 -0.1781 -0.3481 -0.0119
 2122SOL    HW218000   0.099   0.735   3.119 -0.1942 -0.2897  0.6735
 2123SOL     OW18001   2.914   4.094  10.806 -0.0852 -0.4513 -0.0643
 2123SOL    HW118002   2.840   4.053  10.761  0.2051  0.0065 -0.9650
 2123SOL    HW218003   2.984   4.043  10.764 -0.5792 -0.3114 -1.0551
 2124SOL     OW18004   0.643   1.102  15.401 -0.2968 -0.0912 -0.0495
 2124SOL    HW118005   0.688   1.154  15.334 -1.4717 -2.5116 -2.7010
 2124SOL    HW218006   0.584   1.171  15.430 -0.3864 -0.5602  0.8828
 2125SOL     OW18007   0.205   4.532   8.367 -0.2980 -0.7524 -0.0974
 2125SOL    HW118008   0.280   4.478   8.394 -1.4430 -2.5872 -0.6160
 2125SOL    HW218009   0.163   4.467   8.311 -2.8520 -0.0719  1.0321
 2126SOL     OW18010   2.888   2.398   6.255 -0.3491 -0.3754 -0.6314
 2126SOL    HW118011   2.801   2.392   6.294  0.2252  0.9588  0.8362
 2126SOL    HW218012   2.945   2.429   6.325 -0.3507  1.1126 -1.2730
 2127SOL     OW18013   1.228   4.489  15.854 -0.0314  0.2154 -0.9413
 2127SOL    HW118014   1.268   4.506  15.939  2.0573  2.4807 -2.3577
 2127SOL    HW218015   1.216   4.579  15.822  1.8655 -0.6195 -4.0502
 2128SOL     OW18016   1.078   2.299   8.042  0.5508  0.4781  0.2240
 2128SOL    HW118017   1.125   2.380   8.060 -2.6938  1.9976  1.9598
 2128SOL    HW218018   1.154   2.252   8.008 -0.1883 -0.6428  0.1035
 2129SOL     OW18019   0.129   4.343   6.491  0.2129  0.6057  0.1789
 2129SOL    HW118020   0.084   4.294   6.422 -0.4802 -0.6486  1.5199
 2129SOL    HW218021   0.205   4.374   6.441  1.1328 -2.0410 -0.0509
 2130SOL     OW18022   1.832   1.764   3.207 -0.3007 -0.5081 -0.4278
 2130SOL    HW118023   1.771   1.713   3.260  0.6825  0.3050  1.4906
 2130SOL    HW218024   1.898   1.787   3.272 -1.0228 -0.8212  0.4167
 2131SOL     OW18025   2.911   2.604   5.983  0.0393 -0.0868  0.2913
 2131SOL    HW118026   2.889   2.593   6.075  0.1906 -0.4690  0.2834
 2131SOL    HW218027   2.955   2.689   5.992 -1.6752  0.8217  0.0927
 2132SOL     OW18028   2.961   0.516   1.129 -0.1077 -0.3364  0.0025
 2132SOL    HW118029   3.056   0.513   1.139 -0.0665 -1.2612 -0.6254
 2132SOL    HW218030   2.943   0.424   1.149  1.4785 -0.4213  1.0572
 2133SOL     OW18031   3.967   2.423   6.068 -0.2916  0.2302 -0.4070
 2133SOL    HW118032   4.007   2.364   6.132  1.1062  0.4203 -1.1092
 2133SOL    HW218033   3.906   2.365   6.023 -0.0093 -1.1563  0.9910
 2134SOL     OW18034   1.978   2.327   7.724 -0.0795 -0.4539  0.2819
 2134SOL    HW118035   1.896   2.316   7.773 -0.7757 -1.4431 -1.0969
 2134SOL    HW218036   1.980   2.247   7.670  0.4951 -0.6413  0.5852
 2135SOL     OW18037   2.697   2.094   5.374 -0.3433 -0.2972 -0.2375
 2135SOL    HW118038   2.721   2.017   5.425 -0.7840  0.8177  1.6583
 2135SOL    HW218039   2.684   2.155   5.446  0.5095  0.7736 -0.9940
 2136SOL     OW18040   0.754   3.858   5.636 -0.2239  0.2507 -0.7330
 2136SOL    HW118041   0.823   3.880   5.573  0.4245 -0.4810 -0.2703
 2136SOL    HW218042   0.728   3.771   5.606 -1.5021  0.2397  0.4020
 2137SOL     OW18043   1.625   4.012   7.647  0.3648  0.2566  0.5130
 2137SOL    HW118044   1.693   4.008   7.580  0.1917 -1.4644  0.4572
 2137SOL    HW218045   1.553   3.959   7.613  1.1277 -0.0349 -0.6565
 2138SOL     OW18046   0.795   4.181   6.379  0.0985 -0.9830  0.0616
 2138SOL    HW118047   0.853   4.106   6.394  0.0001 -1.1797 -0.5495
 2138SOL    HW218048   0.837   4.221   6.302  0.1472  0.3223  0.7573
 2139SOL     OW18049   1.851   4.456  12.978 -0.4322  0.1652 -0.3534
 2139SOL    HW118050   1.768   4.474  12.934 -0.1388 -0.0829 -0.9985
 2139SOL    HW218051   1.917   4.499  12.924 -1.2879  1.1344 -0.6247
 2140SOL     OW18052   1.213   2.792  17.055 -0.1077 -0.4739  0.3663
 2140SOL    HW118053   1.273   2.747  16.997 -1.3731 -0.6346 -0.8029
 2140SOL    HW218054   1.255   2.878  17.068 -0.3243 -0.4407  0.8370
 2141SOL     OW18055   3.189   1.679   8.342  0.0008  0.1247 -0.0962
 2141SOL    HW118056   3.215   1.770   8.328 -1.0136  0.5669  0.8816
 2141SOL    HW218057   3.103   1.688   8.300 -0.9320 -0.2897  1.7338
 2142SOL     OW18058   1.096   2.335   0.137  0.1228  0.1143  0.3283
 2142SOL    HW118059   1.085   2.388   0.057 -2.2772 -2.5257 -1.1149
 2142SOL    HW218060   1.062   2.249   0.112  0.1362  0.0931  0.3851
 2143SOL     OW18061   3.939   0.078   1.872 -0.7161 -0.0574  0.0542
 2143SOL    HW118062   3.877   0.114   1.936 -0.4410  0.0421  0.2659
 2143SOL    HW218063   3.945   0.152   1.810 -1.0464  0.7797  1.0185
 2144SOL     OW18064   3.176   2.253   0.235 -0.0169  0.1127  0.2977
 2144SOL    HW118065   3.158   2.327   0.293  1.4149 -0.7692  1.8459
 2144SOL    HW218066   3.233   2.197   0.286 -0.7069 -0.9031 -0.0373
 2145SOL     OW18067   4.047   0.891   4.117 -0.4932  0.5192  0.0321
 2145SOL    HW118068   4.038   0.956   4.186  0.8795 -0.2443  0.9228
 2145SOL    HW218069   3.955   0.863   4.122 -0.5710  0.6874 -0.4641
 2146SOL     OW18070   0.179   2.266  12.400  0.3457 -0.4015  0.1801
 2146SOL    HW118071   0.114   2.335  12.410 -0.8933 -1.2247 -2.0985
 2146SOL    HW218072   0.150   2.212  12.473 -0.4901 -1.4839 -0.9618
 2147SOL     OW18073   2.277   4.472   5.269  0.6293 -0.2033  0.0298
 2147SOL    HW118074   2.245   4.426   5.191 -1.0794  0.8426  0.1201
 2147SOL    HW218075   2.373   4.467   5.267  0.6167 -0.1382 -0.7843
 2148SOL     OW18076   0.843   2.219   5.510 -0.7072  0.0175 -0.4621
 2148SOL    HW118077   0.849   2.130   5.547  1.8844  1.6739  3.0976
 2148SOL    HW218078   0.781   2.193   5.442  2.8326 -0.3176 -3.5638
 2149SOL     OW18079   0.830   2.224   6.429  0.2867  0.0282 -0.5552
 2149SOL    HW118080   0.821   2.258   6.518  0.1100  0.3050 -0.6797
 2149SOL    HW218081   0.744   2.248   6.396  0.1821 -0.3179 -0.5360
 2150SOL     OW18082   2.490   4.028   1.169 -0.4600 -0.0462  0.3826
 2150SOL    HW118083   2.487   4.010   1.075 -0.2651  0.3984  0.2911
 2150SOL    HW218084   2.560   4.093   1.179 -0.6698  0.3350 -0.6106
 2151SOL     OW18085   1.954   2.219  12.283 -0.1814  0.3369  0.3993
 2151SOL    HW118086   2.017   2.250  12.349  0.3528 -1.6632  0.8378
 2151SOL    HW218087   1.931   2.136  12.324  0.5354 -0.5117 -0.9451
 2152SOL     OW18088   0.174   2.485   6.755 -0.0954 -0.0051  0.3147
 2152SOL    HW118089   0.120   2.441   6.820 -1.5751  1.8028  0.2979
 2152SOL    HW218090   0.181   2.572   6.794 -0.6072  0.0644  0.2489
 2153SOL     OW18091   3.408   2.573   8.555  0.4162  0.0344  0.7092
 2153SOL    HW118092   3.320   2.592   8.588 -0.6129 -1.0747 -1.3283
 2153SOL    HW218093   3.462   2.634   8.605  0.6941 -0.4581  1.0090
 2154SOL     OW18094   2.790   4.613   8.601 -0.0056  0.1169  0.0032
 2154SOL    HW118095   2.698   4.603   8.574  0.5185  0.8648 -2.0147
 2154SOL    HW218096   2.822   4.677   8.538  0.4529  0.6150  0.7472
 2155SOL     OW18097   1.136   3.257  11.140 -0.6735  0.3589 -0.0083
 2155SOL    HW118098   1.231   3.268  11.135 -0.7618 -0.6614 -3.9124
 2155SOL    HW218099   1.119   3.191  11.072  2.9858  0.3664 -0.9283
 2156SOL     OW18100   2.320   1.512   7.655 -0.2803  0.4810 -0.1612
 2156SOL    HW118101   2.403   1.485   7.614  0.4025  0.5225  1.1986
 2156SOL    HW218102   2.333   1.493   7.748  1.5955 -1.0636 -0.7328
 2157SOL     OW18103   2.243   1.119   1.844 -0.2541 -0.0987 -0.3194
 2157SOL    HW118104   2.180   1.068   1.894 -0.3944  0.3978  0.0159
 2157SOL    HW218105   2.183   1.182   1.804  0.7243  0.2513 -1.2331
 2158SOL     OW18106   1.998   2.114   5.147 -0.4312  1.0466 -0.0217
 2158SOL    HW118107   2.005   2.060   5.069 -1.0566 -1.3484  1.5686
 2158SOL    HW218108   2.085   2.153   5.150 -0.3954  1.0911 -1.6963
 2159SOL     OW18109   1.456   2.485   1.164  0.1339 -0.2184  0.2260
 2159SOL    HW118110   1.367   2.455   1.146  0.5564 -1.6311  0.4971
 2159SOL    HW218111   1.479   2.537   1.087  1.5330 -2.3096 -0.7955
 2160SOL     OW18112   0.066   4.475   4.502 -0.4996 -0.9470  0.2155
 2160SOL    HW118113   0.160   4.459   4.500 -0.5525 -1.0479 -1.3041
 2160SOL    HW218114   0.045   4.502   4.592  1.0567  1.0433 -0.0266
 2161SOL     OW18115   3.703   4.551   3.586  0.4790 -0.5993 -0.0677
 2161SOL    HW118116   3.668   4.604   3.515 -0.1484 -0.7919  0.0915
 2161SOL    HW218117   3.796   4.541   3.569  0.2255 -1.8113 -0.6600
 2162SOL     OW18118   3.824   1.391   6.958 -0.6596 -0.1684 -0.7885
 2162SOL    HW118119   3.916   1.385   6.986 -0.0203  0.5164 -2.7743
 2162SOL    HW218120   3.772   1.408   7.036  0.2653  1.0107 -0.4213
 2163SOL     OW18121   3.666   4.101   0.980  0.7411 -0.0319  0.3148
 2163SOL    HW118122   3.592   4.128   0.925 -0.1436 -2.1309  0.4772
 2163SOL    HW218123   3.728   4.127   0.911  0.4402 -1.3192 -0.4434
 2164SOL     OW18124   2.416   0.717   9.530  0.7600  0.1414  0.0202
 2164SOL    HW118125   2.492   0.769   9.505  1.7362 -1.5584 -0.5721
 2164SOL    HW218126   2.419   0.654   9.458 -0.6979 -0.5016  0.5343
 2165SOL     OW18127   0.513   1.929  17.096  0.5249  0.0067  0.4701
 2165SOL    HW118128   0.486   1.923  17.187  0.9940 -4.6075  0.2836
 2165SOL    HW218129   0.508   1.837  17.069 -0.9704  0.3754 -0.5260
 2166SOL     OW18130   3.799   0.089  10.000  0.4558 -0.3662 -0.0130
 2166SOL    HW118131   3.844   0.138  10.069 -2.3831  0.6573  1.1194
 2166SOL    HW218132   3.868   0.031   9.968 -0.3771 -0.4665 -1.6499
 2167SOL     OW18133   4.010   4.544   2.438  0.1989  0.4979  0.3189
 2167SOL    HW118134   4.045   4.520   2.524 -0.7726  0.1716  0.6264
 2167SOL    HW218135   3.957   4.470   2.406 -0.7744  1.0555  0.6285
 2168SOL     OW18136   2.000   4.177  12.684 -0.4460 -0.5033  0.2682
 2168SOL    HW118137   2.009   4.103  12.625  0.0193 -1.0023  0.9630
 2168SOL    HW218138   1.952   4.239  12.630 -0.9955 -0.5730  0.6712
 2169SOL     OW18139   3.176   2.941  14.976 -0.2135 -0.1795 -0.3669
 2169SOL    HW118140   3.152   2.938  15.068 -0.9600  3.1415 -0.4582
 2169SOL    HW218141   3.270   2.958  14.979  0.0096 -1.8578  2.0155
 2170SOL     OW18142   2.962   0.214   6.699 -0.0860 -0.1696  0.1741
 2170SOL    HW118143   2.971   0.178   6.611  0.9057 -0.2066  0.2966
 2170SOL    HW218144   2.880   0.170   6.721  0.2103 -1.6859 -1.7733
 2171SOL     OW18145   1.222   4.238   5.475  0.6397 -0.3278  0.1137
 2171SOL    HW118146   1.293   4.303   5.471 -0.1528  0.7682  4.4756
 2171SOL    HW218147   1.200   4.228   5.382 -1.5312 -2.1675  0.8457
 2172SOL     OW18148   2.246   4.692  16.457  0.0792 -0.2257 -0.7706
 2172SOL    HW118149   2.297   4.628  16.505  1.3938  1.1618 -0.3064
 2172SOL    HW218150   2.256   4.667  16.365  1.6669  2.3521 -1.2843
 2173SOL     OW18151   0.824   0.654   5.767  0.1594 -0.8419  0.2485
 2173SOL    HW118152   0.778   0.726   5.724 -2.6438 -1.5982  1.9920
 2173SOL    HW218153   0.866   0.612   5.692 -1.2993 -1.0787 -0.4176
 2174SOL     OW18154   0.691   1.080   3.919  0.1736 -0.0027  0.4837
 2174SOL    HW118155   0.605   1.051   3.950  0.5280 -2.0314 -0.4588
 2174SOL    HW218156   0.663   1.132   3.844  1.1396 -1.2745 -0.7518
 2175SOL     OW18157   0.607   1.666   8.283 -0.6769  0.2681 -0.4173
 2175SOL    HW118158   0.555   1.594   8.320  1.4021 -0.8231  0.4107
 2175SOL    HW218159   0.589   1.656   8.190  1.4857 -1.7538 -0.6218
 2176SOL     OW18160   4.159   2.533   7.065 -0.3763 -0.1430 -0.3962
 2176SOL    HW118161   4.106   2.503   6.991 -1.2182 -0.9558  0.5317
 2176SOL    HW218162   4.152   2.628   7.072  0.5170 -0.1035 -0.1000
 2177SOL     OW18163   3.963   3.452   6.713 -0.2637  0.2457  0.0437
 2177SOL    HW118164   3.984   3.408   6.796  2.9642  0.3955 -0.7058
 2177SOL    HW218165   4.037   3.512   6.708  0.3766 -0.5415  0.0087
 2178SOL     OW18166   0.245   4.693   5.438  0.3603  0.0963 -0.3097
 2178SOL    HW118167   0.278   4.604   5.442 -0.0267 -0.0674 -0.6949
 2178SOL    HW218168   0.284   0.001   5.515  1.3723 -0.9090 -0.3087
 2179SOL     OW18169   3.782   1.429   4.438  0.0134  0.0399  0.1036
 2179SOL    HW118170   3.776   1.426   4.342 -1.9582  0.6454  0.1962
 2179SOL    HW218171   3.763   1.336   4.451 -0.8248 -0.2176 -2.9541
 2180SOL     OW18172   3.698   0.060   4.104  0.4051 -0.2137  0.4423
 2180SOL    HW118173   3.740   4.710   4.128  0.5623 -0.4831 -0.7552
 2180SOL    HW218174   3.782   0.106   4.098  0.2304 -0.1352 -1.4618
 2181SOL     OW18175   1.697   2.418   4.724  0.0150 -0.5735 -0.4001
 2181SOL    HW118176   1.649   2.352   4.675  0.8729 -3.0868  2.1555
 2181SOL    HW218177   1.788   2.398   4.703 -0.8408 -1.5235 -3.1320
 2182SOL     OW18178   0.536   0.045   3.856 -0.8756  0.0720 -0.3440
 2182SOL    HW118179   0.468   0.112   3.852  0.3467  1.3197  0.0226
 2182SOL    HW218180   0.556   0.041   3.950  2.2441  2.5305 -0.9301
 2183SOL     OW18181   2.824   4.300   8.115 -0.0935 -1.1215 -0.8412
 2183SOL    HW118182   2.763   4.266   8.049 -1.0950  0.0415 -0.5187
 2183SOL    HW218183   2.877   4.365   8.069  1.8074 -2.5170 -0.6234
 2184SOL     OW18184   1.315   2.713  15.879 -0.1530  0.2471  0.1351
 2184SOL    HW118185   1.370   2.634  15.879 -1.8704 -0.9585  0.2846
 2184SOL    HW218186   1.363   2.777  15.826 -0.9818  0.1101 -0.8023
 2185SOL     OW18187   2.666   4.390   2.298  0.1382  0.6795  0.7659
 2185SOL    HW118188   2.580   4.416   2.330 -0.8781  0.1523 -1.5620
 2185SOL    HW218189   2.636   4.361   2.211  0.3318  1.6116  0.3856
 2186SOL     OW18190   3.555   1.301  10.072 -0.2447  0.2642  0.0457
 2186SOL    HW118191   3.632   1.280  10.125  0.1521 -0.4094 -0.8048
 2186SOL    HW218192   3.557   1.236  10.001 -0.5821  0.5481 -0.2203
 2187SOL     OW18193   4.546   0.023   7.222  0.0025  0.1634  0.3235
 2187SOL    HW118194   4.561   4.692   7.152 -0.2158  0.8769 -0.3679
 2187SOL    HW218195   4.476   4.711   7.271 -0.7597  0.0129 -0.8918
 2188SOL     OW18196   1.349   0.484   8.686  0.1819  0.2206  0.1970
 2188SOL    HW118197   1.384   0.425   8.752  2.0243  2.1424  0.9474
 2188SOL    HW218198   1.340   0.417   8.618  1.3663 -0.9081  1.1638
 2189SOL     OW18199   0.789   0.393  10.407 -0.1012 -0.0843  0.4219
 2189SOL    HW118200   0.805   0.374  10.500  1.8441  0.4848  0.2173
 2189SOL    HW218201   0.841   0.473  10.396 -0.2006 -0.1398 -0.4558
 2190SOL     OW18202   3.750   0.138   5.562  0.1382  0.2401 -0.7674
 2190SOL    HW118203   3.748   0.073   5.492 -0.6355  0.9898 -1.4386
 2190SOL    HW218204   3.804   0.093   5.627 -0.4446  0.4180 -0.1619
 2191SOL     OW18205   1.124   2.705   1.578 -0.2738  0.0652 -0.8301
 2191SOL    HW118206   1.184   2.662   1.638  0.1952  0.3381 -1.1077
 2191SOL    HW218207   1.198   2.727   1.521  1.1767 -1.2535  0.5471
 2192SOL     OW18208   1.513   2.373   7.541 -0.3942  0.1597 -0.3053
 2192SOL    HW118209   1.536   2.454   7.586  0.5691 -1.8158  2.7608
 2192SOL    HW218210   1.460   2.405   7.469 -1.7261  0.4203  0.7880
 2193SOL     OW18211   2.517   0.339  14.746 -0.3287  0.0865  0.2373
 2193SOL    HW118212   2.602   0.332  14.790 -0.0367  1.4545 -0.1116
 2193SOL    HW218213   2.461   0.280  14.798 -1.0784 -1.0400 -1.8520
 2194SOL     OW18214   3.374   0.568   4.685  0.0715  0.1031 -0.8794
 2194SOL    HW118215   3.313   0.494   4.692 -2.0265  1.9013 -0.2486
 2194SOL    HW218216   3.351   0.607   4.770 -0.9001 -1.2277 -0.5282
 2195SOL     OW18217   4.684   2.733   0.063  0.1300 -0.2072  0.2257
 2195SOL    HW118218   4.652   2.682  17.718  1.3049 -0.6177  0.0072
 2195SOL    HW218219   0.008   2.664   0.097  1.8086  0.9600 -0.2433
 2196SOL     OW18220   2.340   0.712   2.571  0.3145 -0.2017  0.0344
 2196SOL    HW118221   2.345   0.798   2.531  2.3612  0.1497  1.0533
 2196SOL    HW218222   2.429   0.679   2.569  0.4734  0.2459 -0.1663
 2197SOL     OW18223   1.557   2.434   1.631  0.0212  0.3591 -0.3287
 2197SOL    HW118224   1.540   2.363   1.692 -1.0607  0.9900  0.1066
 2197SOL    HW218225   1.625   2.481   1.680  0.5248 -1.3941  0.6501
 2198SOL     OW18226   4.265   4.412  12.979  0.3772  0.3089 -0.4932
 2198SOL    HW118227   4.238   4.461  12.902  0.3122  1.3938  0.2272
 2198SOL    HW218228   4.254   4.318  12.963  2.8425  0.1694 -1.3590
 2199SOL     OW18229   3.028   3.917   2.066 -0.2028 -0.3615  0.3774
 2199SOL    HW118230   3.103   3.908   2.124  0.2829 -1.4041 -0.4210
 2199SOL    HW218231   3.063   3.857   2.001 -0.4759 -2.0294  1.7709
 2200SOL     OW18232   0.361   3.975   4.448  0.3076  0.1316 -0.0554
 2200SOL    HW118233   0.274   3.933   4.448 -0.2365  1.2619  1.5441
 2200SOL    HW218234   0.344   4.014   4.534  1.1544  1.2914 -0.4243
 2201SOL     OW18235   0.614   0.762  12.773 -0.3237  0.0902 -0.9562
 2201SOL    HW118236   0.571   0.682  12.804  0.4628 -0.0137 -0.1123
 2201SOL    HW218237   0.620   0.808  12.857 -0.0965 -1.2633 -0.2188
 2202SOL     OW18238   2.961   3.227   7.469 -0.1258  0.2163  0.1523
 2202SOL    HW118239   2.955   3.133   7.488  1.6707  0.1940  0.6427
 2202SOL    HW218240   2.894   3.261   7.528  0.2979 -0.4922  1.0442
 2203SOL     OW18241   4.712   1.168   6.724  0.3258  0.2720  0.3798
 2203SOL    HW118242   4.709   1.100   6.656  0.2373 -0.1081  0.7628
 2203SOL    HW218243   0.059   1.133   6.765  0.5767 -1.3256 -1.4673
 2204SOL     OW18244   2.985   4.278  13.826  0.2769  0.6408  0.3312
 2204SOL    HW118245   3.057   4.322  13.780  0.0461  1.7218  0.9899
 2204SOL    HW218246   2.920   4.348  13.821 -0.2893 -0.0448 -1.7393
 2205SOL     OW18247   0.173   3.761   6.762 -0.2582 -0.8336  0.2975
 2205SOL    HW118248   0.146   3.676   6.729  2.1514 -1.4187 -0.1142
 2205SOL    HW218249   0.118   3.818   6.707 -0.0537  1.0702  2.0550
 2206SOL     OW18250   4.110   3.849   8.713 -0.4077  0.1341 -0.7555
 2206SOL    HW118251   4.091   3.883   8.800  2.4036  1.3152 -0.6079
 2206SOL    HW218252   4.023   3.865   8.675 -0.0778 -2.7000 -2.7945
 2207SOL     OW18253   1.980   2.547   3.259  0.8462 -0.0408 -0.2741
 2207SOL    HW118254   1.931   2.556   3.177  0.1761  2.1627  0.3634
 2207SOL    HW218255   2.002   2.639   3.276 -1.6190  0.4519  0.2844
 2208SOL     OW18256   3.619   4.386   5.906  0.3030 -0.7972 -0.0848
 2208SOL    HW118257   3.698   4.391   5.960  0.5395  1.3856 -0.6398
 2208SOL    HW218258   3.569   4.320   5.953 -0.6370  0.1341  0.2164
 2209SOL     OW18259   4.291   4.242   2.592  0.9272 -0.1600  0.5480
 2209SOL    HW118260   4.340   4.245   2.509  0.8841  2.5943  0.6031
 2209SOL    HW218261   4.345   4.269   2.666  1.4552  0.3698 -0.0278
 2210SOL     OW18262   2.195   3.631   0.876 -0.1351  0.1935  0.2733
 2210SOL    HW118263   2.153   3.702   0.925 -2.6070  0.2215 -1.9308
 2210SOL    HW218264   2.207   3.665   0.788 -0.5970 -0.2080  0.0558
 2211SOL     OW18265   2.249   3.375  15.788  0.4701 -0.7251  0.3495
 2211SOL    HW118266   2.167   3.388  15.835 -0.9307 -0.1900 -2.1905
 2211SOL    HW218267   2.223   3.343  15.701 -0.4254 -0.5213  0.5410
 2212SOL     OW18268   1.502   3.906  14.952 -0.4531 -0.1970 -0.2097
 2212SOL    HW118269   1.415   3.894  14.915 -0.5513 -0.5520  0.1371
 2212SOL    HW218270   1.528   3.815  14.966  0.1343  0.0841  0.5595
 2213SOL     OW18271   2.233   2.372  12.012  0.5313 -0.0321 -0.6349
 2213SOL    HW118272   2.225   2.377  11.917 -0.1590  2.7018 -0.4316
 2213SOL    HW218273   2.140   2.391  12.024  0.9899  0.9065  1.3471
 2214SOL     OW18274   2.853   1.024   1.117 -0.3950 -0.9126 -0.3393
 2214SOL    HW118275   2.778   1.058   1.068  1.0213  2.6116 -0.0973
 2214SOL    HW218276   2.882   0.955   1.058 -1.7497 -0.4988 -1.4949
 2215SOL     OW18277   1.690   1.633   4.170 -0.1600  0.4960 -0.3001
 2215SOL    HW118278   1.696   1.604   4.261 -0.8735  0.9320 -0.1084
 2215SOL    HW218279   1.755   1.703   4.166 -0.7757  1.0057 -1.2197
 2216SOL     OW18280   0.530   1.212   4.174  0.1558 -0.6600  0.3093
 2216SOL    HW118281   0.588   1.249   4.108 -1.7297  0.3711 -0.7898
 2216SOL    HW218282   0.593   1.203   4.245  0.4068 -0.2773  0.1399
 2217SOL     OW18283   3.878   0.522   4.201  0.4080  0.3448 -0.5898
 2217SOL    HW118284   3.830   0.601   4.179 -1.9295 -0.8049  0.4013
 2217SOL    HW218285   3.916   0.499   4.116 -0.1698  0.6089 -0.9112
 2218SOL     OW18286   1.748   0.656  10.367  0.3478  0.3740  0.0639
 2218SOL    HW118287   1.676   0.605  10.404  1.4400 -1.5505 -0.4627
 2218SOL    HW218288   1.711   0.712  10.299  0.1245  1.4871  1.1137
 2219SOL     OW18289   2.009   2.471   8.671  0.7193  1.1051 -0.1469
 2219SOL    HW118290   2.086   2.516   8.705 -0.5855  1.9925  1.6179
 2219SOL    HW218291   1.962   2.462   8.754  1.2474  0.5960  0.1028
 2220SOL     OW18292   1.513   3.379   4.972 -0.1457  0.4028 -0.0336
 2220SOL    HW118293   1.481   3.304   4.921 -0.1623 -0.3600  1.0859
 2220SOL    HW218294   1.600   3.399   4.936  0.7491  0.5469  2.2347
 2221SOL     OW18295   2.922   0.530   2.964 -0.4963  0.5191  0.0130
 2221SOL    HW118296   2.851   0.576   3.009  1.1441  3.1219 -0.0699
 2221SOL    HW218297   3.001   0.543   3.016  0.4570  0.3279 -1.3892
 2222SOL     OW18298   0.985   1.690  10.748 -0.2856  0.0317 -0.1983
 2222SOL    HW118299   1.024   1.770  10.711  0.3152  0.2167  0.8319
 2222SOL    HW218300   0.943   1.646  10.674  0.8667 -0.6108 -0.4658
 2223SOL     OW18301   0.423   1.299   8.576  0.8018 -0.0465  0.1247
 2223SOL    HW118302   0.375   1.330   8.653  0.9795  0.6754 -0.0556
 2223SOL    HW218303   0.385   1.212   8.582 -2.0600  1.1534 -0.7617
 2224SOL     OW18304   1.065   0.662   2.617  0.5521 -0.4321  0.7260
 2224SOL    HW118305   1.124   0.594   2.583 -3.7696 -2.8876 -1.9444
 2224SOL    HW218306   1.113   0.703   2.689  0.9465 -0.7814  0.6654
 2225SOL     OW18307   3.651   2.263   8.045 -0.0273 -0.0466  0.0140
 2225SOL    HW118308   3.656   2.297   8.135 -1.4227 -1.7304  0.7241
 2225SOL    HW218309   3.628   2.340   7.994  0.5394 -1.0755 -1.7803
 2226SOL     OW18310   1.228   3.984   7.254  0.4590 -0.3849  0.1108
 2226SOL    HW118311   1.253   3.964   7.344  1.6448 -1.6442 -0.4916
 2226SOL    HW218312   1.143   4.022   7.278  1.0547  0.2719  1.1664
 2227SOL     OW18313   0.808   4.507   7.789 -0.2737 -0.1042  0.4010
 2227SOL    HW118314   0.751   4.531   7.716 -0.4442 -0.0057  0.5651
 2227SOL    HW218315   0.753   4.457   7.850  1.1720  0.7090  2.3616
 2228SOL     OW18316   4.694   2.215   0.653  0.3811 -0.0002  0.3050
 2228SOL    HW118317   4.685   2.186   0.562 -1.7981  1.0311  0.2097
 2228SOL    HW218318   4.683   2.308   0.631  0.5162 -0.0613 -0.0261
 2229SOL     OW18319   2.101   3.424  17.618  0.3293  0.4143  0.1133
 2229SOL    HW118320   2.101   3.413  17.523 -1.9329  1.9946 -0.0667
 2229SOL    HW218321   2.176   3.367  17.634  0.2277 -0.2085 -1.7413
 2230SOL     OW18322   4.408   4.421   8.905 -0.2146  0.3644 -0.0638
 2230SOL    HW118323   4.337   4.450   8.848 -0.2558 -1.5570 -1.0052
 2230SOL    HW218324   4.430   4.502   8.951 -0.9702 -0.5474  1.9505
 2231SOL     OW18325   2.269   3.334   7.114  0.0438 -0.2161 -0.4169
 2231SOL    HW118326   2.310   3.419   7.124  1.9495 -1.5800  3.1854
 2231SOL    HW218327   2.335   3.280   7.071  0.5121  0.4582 -0.5467
 2232SOL     OW18328   2.914   3.404  13.685  0.3277 -0.2065 -0.1479
 2232SOL    HW118329   2.850   3.470  13.655  0.6595  0.7371  1.2236
 2232SOL    HW218330   2.866   3.377  13.763  0.0733  0.1572 -0.1776
 2233SOL     OW18331   3.793   0.314   8.758 -0.4148  0.4949 -0.0194
 2233SOL    HW118332   3.817   0.386   8.816 -0.7866  0.0958  0.6254
 2233SOL    HW218333   3.794   0.359   8.673 -1.3404  1.3038  0.3940
 2234SOL     OW18334   1.915   3.721   4.918 -0.1259 -0.7026 -0.0177
 2234SOL    HW118335   1.948   3.691   4.833  0.6997 -0.1667  0.1129
 2234SOL    HW218336   1.994   3.752   4.962 -0.3847 -2.3080  1.5609
 2235SOL     OW18337   3.825   1.368   9.196 -0.0720  0.5780 -0.0248
 2235SOL    HW118338   3.835   1.294   9.136 -0.7209  0.2292  0.3003
 2235SOL    HW218339   3.916   1.390   9.216  0.3541  0.1067 -1.5134
 2236SOL     OW18340   2.082   0.364  12.314  0.0306  0.7407 -0.2034
 2236SOL    HW118341   2.010   0.342  12.373  2.4123  0.1639  2.5094
 2236SOL    HW218342   2.032   0.419  12.253  1.1195  1.7797 -0.1650
 2237SOL     OW18343   3.360   4.220   1.925  0.2000 -0.1739 -0.7708
 2237SOL    HW118344   3.426   4.284   1.901  0.3813 -0.0697  0.0121
 2237SOL    HW218345   3.407   4.145   1.961 -0.6884  0.2627  1.3166
 2238SOL     OW18346   4.278   0.848  13.177  0.7840  0.1022 -0.3543
 2238SOL    HW118347   4.327   0.798  13.112  0.8372 -0.2824 -0.0249
 2238SOL    HW218348   4.194   0.803  13.165  1.1408 -0.5109 -0.5732
 2239SOL     OW18349   1.748   1.958   8.790 -0.0750 -0.0662 -0.6705
 2239SOL    HW118350   1.835   1.922   8.807 -0.1301 -0.1819 -0.6349
 2239SOL    HW218351   1.738   2.029   8.853  0.9458 -2.8232  2.5726
 2240SOL     OW18352   3.796   3.275   2.840 -0.2330 -0.2552  0.0954
 2240SOL    HW118353   3.744   3.195   2.853  0.3305 -0.0466  3.7034
 2240SOL    HW218354   3.887   3.244   2.848  0.0491 -0.2051 -2.7914
 2241SOL     OW18355   3.394   3.067   7.110  0.1040  0.9206  0.4042
 2241SOL    HW118356   3.375   3.157   7.083  0.2094  0.2590 -1.8787
 2241SOL    HW218357   3.313   3.056   7.161 -0.2275  0.7487 -0.1647
 2242SOL     OW18358   2.755   1.386  14.216  0.9388  0.1955 -0.2569
 2242SOL    HW118359   2.671   1.419  14.182  2.1513  1.2579 -2.2672
 2242SOL    HW218360   2.739   1.368  14.308  0.3562 -0.9934 -0.5946
 2243SOL     OW18361   1.857   0.288  12.441  0.2734 -0.8534  0.1555
 2243SOL    HW118362   1.817   0.219  12.493 -1.9310 -0.6722 -1.2911
 2243SOL    HW218363   1.777   0.333  12.414  1.1228  0.1082 -0.7482
 2244SOL     OW18364   4.025   3.156  15.608  0.1707  0.5820  0.4109
 2244SOL    HW118365   4.006   3.099  15.683 -0.3607 -1.3760 -1.1974
 2244SOL    HW218366   4.118   3.178  15.615  0.0624  0.9275  0.7705
 2245SOL     OW18367   2.979   3.050   0.647  0.2117 -0.6329 -0.0100
 2245SOL    HW118368   2.962   3.028   0.739  0.9111 -0.9932  0.0342
 2245SOL    HW218369   2.986   2.960   0.616 -0.9052  0.1538 -2.5610
 2246SOL     OW18370   1.631   0.010   3.129 -0.0195 -0.4703 -0.4049
 2246SOL    HW118371   1.579   0.065   3.188 -0.7413 -1.6440  0.0552
 2246SOL    HW218372   1.704   0.068   3.109  0.5458 -1.4847 -1.2809
 2247SOL     OW18373   2.418   0.642  16.585  0.1733  0.4507  0.0326
 2247SOL    HW118374   2.510   0.657  16.564  0.2036  0.5206  0.2184
 2247SOL    HW218375   2.416   0.573  16.652  0.4192  1.1730  0.7740
 2248SOL     OW18376   0.769   0.965   2.107 -0.1021  0.3804 -0.2220
 2248SOL    HW118377   0.743   0.907   2.035 -0.2740 -0.5578  0.5943
 2248SOL    HW218378   0.803   1.036   2.053 -1.2886 -0.8094 -2.5297
 2249SOL     OW18379   3.866   2.744   7.317  0.2272 -0.1767  0.2469
 2249SOL    HW118380   3.807   2.676   7.351 -0.9368 -0.3667 -2.1283
 2249SOL    HW218381   3.931   2.742   7.387 -0.2662  2.8596  0.7873
 2250SOL     OW18382   1.444   0.715   2.293 -0.0680  0.7841  0.1533
 2250SOL    HW118383   1.383   0.788   2.301  0.2454  0.9116  1.2853
 2250SOL    HW218384   1.489   0.748   2.215 -1.6214  1.0488 -0.6360
 2251SOL     OW18385   0.785   2.288  14.010  0.2866 -0.0379  0.1507
 2251SOL    HW118386   0.864   2.339  14.026  1.1185 -1.8935  1.8845
 2251SOL    HW218387   0.723   2.361  14.008 -0.0872 -0.3645 -0.2353
 2252SOL     OW18388   1.281   0.268   4.539 -0.7120 -0.2048 -0.1088
 2252SOL    HW118389   1.305   0.264   4.446 -0.8487 -2.0589 -0.0684
 2252SOL    HW218390   1.365   0.260   4.584 -1.2431 -0.2717  0.8710
 2253SOL     OW18391   3.566   0.805   6.596  0.0963  0.4278 -0.5852
 2253SOL    HW118392   3.583   0.893   6.563  0.0683 -0.1687 -2.1651
 2253SOL    HW218393   3.642   0.787   6.651 -0.1825 -0.4478 -0.4892
 2254SOL     OW18394   2.298   3.152   1.563 -0.4290  0.5077 -0.0122
 2254SOL    HW118395   2.293   3.057   1.571  1.8248  0.4629  0.8704
 2254SOL    HW218396   2.223   3.167   1.504 -0.5950 -1.8921 -0.4099
 2255SOL     OW18397   2.149   3.483   5.042  0.3364  0.2967  0.5564
 2255SOL    HW118398   2.229   3.479   4.989 -1.4031 -1.8626 -1.9057
 2255SOL    HW218399   2.144   3.574   5.069 -2.0411  1.1895 -2.8201
 2256SOL     OW18400   3.782   0.662   6.252  0.2675  0.4142 -0.1265
 2256SOL    HW118401   3.727   0.730   6.213 -0.7245 -0.8834 -0.9680
 2256SOL    HW218402   3.791   0.697   6.340  1.4254  0.8318 -0.4137
 2257SOL     OW18403   1.097   2.597  12.125  0.0709  0.4633  0.3216
 2257SOL    HW118404   1.053   2.661  12.068 -0.4682 -1.0950 -1.0166
 2257SOL    HW218405   1.187   2.616  12.099 -0.6289 -0.9611 -3.2364
 2258SOL     OW18406   3.129   1.423   6.141 -0.1931 -0.3401 -0.5370
 2258SOL    HW118407   3.177   1.404   6.061  2.0737  1.9732  0.2580
 2258SOL    HW218408   3.174   1.502   6.171 -0.2866  0.0458 -1.4293
 2259SOL     OW18409   1.102   1.859   5.677  0.2708 -0.2693 -0.0469
 2259SOL    HW118410   1.196   1.865   5.694  0.1819 -3.1522  1.4422
 2259SOL    HW218411   1.101   1.789   5.612 -0.4841  0.2193 -0.5625
 2260SOL     OW18412   1.765   2.116   3.635 -0.2829  0.2737 -0.6306
 2260SOL    HW118413   1.795   2.182   3.698  0.1584 -1.3872  0.9271
 2260SOL    HW218414   1.767   2.170   3.557 -1.4501  2.0358  0.5679
 2261SOL     OW18415   3.273   2.934   0.948  0.1819  0.3070  0.2026
 2261SOL    HW118416   3.318   2.885   1.016  0.0752  3.2431  2.4064
 2261SOL    HW218417   3.342   2.993   0.916 -0.7245  1.6442  0.6895
 2262SOL     OW18418   2.751   2.161   9.193 -0.0520  0.2355  0.1647
 2262SOL    HW118419   2.704   2.140   9.112  1.1758 -1.6650 -0.0619
 2262SOL    HW218420   2.821   2.096   9.197 -0.2357  0.0385  0.1770
 2263SOL     OW18421   2.554   4.620   4.593  0.1626  0.1244  0.1745
 2263SOL    HW118422   2.580   4.669   4.670  0.9731 -0.4479  0.2584
 2263SOL    HW218423   2.458   4.612   4.597  0.1410 -0.1829 -0.9615
 2264SOL     OW18424   2.139   4.717   9.737 -0.2937 -0.3300  0.4753
 2264SOL    HW118425   2.058   0.034   9.726 -1.4473 -2.4549 -0.6078
 2264SOL    HW218426   2.130   4.684   9.827 -1.0388 -1.6066 -0.0586
 2265SOL     OW18427   0.385   0.400   3.697  0.3463 -0.2564  0.0799
 2265SOL    HW118428   0.383   0.488   3.734  3.8592  0.8431 -2.3768
 2265SOL    HW218429   0.296   0.394   3.663 -0.0998  0.2801  1.1342
 2266SOL     OW18430   0.901   3.637   2.242  0.3874 -0.2601  0.9557
 2266SOL    HW118431   0.979   3.583   2.255  1.3098  0.5875 -1.1145
 2266SOL    HW218432   0.848   3.567   2.205  1.7772 -0.3249 -0.9274
 2267SOL     OW18433   2.264   3.158   9.721  0.1493  0.3540  0.3392
 2267SOL    HW118434   2.244   3.247   9.748 -0.8350  0.4153 -0.6073
 2267SOL    HW218435   2.211   3.132   9.646 -0.0413 -0.1025  0.6268
 2268SOL     OW18436   4.192   3.397   7.188 -0.2849 -0.2713  0.4274
 2268SOL    HW118437   4.181   3.492   7.186  2.9049  0.0610 -1.1419
 2268SOL    HW218438   4.110   3.377   7.233 -1.7332  0.5490 -1.8394
 2269SOL     OW18439   3.929   2.418   7.219 -0.4410 -0.0841  0.5982
 2269SOL    HW118440   3.957   2.403   7.309 -0.9623  3.3519  1.3481
 2269SOL    HW218441   4.002   2.471   7.187 -0.3353 -1.1943 -0.9743
 2270SOL     OW18442   3.291   3.211  10.968  0.0086 -0.5778 -0.4952
 2270SOL    HW118443   3.309   3.178  11.056  0.5495  2.4640  0.5190
 2270SOL    HW218444   3.195   3.218  10.966 -0.0083 -0.6843 -0.0395
 2271SOL     OW18445   2.884   2.765   1.278  0.7954 -0.6309 -0.2167
 2271SOL    HW118446   2.826   2.694   1.306 -0.9842  0.5166 -0.9751
 2271SOL    HW218447   2.843   2.830   1.335  0.5854 -2.8090  2.1246
 2272SOL     OW18448   3.948   3.373   4.346 -0.0780 -0.6422  0.6096
 2272SOL    HW118449   3.888   3.422   4.402  1.1656  1.6652 -0.0869
 2272SOL    HW218450   3.883   3.316   4.305 -0.3628  0.8023 -0.9355
 2273SOL     OW18451   4.364   3.966  14.840  0.3657 -0.3462  0.3582
 2273SOL    HW118452   4.442   3.978  14.785 -0.7170 -0.7481 -1.2917
 2273SOL    HW218453   4.395   3.945  14.927 -2.6574  0.9526  1.7594
 2274SOL     OW18454   3.221   2.586   8.820  0.1935 -0.2868 -0.0397
 2274SOL    HW118455   3.250   2.499   8.844 -1.1426 -0.6264  0.3527
 2274SOL    HW218456   3.286   2.638   8.867 -0.5415 -0.2380  0.9184
 2275SOL     OW18457   2.240   0.757   6.038  0.7890 -0.4304  0.4350
 2275SOL    HW118458   2.268   0.844   6.064 -2.7796  0.4155  1.4325
 2275SOL    HW218459   2.183   0.735   6.112 -1.4234  1.1853 -0.8234
 2276SOL     OW18460   4.170   3.821  11.307  0.5834  0.4966 -0.2280
 2276SOL    HW118461   4.174   3.915  11.292 -2.8351  0.4166 -1.5815
 2276SOL    HW218462   4.263   3.800  11.318  0.5291 -0.2075 -1.0813
 2277SOL     OW18463   4.235   1.645   5.716 -0.2049  0.1087  0.2095
 2277SOL    HW118464   4.153   1.638   5.765 -1.2844  0.1197 -1.5900
 2277SOL    HW218465   4.291   1.686   5.781  3.6755 -1.1559 -2.3869
 2278SOL     OW18466   1.683   0.459   4.759 -0.1884 -0.6380 -0.2256
 2278SOL    HW118467   1.611   0.439   4.819 -1.3449  0.6205 -1.1841
 2278SOL    HW218468   1.690   0.375   4.713 -1.7788 -1.2446  0.6556
 2279SOL     OW18469   4.493   4.694   8.977 -0.3098 -1.1272  0.4698
 2279SOL    HW118470   4.537   0.045   8.963  0.0419 -0.8826  3.0273
 2279SOL    HW218471   4.562   4.627   8.979  0.8907  0.1000  0.0698
 2280SOL     OW18472   1.171   1.698  11.601 -0.4772  0.1237  0.5510
 2280SOL    HW118473   1.186   1.711  11.695 -1.0809 -2.0465  0.9594
 2280SOL    HW218474   1.129   1.614  11.617  0.2241 -0.4277 -0.4855
 2281SOL     OW18475   1.663   2.635   8.200  0.3265 -0.7974 -0.2262
 2281SOL    HW118476   1.676   2.718   8.154  0.5693 -0.9254 -0.3859
 2281SOL    HW218477   1.595   2.592   8.148 -0.5068  1.5775 -1.0929
 2282SOL     OW18478   2.917   3.699   6.105  0.7264  0.4016  0.1429
 2282SOL    HW118479   2.892   3.629   6.166  1.1756 -0.0058 -0.1405
 2282SOL    HW218480   2.864   3.770   6.143 -1.0420 -1.0199  0.3491
 2283SOL     OW18481   1.549   0.220  11.753 -0.1081 -0.4341 -0.0199
 2283SOL    HW118482   1.484   0.280  11.716  1.2324  0.0812 -1.5550
 2283SOL    HW218483   1.502   0.138  11.766  0.6418 -0.8608  0.0496
 2284SOL     OW18484   4.098   0.190  15.959  0.4614  0.6011 -0.0273
 2284SOL    HW118485   4.187   0.159  15.945 -0.4268 -1.3392 -1.3616
 2284SOL    HW218486   4.057   0.108  15.987  2.2375 -0.0276  0.7404
 2285SOL     OW18487   4.473   1.851   7.443  0.6027 -0.5498  0.5833
 2285SOL    HW118488   4.557   1.896   7.459  1.8613 -1.8195 -2.4578
 2285SOL    HW218489   4.409   1.918   7.467  0.8192  0.1749 -0.8711
 2286SOL     OW18490   3.778   3.361   8.540  0.2403  0.0679  0.4231
 2286SOL    HW118491   3.715   3.375   8.611  0.3051  0.9378  0.3048
 2286SOL    HW218492   3.770   3.444   8.493 -0.5954 -0.6982 -0.7835
 2287SOL     OW18493   3.495   3.393   2.337  0.3396 -0.1109  0.0600
 2287SOL    HW118494   3.478   3.442   2.257  0.0763  1.0147  0.8097
 2287SOL    HW218495   3.523   3.307   2.305  0.0650  0.0748 -0.6742
 2288SOL     OW18496   2.036   0.236  10.473  0.1061  0.4235 -0.2071
 2288SOL    HW118497   2.072   0.324  10.469  2.1012 -0.3697  0.3801
 2288SOL    HW218498   1.947   0.258  10.499  0.5937  1.4375  0.5954
 2289SOL     OW18499   2.736   1.513   4.848  0.2724  0.0960  0.4038
 2289SOL    HW118500   2.697   1.512   4.761 -0.8711 -1.1209  0.9405
 2289SOL    HW218501   2.810   1.572   4.834  0.6557 -0.0005  2.0350
 2290SOL     OW18502   0.194   2.272   1.660  0.0717 -0.4340 -0.2401
 2290SOL    HW118503   0.247   2.332   1.607  1.8249 -1.2992  0.5335
 2290SOL    HW218504   0.127   2.235   1.603 -1.3069 -1.3866  2.0060
 2291SOL     OW18505   2.076   1.248   4.224 -0.2131 -0.0015  0.2340
 2291SOL    HW118506   2.086   1.187   4.297 -0.0449 -1.1294 -0.7404
 2291SOL    HW218507   2.150   1.214   4.174  1.7148  2.2818  1.5346
 2292SOL     OW18508   1.698   4.363   3.237 -0.3622  0.4423 -0.4264
 2292SOL    HW118509   1.761   4.416   3.188 -1.0705  1.5992 -0.0951
 2292SOL    HW218510   1.682   4.412   3.318 -2.5053  0.3881 -0.8398
 2293SOL     OW18511   1.495   4.056   8.893  0.5832  0.3693  0.2240
 2293SOL    HW118512   1.513   3.966   8.863 -1.8329 -0.2360  0.5988
 2293SOL    HW218513   1.568   4.093   8.844  0.5847 -0.8630 -0.7279
 2294SOL     OW18514   0.994   0.278   8.191  0.4314  0.0977 -0.0875
 2294SOL    HW118515   1.024   0.369   8.190 -1.2609  0.6492  0.7432
 2294SOL    HW218516   1.063   0.232   8.239 -0.7454  0.9115  2.3932
 2295SOL     OW18517   1.927   0.498   0.777  0.1020  0.1581  0.0500
 2295SOL    HW118518   1.942   0.573   0.719 -1.3365  1.2373  1.0559
 2295SOL    HW218519   1.899   0.435   0.711 -0.9247  0.5912  0.0753
 2296SOL     OW18520   0.932   2.572   5.821 -0.3994 -0.5348 -0.7213
 2296SOL    HW118521   0.844   2.536   5.810 -0.7309  0.1820 -0.3471
 2296SOL    HW218522   0.944   2.634   5.749 -1.8911  0.1806 -0.3652
 2297SOL     OW18523   0.038   3.678   0.373  1.0688 -0.4313  0.4690
 2297SOL    HW118524   0.116   3.716   0.415  0.9971  1.2431 -0.9137
 2297SOL    HW218525   0.083   3.661   0.290 -0.3696 -2.0298  0.0212
 2298SOL     OW18526   1.185   3.110   8.565  0.0098 -0.5508 -0.3960
 2298SOL    HW118527   1.185   3.139   8.657 -0.0739  0.8766 -0.8408
 2298SOL    HW218528   1.260   3.051   8.564  1.9838  1.9604 -0.1398
 2299SOL     OW18529   4.699   0.469  16.573 -0.1748 -0.3515  0.0937
 2299SOL    HW118530   4.677   0.544  16.628 -3.6839 -0.1203 -1.6328
 2299SOL    HW218531   0.036   0.504  16.517  2.1524 -0.1534  3.0799
 2300SOL     OW18532   2.070   3.419   4.450 -0.2406  1.0225 -0.0210
 2300SOL    HW118533   2.054   3.452   4.362 -2.3765  3.6244  1.3313
 2300SOL    HW218534   1.988   3.434   4.497 -0.2906  2.8424 -0.6813
 2301SOL     OW18535   3.275   0.235   8.727 -0.1031  0.8346 -0.0103
 2301SOL    HW118536   3.298   0.278   8.810 -1.8156  0.5925  0.5984
 2301SOL    HW218537   3.365   0.211   8.705 -0.0765 -0.8999  1.9663
 2302SOL     OW18538   2.692   3.855   2.387  0.0734 -0.1525 -0.7595
 2302SOL    HW118539   2.641   3.841   2.307  0.2397 -2.3288 -0.4884
 2302SOL    HW218540   2.700   3.765   2.419  1.8792 -0.2090 -1.3452
 2303SOL     OW18541   3.966   3.497  12.136 -0.0655  0.1124  0.1219
 2303SOL    HW118542   4.043   3.543  12.171 -0.4992  1.1850 -0.3463
 2303SOL    HW218543   3.998   3.406  12.141  1.1680  0.5729  0.7161
 2304SOL     OW18544   2.093   4.709   6.684  0.3768 -0.0956 -0.8026
 2304SOL    HW118545   2.008   4.689   6.723  0.4715  1.9321  0.3994
 2304SOL    HW218546   2.124   0.050   6.737 -2.3470 -0.2507  1.0052
 2305SOL     OW18547   0.718   3.511  15.477 -0.0615 -0.5479  0.0629
 2305SOL    HW118548   0.809   3.507  15.507  0.1294  1.4203 -0.2517
 2305SOL    HW218549   0.716   3.604  15.452 -1.3349 -0.5146  0.3053
 2306SOL     OW18550   0.350   0.665  14.392 -0.0467 -0.1548 -0.4326
 2306SOL    HW118551   0.313   0.625  14.471 -1.3319 -0.3781 -1.1533
 2306SOL    HW218552   0.303   0.747  14.380 -0.0669  0.1969  2.1469
 2307SOL     OW18553   3.284   2.464   8.081  0.0453 -0.2206 -0.4130
 2307SOL    HW118554   3.320   2.386   8.122  0.6853  1.1643  1.6570
 2307SOL    HW218555   3.302   2.454   7.988 -1.7176 -0.9844 -0.6839
 2308SOL     OW18556   0.958   4.412   8.063 -0.2673  0.3573  0.3509
 2308SOL    HW118557   0.949   4.480   7.996 -2.2930  1.6725  1.9692
 2308SOL    HW218558   0.867   4.398   8.091 -0.5549  1.2599 -0.1549
 2309SOL     OW18559   2.562   2.687   2.985  0.0292  0.9900  0.4736
 2309SOL    HW118560   2.572   2.592   2.982  0.0996  0.9844  0.9392
 2309SOL    HW218561   2.503   2.701   3.059  0.9224 -0.5998  1.4694
 2310SOL     OW18562   4.208   4.639   1.140  0.0973  0.2013  0.6707
 2310SOL    HW118563   4.189   0.000   1.139  0.3458  0.2887  3.9517
 2310SOL    HW218564   4.218   4.608   1.050 -2.4550 -2.2758  1.2298
 2311SOL     OW18565   1.899   3.604  14.555 -0.7413 -0.1748  0.6174
 2311SOL    HW118566   1.901   3.604  14.650  1.0118  2.4477  0.5962
 2311SOL    HW218567   1.991   3.580  14.540 -1.0503 -1.4000  0.7465
 2312SOL     OW18568   0.692   4.301   4.165  0.5466  0.1072 -0.3335
 2312SOL    HW118569   0.632   4.302   4.090  1.3005 -0.2992 -0.9426
 2312SOL    HW218570   0.652   4.241   4.228 -0.5936 -0.8847 -1.9781
 2313SOL     OW18571   2.674   1.709  17.659  0.1128  0.3076  0.5670
 2313SOL    HW118572   2.764   1.678  17.671 -0.2973 -2.3299 -3.1123
 2313SOL    HW218573   2.680   1.804  17.671  0.7984 -0.1009  3.2974
 2314SOL     OW18574   4.724   1.799  10.312  0.5381  0.0370 -0.3426
 2314SOL    HW118575   4.657   1.731  10.314  0.5507  0.0509  0.4519
 2314SOL    HW218576   0.049   1.768  10.242 -0.8616 -0.1345 -1.4300
 2315SOL     OW18577   1.132   1.411   8.210 -0.1717  0.1021  0.3699
 2315SOL    HW118578   1.053   1.397   8.157 -0.1196  3.5776 -0.5787
 2315SOL    HW218579   1.091   1.399   8.296 -1.1661 -0.1881 -0.1414
 2316SOL     OW18580   2.893   0.020   8.412  0.2180 -0.4087  0.1955
 2316SOL    HW118581   2.937   4.680   8.368  0.4194 -0.3585  0.3128
 2316SOL    HW218582   2.959   0.039   8.479 -0.9198 -0.7405  1.4122
 2317SOL     OW18583   0.823   2.094  15.611  0.0044  0.0283  0.3163
 2317SOL    HW118584   0.733   2.085  15.578  0.1114 -0.3205  0.1170
 2317SOL    HW218585   0.859   2.147  15.540 -1.5267  1.7149  0.7960
 2318SOL     OW18586   3.810   3.819  14.041 -0.4268  0.2787  0.0552
 2318SOL    HW118587   3.767   3.886  14.095  0.2479  1.2004 -0.5421
 2318SOL    HW218588   3.881   3.775  14.087 -0.8794 -1.4776 -0.9476
 2319SOL     OW18589   1.754   1.024   0.646  0.4277 -0.1275 -0.1676
 2319SOL    HW118590   1.671   0.980   0.667  1.5635 -2.7925 -1.2203
 2319SOL    HW218591   1.718   1.110   0.624  0.6830 -0.4630 -1.8804
 2320SOL     OW18592   0.673   4.280   2.631  0.2924 -0.1054  0.3134
 2320SOL    HW118593   0.629   4.364   2.640 -0.5288 -0.6218  1.1308
 2320SOL    HW218594   0.598   4.232   2.594 -0.2548  0.1935  1.0305
 2321SOL     OW18595   0.452   1.464   2.466  0.1281  0.2849 -0.2637
 2321SOL    HW118596   0.500   1.528   2.519  0.8218  1.4407 -2.3049
 2321SOL    HW218597   0.514   1.444   2.396  0.7318  4.0249 -0.8332
 2322SOL     OW18598   1.398   1.064  12.446  0.0806  0.0417 -0.1756
 2322SOL    HW118599   1.476   1.048  12.500 -0.8750 -0.7561  0.9784
 2322SOL    HW218600   1.424   1.135  12.388  3.0395  1.0937  2.3957
 2323SOL     OW18601   1.626   0.648   0.626  0.0572 -0.2340  0.5034
 2323SOL    HW118602   1.651   0.557   0.608  0.0780 -1.0798  4.9356
 2323SOL    HW218603   1.583   0.676   0.545  0.6269  1.6749  0.8656
 2324SOL     OW18604   3.060   0.322   8.297  0.3691 -0.0124 -0.0440
 2324SOL    HW118605   3.125   0.392   8.299  1.0490 -0.6317 -0.5784
 2324SOL    HW218606   2.982   0.366   8.332 -0.3302 -1.7913  0.6642
 2325SOL     OW18607   3.892   1.289   6.260 -0.2159 -0.4281 -0.3782
 2325SOL    HW118608   3.853   1.201   6.260 -2.3563  0.5071  0.3084
 2325SOL    HW218609   3.843   1.327   6.334  1.7333 -1.9032  1.6647
 2326SOL     OW18610   1.138   0.616   4.826 -0.1374 -0.1546 -0.5603
 2326SOL    HW118611   1.051   0.610   4.787 -0.9131 -0.4961  1.2547
 2326SOL    HW218612   1.133   0.705   4.861 -1.9456 -0.5698  0.2061
 2327SOL     OW18613   0.638   2.562   2.831 -0.6120 -0.0387 -0.2278
 2327SOL    HW118614   0.549   2.549   2.865  0.2542  0.0692  2.0084
 2327SOL    HW218615   0.668   2.637   2.881 -2.3029 -0.5686  1.6071
 2328SOL     OW18616   4.412   3.037   6.859 -0.5797 -0.7395  0.0027
 2328SOL    HW118617   4.385   3.127   6.845 -1.2312 -0.8100  0.7672
 2328SOL    HW218618   4.364   2.994   6.788 -0.4003  1.4773 -1.4428
 2329SOL     OW18619   3.314   0.976   8.919  0.1333  0.4364 -0.0915
 2329SOL    HW118620   3.249   1.045   8.933  0.4788  0.6403  0.5028
 2329SOL    HW218621   3.332   0.979   8.825  0.7366  1.4233  0.0563
 2330SOL     OW18622   1.303   4.445   4.725  0.1755  0.0449 -0.2193
 2330SOL    HW118623   1.213   4.474   4.707  0.7995  0.8562 -1.9868
 2330SOL    HW218624   1.323   4.369   4.671 -0.3374  1.3264 -2.1895
 2331SOL     OW18625   0.558   0.958  17.030  0.2470  0.1214 -0.2140
 2331SOL    HW118626   0.496   0.990  16.964 -0.0912  0.0699  0.0770
 2331SOL    HW218627   0.494   0.934  17.097  1.1901 -0.8892  0.3232
 2332SOL     OW18628   3.826   3.009   9.390  0.0328  0.1576  0.6014
 2332SOL    HW118629   3.878   2.929   9.387  0.4573  0.3738  1.9214
 2332SOL    HW218630   3.747   2.987   9.440  0.8699 -1.5550  1.1779
 2333SOL     OW18631   1.208   0.301   6.751  0.0362  0.0193  1.0728
 2333SOL    HW118632   1.248   0.331   6.669 -1.6979 -0.8393 -0.0668
 2333SOL    HW218633   1.261   0.350   6.814  0.5219  0.8084  0.0386
 2334SOL     OW18634   2.836   0.819   7.233 -0.2890  0.2285 -0.2813
 2334SOL    HW118635   2.796   0.903   7.214 -1.3826  0.0016  1.0035
 2334SOL    HW218636   2.923   0.831   7.197 -0.6108  3.3029 -0.0159
 2335SOL     OW18637   4.055   3.053   3.375  0.0146  0.0207 -0.4635
 2335SOL    HW118638   4.092   3.062   3.463 -2.8704 -1.6249  0.9094
 2335SOL    HW218639   4.023   3.140   3.351 -1.6354 -0.0581  1.4455
 2336SOL     OW18640   2.051   0.206   2.262 -0.2915 -0.5926 -0.2274
 2336SOL    HW118641   2.111   0.279   2.253 -1.6937  0.5130 -0.5674
 2336SOL    HW218642   2.017   0.202   2.172 -0.9432  1.4099 -0.0558
 2337SOL     OW18643   4.049   1.043   3.367 -0.2156  0.1188  0.1633
 2337SOL    HW118644   4.037   1.122   3.314  0.7326  1.5578  2.0698
 2337SOL    HW218645   4.129   1.074   3.411 -0.5725  0.7240  0.3911
 2338SOL     OW18646   1.418   2.639   2.385  0.4931 -0.0189 -0.6433
 2338SOL    HW118647   1.384   2.631   2.296 -1.3190 -0.6696  0.1111
 2338SOL    HW218648   1.463   2.723   2.375  0.1631  0.5517  2.4809
 2339SOL     OW18649   3.111   2.900  12.379  0.3491 -0.6351 -0.1623
 2339SOL    HW118650   3.040   2.907  12.443  0.8866 -1.4370  0.5050
 2339SOL    HW218651   3.144   2.989  12.370  1.8910 -1.4108 -2.1305
 2340SOL     OW18652   2.189   3.702  12.158  0.3811 -0.2702 -0.0437
 2340SOL    HW118653   2.270   3.651  12.155 -0.8911 -2.4682  2.9679
 2340SOL    HW218654   2.138   3.668  12.084 -0.1499 -0.0876  0.2405
 2341SOL     OW18655   0.620   1.528   4.065  0.0483 -0.0202  0.5386
 2341SOL    HW118656   0.708   1.495   4.045 -0.2875 -1.9055  2.1681
 2341SOL    HW218657   0.622   1.623   4.059 -1.3258 -0.1519 -1.7529
 2342SOL     OW18658   0.489   2.184   9.008 -0.2672  0.0330  0.6176
 2342SOL    HW118659   0.417   2.238   9.041 -2.7179 -1.4197 -2.3660
 2342SOL    HW218660   0.571   2.221   9.039  0.2389  0.6895 -1.4970
 2343SOL     OW18661   0.233   3.839   0.471  0.3978 -0.0855  0.5901
 2343SOL    HW118662   0.252   3.853   0.564 -0.6581  0.3250  0.7418
 2343SOL    HW218663   0.269   3.923   0.444  0.4382 -0.4048 -0.3647
 2344SOL     OW18664   0.642   0.527  11.315  0.1709  0.4133 -0.3029
 2344SOL    HW118665   0.593   0.579  11.252 -1.3137  0.1251  0.5992
 2344SOL    HW218666   0.688   0.461  11.264  2.3293  1.9226 -0.3073
 2345SOL     OW18667   1.396   2.891   8.096 -0.0013  0.4171  0.3413
 2345SOL    HW118668   1.322   2.854   8.144  0.8000  0.0935  1.3325
 2345SOL    HW218669   1.380   2.858   8.008  1.5105  1.1141 -0.2014
 2346SOL     OW18670   2.105   4.350   6.679  0.3980 -0.3177 -0.3154
 2346SOL    HW118671   2.139   4.436   6.653 -3.3941  0.7126 -1.8255
 2346SOL    HW218672   2.182   4.294   6.661  0.5315 -0.1122 -0.3791
 2347SOL     OW18673   0.568   3.536   4.582  0.1045 -0.7340  0.1299
 2347SOL    HW118674   0.596   3.573   4.498 -0.6720  2.6294  1.3578
 2347SOL    HW218675   0.537   3.450   4.553  1.3905 -1.1368 -0.0649
 2348SOL     OW18676   1.750   0.716   1.821  0.4639  0.2877  0.2869
 2348SOL    HW118677   1.825   0.736   1.877  1.8974 -1.8974 -0.8697
 2348SOL    HW218678   1.696   0.659   1.876 -0.6050 -0.6961 -1.7663
 2349SOL     OW18679   2.374   2.457   2.645  0.0055 -0.2189  0.2805
 2349SOL    HW118680   2.445   2.410   2.688  0.8744 -0.1442 -1.0846
 2349SOL    HW218681   2.330   2.403   2.579  0.3839  1.7054 -1.5433
 2350SOL     OW18682   3.500   0.871   1.965  0.0995 -0.2574  0.1885
 2350SOL    HW118683   3.530   0.935   1.900  0.7256 -1.6235 -0.8670
 2350SOL    HW218684   3.578   0.821   1.990  0.0737  0.5464  1.8780
 2351SOL     OW18685   3.492   0.137   3.439  0.8679 -0.4599  0.0437
 2351SOL    HW118686   3.402   0.127   3.471  1.8114  0.5506  3.0602
 2351SOL    HW218687   3.501   0.049   3.404  1.0448 -0.5791  0.3895
 2352SOL     OW18688   3.655   2.113   3.677 -0.2295 -0.2647 -0.0895
 2352SOL    HW118689   3.736   2.088   3.722  0.1141  2.2360  0.6881
 2352SOL    HW218690   3.672   2.193   3.627 -1.3942 -1.0750 -1.7919
 2353SOL     OW18691   3.374   0.126  12.639 -0.4490 -0.4395 -0.3437
 2353SOL    HW118692   3.321   0.078  12.703 -2.8664  1.9315 -0.5271
 2353SOL    HW218693   3.314   0.190  12.601  0.8809  0.3712 -1.0517
 2354SOL     OW18694   3.411   0.605   0.709 -0.4542  0.3561  0.2946
 2354SOL    HW118695   3.476   0.535   0.712  0.2195  0.9456 -0.7078
 2354SOL    HW218696   3.431   0.646   0.625 -0.7036  0.1861  0.1537
 2355SOL     OW18697   3.332   0.793   6.235 -0.3120  0.1997  0.1909
 2355SOL    HW118698   3.265   0.839   6.285  0.9696  1.8996  0.3758
 2355SOL    HW218699   3.291   0.791   6.148  0.0997 -0.4332  0.0129
 2356SOL     OW18700   0.656   3.418   1.387  0.0323 -0.0847 -0.2009
 2356SOL    HW118701   0.620   3.335   1.417  0.9138  0.2690  1.8206
 2356SOL    HW218702   0.578   3.474   1.387 -2.3289 -3.3961 -1.1251
 2357SOL     OW18703   4.561   1.907   0.623  0.3876  0.0557  0.4202
 2357SOL    HW118704   4.521   1.984   0.581 -0.6172 -0.2668  0.7726
 2357SOL    HW218705   4.645   1.908   0.578 -0.3348 -1.3431 -0.9713
 2358SOL     OW18706   2.004   3.237   1.787  0.2095  0.1421  0.5788
 2358SOL    HW118707   1.940   3.168   1.801  0.6852 -0.8043 -1.8921
 2358SOL    HW218708   1.947   3.279   1.723 -1.1511  0.3244  1.9171
 2359SOL     OW18709   1.861   0.762   0.673 -0.5139 -0.4735 -0.1841
 2359SOL    HW118710   1.783   0.730   0.627  0.2252 -0.4498 -1.4565
 2359SOL    HW218711   1.843   0.856   0.668 -1.4630 -0.6485  0.0305
 2360SOL     OW18712   4.390   3.933   7.822  0.4679 -0.6084  0.6192
 2360SOL    HW118713   4.454   4.002   7.840 -0.2222  0.5910 -1.5254
 2360SOL    HW218714   4.435   3.892   7.748  0.1608 -1.1699  0.7433
 2361SOL     OW18715   1.640   1.189   2.587  0.1193 -0.4327  0.3117
 2361SOL    HW118716   1.686   1.132   2.649 -0.4460 -0.3737  0.7837
 2361SOL    HW218717   1.692   1.270   2.593  0.2662 -0.6527  2.1423
 2362SOL     OW18718   3.248   3.822   6.265  0.0606 -0.4760  0.0132
 2362SOL    HW118719   3.196   3.890   6.307  2.7506 -0.2469  2.9481
 2362SOL    HW218720   3.331   3.834   6.312  0.4286 -0.5079 -0.6180
 2363SOL     OW18721   2.561   0.160   4.318 -0.1609  0.7900 -0.1035
 2363SOL    HW118722   2.550   0.074   4.277 -0.6216  0.8443 -0.0925
 2363SOL    HW218723   2.503   0.163   4.394  0.3227 -0.4509  0.3229
 2364SOL     OW18724   1.776   1.004   2.774  0.2375 -0.4205 -0.1719
 2364SOL    HW118725   1.785   1.077   2.834 -1.4106  0.1373 -0.5903
 2364SOL    HW218726   1.739   0.929   2.820  0.2990 -1.4448 -1.7912
 2365SOL     OW18727   4.270   1.787   7.257 -0.0033 -0.1777  0.4998
 2365SOL    HW118728   4.243   1.878   7.251  1.1827  0.0660 -1.0301
 2365SOL    HW218729   4.334   1.786   7.328  0.4977  0.3885  0.0611
 2366SOL     OW18730   3.598   4.438   1.958  0.1226  0.2383 -0.6290
 2366SOL    HW118731   3.610   4.516   1.903  1.0093  1.1548  0.8533
 2366SOL    HW218732   3.564   4.493   2.029 -0.8555  0.2409 -1.0954
 2367SOL     OW18733   3.376   3.772   8.441 -0.4960 -0.8705 -0.0138
 2367SOL    HW118734   3.397   3.714   8.368 -1.5798  0.2592 -1.2339
 2367SOL    HW218735   3.457   3.822   8.450 -0.2190 -0.7942 -2.9447
 2368SOL     OW18736   1.151   1.093  16.715  0.4585 -0.2209 -0.2868
 2368SOL    HW118737   1.206   1.149  16.771  0.5958  0.1086 -0.7529
 2368SOL    HW218738   1.119   1.154  16.649  0.8090 -0.3921 -0.6164
 2369SOL     OW18739   0.165   2.123   1.908 -0.5425  0.2433  0.3505
 2369SOL    HW118740   0.216   2.126   1.989 -1.5897 -1.2236  1.0550
 2369SOL    HW218741   0.222   2.169   1.846 -1.7775  1.8925  0.4377
 2370SOL     OW18742   3.897   2.613   5.166 -0.1455 -0.3210  0.0074
 2370SOL    HW118743   3.808   2.625   5.131 -0.3495 -2.2750 -0.1330
 2370SOL    HW218744   3.942   2.679   5.113  1.4275 -1.8997 -0.6003
 2371SOL     OW18745   4.308   1.603  11.974  0.2060 -0.0898 -0.2926
 2371SOL    HW118746   4.269   1.615  12.061 -2.0403 -2.7231 -0.9505
 2371SOL    HW218747   4.291   1.687  11.930  0.4446  0.1303  0.0312
 2372SOL     OW18748   3.102   0.171   5.890  0.1246 -0.0472 -0.2349
 2372SOL    HW118749   3.098   0.202   5.799 -0.7750  1.3903  0.2945
 2372SOL    HW218750   3.114   0.079   5.868 -0.2441 -0.0111 -0.6076
 2373SOL     OW18751   2.834   0.579   7.332 -0.2293 -0.4206  0.1399
 2373SOL    HW118752   2.825   0.662   7.286  1.7673 -0.4449 -0.2939
 2373SOL    HW218753   2.799   0.532   7.256  0.5228 -0.4937 -0.1570
 2374SOL     OW18754   4.610   3.860   6.908 -0.1726  0.2014  0.3807
 2374SOL    HW118755   4.607   3.819   6.822  3.1810  0.0176  0.3642
 2374SOL    HW218756   4.634   3.785   6.963 -3.8463 -1.0230  0.2947
 2375SOL     OW18757   2.971   1.701   4.566  0.0540 -0.2077 -0.0660
 2375SOL    HW118758   2.973   1.716   4.661 -2.6296  1.3873 -0.2691
 2375SOL    HW218759   2.971   1.792   4.536 -0.7526  0.1680  1.0716
 2376SOL     OW18760   2.067   1.288  17.324 -0.2624  0.0570  0.2431
 2376SOL    HW118761   2.039   1.268  17.413  1.3848 -0.0076  0.7503
 2376SOL    HW218762   2.005   1.238  17.272  1.8365 -1.0822 -1.1757
 2377SOL     OW18763   3.622   0.424   4.729 -0.2592 -0.2593  0.0426
 2377SOL    HW118764   3.607   0.352   4.668 -3.1238  1.4475 -1.3241
 2377SOL    HW218765   3.543   0.476   4.712 -1.0721 -2.0944 -1.8122
 2378SOL     OW18766   0.686   0.997   3.552 -0.3955  0.1711 -0.1651
 2378SOL    HW118767   0.625   1.058   3.511 -1.1522 -0.7489 -0.3882
 2378SOL    HW218768   0.640   0.914   3.564  0.8481 -0.1617  2.4401
 2379SOL     OW18769   3.484   2.618   7.062 -0.8888  0.4009 -0.2945
 2379SOL    HW118770   3.413   2.558   7.036 -1.1597  0.3412  0.5884
 2379SOL    HW218771   3.459   2.636   7.153 -0.8479 -1.0566  0.0022
 2380SOL     OW18772   0.698   0.242   6.051 -0.4401  0.1800 -0.2995
 2380SOL    HW118773   0.755   0.279   5.983  1.4460 -2.0418  0.0568
 2380SOL    HW218774   0.654   0.325   6.068 -1.7935 -0.7532  0.7365
 2381SOL     OW18775   1.893   2.269  13.673 -0.9466 -0.2584 -0.5611
 2381SOL    HW118776   1.975   2.304  13.637 -0.7005 -1.4668 -1.1534
 2381SOL    HW218777   1.917   2.184  13.708 -3.5547 -0.1157  1.5809
 2382SOL     OW18778   0.891   1.786   7.357 -0.0170 -0.1928  0.1131
 2382SOL    HW118779   0.944   1.709   7.378 -1.4284 -0.6410  2.0675
 2382SOL    HW218780   0.954   1.856   7.378 -0.2804  0.7240 -2.1881
 2383SOL     OW18781   4.089   1.703   3.364 -0.3977  0.4851 -0.2049
 2383SOL    HW118782   4.159   1.652   3.403  1.4006  2.3017 -1.0562
 2383SOL    HW218783   4.126   1.791   3.370 -1.1407  0.6594  1.7684
 2384SOL     OW18784   0.876   0.126  12.249  0.3336  0.4279 -0.1178
 2384SOL    HW118785   0.950   0.139  12.309  0.3122 -0.2399  0.0568
 2384SOL    HW218786   0.820   0.076  12.308  0.7835  1.0357  0.8331
 2385SOL     OW18787   3.740   1.467  14.791  0.4503  0.2791 -0.4948
 2385SOL    HW118788   3.683   1.433  14.722 -0.4087 -1.6233  1.1268
 2385SOL    HW218789   3.692   1.548  14.810 -0.1975 -0.0541 -0.6966
 2386SOL     OW18790   0.725   2.786  15.618  0.0126 -0.0662 -0.3107
 2386SOL    HW118791   0.715   2.841  15.541  0.2252  2.3376  1.3609
 2386SOL    HW218792   0.659   2.722  15.594 -2.1363  1.4528  1.6033
 2387SOL     OW18793   4.521   0.229   3.065 -0.2827  0.5859 -0.3301
 2387SOL    HW118794   4.499   0.201   3.154 -0.6431 -1.4957 -1.0813
 2387SOL    HW218795   4.494   0.154   3.013  1.2756  0.8569 -1.5191
 2388SOL     OW18796   1.605   3.356   6.149 -0.6906  0.0993  0.2470
 2388SOL    HW118797   1.643   3.399   6.226  2.7456 -0.2276 -1.2958
 2388SOL    HW218798   1.619   3.261   6.145  1.0251  0.3567  0.2687
 2389SOL     OW18799   2.444   2.354  11.539 -0.2334  0.1032  0.1254
 2389SOL    HW118800   2.484   2.293  11.477  1.3774  2.7934 -1.4614
 2389SOL    HW218801   2.426   2.284  11.603  1.0394 -0.4199 -0.0996
 2390SOL     OW18802   4.207   3.460   3.095 -0.3602  0.1071 -0.3359
 2390SOL    HW118803   4.141   3.485   3.031  1.0400 -0.0410 -1.8440
 2390SOL    HW218804   4.214   3.366   3.081  0.3894  0.4428 -2.1834
 2391SOL     OW18805   3.935   0.633   9.625 -0.5789 -0.0066 -0.7036
 2391SOL    HW118806   3.971   0.581   9.696  1.9677  0.5023 -1.6355
 2391SOL    HW218807   3.969   0.722   9.635  2.4610 -1.5601  2.3794
 2392SOL     OW18808   0.919   0.635  15.064 -0.1797 -0.1728  0.4085
 2392SOL    HW118809   0.863   0.619  14.988  0.0976 -0.1989  0.2111
 2392SOL    HW218810   0.983   0.565  15.057  0.2488  0.2309  0.2815
 2393SOL     OW18811   1.143   1.146  12.457 -0.4100 -0.2829 -1.0265
 2393SOL    HW118812   1.140   1.207  12.530  1.3164  2.3590 -3.1355
 2393SOL    HW218813   1.229   1.103  12.454  0.1997  0.9209 -0.9425
 2394SOL     OW18814   0.398   3.242  13.043  0.0123  0.1453  0.1805
 2394SOL    HW118815   0.319   3.189  13.050 -0.4633  1.1435  2.5624
 2394SOL    HW218816   0.432   3.238  13.133 -0.1172  0.2372  0.2339
 2395SOL     OW18817   1.860   4.571  11.529  0.0888  0.1667  0.0306
 2395SOL    HW118818   1.856   4.475  11.531  0.5551  0.1443 -0.1004
 2395SOL    HW218819   1.800   4.606  11.463 -0.8632 -0.0859  0.7526
 2396SOL     OW18820   1.981   1.369   7.561 -0.5326  0.4134  0.0942
 2396SOL    HW118821   2.045   1.400   7.498  1.3591 -0.9439  1.3358
 2396SOL    HW218822   2.039   1.311   7.611 -2.6137 -1.0927  0.7802
 2397SOL     OW18823   4.319   0.163   9.270 -0.4999 -0.3365 -0.2103
 2397SOL    HW118824   4.413   0.174   9.262 -0.4915 -0.1915  0.0655
 2397SOL    HW218825   4.297   0.246   9.228  0.5389  0.1538  0.2149
 2398SOL     OW18826   3.274   1.588   3.482 -0.2638  0.3856  0.0345
 2398SOL    HW118827   3.219   1.556   3.411 -2.3330  1.2252  1.2631
 2398SOL    HW218828   3.296   1.676   3.453  1.4323  0.2061  0.7923
 2399SOL     OW18829   3.088   3.086   6.143  0.4445  0.5328  0.0945
 2399SOL    HW118830   3.010   3.094   6.198  0.6324 -0.2434  0.4691
 2399SOL    HW218831   3.090   2.996   6.111 -0.1919  0.6676 -0.3429
 2400SOL     OW18832   3.786   0.767  15.407  0.1483  0.4692  0.1396
 2400SOL    HW118833   3.879   0.745  15.404  0.0571 -0.3081  3.3619
 2400SOL    HW218834   3.750   0.718  15.481  0.7662  0.6488  0.5630
 2401SOL     OW18835   0.033   3.119   4.462 -0.2172 -0.8504  0.9665
 2401SOL    HW118836   0.046   3.037   4.510  2.0027 -0.1954  1.5080
 2401SOL    HW218837   0.001   3.077   4.383 -0.0943  2.3618 -0.8058
 2402SOL     OW18838   1.172   0.559   5.093  0.1654  0.2752  0.3402
 2402SOL    HW118839   1.194   0.469   5.115  1.7156  0.0190 -2.2126
 2402SOL    HW218840   1.161   0.550   4.998 -0.1765  1.6344  0.2475
 2403SOL     OW18841   3.078   3.864   9.365  0.2909  0.1491 -0.2791
 2403SOL    HW118842   3.167   3.873   9.400  0.5996  0.4095 -1.1257
 2403SOL    HW218843   3.071   3.956   9.341  1.4391  0.2369 -0.2843
 2404SOL     OW18844   2.050   1.232   3.336 -0.0248  0.0154 -0.0343
 2404SOL    HW118845   1.956   1.234   3.356 -0.1262  1.1635 -0.6339
 2404SOL    HW218846   2.084   1.158   3.387 -0.9540 -0.8146 -0.6047
 2405SOL     OW18847   0.865   4.602  13.811 -0.0775 -0.2701  0.0779
 2405SOL    HW118848   0.823   4.633  13.891  0.6237  2.1972 -0.5258
 2405SOL    HW218849   0.933   4.542  13.843 -0.8588  0.4691  3.0984
 2406SOL     OW18850   4.495   3.987   1.464  0.1647  0.3587  0.2100
 2406SOL    HW118851   4.401   4.006   1.465  0.5727  2.3514  2.0342
 2406SOL    HW218852   4.508   3.907   1.413  0.9537  0.3573  0.4146
 2407SOL     OW18853   0.181   2.809   2.376  0.4292  0.5055  0.4694
 2407SOL    HW118854   0.198   2.824   2.469 -1.8399 -3.4605  1.5609
 2407SOL    HW218855   0.267   2.821   2.338 -0.0097 -0.3540 -0.7799
 2408SOL     OW18856   4.338   3.737  12.648 -0.2112  0.0226  0.4291
 2408SOL    HW118857   4.310   3.742  12.739 -1.6773  0.6201 -0.0523
 2408SOL    HW218858   4.251   3.707  12.620 -0.6484  0.9233  0.8215
 2409SOL     OW18859   3.474   2.201  15.766  0.0913 -0.1050  0.0757
 2409SOL    HW118860   3.412   2.129  15.756  1.5620 -1.3675  0.0179
 2409SOL    HW218861   3.458   2.259  15.691 -0.6537  0.1626  0.4344
 2410SOL     OW18862   0.242   0.829  10.882  0.8008 -0.1486 -0.3986
 2410SOL    HW118863   0.165   0.823  10.938  1.6657 -0.4449  0.7589
 2410SOL    HW218864   0.201   0.823  10.796 -0.4388  0.5781  0.1289
 2411SOL     OW18865   0.613   1.841   4.329 -0.1337  0.0172 -0.4432
 2411SOL    HW118866   0.688   1.801   4.373 -1.0247 -0.9713  0.1752
 2411SOL    HW218867   0.625   1.796   4.245 -1.8037  2.0085 -1.7572
 2412SOL     OW18868   1.965   3.505   1.268 -0.6224  0.0809 -0.2583
 2412SOL    HW118869   2.055   3.487   1.239 -0.2184  0.2017  0.9149
 2412SOL    HW218870   1.990   3.573   1.330 -1.7065  0.6480 -0.4477
 2413SOL     OW18871   3.571   4.609   9.175 -0.2877  0.3493 -0.1499
 2413SOL    HW118872   3.634   4.673   9.209  1.2531 -2.5463  2.4634
 2413SOL    HW218873   3.545   4.643   9.089 -0.3826 -0.6119 -0.5015
 2414SOL     OW18874   2.991   2.250   6.048 -0.3869 -0.3141 -0.1244
 2414SOL    HW118875   2.962   2.308   6.119 -0.5272 -1.1610  0.5062
 2414SOL    HW218876   2.921   2.256   5.982  0.0389 -1.8476 -0.7132
 2415SOL     OW18877   0.247   1.227   4.880  0.3694 -0.0609  0.2144
 2415SOL    HW118878   0.189   1.300   4.860 -0.9293 -1.0893  0.2103
 2415SOL    HW218879   0.309   1.226   4.807  1.1132  0.6107  0.8345
 2416SOL     OW18880   2.157   3.866   1.819 -0.2287  0.2399  0.0996
 2416SOL    HW118881   2.062   3.856   1.813 -0.4394  2.7845 -0.9197
 2416SOL    HW218882   2.188   3.862   1.728 -1.3299 -1.0462 -0.2216
 2417SOL     OW18883   2.895   4.277   3.927 -0.5315 -0.3072 -0.0282
 2417SOL    HW118884   2.800   4.272   3.921 -0.6594  0.5938  1.1818
 2417SOL    HW218885   2.912   4.285   4.021  0.9801 -1.1062 -0.2266
 2418SOL     OW18886   2.667   1.028   3.283 -0.0491 -0.4193  0.2340
 2418SOL    HW118887   2.573   1.047   3.281 -0.2650 -1.4058  1.3985
 2418SOL    HW218888   2.669   0.941   3.241  0.1524  0.2951 -1.2333
 2419SOL     OW18889   3.085   2.496  15.740  0.2173 -0.0933  0.4031
 2419SOL    HW118890   3.004   2.496  15.791 -0.2632 -0.3350 -0.3579
 2419SOL    HW218891   3.147   2.502  15.812  1.6733  0.1402 -0.8664
 2420SOL     OW18892   3.958   3.707  10.825  0.4528  0.1880  0.0145
 2420SOL    HW118893   3.899   3.648  10.872 -0.1475 -0.4062 -1.4888
 2420SOL    HW218894   3.939   3.789  10.870 -1.1479 -0.1561 -0.0455
 2421SOL     OW18895   0.661   3.033   6.337 -0.4678  0.1440 -0.2809
 2421SOL    HW118896   0.649   3.077   6.421  1.2296 -1.6894  0.9403
 2421SOL    HW218897   0.575   3.046   6.296 -1.1385  0.7649  1.3266
 2422SOL     OW18898   4.527   3.811  17.686  0.1838 -0.2432 -0.3706
 2422SOL    HW118899   4.509   3.897  17.724  0.4089 -1.1148  1.7382
 2422SOL    HW218900   4.541   3.815  17.592  0.6168 -2.3988 -0.4091
 2423SOL     OW18901   3.975   2.880  17.499  0.0419 -0.0709 -0.0622
 2423SOL    HW118902   3.988   2.964  17.545  0.5965  0.4820 -1.2223
 2423SOL    HW218903   3.954   2.910  17.411 -1.9305  1.5614  0.9541
 2424SOL     OW18904   0.750   3.641   2.808  0.1500 -0.2964 -0.2187
 2424SOL    HW118905   0.776   3.648   2.900 -0.7200  0.3813 -0.0297
 2424SOL    HW218906   0.663   3.600   2.814 -0.7225  1.3450 -1.8277
 2425SOL     OW18907   4.695   1.646   6.356  0.2487  0.3723 -0.3052
 2425SOL    HW118908   4.710   1.724   6.303 -1.5095  1.7339  1.1978
 2425SOL    HW218909   0.017   1.673   6.430 -1.4157  0.7760  0.7691
 2426SOL     OW18910   3.100   1.436   5.132 -0.2811  0.5065 -0.4533
 2426SOL    HW118911   3.153   1.505   5.092  0.4877  1.0770  1.5136
 2426SOL    HW218912   3.013   1.441   5.093  0.2793  1.4259 -1.5750
 2427SOL     OW18913   1.809   1.100   5.525  0.3327 -0.5112 -0.0867
 2427SOL    HW118914   1.729   1.071   5.569  0.6778  1.6018  1.9161
 2427SOL    HW218915   1.857   1.017   5.516  1.4396  0.2043 -0.7175
 2428SOL     OW18916   0.533   4.257   6.362 -0.3722  0.3408  0.2631
 2428SOL    HW118917   0.623   4.224   6.369 -0.5736 -0.0275  1.1758
 2428SOL    HW218918   0.542   4.331   6.302  0.9285  1.1660  1.4577
 2429SOL     OW18919   1.189   2.523   8.131 -0.6300  0.5451  0.0287
 2429SOL    HW118920   1.139   2.521   8.212 -1.2048  1.7134 -0.2964
 2429SOL    HW218921   1.281   2.521   8.158 -1.2412 -0.1905  2.0708
 2430SOL     OW18922   4.200   2.943   3.867 -0.0919 -0.0565  0.4334
 2430SOL    HW118923   4.206   2.861   3.916  0.4900  0.0646  0.5642
 2430SOL    HW218924   4.192   3.011   3.934  1.9667 -1.9733  2.6175
 2431SOL     OW18925   2.622   3.510   4.977  0.3903  1.2721 -0.3476
 2431SOL    HW118926   2.588   3.588   5.020  2.2532  2.0975 -0.3522
 2431SOL    HW218927   2.539   3.463   4.986  0.5397  0.6710 -2.0594
 2432SOL     OW18928   2.428   4.440  12.594 -0.2052  0.4522  0.3043
 2432SOL    HW118929   2.500   4.427  12.656  0.2983 -1.2339 -0.6327
 2432SOL    HW218930   2.350   4.403  12.636  0.9355 -0.1351  1.9249
 2433SOL     OW18931   4.307   1.179   4.035 -0.1448 -0.8380 -0.5444
 2433SOL    HW118932   4.335   1.240   4.104  1.3907  0.8127 -2.6104
 2433SOL    HW218933   4.218   1.212   4.024  0.0666  0.0403  0.3893
 2434SOL     OW18934   3.520   2.216   6.292 -0.5051  0.4508  0.2564
 2434SOL    HW118935   3.592   2.253   6.344  0.0748  0.9282 -0.8952
 2434SOL    HW218936   3.450   2.260   6.340 -0.3889 -1.3371  2.0785
 2435SOL     OW18937   2.281   3.384  13.808  0.0934 -0.4210  0.0424
 2435SOL    HW118938   2.221   3.448  13.768 -0.4471 -1.0829 -0.2177
 2435SOL    HW218939   2.327   3.433  13.876 -0.6340  1.3910 -0.7749
 2436SOL     OW18940   1.110   0.780   7.962  0.0697 -0.2699  0.4289
 2436SOL    HW118941   1.163   0.792   7.883  0.3257  1.3204  0.8419
 2436SOL    HW218942   1.098   0.685   7.959 -1.7904 -0.0228 -0.5175
 2437SOL     OW18943   1.908   4.312  12.145  0.2446 -0.0788 -0.6629
 2437SOL    HW118944   1.991   4.269  12.167  0.5852  1.2372  0.7208
 2437SOL    HW218945   1.912   4.302  12.050  1.2198  0.4966 -0.6883
 2438SOL     OW18946   4.424   0.506   8.648  0.0503  0.3583  0.1727
 2438SOL    HW118947   4.507   0.545   8.676  0.1076  0.2108  0.2087
 2438SOL    HW218948   4.421   0.512   8.553  3.1920 -3.0616 -0.1418
 2439SOL     OW18949   0.213   2.739  13.372  0.3708  0.2141 -0.0721
 2439SOL    HW118950   0.281   2.672  13.366 -1.6240 -1.7241 -0.8344
 2439SOL    HW218951   0.215   2.781  13.458 -2.2573  1.4275 -0.6149
 2440SOL     OW18952   3.400   4.440  16.758  0.1521  0.2422  0.5714
 2440SOL    HW118953   3.320   4.435  16.705  0.4936  1.2721 -0.0333
 2440SOL    HW218954   3.455   4.489  16.697 -2.2616  0.1317 -1.6783
 2441SOL     OW18955   1.891   4.442   2.764  0.3273 -0.4167  0.2241
 2441SOL    HW118956   1.961   4.379   2.784  0.4813 -0.0790  0.7601
 2441SOL    HW218957   1.914   4.464   2.674 -2.1648 -0.3271 -0.3810
 2442SOL     OW18958   4.081   3.752   2.734 -0.3739 -0.2858  0.0883
 2442SOL    HW118959   4.021   3.824   2.720 -1.5559 -0.9576  1.5999
 2442SOL    HW218960   4.167   3.784   2.707  0.4100 -1.2106  1.4229
 2443SOL     OW18961   0.265   4.180  15.529  0.4196 -0.3835 -0.1607
 2443SOL    HW118962   0.293   4.217  15.612 -0.0943  0.8074 -0.5168
 2443SOL    HW218963   0.306   4.240  15.467 -0.1599  1.1400  0.9448
 2444SOL     OW18964   0.820   3.327  16.318 -0.1661 -0.5728  0.3846
 2444SOL    HW118965   0.726   3.337  16.305 -0.2162 -2.1621 -0.3899
 2444SOL    HW218966   0.858   3.394  16.261 -1.4575 -1.4660 -1.5024
 2445SOL     OW18967   3.435   4.193   3.053  0.2806 -0.0016 -0.2556
 2445SOL    HW118968   3.476   4.161   2.973  0.0017 -2.3606  0.5384
 2445SOL    HW218969   3.484   4.172   3.133 -0.9630 -2.3057 -0.0861
 2446SOL     OW18970   3.526   1.386   2.438 -0.1003 -0.3164 -0.2415
 2446SOL    HW118971   3.539   1.292   2.450 -2.3421 -0.8960 -2.3801
 2446SOL    HW218972   3.458   1.389   2.371 -0.8282  1.2684  0.5820
 2447SOL     OW18973   3.057   4.532   5.507  0.0173 -0.0596  0.8294
 2447SOL    HW118974   3.059   4.452   5.560  1.2004 -0.8263 -0.3968
 2447SOL    HW218975   3.122   4.576   5.562  0.1557  1.1255 -0.2897
 2448SOL     OW18976   0.082   2.623   9.485 -0.0551  0.0715 -0.0409
 2448SOL    HW118977   0.035   2.575   9.553  1.7011  2.0324  2.5715
 2448SOL    HW218978   0.106   2.540   9.445  0.5280  0.2742 -0.1126
 2449SOL     OW18979   2.380   1.985  11.533 -0.4415 -0.3347  0.2870
 2449SOL    HW118980   2.384   2.064  11.588  1.5530 -2.0144  2.4981
 2449SOL    HW218981   2.353   1.908  11.582  0.1619  0.2590  1.5398
 2450SOL     OW18982   0.511   4.479   4.899 -0.4880  0.4052 -0.0309
 2450SOL    HW118983   0.554   4.549   4.851 -0.3192  0.9581  0.9265
 2450SOL    HW218984   0.422   4.487   4.867  0.8866  1.1070 -3.6723
 2451SOL     OW18985   4.270   0.996   7.400  0.0839 -1.0787 -0.4079
 2451SOL    HW118986   4.184   0.978   7.438 -0.4954  1.4925 -0.5132
 2451SOL    HW218987   4.319   0.920   7.431 -1.3756 -0.5263  3.3010
 2452SOL     OW18988   4.473   3.475  13.832 -0.4333 -0.1377  0.7326
 2452SOL    HW118989   4.473   3.568  13.855 -0.2886 -0.0700  0.4571
 2452SOL    HW218990   4.564   3.446  13.832 -0.6060 -0.6844  0.6206
 2453SOL     OW18991   0.117   3.837   4.413  0.1808 -0.1136 -0.1713
 2453SOL    HW118992   0.088   3.763   4.467  2.5447  1.3269  3.0682
 2453SOL    HW218993   0.036   3.841   4.363 -0.6067 -1.4020  0.9842
 2454SOL     OW18994   0.932   1.891  14.540 -0.3089  0.0516 -0.1335
 2454SOL    HW118995   0.847   1.933  14.554 -0.6318 -0.2365 -1.3008
 2454SOL    HW218996   0.982   1.960  14.585 -1.4762  1.4358 -0.9701
 2455SOL     OW18997   3.255   3.854   5.147  0.1897  0.7761  0.2267
 2455SOL    HW118998   3.191   3.811   5.204  1.2317 -0.5630  0.3940
 2455SOL    HW218999   3.314   3.884   5.216 -0.3098 -1.6087  1.6766
 2456SOL     OW19000   0.035   2.352   2.889  0.6668 -0.1645  0.4495
 2456SOL    HW119001   4.674   2.337   2.882  0.6191  0.2061  0.2616
 2456SOL    HW219002   0.056   2.350   2.795  4.0840 -3.3167  1.2791
 2457SOL     OW19003   4.359   0.278  15.508 -0.2162  0.2254 -0.2110
 2457SOL    HW119004   4.398   0.264  15.594 -0.9296 -3.2352 -0.4344
 2457SOL    HW219005   4.348   0.192  15.467  1.8924  0.2633 -0.8691
 2458SOL     OW19006   1.607   0.829   3.619  0.0614 -0.1298  0.2591
 2458SOL    HW119007   1.602   0.909   3.671 -1.9206  0.7901 -1.3092
 2458SOL    HW219008   1.682   0.849   3.563 -1.0151  0.8715 -0.8363
 2459SOL     OW19009   0.696   2.618   8.821 -0.0280 -0.0375 -0.4250
 2459SOL    HW119010   0.652   2.671   8.756  0.2121  1.2638  0.4712
 2459SOL    HW219011   0.740   2.679   8.880 -0.0949  1.0275 -1.4793
 2460SOL     OW19012   2.613   1.091   8.958 -0.1048 -0.0433  0.1030
 2460SOL    HW119013   2.633   1.000   8.939 -0.9244 -0.1428 -0.2989
 2460SOL    HW219014   2.697   1.135   8.945  0.7316 -2.1635 -1.5991
 2461SOL     OW19015   0.722   3.991   5.002 -0.2204  0.5552  0.5718
 2461SOL    HW119016   0.641   3.947   4.976  0.1962  0.3312 -0.3410
 2461SOL    HW219017   0.727   4.063   4.939 -1.3881 -0.2924 -0.4947
 2462SOL     OW19018   4.480   0.529  11.358 -0.1016 -0.0096  0.3155
 2462SOL    HW119019   4.472   0.471  11.434  0.3461  3.4427  2.9791
 2462SOL    HW219020   4.392   0.556  11.334 -0.1036 -0.0103  0.3222
 2463SOL     OW19021   4.201   0.557  15.809 -0.4228  0.5600  0.3033
 2463SOL    HW119022   4.121   0.521  15.772  0.9978 -1.1767 -1.0729
 2463SOL    HW219023   4.158   0.621  15.866 -0.3558  0.7210  0.1740
 2464SOL     OW19024   2.333   4.092   8.325  0.1124 -0.0300 -0.1504
 2464SOL    HW119025   2.398   4.062   8.261  1.0692  1.7508 -0.0098
 2464SOL    HW219026   2.313   4.181   8.297  1.3132 -0.0630 -1.1142
 2465SOL     OW19027   3.970   1.905   7.804  0.2537  0.7304 -0.1692
 2465SOL    HW119028   4.014   1.895   7.889 -2.2172  0.0711  1.0327
 2465SOL    HW219029   4.045   1.925   7.747 -0.6392  0.3838 -1.4529
 2466SOL     OW19030   3.402   4.536   4.174 -0.2938  0.1345 -0.3503
 2466SOL    HW119031   3.437   4.604   4.232  0.9271 -0.2638 -0.6098
 2466SOL    HW219032   3.318   4.522   4.218  0.5884  3.1346  2.3215
 2467SOL     OW19033   0.581   2.760   3.366 -0.4604  0.2231 -0.6634
 2467SOL    HW119034   0.649   2.730   3.428 -1.5530  1.7645  1.2645
 2467SOL    HW219035   0.602   2.699   3.295 -0.6690  1.4501 -1.7750
 2468SOL     OW19036   2.791   3.681   7.295  0.2081 -0.1969 -0.0102
 2468SOL    HW119037   2.873   3.689   7.246  0.3457 -2.3748 -0.1243
 2468SOL    HW219038   2.745   3.755   7.255  0.0992 -0.3664 -0.1969
 2469SOL     OW19039   2.859   3.580   8.584  0.0239  0.0230  0.8553
 2469SOL    HW119040   2.927   3.605   8.522 -2.1040  0.0143 -1.4794
 2469SOL    HW219041   2.781   3.605   8.535  0.2053  0.1317  0.6198
 2470SOL     OW19042   0.935   3.582   6.321 -0.7125  0.2187  0.0501
 2470SOL    HW119043   0.855   3.609   6.367 -0.5909 -0.6643  0.7721
 2470SOL    HW219044   0.901   3.499   6.287 -1.8503  0.6971  0.0147
 2471SOL     OW19045   3.589   1.116   2.457 -0.5420  0.0522 -0.2802
 2471SOL    HW119046   3.577   1.042   2.397  1.1072 -0.1358 -0.3800
 2471SOL    HW219047   3.543   1.079   2.532 -0.4086  1.4699  0.5019
 2472SOL     OW19048   0.782   4.295   7.396  0.4873 -0.8068 -0.2063
 2472SOL    HW119049   0.693   4.321   7.418  0.2211  0.0847 -2.3402
 2472SOL    HW219050   0.774   4.199   7.391 -0.3781 -0.6662 -1.7204
 2473SOL     OW19051   2.847   1.329  17.392 -0.1668  0.3181 -0.1789
 2473SOL    HW119052   2.880   1.377  17.468  0.3392 -0.5637  0.1544
 2473SOL    HW219053   2.833   1.243  17.431 -0.3054  0.3661 -0.1221
 2474SOL     OW19054   0.666   2.935   8.537 -0.1719 -0.0091  0.4622
 2474SOL    HW119055   0.614   3.013   8.558 -1.4835 -1.1548  1.4303
 2474SOL    HW219056   0.620   2.862   8.578  0.1464 -0.0560  0.7363
 2475SOL     OW19057   3.048   1.977   0.344 -0.3712 -0.2255 -0.3478
 2475SOL    HW119058   3.012   2.019   0.266 -1.1010  0.9842  0.6391
 2475SOL    HW219059   3.103   2.050   0.373 -1.9422  0.5357  0.7258
 2476SOL     OW19060   0.162   1.137   7.989  0.2931  0.1954  0.2593
 2476SOL    HW119061   0.123   1.085   8.059  0.0801  3.7249  2.7911
 2476SOL    HW219062   0.248   1.102   7.968  0.2313  1.4911 -2.1748
 2477SOL     OW19063   4.071   0.806   7.963  0.5389  0.7633 -0.2407
 2477SOL    HW119064   4.077   0.845   8.050  2.5108  0.5526 -0.2820
 2477SOL    HW219065   3.992   0.756   7.982  0.3011  1.5767  0.8992
 2478SOL     OW19066   3.751   0.487   7.138 -0.0328  0.0704  0.2301
 2478SOL    HW119067   3.794   0.414   7.092 -0.2619 -0.0752  0.2475
 2478SOL    HW219068   3.681   0.504   7.075  1.0936 -0.5321 -1.1839
 2479SOL     OW19069   0.780   4.160  16.830 -0.1902  0.0937  0.3367
 2479SOL    HW119070   0.864   4.134  16.868 -0.3240  0.2457  0.7402
 2479SOL    HW219071   0.722   4.105  16.883  0.4265 -1.3408 -0.4550
 2480SOL     OW19072   0.445   4.356   3.211  1.1149  0.6988 -0.4078
 2480SOL    HW119073   0.525   4.304   3.222 -0.2070 -1.5478 -1.2756
 2480SOL    HW219074   0.388   4.316   3.277 -0.0310  1.4819 -0.9352
 2481SOL     OW19075   2.525   0.164   6.174 -0.0388  0.1418 -0.3755
 2481SOL    HW119076   2.602   0.215   6.200  0.2059 -1.3997  1.8791
 2481SOL    HW219077   2.508   0.193   6.084  0.1690 -0.5340 -0.6299
 2482SOL     OW19078   3.211   0.883  11.066  0.5077  0.3503 -0.0332
 2482SOL    HW119079   3.147   0.931  11.012  0.7273  1.8090  1.0126
 2482SOL    HW219080   3.262   0.952  11.109 -0.7208 -1.2019  3.8711
 2483SOL     OW19081   1.645   3.603  16.107  0.2493 -0.0878 -0.5237
 2483SOL    HW119082   1.584   3.533  16.084 -0.3584 -0.1437  1.2630
 2483SOL    HW219083   1.678   3.570  16.191 -0.0831 -0.7111 -0.6369
 2484SOL     OW19084   4.239   0.656   3.782 -0.1884  0.1847 -0.3383
 2484SOL    HW119085   4.188   0.623   3.856  0.4668  1.9013  0.8767
 2484SOL    HW219086   4.326   0.653   3.820 -0.7763  2.7282  1.1810
 2485SOL     OW19087   2.286   0.560   8.912  0.2012 -0.2674 -0.0489
 2485SOL    HW119088   2.203   0.572   8.958 -0.1297  1.0808 -0.9952
 2485SOL    HW219089   2.326   0.632   8.960  0.2539 -0.6009  0.4057
 2486SOL     OW19090   2.740   4.558  11.000  0.0603 -0.0287 -0.1337
 2486SOL    HW119091   2.815   4.532  10.948  0.1614 -1.4030  0.7217
 2486SOL    HW219092   2.740   4.479  11.053  1.0735  0.1697  0.1600
 2487SOL     OW19093   2.665   1.180  16.597  0.4263  0.0905  0.4496
 2487SOL    HW119094   2.709   1.145  16.519 -1.3213 -0.2758 -0.3771
 2487SOL    HW219095   2.672   1.103  16.653  1.1823 -0.2497 -0.1199
 2488SOL     OW19096   0.930   0.155   5.181 -0.0184  0.0001  0.5241
 2488SOL    HW119097   0.866   0.109   5.127 -0.0885  0.2183  0.4216
 2488SOL    HW219098   0.992   0.083   5.185 -0.0907 -0.0130  1.4109
 2489SOL     OW19099   2.468   2.133   3.230 -0.0599  0.0812 -0.7980
 2489SOL    HW119100   2.514   2.050   3.218 -0.1012  0.0689 -0.8695
 2489SOL    HW219101   2.520   2.166   3.303 -0.3950  1.3962 -1.1371
 2490SOL     OW19102   3.678   1.241   9.621  0.5785  0.5853  0.0252
 2490SOL    HW119103   3.753   1.186   9.597 -0.1006 -0.7087  0.8034
 2490SOL    HW219104   3.712   1.295   9.693 -1.8681 -0.0473  1.6707
 2491SOL     OW19105   4.676   0.086  12.877 -0.4473  0.4766  0.3460
 2491SOL    HW119106   4.663   0.066  12.785  0.3407  2.5437 -0.2133
 2491SOL    HW219107   4.625   0.014  12.914 -0.2198 -0.8802 -2.0400
 2492SOL     OW19108   1.877   2.091   5.672 -0.2446 -0.2904  0.3180
 2492SOL    HW119109   1.786   2.108   5.650 -0.0769  2.2299  1.5650
 2492SOL    HW219110   1.907   2.044   5.595  1.5858 -0.0882  0.9025
 2493SOL     OW19111   4.473   0.306  16.643 -0.2136  0.0289  0.3998
 2493SOL    HW119112   4.486   0.211  16.639  1.1225  0.2657 -0.6973
 2493SOL    HW219113   4.559   0.335  16.616 -0.3326  1.3123  1.4241
 2494SOL     OW19114   1.607   3.065   6.119 -0.1684  0.2706 -0.1636
 2494SOL    HW119115   1.596   3.032   6.208 -1.6598  1.8511  0.2461
 2494SOL    HW219116   1.548   3.011   6.067  0.3262 -1.3070  0.9344
 2495SOL     OW19117   3.881   4.360   0.957  0.4091  0.6679 -0.0307
 2495SOL    HW119118   3.930   4.359   0.874  0.3437  1.0908 -0.0710
 2495SOL    HW219119   3.833   4.442   0.952 -0.8287 -0.1500 -1.6086
 2496SOL     OW19120   1.148   2.295   2.428 -0.0704 -0.2625  0.2577
 2496SOL    HW119121   1.238   2.272   2.454  0.7230  2.9386  0.3023
 2496SOL    HW219122   1.155   2.362   2.360 -1.5050 -1.2945 -0.8944
 2497SOL     OW19123   0.231   3.161   2.382 -0.2729  1.0327 -0.4876
 2497SOL    HW119124   0.283   3.230   2.424  0.3870  0.7681 -0.8812
 2497SOL    HW219125   0.290   3.102   2.336  0.3002  0.4841  0.9564
 2498SOL     OW19126   4.030   1.182  10.509  0.0483 -0.0916 -0.2224
 2498SOL    HW119127   4.070   1.240  10.574  1.4754  0.4008 -1.5482
 2498SOL    HW219128   3.960   1.142  10.561 -1.9384 -0.0225 -2.8596
 2499SOL     OW19129   0.639   2.672   8.110  0.0740  0.2829 -0.1790
 2499SOL    HW119130   0.545   2.689   8.109  0.0680  0.2067 -0.7093
 2499SOL    HW219131   0.673   2.718   8.034  2.1057 -0.4100  0.3007
 2500SOL     OW19132   1.899   0.965   4.058  0.2194 -0.0829 -0.3488
 2500SOL    HW119133   1.911   0.997   4.147  1.4692 -0.7542 -0.2733
 2500SOL    HW219134   1.988   0.958   4.022 -1.2535 -2.1815 -3.6357
 2501SOL     OW19135   3.978   4.478  16.785  0.3116  0.2430  0.4562
 2501SOL    HW119136   4.065   4.490  16.824 -0.2874 -0.2316  1.9047
 2501SOL    HW219137   3.990   4.458  16.692 -0.3618  2.6119 -0.1395
 2502SOL     OW19138   2.951   1.491   0.493  0.3578 -0.1685  0.1530
 2502SOL    HW119139   2.975   1.533   0.410 -0.7851 -2.0344 -1.1341
 2502SOL    HW219140   2.859   1.519   0.497 -0.3419 -2.4066 -0.5259
 2503SOL     OW19141   4.642   0.662  10.254  0.4440  0.4128 -0.2473
 2503SOL    HW119142   4.554   0.626  10.263  0.2976  1.1393  1.1998
 2503SOL    HW219143   4.687   0.579  10.267  1.2523  0.9219  0.2357
 2504SOL     OW19144   3.770   3.912   8.929 -0.0068 -0.3586  0.3096
 2504SOL    HW119145   3.771   3.906   9.024 -1.2876 -1.1601  0.2760
 2504SOL    HW219146   3.856   3.941   8.896  0.8299 -1.2780  1.7008
 2505SOL     OW19147   2.729   2.192   6.415  0.0954  0.6260  0.6397
 2505SOL    HW119148   2.706   2.109   6.374  0.9258 -0.1415  1.7353
 2505SOL    HW219149   2.815   2.173   6.454  0.2798  0.6960  0.2688
 2506SOL     OW19150   0.635   0.068  10.725  0.4220 -0.2001 -0.7591
 2506SOL    HW119151   0.581   0.057  10.647 -1.7120  2.4920  0.3710
 2506SOL    HW219152   0.607   0.153  10.759  0.9623  0.1989 -1.3098
 2507SOL     OW19153   2.058   1.432   6.509 -0.5226 -0.3037 -0.5677
 2507SOL    HW119154   2.039   1.465   6.597 -1.6283 -1.5267 -0.3550
 2507SOL    HW219155   2.085   1.345   6.538  1.0474 -0.2907 -2.0021
 2508SOL     OW19156   0.903   4.724   0.413  0.1460  0.1573  0.0758
 2508SOL    HW119157   0.920   4.728   0.507 -0.2236  2.4807  0.0305
 2508SOL    HW219158   0.991   0.017   0.383  0.5416 -0.5552  0.6381
 2509SOL     OW19159   0.714   4.483   5.567  0.4118 -0.6006 -0.1256
 2509SOL    HW119160   0.747   4.407   5.518 -1.9762 -2.7945  1.7147
 2509SOL    HW219161   0.643   4.440   5.613 -0.3742  0.3765 -0.4243
 2510SOL     OW19162   3.469   2.491   2.247 -0.5304  0.1172 -0.2152
 2510SOL    HW119163   3.458   2.580   2.280 -0.7582 -0.1078  0.3107
 2510SOL    HW219164   3.548   2.467   2.294 -0.4378  0.0661 -0.3973
 2511SOL     OW19165   1.618   0.499   2.790 -0.3317 -0.1475  0.1747
 2511SOL    HW119166   1.619   0.403   2.782 -0.0376 -0.2192  1.1684
 2511SOL    HW219167   1.529   0.522   2.763 -0.5647 -0.1676  0.9350
 2512SOL     OW19168   3.765   2.096  14.971 -0.0031 -0.8701  0.2745
 2512SOL    HW119169   3.854   2.124  14.949 -0.6157  1.3310  0.5783
 2512SOL    HW219170   3.785   2.004  14.987  0.4869 -0.8715 -0.3409
 2513SOL     OW19171   4.207   0.311   5.684  0.2004 -0.6422 -0.1496
 2513SOL    HW119172   4.123   0.267   5.667 -0.6304  1.1010 -0.5273
 2513SOL    HW219173   4.248   0.253   5.748  0.3547  0.9014  1.1647
 2514SOL     OW19174   2.246   2.241   4.405 -0.0513 -0.5354 -0.0697
 2514SOL    HW119175   2.162   2.204   4.378 -1.2151  1.6356  0.5839
 2514SOL    HW219176   2.237   2.258   4.499  1.0119  1.1827 -0.2780
 2515SOL     OW19177   2.088   2.989   0.924  0.0317  0.7933  0.0351
 2515SOL    HW119178   2.117   3.034   0.845  0.3104 -1.4051 -1.1401
 2515SOL    HW219179   2.157   2.923   0.931  0.5548  1.0769 -2.4361
 2516SOL     OW19180   0.164   4.408   6.748 -0.1552 -0.2053 -0.0715
 2516SOL    HW119181   0.160   4.407   6.653 -1.3600  0.5616 -0.0302
 2516SOL    HW219182   0.092   4.466   6.774 -1.4522 -1.0609 -1.7651
 2517SOL     OW19183   2.103   3.128   0.667 -0.1918  0.2496 -0.1058
 2517SOL    HW119184   2.058   3.177   0.598 -0.1977 -1.5179 -1.3580
 2517SOL    HW219185   2.190   3.119   0.627  1.0595 -0.0548  2.6844
 2518SOL     OW19186   0.537   1.511   9.235 -0.2010  0.7802 -0.2260
 2518SOL    HW119187   0.538   1.553   9.150  1.5245  1.0326 -0.0772
 2518SOL    HW219188   0.540   1.420   9.204 -1.3403  0.8038 -0.4022
 2519SOL     OW19189   4.554   1.591  10.314 -0.0982  0.2615  0.2978
 2519SOL    HW119190   4.601   1.515  10.278  0.1940  0.2341  0.7419
 2519SOL    HW219191   4.478   1.551  10.356  1.4577 -1.5410  1.3959
 2520SOL     OW19192   1.336   2.256   3.779  0.1202 -0.4461 -0.9390
 2520SOL    HW119193   1.382   2.174   3.761 -0.1268 -1.4253  2.7538
 2520SOL    HW219194   1.344   2.311   3.702 -1.3034 -0.3949 -1.0607
 2521SOL     OW19195   2.440   0.793   8.056  0.3509  0.3371  0.1675
 2521SOL    HW119196   2.482   0.850   8.121  0.7538 -1.0653  1.1268
 2521SOL    HW219197   2.498   0.717   8.056 -1.7262 -1.2484 -2.4960
 2522SOL     OW19198   4.509   3.779   7.619  0.3952  0.2275 -0.0971
 2522SOL    HW119199   4.560   3.736   7.550  0.6079  1.2558 -0.5693
 2522SOL    HW219200   4.578   3.792   7.684  0.7941 -0.4502 -0.3889
 2523SOL     OW19201   0.097   1.494  12.935 -0.0118 -0.3010 -0.3154
 2523SOL    HW119202   0.112   1.422  12.873  2.6947  2.0792 -2.4518
 2523SOL    HW219203   0.005   1.506  12.911 -0.0306  0.2642  0.0642
 2524SOL     OW19204   4.725   4.352   3.322 -0.0625  0.4055 -0.1635
 2524SOL    HW119205   4.654   4.414   3.306 -1.0954 -0.7289 -0.0053
 2524SOL    HW219206   0.008   4.366   3.416 -5.2137 -2.3958  1.1221
 2525SOL     OW19207   0.916   1.412   8.057 -0.3087  1.0038  0.0318
 2525SOL    HW119208   0.918   1.507   8.069 -3.1999  0.9607  0.8639
 2525SOL    HW219209   0.833   1.404   8.009 -0.7416 -2.1757  1.3331
 2526SOL     OW19210   4.138   3.079   2.410 -0.1322 -0.0800 -0.4134
 2526SOL    HW119211   4.201   3.134   2.457 -0.8945 -0.9162  1.5837
 2526SOL    HW219212   4.056   3.084   2.460 -0.0018 -0.0951 -0.1966
 2527SOL     OW19213   1.616   4.462   3.488 -0.3040  0.1556  0.1280
 2527SOL    HW119214   1.693   4.464   3.545 -0.7768  0.5100  0.7493
 2527SOL    HW219215   1.602   4.557   3.484 -1.4950 -0.1302 -2.6337
 2528SOL     OW19216   4.069   0.875   1.979  0.2039 -0.7107 -0.1852
 2528SOL    HW119217   4.023   0.813   1.922  1.5741 -1.2507 -0.7063
 2528SOL    HW219218   4.158   0.839   1.971 -0.0799 -1.1564 -1.4515
 2529SOL     OW19219   0.668   0.138   4.649  0.3037 -0.0234 -0.7117
 2529SOL    HW119220   0.622   0.209   4.693  0.5384 -1.4720  1.8430
 2529SOL    HW219221   0.728   0.178   4.586 -0.6264  1.1041 -0.8734
 2530SOL     OW19222   1.432   4.112   2.603 -0.2175 -0.2052  0.3155
 2530SOL    HW119223   1.507   4.154   2.645  0.7662 -2.6157  1.0100
 2530SOL    HW219224   1.365   4.167   2.643 -1.1241 -0.4052 -0.9226
 2531SOL     OW19225   3.344   3.941   9.442  0.0073  0.1259  0.4541
 2531SOL    HW119226   3.424   3.973   9.482 -0.8406  0.7416  1.6586
 2531SOL    HW219227   3.378   3.857   9.410 -0.5639 -0.2553  0.8311
 2532SOL     OW19228   2.809   0.238   4.355  0.3975 -0.0108  0.5503
 2532SOL    HW119229   2.721   0.205   4.341  1.2837 -1.4990 -1.5219
 2532SOL    HW219230   2.812   0.277   4.268  0.7395  1.5878  1.2767
 2533SOL     OW19231   3.461   4.626  13.480 -0.5177  0.0075  0.3293
 2533SOL    HW119232   3.507   4.674  13.411  0.8796 -2.9993 -0.8525
 2533SOL    HW219233   3.403   4.569  13.428  0.3623  1.0882 -1.8450
 2534SOL     OW19234   2.991   2.051  13.143 -0.0923  0.2159  0.1643
 2534SOL    HW119235   2.958   2.022  13.058 -0.6046  0.0039  0.4308
 2534SOL    HW219236   2.987   1.969  13.192  1.0197  1.0645  1.6864
 2535SOL     OW19237   2.336   2.092   6.062  0.3146  0.1503  0.5520
 2535SOL    HW119238   2.285   2.025   6.109 -1.2672  0.6157 -0.5134
 2535SOL    HW219239   2.356   2.041   5.984 -1.0669 -0.5975  0.6938
 2536SOL     OW19240   2.264   0.742   2.841 -0.2322 -0.2492 -0.1220
 2536SOL    HW119241   2.207   0.819   2.845  0.0917  0.0047 -0.4251
 2536SOL    HW219242   2.263   0.726   2.746 -2.3076  1.9236 -0.4711
 2537SOL     OW19243   0.793   4.161   5.962 -0.2107 -0.1568  0.3173
 2537SOL    HW119244   0.866   4.206   6.004  0.8350 -1.3616 -0.1886
 2537SOL    HW219245   0.817   4.165   5.869  1.3770  1.0961  0.7801
 2538SOL     OW19246   2.282   2.262   7.956  0.2023  0.1116  0.1710
 2538SOL    HW119247   2.285   2.333   7.891  0.4886 -0.2750 -0.2360
 2538SOL    HW219248   2.195   2.270   7.996 -0.8451  2.9293 -2.6587
 2539SOL     OW19249   0.888   2.936   8.377 -0.0514  0.2519 -1.0023
 2539SOL    HW119250   0.810   2.957   8.428  0.8533 -0.0373  0.4902
 2539SOL    HW219251   0.884   2.993   8.300 -0.5134 -1.4446 -2.2362
 2540SOL     OW19252   0.338   1.501  13.273 -0.4626 -0.1876  0.0254
 2540SOL    HW119253   0.270   1.465  13.330 -0.3356 -1.0681 -0.3788
 2540SOL    HW219254   0.390   1.424  13.249 -1.3247  0.5343 -4.0081
 2541SOL     OW19255   3.957   0.067   9.343  0.3068 -0.3936  0.2165
 2541SOL    HW119256   3.936   0.135   9.279  1.2659 -0.2012  0.1145
 2541SOL    HW219257   3.931   4.724   9.290 -0.5020  1.2545 -1.7467
 2542SOL     OW19258   3.018   3.925  17.260 -0.2812  0.0146 -0.4670
 2542SOL    HW119259   3.016   4.010  17.304  0.1643  0.9457 -2.2372
 2542SOL    HW219260   3.107   3.920  17.226 -0.7753 -0.1123 -1.7316
 2543SOL     OW19261   4.727   1.720   5.571 -0.0784  0.2526  0.0310
 2543SOL    HW119262   0.047   1.649   5.537 -1.3949  0.4392 -2.4101
 2543SOL    HW219263   0.019   1.726   5.663  0.6984 -0.3724 -0.1419
 2544SOL     OW19264   0.944   0.968   3.281 -0.7782  0.2298  1.0541
 2544SOL    HW119265   0.853   0.938   3.272 -1.4176  2.1788  1.1257
 2544SOL    HW219266   0.925   1.061   3.290  2.3053  0.9185  0.2157
 2545SOL     OW19267   0.929   1.130   4.482 -0.1110  0.4495 -0.8655
 2545SOL    HW119268   1.020   1.104   4.497 -0.1689  1.5716  1.4956
 2545SOL    HW219269   0.912   1.073   4.407  1.1581 -0.4826 -0.4337
 2546SOL     OW19270   0.896   0.697   4.701 -0.1634 -0.6940 -0.4703
 2546SOL    HW119271   0.914   0.734   4.614 -3.0974 -1.2890 -1.3375
 2546SOL    HW219272   0.874   0.606   4.681  2.5814 -1.3271 -0.5985
 2547SOL     OW19273   3.897   0.946  17.213  0.2695  0.1535  0.2315
 2547SOL    HW119274   3.950   0.869  17.194 -1.4417 -1.1378  0.6956
 2547SOL    HW219275   3.875   0.964  17.122  2.3196 -0.1758 -0.3273
 2548SOL     OW19276   4.210   1.116   2.363 -0.3505  0.1843 -0.0169
 2548SOL    HW119277   4.178   1.206   2.353 -0.1746  0.1094 -1.1961
 2548SOL    HW219278   4.295   1.129   2.322 -0.1221  1.6197  0.9120
 2549SOL     OW19279   4.301   4.234   8.671  0.0872 -0.5532  0.5533
 2549SOL    HW119280   4.303   4.294   8.597 -1.7083 -0.2685  0.7377
 2549SOL    HW219281   4.239   4.285   8.723 -1.0083 -1.0748 -0.2542
 2550SOL     OW19282   0.449   2.570   7.273  0.0268  0.5722  0.0119
 2550SOL    HW119283   0.499   2.492   7.250  0.4350  1.0551 -0.7551
 2550SOL    HW219284   0.503   2.632   7.224 -0.1992 -0.9993 -2.2353
 2551SOL     OW19285   2.028   4.259   7.519  0.6956  0.2505 -0.2963
 2551SOL    HW119286   1.995   4.325   7.458  1.3106  0.0649 -0.8259
 2551SOL    HW219287   1.946   4.211   7.530  2.4178 -2.3099  1.4871
 2552SOL     OW19288   0.249   1.747   5.240 -0.3680  0.2345 -0.5467
 2552SOL    HW119289   0.164   1.708   5.259 -1.2625  2.1148 -0.6260
 2552SOL    HW219290   0.237   1.760   5.146 -0.8025 -1.6237 -0.7420
 2553SOL     OW19291   0.134   4.509   3.173  0.2793 -0.0959  0.4995
 2553SOL    HW119292   0.099   4.428   3.209  0.7311  0.4575  2.1656
 2553SOL    HW219293   0.192   4.479   3.103 -0.1196  4.2083 -1.6884
 2554SOL     OW19294   0.016   1.019   8.213  0.0638  0.0960 -0.4275
 2554SOL    HW119295   4.692   1.091   8.240  1.3017  0.8084  0.2581
 2554SOL    HW219296   4.688   0.946   8.196  0.8524 -1.2152  2.3587
 2555SOL     OW19297   0.625   0.714   3.592  0.2936 -0.1301 -0.9560
 2555SOL    HW119298   0.684   0.647   3.557 -1.7279 -1.3618 -1.9997
 2555SOL    HW219299   0.540   0.703   3.550 -1.1319  2.1210  1.3193
 2556SOL     OW19300   0.312   1.066  16.943 -0.1131 -0.1938 -0.0885
 2556SOL    HW119301   0.244   1.024  16.890 -0.9476  0.2014  0.6720
 2556SOL    HW219302   0.311   1.154  16.905 -2.8874 -0.3371 -0.3641
 2557SOL     OW19303   3.041   4.715  12.291  0.0947  0.3042 -0.1414
 2557SOL    HW119304   3.135   4.711  12.307  0.0281 -1.1736 -0.1050
 2557SOL    HW219305   3.007   4.646  12.348  1.0561 -1.0373 -1.2007
 2558SOL     OW19306   4.092   1.386   2.376 -0.4547  0.1272 -0.2291
 2558SOL    HW119307   4.141   1.463   2.348 -1.1206  0.4108 -0.6238
 2558SOL    HW219308   4.005   1.425   2.383 -0.1944  0.8987 -1.2382
 2559SOL     OW19309   2.764   2.558   4.532 -0.4478  0.7121 -0.0595
 2559SOL    HW119310   2.685   2.561   4.478 -1.1778  3.1868  1.1700
 2559SOL    HW219311   2.760   2.462   4.537 -0.8032  0.7037 -0.4565
 2560SOL     OW19312   3.415   1.882   0.460  0.0473  0.5029  0.0582
 2560SOL    HW119313   3.373   1.855   0.542  0.5567  1.3344  0.5959
 2560SOL    HW219314   3.485   1.938   0.496  2.7952 -3.3474  0.7381
 2561SOL     OW19315   3.559   4.556   5.004  0.4363  0.3656  0.4803
 2561SOL    HW119316   3.645   4.567   5.044  0.7744  1.7277 -0.6132
 2561SOL    HW219317   3.516   4.630   5.047 -0.1420  1.0439 -1.2337
 2562SOL     OW19318   0.092   2.869   8.150  0.8397  0.0610 -0.5820
 2562SOL    HW119319   0.015   2.925   8.156  1.4445  0.5946  2.2888
 2562SOL    HW219320   0.161   2.908   8.205  0.9232  2.0132 -2.0521
 2563SOL     OW19321   4.611   4.685   0.055 -0.5460 -0.6664  0.2123
 2563SOL    HW119322   4.593   4.622   0.125 -2.6170 -3.0253 -2.4686
 2563SOL    HW219323   4.675   4.638   0.001 -1.8616 -1.8173 -0.3327
 2564SOL     OW19324   1.807   4.588  11.782  0.0738 -0.1641  0.6439
 2564SOL    HW119325   1.833   4.588  11.689 -1.9257 -0.4224  0.0887
 2564SOL    HW219326   1.814   4.680  11.808 -0.0182 -0.1832  0.7321
 2565SOL     OW19327   1.121   3.942   6.991  0.3637  0.3930 -0.4015
 2565SOL    HW119328   1.191   3.944   6.925  0.9068 -0.6958  0.1413
 2565SOL    HW219329   1.163   3.978   7.068 -0.1768 -0.7101  0.4104
 2566SOL     OW19330   3.292   1.481  15.903 -0.3918 -0.1588  0.6086
 2566SOL    HW119331   3.364   1.418  15.904 -0.2919 -0.0445  0.7356
 2566SOL    HW219332   3.287   1.513  15.993 -1.1701  0.6445  0.2796
 2567SOL     OW19333   2.403   3.329   4.957 -0.4167 -0.2608  0.4140
 2567SOL    HW119334   2.371   3.248   4.997 -0.4164 -0.5444 -0.1637
 2567SOL    HW219335   2.436   3.293   4.875 -0.1840  1.6631 -0.3430
 2568SOL     OW19336   4.627   2.524  17.627 -1.2177 -0.4686 -0.5109
 2568SOL    HW119337   4.584   2.555  17.547 -0.4096 -1.5616 -1.3682
 2568SOL    HW219338   4.588   2.437  17.617  0.4133 -1.1456 -0.9704
 2569SOL     OW19339   3.658   0.471   7.379 -0.1294 -0.1953  0.4968
 2569SOL    HW119340   3.599   0.546   7.382  0.3676  0.1455  1.7996
 2569SOL    HW219341   3.701   0.475   7.294 -0.8359 -1.2992  0.0776
 2570SOL     OW19342   4.088   2.018   3.046 -0.3341  0.3354  0.4074
 2570SOL    HW119343   3.996   1.995   3.040  0.3609 -2.3549  0.2825
 2570SOL    HW219344   4.125   1.936   3.078 -0.3196  0.1631 -0.0541
 2571SOL     OW19345   0.275   1.436  11.230  0.6170 -0.3121  0.6593
 2571SOL    HW119346   0.188   1.400  11.244 -0.3230  2.3342  1.5725
 2571SOL    HW219347   0.276   1.504  11.298  0.1555  0.4185 -0.0691
 2572SOL     OW19348   1.868   3.998   6.902  0.4635  0.0834 -0.1521
 2572SOL    HW119349   1.831   4.072   6.950 -0.1660 -0.5598  0.3611
 2572SOL    HW219350   1.954   3.998   6.944  1.1057  0.8840 -1.4488
 2573SOL     OW19351   1.883   4.526   3.039 -0.1824 -0.2079  0.0795
 2573SOL    HW119352   1.894   4.509   2.945 -0.1639  1.8263 -0.2798
 2573SOL    HW219353   1.815   4.593   3.037  0.4715  0.4286 -1.4953
 2574SOL     OW19354   0.974   2.588   5.125 -0.3332 -0.3492 -0.0236
 2574SOL    HW119355   1.044   2.586   5.060  1.3576  3.1560  1.7024
 2574SOL    HW219356   0.996   2.672   5.165  0.7408 -0.6734  0.0566
 2575SOL     OW19357   0.789   3.900  15.061 -0.2119 -0.5870  0.0967
 2575SOL    HW119358   0.749   3.865  15.141 -0.4110 -1.5620 -0.4351
 2575SOL    HW219359   0.707   3.920  15.018  0.7606  0.0890 -1.4321
 2576SOL     OW19360   1.122   2.977   8.132  0.1874 -0.4183  0.2218
 2576SOL    HW119361   1.135   3.023   8.215 -1.7645  1.0953 -0.3159
 2576SOL    HW219362   1.027   2.977   8.121  0.4522  0.1040 -2.0322
 2577SOL     OW19363   4.732   4.688  16.672 -0.0054 -0.0038 -0.5695
 2577SOL    HW119364   0.036   0.025  16.617 -1.5259  0.7750 -0.5937
 2577SOL    HW219365   0.026   4.617  16.614  0.3875 -0.5506  0.2852
 2578SOL     OW19366   3.496   0.163   9.664 -0.2961  0.6077  0.1450
 2578SOL    HW119367   3.568   0.172   9.726 -1.2337  2.2185  1.0222
 2578SOL    HW219368   3.524   0.095   9.603 -1.4578  0.7251 -0.5388
 2579SOL     OW19369   3.219   3.859   2.259 -0.3967 -0.0690  0.4862
 2579SOL    HW119370   3.224   3.763   2.253 -0.5665 -0.1251  1.1724
 2579SOL    HW219371   3.309   3.889   2.269 -0.5594  0.4303  0.4137
 2580SOL     OW19372   0.821   1.506   5.073  0.5144  0.0941  0.4869
 2580SOL    HW119373   0.763   1.581   5.058  1.3645  0.4768 -0.8903
 2580SOL    HW219374   0.757   1.436   5.067  0.9150 -0.2056 -0.2144
 2581SOL     OW19375   3.351   2.723   7.279  0.5264  0.0066 -0.1581
 2581SOL    HW119376   3.383   2.811   7.300 -0.7589  0.9113 -2.0680
 2581SOL    HW219377   3.258   2.742   7.289  0.1521 -1.0119 -1.7658
 2582SOL     OW19378   2.194   0.749   3.526  0.0362 -0.0723 -0.4211
 2582SOL    HW119379   2.211   0.675   3.585 -0.0792  1.9405  2.1419
 2582SOL    HW219380   2.286   0.772   3.517 -0.5161  2.6460  1.1044
 2583SOL     OW19381   1.139   2.187   8.881 -0.3711  0.5099 -0.3116
 2583SOL    HW119382   1.112   2.267   8.925  2.8638  0.9570  0.8299
 2583SOL    HW219383   1.179   2.137   8.952 -0.2337  3.4193  1.6389
 2584SOL     OW19384   2.855   2.529  15.918  0.3803  0.4144  0.2637
 2584SOL    HW119385   2.814   2.570  15.841 -3.1309 -1.0081  1.3833
 2584SOL    HW219386   2.896   2.603  15.963 -0.9992  1.1090  0.4096
 2585SOL     OW19387   4.698   1.655   5.184  0.4872  0.1393 -0.0279
 2585SOL    HW119388   4.682   1.581   5.243 -1.0405  1.4765  1.2227
 2585SOL    HW219389   4.628   1.639   5.121 -0.4639  3.7571  0.1024
 2586SOL     OW19390   3.156   1.103  13.271  0.1938  0.6305  0.0435
 2586SOL    HW119391   3.063   1.107  13.250  0.2708  0.0948 -0.4197
 2586SOL    HW219392   3.177   1.196  13.264 -0.6094  0.6985 -1.5636
 2587SOL     OW19393   2.203   3.363   8.249  0.0009 -0.0527  0.6796
 2587SOL    HW119394   2.210   3.456   8.270 -1.5034  0.0650  0.7029
 2587SOL    HW219395   2.115   3.357   8.286 -0.9525  1.2614 -1.4220
 2588SOL     OW19396   2.505   1.447   4.338  0.4833 -0.0357 -0.5189
 2588SOL    HW119397   2.577   1.502   4.369 -0.7823 -0.4411  3.1729
 2588SOL    HW219398   2.451   1.420   4.412  0.5304 -2.0164 -1.2201
 2589SOL     OW19399   2.741   2.670   6.679  0.4274 -0.2608  0.0568
 2589SOL    HW119400   2.657   2.709   6.704  0.2877 -0.4288 -0.1437
 2589SOL    HW219401   2.724   2.659   6.585  0.4113 -0.6000  0.0987
 2590SOL     OW19402   3.442   2.801   3.233 -0.0946  0.3418 -0.8367
 2590SOL    HW119403   3.413   2.865   3.168 -1.7242 -0.3187 -0.7693
 2590SOL    HW219404   3.357   2.763   3.254 -0.6645  0.1141 -3.4531
 2591SOL     OW19405   1.994   3.587   5.710 -0.0294  0.2631  0.5314
 2591SOL    HW119406   1.965   3.606   5.621 -1.1634 -2.1367  0.3892
 2591SOL    HW219407   1.949   3.502   5.714  1.6070 -0.6203 -0.1222
 2592SOL     OW19408   3.354   4.121   4.745  0.0026 -0.3603 -0.4243
 2592SOL    HW119409   3.375   4.046   4.801 -1.0322  0.3379  0.8897
 2592SOL    HW219410   3.371   4.200   4.796 -1.2428  1.2223 -2.4547
 2593SOL     OW19411   2.058   0.453  12.004  0.1534  0.3940  0.1809
 2593SOL    HW119412   1.985   0.401  12.038 -0.8876  1.8378  0.1268
 2593SOL    HW219413   2.033   0.458  11.912  2.0243  1.6014 -0.2696
 2594SOL     OW19414   0.050   0.658   3.708  0.1161 -0.3075 -0.0588
 2594SOL    HW119415   0.113   0.705   3.762 -1.0116 -0.6473  1.5719
 2594SOL    HW219416   0.084   0.667   3.619 -0.0579 -0.6856 -0.1621
 2595SOL     OW19417   2.303   4.725   4.637  0.0806  0.3802 -0.1154
 2595SOL    HW119418   2.254   0.073   4.621 -0.2198 -0.0795 -1.5514
 2595SOL    HW219419   2.240   4.655   4.656  0.0642  0.6185  0.6920
 2596SOL     OW19420   0.683   0.137   5.012  0.0840  0.0748  0.2373
 2596SOL    HW119421   0.662   0.054   4.970  0.0189  1.0375 -1.6173
 2596SOL    HW219422   0.610   0.194   4.989  0.0355  0.5143  1.4938
 2597SOL     OW19423   4.572   0.402  17.327 -0.2428  0.4462 -0.1534
 2597SOL    HW119424   4.596   0.354  17.406 -1.6462  0.7326  0.4463
 2597SOL    HW219425   4.579   0.489  17.367 -1.5058 -0.6713  2.5026
 2598SOL     OW19426   2.665   0.611   9.746  0.0276 -0.2060  0.4381
 2598SOL    HW119427   2.721   0.567   9.810 -0.3597 -3.5495 -1.4806
 2598SOL    HW219428   2.595   0.548   9.724  1.0733 -1.1935 -0.0473
 2599SOL     OW19429   0.101   2.901   6.896 -0.5553  0.1719  0.3331
 2599SOL    HW119430   0.188   2.869   6.920 -0.6304  0.2083  0.6469
 2599SOL    HW219431   0.059   2.822   6.863  3.7366 -0.8895 -2.5557
 2600SOL     OW19432   2.284   2.396   4.935 -0.0180 -0.0075 -0.1966
 2600SOL    HW119433   2.230   2.471   4.960 -0.4562 -0.4808  0.2839
 2600SOL    HW219434   2.239   2.329   4.986 -0.4669  0.7322  0.3758
 2601SOL     OW19435   0.392   0.413   9.483  0.4686  0.4298 -0.0593
 2601SOL    HW119436   0.349   0.464   9.415  0.4847  1.1846  0.4980
 2601SOL    HW219437   0.432   0.355   9.418  2.0521 -0.6299  1.8619
 2602SOL     OW19438   0.743   2.904  14.777  0.5724 -0.5853  0.0769
 2602SOL    HW119439   0.802   2.980  14.778 -0.1931  0.0252 -1.5077
 2602SOL    HW219440   0.722   2.897  14.684 -0.2422 -0.9472  0.2897
 2603SOL     OW19441   0.317   4.049  17.500  0.1193 -0.1561  0.5710
 2603SOL    HW119442   0.371   4.126  17.484  0.5200 -0.9239 -1.8287
 2603SOL    HW219443   0.376   3.980  17.531 -1.6873 -2.4625 -1.0975
 2604SOL     OW19444   0.962   2.867  13.058 -0.4165 -0.2675  0.0815
 2604SOL    HW119445   1.039   2.923  13.049 -1.6469  1.7962  2.2570
 2604SOL    HW219446   0.904   2.909  12.995 -2.1370  0.3563  2.0965
 2605SOL     OW19447   0.502   3.097   7.517 -0.6603  0.1940  0.2334
 2605SOL    HW119448   0.574   3.147   7.478 -0.5616 -0.1738 -0.0586
 2605SOL    HW219449   0.511   3.015   7.468 -2.2731 -0.2756  0.7097
 2606SOL     OW19450   0.829   0.348   3.868  0.6364 -0.4243  0.3003
 2606SOL    HW119451   0.767   0.341   3.796  0.8839  0.2553  0.0195
 2606SOL    HW219452   0.770   0.338   3.943 -0.6572  1.0179 -0.5090
 2607SOL     OW19453   3.163   0.695   2.641 -0.0962 -0.1178  0.6708
 2607SOL    HW119454   3.197   0.606   2.654 -1.2768 -0.5558  0.7645
 2607SOL    HW219455   3.244   0.745   2.649 -0.2976  0.2692  0.2912
 2608SOL     OW19456   4.127   1.874   1.033  0.0800 -0.1324  0.4318
 2608SOL    HW119457   4.073   1.885   1.111  0.5650  0.6286  0.6650
 2608SOL    HW219458   4.195   1.942   1.039 -0.1615  0.1986 -0.4911
 2609SOL     OW19459   1.500   2.934   2.410 -0.0553 -0.1972 -0.1923
 2609SOL    HW119460   1.426   2.925   2.471 -0.0862 -0.1396 -0.2207
 2609SOL    HW219461   1.569   2.973   2.464  2.1348 -1.4363 -2.0985
 2610SOL     OW19462   0.990   3.972   6.108 -0.0608  0.6435 -0.3772
 2610SOL    HW119463   0.904   3.971   6.149  0.1404  2.1513  0.1033
 2610SOL    HW219464   1.003   3.881   6.082 -1.0704  0.2463  0.5021
 2611SOL     OW19465   3.831   3.837   3.686 -0.1201  0.1530  0.3109
 2611SOL    HW119466   3.817   3.916   3.634  0.6920 -1.2325 -2.0131
 2611SOL    HW219467   3.740   3.807   3.687  0.4372 -1.6456 -1.8148
 2612SOL     OW19468   3.064   3.651   5.223  0.6898 -0.0446  0.0385
 2612SOL    HW119469   3.052   3.608   5.308  0.2096  1.4719  0.7307
 2612SOL    HW219470   3.008   3.598   5.165 -0.3030  2.2405 -1.0814
 2613SOL     OW19471   4.667   3.437   5.105  0.4826  0.4459  0.0811
 2613SOL    HW119472   4.650   3.385   5.028  0.5095 -2.4576  2.0394
 2613SOL    HW219473   4.655   3.381   5.182  2.2167  2.7947  2.0843
 2614SOL     OW19474   0.207   3.714   4.664  0.3594 -0.2370  0.0726
 2614SOL    HW119475   0.191   3.622   4.684 -2.0038 -0.0051 -0.7521
 2614SOL    HW219476   0.303   3.717   4.660  0.3892 -0.0111  0.9974
 2615SOL     OW19477   4.001   2.997   8.175  0.3425  0.0583  0.7609
 2615SOL    HW119478   4.096   3.008   8.181  0.3724 -0.4150  1.1933
 2615SOL    HW219479   3.998   2.906   8.204  0.7012 -0.3684 -0.5296
 2616SOL     OW19480   4.709   0.911   2.822  0.5573  0.1619  0.2151
 2616SOL    HW119481   4.644   0.843   2.838  0.4965 -0.0388 -0.8871
 2616SOL    HW219482   0.059   0.867   2.841 -0.0181 -0.1467  2.0747
 2617SOL     OW19483   3.576   1.141   5.379 -0.1331  0.1847 -0.2443
 2617SOL    HW119484   3.609   1.067   5.429 -2.1154 -0.6014 -0.1110
 2617SOL    HW219485   3.502   1.095   5.338 -0.9739  2.7926 -1.6721
 2618SOL     OW19486   0.920   0.607   3.967 -0.3199 -0.3403  0.3415
 2618SOL    HW119487   0.902   0.543   3.898 -4.1739  0.2025  0.8188
 2618SOL    HW219488   0.853   0.670   3.940 -2.2387 -2.1198  0.9828
 2619SOL     OW19489   4.155   0.469  17.241 -0.5393 -0.9436 -0.1426
 2619SOL    HW119490   4.222   0.416  17.199  0.1207 -0.7119  0.6317
 2619SOL    HW219491   4.108   0.502  17.165 -0.5752 -0.9112 -0.1068
 2620SOL     OW19492   4.220   4.538  16.931 -0.0605  0.0765 -0.2509
 2620SOL    HW119493   4.303   4.563  16.971 -1.3416  2.2236  1.1035
 2620SOL    HW219494   4.168   4.612  16.964 -0.6449 -0.5873  0.3238
 2621SOL     OW19495   0.460   3.747   2.496  0.1297  0.4540 -0.0617
 2621SOL    HW119496   0.415   3.771   2.415  2.3071  3.9655 -0.2586
 2621SOL    HW219497   0.550   3.778   2.482  0.1551  0.3216 -0.1895
 2622SOL     OW19498   0.361   2.665  11.053  0.4338  0.4151 -0.3559
 2622SOL    HW119499   0.383   2.653  10.961  0.0599 -0.6321 -0.3117
 2622SOL    HW219500   0.436   2.629  11.101 -1.4445 -1.9814  0.7914
 2623SOL     OW19501   2.140   3.132   4.221  0.1360  0.3314  0.0138
 2623SOL    HW119502   2.114   3.173   4.139  2.5406 -1.1052 -1.4592
 2623SOL    HW219503   2.142   3.039   4.197 -2.7435  0.1336  0.5789
 2624SOL     OW19504   3.403   1.196   4.730  0.4107 -0.2295  0.2624
 2624SOL    HW119505   3.346   1.252   4.783 -1.3097 -0.6800 -1.1174
 2624SOL    HW219506   3.359   1.194   4.645  1.2310  1.0559 -0.1929
 2625SOL     OW19507   3.438   4.163   4.032 -0.2913  0.1528 -0.3401
 2625SOL    HW119508   3.354   4.165   3.987 -0.8527  2.1545  0.8154
 2625SOL    HW219509   3.418   4.086   4.084 -2.9474 -0.7445 -2.6796
 2626SOL     OW19510   0.331   3.832   3.490  0.2466 -0.5592 -0.7850
 2626SOL    HW119511   0.307   3.742   3.467 -0.0974 -0.1851 -1.8809
 2626SOL    HW219512   0.426   3.835   3.477  0.5405 -0.7274  1.2851
 2627SOL     OW19513   1.050   3.668   4.526 -0.1614 -0.5743  0.1301
 2627SOL    HW119514   1.080   3.747   4.480  1.1753 -0.4874  1.1517
 2627SOL    HW219515   1.069   3.614   4.449  2.1668 -1.6080  1.4300
 2628SOL     OW19516   0.532   0.068   5.270  0.5705  0.2545  0.4583
 2628SOL    HW119517   0.524   0.149   5.321  1.4013  0.3150  0.4893
 2628SOL    HW219518   0.619   0.066   5.231  0.3587  0.0192 -0.0033
 2629SOL     OW19519   1.787   1.434   2.577  0.1256 -0.4466  0.0589
 2629SOL    HW119520   1.879   1.407   2.576  0.3209  0.2280 -0.2206
 2629SOL    HW219521   1.774   1.466   2.487  2.0914  0.7310  0.2057
 2630SOL     OW19522   3.131   4.446   8.988  0.1115 -0.0495  0.5212
 2630SOL    HW119523   3.146   4.539   8.977 -1.1760  0.3305  1.9095
 2630SOL    HW219524   3.065   4.462   9.056 -2.1849  3.0336 -2.4149
 2631SOL     OW19525   0.290   0.931   9.826  0.2898 -0.0957 -0.2578
 2631SOL    HW119526   0.290   1.005   9.887 -0.0499 -1.0113  0.8600
 2631SOL    HW219527   0.209   0.934   9.775  0.3104 -1.9550 -0.4151
 2632SOL     OW19528   2.575   1.981  11.987 -0.3737  0.3446 -0.0235
 2632SOL    HW119529   2.568   2.075  11.965 -1.0897  0.6283  1.4629
 2632SOL    HW219530   2.519   1.986  12.064 -1.2906  1.4295 -0.7583
 2633SOL     OW19531   3.204   3.148  10.043 -0.1004  0.2121 -0.1953
 2633SOL    HW119532   3.251   3.119   9.964  2.4124  0.2777  1.2725
 2633SOL    HW219533   3.164   3.062  10.057  0.1043  0.2696  0.7243
 2634SOL     OW19534   4.545   2.533  10.646 -0.7612  0.1466  0.0840
 2634SOL    HW119535   4.521   2.531  10.553 -0.0766  2.3222 -0.1599
 2634SOL    HW219536   4.545   2.628  10.660 -0.7870  0.1284  0.2004
 2635SOL     OW19537   0.483   1.339   9.982  0.2004  0.5290  0.1194
 2635SOL    HW119538   0.530   1.378   9.908 -1.9631  0.3069 -1.3723
 2635SOL    HW219539   0.549   1.308  10.045  1.3839  0.8814 -0.9395
 2636SOL     OW19540   1.055   3.731   0.784  0.0596  0.6132  0.4681
 2636SOL    HW119541   1.106   3.799   0.740 -1.4739  1.2000 -0.3934
 2636SOL    HW219542   1.113   3.657   0.766 -0.1129  0.6983 -0.4237
 2637SOL     OW19543   3.943   1.160  15.627  0.2154 -0.2849  0.1773
 2637SOL    HW119544   3.958   1.253  15.613  0.4674 -0.2271  0.8644
 2637SOL    HW219545   4.029   1.118  15.623  0.8992  1.2166 -0.9397
 2638SOL     OW19546   0.070   0.070   8.219 -0.6509  0.8008  0.7396
 2638SOL    HW119547   0.158   0.098   8.243 -0.5482  1.6222 -0.6110
 2638SOL    HW219548   0.096   4.720   8.178  0.4394  1.2495  0.5326
 2639SOL     OW19549   2.606   4.722   2.937 -0.2467 -0.0680  0.7648
 2639SOL    HW119550   2.700   0.003   2.949 -0.0001  0.8873 -2.1301
 2639SOL    HW219551   2.579   4.667   3.011  0.4429 -1.1942  0.1783
 2640SOL     OW19552   2.369   0.813   9.068  0.1094 -0.2450  0.5205
 2640SOL    HW119553   2.462   0.800   9.083  0.5807  0.5501 -1.6396
 2640SOL    HW219554   2.336   0.815   9.158 -0.9844 -2.6628  0.1752
 2641SOL     OW19555   4.643   1.070   3.911  0.0065 -0.2921 -0.4209
 2641SOL    HW119556   4.643   1.165   3.917 -0.9063 -0.2981 -0.2861
 2641SOL    HW219557   4.615   1.054   4.001 -2.7423  0.4026 -1.1456
 2642SOL     OW19558   3.971   2.325  15.880 -0.3755 -0.2835 -0.0774
 2642SOL    HW119559   4.034   2.254  15.869 -1.4371 -1.3039  0.5704
 2642SOL    HW219560   3.952   2.321  15.973 -0.4931  0.4577 -0.0700
 2643SOL     OW19561   1.363   3.364  17.250  0.4103  0.7671 -0.0381
 2643SOL    HW119562   1.309   3.304  17.302 -0.4203  2.8249  1.5247
 2643SOL    HW219563   1.445   3.315  17.253 -0.6128 -1.1042 -2.8161
 2644SOL     OW19564   1.260   4.090   1.164 -0.3200  0.7764 -0.2089
 2644SOL    HW119565   1.181   4.110   1.115  0.0712  0.4650 -0.9693
 2644SOL    HW219566   1.252   3.994   1.158 -2.3557  0.9624 -0.5199
 2645SOL     OW19567   3.124   3.350   3.882 -0.2838  0.0025  0.2814
 2645SOL    HW119568   3.166   3.418   3.934 -0.6626  0.4712 -0.0225
 2645SOL    HW219569   3.180   3.278   3.908  1.0901  0.5597 -1.1482
 2646SOL     OW19570   1.121   2.464   4.471  0.1398  0.0765 -0.4087
 2646SOL    HW119571   1.206   2.457   4.428 -0.9629  1.5392 -2.8442
 2646SOL    HW219572   1.133   2.419   4.554 -1.3105  1.9253  0.8240
 2647SOL     OW19573   4.671   2.981   4.252  0.3714 -0.2368 -0.1438
 2647SOL    HW119574   4.730   2.906   4.247 -0.4396 -0.9269  0.7417
 2647SOL    HW219575   4.698   3.028   4.173  0.4315 -0.6246 -0.3508
 2648SOL     OW19576   4.653   0.651   8.675  0.4192  0.3604 -0.4127
 2648SOL    HW119577   4.722   0.658   8.609  0.5524  0.8945 -0.2213
 2648SOL    HW219578   4.679   0.726   8.728 -0.0313  0.5208 -0.4134
 2649SOL     OW19579   1.684   1.443  15.754  0.0081  0.5629 -0.5809
 2649SOL    HW119580   1.760   1.441  15.812  1.1440  0.8876 -2.0462
 2649SOL    HW219581   1.698   1.378  15.684 -1.1669 -0.3019 -0.0157
 2650SOL     OW19582   2.957   0.209   6.416  0.4441 -0.1658 -0.5124
 2650SOL    HW119583   2.997   0.203   6.328  0.3178 -0.6998 -0.5343
 2650SOL    HW219584   2.871   0.171   6.397  0.7078 -0.7683 -0.5343
 2651SOL     OW19585   0.860   1.024  15.569 -0.6032 -0.2932 -0.2186
 2651SOL    HW119586   0.889   1.113  15.550  1.3570 -1.4274 -2.4981
 2651SOL    HW219587   0.791   1.029  15.504 -1.7596  0.4004  1.0724
 2652SOL     OW19588   3.667   4.485   2.379 -0.5970  0.0467 -0.1673
 2652SOL    HW119589   3.665   4.522   2.467 -0.2104 -0.7652  0.1878
 2652SOL    HW219590   3.745   4.429   2.380 -0.2247  0.5018 -2.2390
 2653SOL     OW19591   2.167   3.107   6.926 -0.3629  0.3847 -0.0794
 2653SOL    HW119592   2.247   3.158   6.939  0.3762 -1.6490  3.3391
 2653SOL    HW219593   2.135   3.098   7.016 -2.4274 -0.1021 -0.8594
 2654SOL     OW19594   3.626   4.098   2.876 -0.4741 -0.5324 -0.1167
 2654SOL    HW119595   3.692   4.039   2.913 -1.7618 -1.8026  0.1320
 2654SOL    HW219596   3.674   4.181   2.877 -3.0016  0.9196  0.4352
 2655SOL     OW19597   1.589   1.012   7.099  0.6861  0.1501 -0.5397
 2655SOL    HW119598   1.613   0.960   7.022 -0.2762  0.4362 -1.0261
 2655SOL    HW219599   1.666   1.065   7.122 -1.0301  2.7684 -0.9615
 2656SOL     OW19600   2.936   4.378   8.408 -0.3814  0.3772  0.2173
 2656SOL    HW119601   2.894   4.310   8.356 -0.2108  1.1905 -0.9828
 2656SOL    HW219602   3.009   4.415   8.359 -1.3552 -0.2606 -1.7080
 2657SOL     OW19603   3.736   4.063   4.542  0.4231 -0.3989  0.4170
 2657SOL    HW119604   3.652   4.024   4.565  0.2483 -1.3740 -1.8700
 2657SOL    HW219605   3.710   4.129   4.477 -0.8154 -1.1223  0.1811
 2658SOL     OW19606   0.608   4.045  14.914 -0.2610  0.1567 -0.3282
 2658SOL    HW119607   0.548   4.114  14.884 -1.0897  0.5191  2.1381
 2658SOL    HW219608   0.629   4.015  14.826 -3.9105 -1.0597 -0.7923
 2659SOL     OW19609   0.168   1.105  15.910 -0.0001  0.2725 -0.4490
 2659SOL    HW119610   0.124   1.086  15.827  0.3341 -0.8194 -0.3781
 2659SOL    HW219611   0.227   1.030  15.911  1.2231  1.2500  0.4886
 2660SOL     OW19612   0.637   1.725   7.388  0.1939 -0.1243 -0.0833
 2660SOL    HW119613   0.731   1.738   7.382  0.2470 -0.6823 -0.4485
 2660SOL    HW219614   0.637   1.649   7.331 -0.4756 -0.5925  0.5446
 2661SOL     OW19615   1.589   2.618   3.170  0.6591 -0.0959  0.0272
 2661SOL    HW119616   1.558   2.528   3.163  0.6862  0.0285 -1.6743
 2661SOL    HW219617   1.507   2.665   3.184  0.2234 -0.7084 -0.4696
 2662SOL     OW19618   2.117   1.397  11.821 -0.1068 -0.7239 -0.0688
 2662SOL    HW119619   2.150   1.387  11.910  1.5278 -1.2105 -0.7437
 2662SOL    HW219620   2.030   1.360  11.840 -0.5151 -0.1021 -0.7101
 2663SOL     OW19621   1.893   0.761   2.266 -0.0733 -0.6702 -0.5559
 2663SOL    HW119622   1.820   0.698   2.260 -0.0804 -0.9263  2.3883
 2663SOL    HW219623   1.924   0.747   2.355 -1.4750 -0.1596  0.0103
 2664SOL     OW19624   3.439   0.145   0.792 -0.0669 -0.6761  0.4770
 2664SOL    HW119625   3.526   0.167   0.825 -0.0050  0.9667 -0.8117
 2664SOL    HW219626   3.466   0.099   0.713 -0.1752 -1.2154  0.7542
 2665SOL     OW19627   0.844   1.561  13.296 -0.2009 -0.6783 -0.2459
 2665SOL    HW119628   0.756   1.537  13.326  0.2301 -1.9387  0.0054
 2665SOL    HW219629   0.862   1.654  13.313 -0.2571 -0.4438 -1.4548
 2666SOL     OW19630   1.726   2.089  10.505  1.0302  0.6141  0.1220
 2666SOL    HW119631   1.766   2.128  10.427  1.2204  0.1168 -0.0276
 2666SOL    HW219632   1.769   2.146  10.568  0.8786 -0.8499  1.5444
 2667SOL     OW19633   3.361   0.146  13.505 -0.4448  1.0973 -0.4516
 2667SOL    HW119634   3.391   0.057  13.491  0.2321  1.1287  0.8795
 2667SOL    HW219635   3.328   0.170  13.418 -1.3357 -0.7779 -0.6304
 2668SOL     OW19636   3.722   2.692   0.584  0.4785  0.8094  0.3414
 2668SOL    HW119637   3.715   2.684   0.679 -3.0053  1.7955  0.1619
 2668SOL    HW219638   3.810   2.729   0.574  2.2393 -3.6092 -0.7831
 2669SOL     OW19639   2.432   3.562   2.887 -0.9459 -0.3498 -0.2202
 2669SOL    HW119640   2.413   3.515   2.968  1.7251  0.1101  0.6771
 2669SOL    HW219641   2.393   3.647   2.907 -0.5729  0.1606 -1.6867
 2670SOL     OW19642   0.380   0.012   3.133  0.4262  0.3569 -0.3472
 2670SOL    HW119643   0.325   4.722   3.208 -0.3041  2.8333 -0.1323
 2670SOL    HW219644   0.362   4.681   3.064 -0.8367  2.0737 -1.6133
 2671SOL     OW19645   2.565   2.461   6.278  0.4025 -0.2144  0.2251
 2671SOL    HW119646   2.471   2.443   6.281  0.3384 -0.1331 -1.3533
 2671SOL    HW219647   2.586   2.404   6.203  2.1775  0.2346  0.3788
 2672SOL     OW19648   3.987   3.919  10.174 -0.2790 -0.5359  0.4157
 2672SOL    HW119649   4.001   3.854  10.242 -0.5939 -1.1985 -0.1466
 2672SOL    HW219650   4.016   4.000  10.216 -1.1355 -0.4068  0.7552
 2673SOL     OW19651   3.514   2.625   8.316 -0.3464 -0.2748 -0.2402
 2673SOL    HW119652   3.495   2.708   8.271 -1.7266  0.1381  1.1063
 2673SOL    HW219653   3.476   2.632   8.403  1.8951  1.3407  0.5909
 2674SOL     OW19654   0.103   2.539  12.198 -0.0807  0.1935  0.0016
 2674SOL    HW119655   0.038   2.469  12.202  2.4897 -2.1383  0.7558
 2674SOL    HW219656   0.141   2.535  12.110  1.3316 -0.0261  0.6277
 2675SOL     OW19657   0.340   3.751   2.727  0.2570  0.3663  0.2983
 2675SOL    HW119658   0.340   3.668   2.775 -1.9664 -1.1777 -2.3248
 2675SOL    HW219659   0.407   3.738   2.660  1.9710 -0.2256  2.1621
 2676SOL     OW19660   0.517   3.756  12.431  0.3274  0.3824 -0.3237
 2676SOL    HW119661   0.563   3.726  12.510 -1.7691 -0.1716  0.7031
 2676SOL    HW219662   0.432   3.771  12.472  1.5275  0.0281  2.3100
 2677SOL     OW19663   0.671   4.718   7.573 -0.0639  0.3356 -0.6725
 2677SOL    HW119664   0.594   4.664   7.555 -1.4284  2.1136 -0.2059
 2677SOL    HW219665   0.622   0.068   7.579 -1.8695 -0.9117  1.9194
 2678SOL     OW19666   0.063   3.507   6.709 -0.0826 -0.1539 -0.2061
 2678SOL    HW119667   0.016   3.543   6.634 -1.9825 -2.7155 -0.2779
 2678SOL    HW219668   0.053   3.413   6.689  1.1017 -0.4671  0.6897
 2679SOL     OW19669   3.826   4.598   8.862  0.5477  0.1346 -0.4474
 2679SOL    HW119670   3.911   4.643   8.863  0.7968 -0.3975  1.7456
 2679SOL    HW219671   3.858   4.523   8.812  2.2325  0.5136  0.0564
 2680SOL     OW19672   0.761   3.952  13.113  0.4247 -0.8925  0.2698
 2680SOL    HW119673   0.727   3.996  13.036 -2.4622 -3.1666  0.2293
 2680SOL    HW219674   0.850   3.987  13.111  0.0574  0.1649  2.3800
 2681SOL     OW19675   3.575   1.011   4.905  0.0347 -0.5782  0.1433
 2681SOL    HW119676   3.540   1.083   4.853 -1.5124 -0.6424  1.0866
 2681SOL    HW219677   3.551   1.048   4.990 -0.1062  0.4765 -0.3573
 2682SOL     OW19678   0.863   1.287   6.446  0.1025  0.1704  0.1521
 2682SOL    HW119679   0.908   1.367   6.420 -1.0735  1.8247  3.1428
 2682SOL    HW219680   0.917   1.251   6.517 -1.2787  1.7312  2.0245
 2683SOL     OW19681   3.271   0.996   7.496 -0.9802  0.1995 -0.1625
 2683SOL    HW119682   3.267   0.910   7.455 -1.7391 -0.3752  1.1234
 2683SOL    HW219683   3.235   0.969   7.581 -0.0814 -0.1694  0.1033
 2684SOL     OW19684   4.355   0.976  10.045 -0.1354 -0.0312  0.2887
 2684SOL    HW119685   4.284   0.922  10.010  0.4569  0.0315 -0.9737
 2684SOL    HW219686   4.389   1.020   9.968  0.9045 -1.9871 -0.3644
 2685SOL     OW19687   0.959   4.601   1.593  0.2192  0.1372  0.8352
 2685SOL    HW119688   1.040   4.552   1.605 -0.7313 -1.4707  0.6862
 2685SOL    HW219689   0.905   4.558   1.659  0.0664 -1.6363 -0.4550
 2686SOL     OW19690   2.695   0.553  17.291  0.0478 -0.3572 -0.1518
 2686SOL    HW119691   2.735   0.637  17.315 -0.7064 -0.9506  3.1039
 2686SOL    HW219692   2.755   0.488  17.328 -0.1102 -1.0050 -1.0353
 2687SOL     OW19693   0.634   3.720   2.259  0.0965 -0.7538 -0.1052
 2687SOL    HW119694   0.607   3.801   2.215 -0.3301 -0.8239  0.0265
 2687SOL    HW219695   0.729   3.732   2.256  0.2679 -1.9395  0.6529
 2688SOL     OW19696   3.868   0.068   1.004  0.4123  0.0347  0.2722
 2688SOL    HW119697   3.928   0.003   0.967 -0.0426 -0.0673 -0.2874
 2688SOL    HW219698   3.862   0.032   1.092 -3.4831 -1.0292 -0.4434
 2689SOL     OW19699   0.349   2.383   8.594  0.4497  0.3918 -0.3608
 2689SOL    HW119700   0.398   2.334   8.660 -1.4688 -0.6063  0.3246
 2689SOL    HW219701   0.308   2.304   8.559 -0.5450  1.1542 -0.9268
 2690SOL     OW19702   4.263   4.447  13.688 -0.0498 -0.1588  0.2449
 2690SOL    HW119703   4.235   4.537  13.703  0.9698 -0.1000  1.7937
 2690SOL    HW219704   4.174   4.413  13.694  0.2715 -1.0436  0.0572
 2691SOL     OW19705   0.467   0.170   2.819  0.3122  0.4010  0.2592
 2691SOL    HW119706   0.498   0.227   2.749 -0.3439 -0.7051 -0.9396
 2691SOL    HW219707   0.516   0.088   2.808 -0.9976 -0.2865 -0.3597
 2692SOL     OW19708   2.355   1.525   9.021 -0.2081  0.5768 -0.6440
 2692SOL    HW119709   2.280   1.481   9.062  0.3723  0.9263  0.8140
 2692SOL    HW219710   2.432   1.485   9.062 -0.1784  0.9578 -0.3335
 2693SOL     OW19711   4.582   1.594   7.153 -0.1561  0.0765  0.5728
 2693SOL    HW119712   4.634   1.533   7.099 -0.6007 -0.1486  0.3997
 2693SOL    HW219713   4.500   1.549   7.134  1.1462 -1.5643 -1.1968
 2694SOL     OW19714   0.505   2.962   7.769 -0.0913 -0.6706 -0.3396
 2694SOL    HW119715   0.472   2.969   7.680 -1.5287  2.4923  0.4433
 2694SOL    HW219716   0.509   3.053   7.802 -0.2540 -0.7689 -0.0441
 2695SOL     OW19717   2.864   3.927  15.899 -0.5298 -0.2501 -0.1819
 2695SOL    HW119718   2.947   3.941  15.854 -1.8209  1.1290 -2.1518
 2695SOL    HW219719   2.885   3.959  15.987 -1.5846  0.2465 -0.1090
 2696SOL     OW19720   1.529   4.111   1.198 -0.3335 -0.2060 -0.2189
 2696SOL    HW119721   1.441   4.122   1.163 -1.3547 -3.0916  1.3627
 2696SOL    HW219722   1.551   4.021   1.174  0.9877  0.4641 -1.4808
 2697SOL     OW19723   1.317   1.878   7.649 -0.4873 -0.0256 -0.2572
 2697SOL    HW119724   1.342   1.851   7.737  1.0048 -0.2974 -0.7631
 2697SOL    HW219725   1.320   1.973   7.646  0.8431 -0.1354 -3.0928
 2698SOL     OW19726   1.917   2.702  10.005  0.4819  0.1220 -0.0567
 2698SOL    HW119727   1.934   2.766  10.074 -2.1559 -0.0594  0.7701
 2698SOL    HW219728   1.951   2.747   9.928 -1.9909  0.0661 -1.1766
 2699SOL     OW19729   2.390   0.949   1.514 -0.4683  0.0500  0.1146
 2699SOL    HW119730   2.324   0.880   1.504 -0.2269 -0.2886  0.9053
 2699SOL    HW219731   2.323   1.011   1.542 -0.8412 -1.1644  1.9261
 2700SOL     OW19732   0.882   1.921  16.691  0.7034  0.3774 -0.0771
 2700SOL    HW119733   0.852   1.846  16.742 -0.6025  0.9658  0.0145
 2700SOL    HW219734   0.977   1.912  16.684  0.4591  0.4321 -3.7059
 2701SOL     OW19735   1.897   1.963   7.924  0.3393 -0.2139 -0.7577
 2701SOL    HW119736   1.850   1.939   7.845  0.9519  0.6753 -1.3944
 2701SOL    HW219737   1.975   2.007   7.890  1.2399 -1.4995 -0.3830
 2702SOL     OW19738   1.034   1.271   3.725  0.3563  0.5580 -0.7122
 2702SOL    HW119739   0.954   1.237   3.684 -0.1465 -1.4577  1.9524
 2702SOL    HW219740   1.081   1.323   3.660  0.7445  1.2967  0.1741
 2703SOL     OW19741   1.547   4.270   7.220 -0.3359  0.4002 -0.5197
 2703SOL    HW119742   1.487   4.252   7.293 -2.7507  0.7244 -2.4524
 2703SOL    HW219743   1.628   4.299   7.262  1.0380 -2.2320 -1.3644
 2704SOL     OW19744   0.911   1.025  11.549 -0.3686  0.5161 -0.1694
 2704SOL    HW119745   0.964   1.094  11.588  0.3189 -0.5152  0.7320
 2704SOL    HW219746   0.827   1.041  11.592  0.2103 -0.5957  1.3859
 2705SOL     OW19747   1.816   3.630  15.596 -0.7510 -0.0277  0.0462
 2705SOL    HW119748   1.769   3.626  15.679  0.5222  0.2888  0.7833
 2705SOL    HW219749   1.888   3.692  15.610  0.3828 -1.6340  1.3461
 2706SOL     OW19750   0.014   2.057   5.990  0.2708 -0.2682 -0.1083
 2706SOL    HW119751   4.700   2.135   5.962  2.4856  1.2748  0.5044
 2706SOL    HW219752   0.070   2.043   5.914 -0.0222  0.3185 -0.4302
 2707SOL     OW19753   0.967   2.986   1.953 -0.4267 -0.4849 -0.0631
 2707SOL    HW119754   0.885   2.947   1.985 -2.6328  2.0936 -2.5773
 2707SOL    HW219755   0.960   3.076   1.985  0.0242 -0.8568  1.0946
 2708SOL     OW19756   2.038   0.452   7.710 -0.1699 -0.3251 -0.0387
 2708SOL    HW119757   2.053   0.467   7.616 -0.6338 -0.1902 -0.0874
 2708SOL    HW219758   1.947   0.422   7.709 -0.3055  0.0412  1.5078
 2709SOL     OW19759   1.143   3.212   8.305  0.1171 -0.4732  0.1738
 2709SOL    HW119760   1.132   3.197   8.399 -0.2322  2.0100  0.5358
 2709SOL    HW219761   1.057   3.247   8.282  0.5373  1.6615  1.8281
 2710SOL     OW19762   1.235   1.016   3.728 -0.0138 -0.0805  0.5185
 2710SOL    HW119763   1.218   0.949   3.662 -0.2042  0.0288  0.4558
 2710SOL    HW219764   1.153   1.064   3.717 -0.0197 -0.1505  0.2616
 2711SOL     OW19765   0.000   2.212  13.655  0.0639  0.2153  0.1850
 2711SOL    HW119766   0.062   2.245  13.590  1.0510  0.2146  1.1250
 2711SOL    HW219767   4.653   2.219  13.603  0.5143  0.8219 -0.4317
 2712SOL     OW19768   0.073   1.152   3.275 -0.5609 -0.1077  0.0634
 2712SOL    HW119769   0.132   1.211   3.227 -0.8664 -1.1995 -1.6525
 2712SOL    HW219770   0.018   1.124   3.202  0.5966 -1.7965 -0.1420
 2713SOL     OW19771   1.657   2.901   7.087  0.3167  0.5054 -0.0683
 2713SOL    HW119772   1.723   2.836   7.062 -0.2714  0.4588 -1.5350
 2713SOL    HW219773   1.691   2.984   7.053 -0.6962  0.6677 -0.6855
 2714SOL     OW19774   3.459   1.564   5.647 -0.2764 -0.6136  0.1441
 2714SOL    HW119775   3.376   1.517   5.640 -0.5185 -0.1235 -0.2400
 2714SOL    HW219776   3.521   1.491   5.651 -1.0058 -1.1528  1.5123
 2715SOL     OW19777   1.500   0.305   3.952  0.1869  0.8086  0.0880
 2715SOL    HW119778   1.411   0.278   3.931  1.2593 -3.6054  1.0864
 2715SOL    HW219779   1.480   0.398   3.955 -1.7348  0.4124 -0.6601
 2716SOL     OW19780   4.109   0.597   3.288 -0.3599  0.7492 -0.0531
 2716SOL    HW119781   4.041   0.663   3.301 -0.3436  1.4275 -3.4452
 2716SOL    HW219782   4.055   0.526   3.253  0.6599 -0.1122  0.1185
 2717SOL     OW19783   1.422   0.303   2.912 -0.1998  0.2511 -0.4676
 2717SOL    HW119784   1.372   0.226   2.939  1.2561 -1.0357 -1.3989
 2717SOL    HW219785   1.445   0.283   2.821  2.5708  0.6190  0.1462
 2718SOL     OW19786   3.088   4.223   6.071  0.3502 -0.0850 -0.0705
 2718SOL    HW119787   3.155   4.188   6.013 -1.3788 -2.3487 -0.7003
 2718SOL    HW219788   3.138   4.276   6.133 -1.0578  0.5396  0.5392
 2719SOL     OW19789   4.398   1.361  15.725 -0.6575  0.6553 -0.7317
 2719SOL    HW119790   4.403   1.432  15.789 -0.5476  0.1748 -0.2088
 2719SOL    HW219791   4.485   1.364  15.684 -0.1965  0.1206  0.2172
 2720SOL     OW19792   4.260   3.051  15.345 -0.2355 -0.1092 -0.2559
 2720SOL    HW119793   4.182   3.038  15.399 -0.5974 -1.0450 -0.9861
 2720SOL    HW219794   4.282   2.962  15.320 -0.3357 -0.2586  0.1880
 2721SOL     OW19795   1.631   2.474   0.505  0.4093 -0.2817  0.1712
 2721SOL    HW119796   1.625   2.528   0.426  1.6706  0.6163  0.6753
 2721SOL    HW219797   1.652   2.543   0.569  0.4709  0.9076 -1.1286
 2722SOL     OW19798   1.832   2.326   6.864 -0.1536 -0.0711 -0.0005
 2722SOL    HW119799   1.831   2.262   6.935 -2.0771  0.0406  0.0728
 2722SOL    HW219800   1.809   2.403   6.916  2.5020  0.1084  0.8772
 2723SOL     OW19801   2.350   3.681   2.517  0.3125  0.0453 -0.2846
 2723SOL    HW119802   2.388   3.693   2.430 -0.7998  1.4174 -0.5886
 2723SOL    HW219803   2.401   3.744   2.568 -0.6011 -0.4859  1.2784
 2724SOL     OW19804   0.199   4.554   1.119 -0.1574  0.2583  0.4301
 2724SOL    HW119805   0.109   4.547   1.151 -0.6838  0.7938 -0.9194
 2724SOL    HW219806   0.238   4.470   1.141  0.0636  1.0052  2.8972
 2725SOL     OW19807   1.170   3.957   5.578  0.8787  0.5197  0.9212
 2725SOL    HW119808   1.091   3.970   5.526  0.7879 -0.1078  0.9066
 2725SOL    HW219809   1.226   4.031   5.554 -2.6749  2.7897 -0.3145
 2726SOL     OW19810   0.571   2.445   0.448 -0.1484  0.7318 -0.4117
 2726SOL    HW119811   0.610   2.419   0.531  0.5121 -0.1887 -1.0129
 2726SOL    HW219812   0.559   2.539   0.465 -0.6321  0.4143  0.9523
 2727SOL     OW19813   1.285   3.698  17.610 -0.1101 -0.5039  0.2866
 2727SOL    HW119814   1.234   3.732  17.683 -0.9166  1.8066 -1.3616
 2727SOL    HW219815   1.317   3.613  17.639  2.6875  0.2973 -0.4299
 2728SOL     OW19816   4.446   3.040   3.714  0.0021  0.1949  0.2740
 2728SOL    HW119817   4.484   3.001   3.792  1.9236 -1.0964 -1.2960
 2728SOL    HW219818   4.363   3.075   3.745 -0.2748 -0.0895 -0.1539
 2729SOL     OW19819   2.701   4.229   6.815 -0.3025 -0.1592  0.2235
 2729SOL    HW119820   2.758   4.174   6.869  0.0228 -0.2970 -0.2618
 2729SOL    HW219821   2.724   4.202   6.726 -0.8196  0.2527 -0.0414
 2730SOL     OW19822   1.591   4.619  16.705 -0.6593  0.1633  0.4078
 2730SOL    HW119823   1.593   4.691  16.642 -0.0658 -1.8520 -1.8767
 2730SOL    HW219824   1.644   4.654  16.776  0.2343 -1.6855  0.6456
 2731SOL     OW19825   4.124   2.232   9.107 -0.6710  0.3768  0.6150
 2731SOL    HW119826   4.193   2.293   9.084 -1.6686  1.4357  0.4622
 2731SOL    HW219827   4.059   2.265   9.046  1.6945  3.2307 -0.3361
 2732SOL     OW19828   4.445   4.437   7.389 -0.1244 -0.2454 -0.3371
 2732SOL    HW119829   4.516   4.449   7.452 -0.0812  1.5455 -0.7111
 2732SOL    HW219830   4.478   4.406   7.305 -0.0575 -0.7193 -0.1321
 2733SOL     OW19831   3.613   2.343   5.288 -0.2494  0.5282  0.3742
 2733SOL    HW119832   3.576   2.274   5.232 -1.6773  1.0133  0.7253
 2733SOL    HW219833   3.636   2.402   5.216  1.5709  0.5627  0.9882
 2734SOL     OW19834   0.465   3.938   5.220 -0.2438 -0.2008  0.4983
 2734SOL    HW119835   0.413   3.975   5.291  2.0817  1.6141  1.2506
 2734SOL    HW219836   0.424   3.974   5.141 -0.5986  0.3814  0.9542
 2735SOL     OW19837   3.041   2.837   1.607  0.5879  0.3860  0.0727
 2735SOL    HW119838   3.059   2.747   1.580 -0.2699  0.3776 -0.4641
 2735SOL    HW219839   2.955   2.865   1.578  0.9632  1.2510 -0.2111
 2736SOL     OW19840   0.632   0.302   3.685 -0.5646  0.3080  0.2370
 2736SOL    HW119841   0.551   0.350   3.701 -0.9261  0.3788 -1.7554
 2736SOL    HW219842   0.595   0.217   3.660  2.5722 -1.1704  0.5189
 2737SOL     OW19843   1.438   0.927  10.968 -0.0470  0.0700  0.5111
 2737SOL    HW119844   1.456   1.015  10.937 -0.5576  0.2128  0.6249
 2737SOL    HW219845   1.401   0.882  10.891  0.7221 -1.5614  1.0912
 2738SOL     OW19846   0.621   4.619   1.974 -0.8494  0.2776  0.3648
 2738SOL    HW119847   0.623   4.530   2.010  2.0829  0.6977  1.2139
 2738SOL    HW219848   0.575   4.614   1.890 -1.6282 -0.7330  0.8467
 2739SOL     OW19849   1.760   0.269  10.530 -0.7047  0.3388 -0.4358
 2739SOL    HW119850   1.673   0.231  10.516  0.4760 -2.5607  0.1730
 2739SOL    HW219851   1.742   0.342  10.589 -1.3312 -0.8498  0.8356
 2740SOL     OW19852   3.464   1.218  10.363 -0.7011  0.0075 -0.2838
 2740SOL    HW119853   3.474   1.312  10.379  1.3226 -0.8343  3.4490
 2740SOL    HW219854   3.483   1.203  10.270 -1.0056  2.2925 -0.7268
 2741SOL     OW19855   0.831   0.000   1.815 -0.3434 -0.0113 -0.0742
 2741SOL    HW119856   0.814   4.660   1.756  1.4213  0.4405 -1.1438
 2741SOL    HW219857   0.767   4.715   1.884 -0.5859  0.0103 -0.2924
 2742SOL     OW19858   4.076   0.673   7.710  0.1220  0.5768 -0.6246
 2742SOL    HW119859   4.115   0.676   7.798  3.0166  1.9836 -1.9375
 2742SOL    HW219860   3.988   0.705   7.727  0.4490  0.5396  1.1105
 2743SOL     OW19861   4.566   0.557  14.644  0.2624 -0.1557  0.4356
 2743SOL    HW119862   4.519   0.546  14.561 -0.3259  0.4164  0.6975
 2743SOL    HW219863   4.623   0.480  14.652 -0.7232 -0.8368  0.8600
 2744SOL     OW19864   4.279   2.002   8.910  0.4297  0.2246  0.2762
 2744SOL    HW119865   4.240   1.999   8.823  1.4647 -0.0791 -0.1758
 2744SOL    HW219866   4.202   1.982   8.965 -0.7006  1.5669 -0.8123
 2745SOL     OW19867   2.561   4.637   1.500 -0.0595  0.1625  0.3074
 2745SOL    HW119868   2.527   4.723   1.474  0.3573 -0.4946 -2.3124
 2745SOL    HW219869   2.485   4.599   1.543  0.2633  0.9110  1.5584
 2746SOL     OW19870   3.641   3.184   5.914  0.3136 -0.0291  0.0160
 2746SOL    HW119871   3.622   3.113   5.852 -0.8580  1.8880 -1.8098
 2746SOL    HW219872   3.555   3.199   5.953  0.0721 -0.0258 -0.5189
 2747SOL     OW19873   1.770   0.867   0.227  0.2359 -0.1414  0.2782
 2747SOL    HW119874   1.797   0.924   0.299 -0.7158  3.2688 -2.0512
 2747SOL    HW219875   1.708   0.808   0.269  0.6426 -0.4318  0.4703
 2748SOL     OW19876   2.072   3.520   3.861  0.2516  0.3250  0.7457
 2748SOL    HW119877   2.167   3.513   3.872  0.5075 -1.3424 -2.5247
 2748SOL    HW219878   2.076   3.580   3.787  0.3132 -0.2430  0.2869
 2749SOL     OW19879   0.713   1.750  17.592 -0.0476  0.1075 -0.4455
 2749SOL    HW119880   0.637   1.718  17.543  0.1899  0.1482 -0.8443
 2749SOL    HW219881   0.771   1.678  17.569 -1.7868 -0.5963 -2.6161
 2750SOL     OW19882   3.304   2.115   0.406 -0.1067  0.1585  0.3723
 2750SOL    HW119883   3.362   2.166   0.462 -0.7035  1.3256 -0.0703
 2750SOL    HW219884   3.343   2.028   0.410  1.0020  0.5932 -1.0620
 2751SOL     OW19885   4.284   1.396   4.228  0.1541 -0.3852  0.2706
 2751SOL    HW119886   4.219   1.343   4.275  0.6470  0.7258  2.2021
 2751SOL    HW219887   4.221   1.458   4.192  2.7073  1.0026 -1.7846
 2752SOL     OW19888   1.656   4.357   6.210  0.5454  0.3534  0.6275
 2752SOL    HW119889   1.651   4.265   6.234  0.3554 -0.4520 -2.5670
 2752SOL    HW219890   1.747   4.381   6.229 -0.1297  1.6506  2.2367
 2753SOL     OW19891   4.346   3.398   8.164  0.4583  0.7123 -0.8561
 2753SOL    HW119892   4.393   3.461   8.219  1.6039  0.5493 -1.6609
 2753SOL    HW219893   4.329   3.329   8.229  0.9464  0.6754 -0.7678
 2754SOL     OW19894   4.246   0.603   9.512  0.1908 -0.1972  0.2025
 2754SOL    HW119895   4.328   0.584   9.466  0.8480  1.7898  0.5648
 2754SOL    HW219896   4.269   0.690   9.545  1.0333  0.3855 -1.9616
 2755SOL     OW19897   3.627   1.074   6.567  0.0227 -0.4892  0.1605
 2755SOL    HW119898   3.642   1.099   6.476 -0.5724 -1.2008 -0.1283
 2755SOL    HW219899   3.612   1.158   6.611 -0.3350 -0.1019 -0.6973
 2756SOL     OW19900   1.521   1.768  13.738 -0.0605  0.5267  0.7159
 2756SOL    HW119901   1.541   1.708  13.666  0.8159 -2.0962  3.1204
 2756SOL    HW219902   1.437   1.740  13.775  0.6175 -1.8074  0.5199
 2757SOL     OW19903   0.776   3.735   4.486 -0.4407 -0.0514  0.0186
 2757SOL    HW119904   0.864   3.698   4.489 -0.6368 -0.6397 -1.4070
 2757SOL    HW219905   0.787   3.789   4.564  1.2249  0.4748 -0.5831
 2758SOL     OW19906   4.381   1.718   8.146  0.2020 -0.0342 -0.0323
 2758SOL    HW119907   4.348   1.801   8.110  0.0755  0.9674  2.3704
 2758SOL    HW219908   4.372   1.736   8.240 -1.3178  0.6610 -0.3138
 2759SOL     OW19909   3.530   1.996   5.358 -0.3429 -0.4025 -0.0105
 2759SOL    HW119910   3.552   2.080   5.319  0.5098 -1.2394 -1.3239
 2759SOL    HW219911   3.491   1.947   5.286  0.8826 -1.0215 -0.2612
 2760SOL     OW19912   3.278   1.596   1.077 -0.4209 -0.3897 -0.0100
 2760SOL    HW119913   3.242   1.511   1.054 -0.2670 -0.2656 -0.6924
 2760SOL    HW219914   3.294   1.640   0.994 -1.4382  2.3763  1.2562
 2761SOL     OW19915   4.472   0.686   0.085 -0.3515 -0.2290 -0.3655
 2761SOL    HW119916   4.419   0.690   0.005 -1.9482 -2.8422  0.5727
 2761SOL    HW219917   4.491   0.593   0.097 -1.2372 -0.2183  1.1381
 2762SOL     OW19918   3.130   2.909  12.710 -0.0519 -0.0378  0.3146
 2762SOL    HW119919   3.200   2.910  12.644  0.5027 -0.6848  0.8965
 2762SOL    HW219920   3.101   2.819  12.693 -2.1433  0.7904 -0.4917
 2763SOL     OW19921   2.541   1.453   6.743  0.8148  0.3823  0.3043
 2763SOL    HW119922   2.599   1.524   6.718 -0.8706  0.5207 -3.2390
 2763SOL    HW219923   2.486   1.461   6.665  2.4586 -0.8075 -0.9644
 2764SOL     OW19924   0.314   4.649   2.140 -0.1117 -0.1561  0.4129
 2764SOL    HW119925   0.312   0.011   2.123 -1.9686 -0.6034 -1.7101
 2764SOL    HW219926   0.390   4.637   2.198  0.7347 -0.7817 -0.8193
 2765SOL     OW19927   2.536   2.834   1.957  0.0893  0.6236  0.0563
 2765SOL    HW119928   2.580   2.919   1.957 -1.5114  1.4651  1.3439
 2765SOL    HW219929   2.606   2.769   1.949  0.3017  1.1339 -2.0578
 2766SOL     OW19930   3.979   0.683   1.802 -0.3459 -0.2039  0.1351
 2766SOL    HW119931   3.975   0.588   1.798  1.2091 -0.3150  1.1299
 2766SOL    HW219932   3.912   0.707   1.738  0.9040 -0.8023 -1.4046
 2767SOL     OW19933   4.314   4.504  14.890 -0.2690 -0.4163 -0.2100
 2767SOL    HW119934   4.275   4.557  14.959  3.1494  0.6059  0.9050
 2767SOL    HW219935   4.260   4.425  14.902 -1.0075  0.0803 -0.2731
 2768SOL     OW19936   1.425   1.273   5.494  0.3201  0.2499  0.3157
 2768SOL    HW119937   1.374   1.246   5.570 -1.3486  1.3873 -0.3877
 2768SOL    HW219938   1.501   1.313   5.537  0.1629 -1.4517  2.1803
 2769SOL     OW19939   2.422   3.209   8.345  0.3424  0.0432 -0.8082
 2769SOL    HW119940   2.347   3.264   8.322  1.4037  1.9172  0.1204
 2769SOL    HW219941   2.429   3.213   8.441 -0.8663 -0.7579 -0.6987
 2770SOL     OW19942   1.616   0.415  12.294 -0.3668  0.1674 -0.2037
 2770SOL    HW119943   1.611   0.453  12.207 -0.8825 -0.2227 -0.3461
 2770SOL    HW219944   1.624   0.499  12.339  0.0120 -0.1227  0.2803
 2771SOL     OW19945   2.839   0.103  16.616  0.5083 -0.1535  0.0004
 2771SOL    HW119946   2.842   0.198  16.607 -2.1702 -0.0810 -0.2607
 2771SOL    HW219947   2.752   0.100  16.656  0.1045  1.1671 -0.7753
 2772SOL     OW19948   2.435   0.117   0.326 -0.1384  0.2869 -0.2349
 2772SOL    HW119949   2.405   0.207   0.326 -1.3225 -0.0995 -2.9084
 2772SOL    HW219950   2.405   0.093   0.414  1.5463 -1.0072 -0.0019
 2773SOL     OW19951   2.008   2.183  11.828  0.0579  0.0230 -0.1685
 2773SOL    HW119952   1.961   2.258  11.862 -0.2223 -0.5155  0.6276
 2773SOL    HW219953   1.979   2.193  11.737 -0.4840 -0.0985 -0.0052
 2774SOL     OW19954   3.745   1.538   9.383 -0.5173  0.3063 -0.0233
 2774SOL    HW119955   3.805   1.612   9.389  0.8848 -0.7088 -1.6877
 2774SOL    HW219956   3.798   1.466   9.348  0.0706  0.8525 -0.2564
 2775SOL     OW19957   4.433   2.885  15.873 -0.3628  0.4609 -0.0539
 2775SOL    HW119958   4.504   2.948  15.882 -0.7405  0.8352  0.3316
 2775SOL    HW219959   4.375   2.912  15.944 -1.3242 -2.6164  0.3177
 2776SOL     OW19960   4.580   4.163   3.477 -0.5685 -0.1673 -0.0386
 2776SOL    HW119961   4.594   4.191   3.568  2.6743  0.9895 -0.8671
 2776SOL    HW219962   4.622   4.229   3.421 -0.0518  0.6850  1.3475
 2777SOL     OW19963   1.831   2.947  15.200  0.0704  0.0780  0.4612
 2777SOL    HW119964   1.858   3.039  15.205 -1.4680  0.5164  0.7478
 2777SOL    HW219965   1.841   2.930  15.294 -3.1747  3.5255  1.4141
 2778SOL     OW19966   1.935   0.833   6.221 -0.0930 -0.0443  0.8540
 2778SOL    HW119967   1.850   0.810   6.259 -0.7778  0.0197 -0.6167
 2778SOL    HW219968   1.984   0.779   6.283  1.6655  1.8378  1.1179
 2779SOL     OW19969   0.662   0.638   1.156 -0.3461 -0.4620 -0.1916
 2779SOL    HW119970   0.686   0.613   1.246 -0.7641 -1.8873 -0.4869
 2779SOL    HW219971   0.663   0.550   1.119  0.0739 -0.0347 -1.1898
 2780SOL     OW19972   0.652   2.077   9.627 -0.4724 -0.3339 -0.1169
 2780SOL    HW119973   0.615   2.162   9.649  2.5413  0.9040  0.1681
 2780SOL    HW219974   0.700   2.095   9.546  0.3089  0.6158  0.5545
 2781SOL     OW19975   0.759   4.272  15.865  0.4313 -0.1487 -0.1168
 2781SOL    HW119976   0.735   4.215  15.791  0.8245  1.2128 -1.3013
 2781SOL    HW219977   0.828   4.323  15.822 -0.1466 -0.1900 -1.1203
 2782SOL     OW19978   3.772   4.170  17.360  0.3937 -0.1907  0.4525
 2782SOL    HW119979   3.797   4.230  17.289  1.0304  1.1812  1.8397
 2782SOL    HW219980   3.833   4.098  17.349  1.4385  0.7757 -0.1178
 2783SOL     OW19981   0.068   0.937  11.787 -0.5312  0.0232  0.2490
 2783SOL    HW119982   0.117   0.942  11.870  0.7542  1.3765 -0.5984
 2783SOL    HW219983   0.096   1.018  11.745  0.3496 -0.0779  0.6284
 2784SOL     OW19984   1.623   3.669   2.227 -0.2326 -0.1313  0.4942
 2784SOL    HW119985   1.602   3.693   2.137  0.4473  0.4195  0.4749
 2784SOL    HW219986   1.571   3.589   2.234 -1.2718  0.3363 -2.0772
 2785SOL     OW19987   4.446   1.116   1.994 -0.1831 -0.0972 -0.0144
 2785SOL    HW119988   4.495   1.037   1.970  0.6337  0.1708  0.7758
 2785SOL    HW219989   4.412   1.131   1.906  3.4656  0.7345 -1.2600
 2786SOL     OW19990   4.553   0.753   2.172  0.1830 -0.4711 -0.3758
 2786SOL    HW119991   4.530   0.814   2.242  0.7442 -0.3400 -0.3095
 2786SOL    HW219992   4.538   0.671   2.219 -1.5476 -0.8700 -1.6212
 2787SOL     OW19993   4.522   2.503  11.112  0.3694 -0.1954 -0.2987
 2787SOL    HW119994   4.546   2.576  11.056  1.1001 -1.8709 -2.1580
 2787SOL    HW219995   4.481   2.441  11.051 -1.6059 -1.6202  2.4727
 2788SOL     OW19996   1.004   2.428  11.211  0.3780  0.3750  0.0847
 2788SOL    HW119997   0.989   2.483  11.134  1.5879 -0.0012 -0.4219
 2788SOL    HW219998   0.935   2.458  11.271  2.5566  1.2975  2.0870
 2789SOL     OW19999   1.020   4.007   1.043  0.3529  0.1579  0.2663
 2789SOL    HW120000   0.979   3.975   0.963  1.3520  2.1364 -1.0231
 2789SOL    HW220001   0.954   3.988   1.110 -0.6115  1.9670 -0.1742
 2790SOL     OW20002   4.554   2.479   6.827  0.3691  0.0980  0.2529
 2790SOL    HW120003   4.475   2.427   6.835  0.0178  0.6507  0.3370
 2790SOL    HW220004   4.617   2.411   6.850  1.1835  1.8284  3.1513
 2791SOL     OW20005   4.204   3.976   1.801 -0.3727 -0.3515 -0.1307
 2791SOL    HW120006   4.205   4.066   1.836  1.9666 -0.6695  0.5639
 2791SOL    HW220007   4.258   3.931   1.866 -0.2384  1.1460  0.8061
 2792SOL     OW20008   4.014   0.808  11.265 -0.0052  0.2985  0.6227
 2792SOL    HW120009   4.006   0.880  11.328 -0.7735 -0.3046  1.2111
 2792SOL    HW220010   3.923   0.794  11.241 -0.4845 -0.8042  3.0644
 2793SOL     OW20011   1.232   0.596   9.981 -0.1429  0.1414  0.2515
 2793SOL    HW120012   1.192   0.655   9.918 -0.2512 -0.9645 -0.7233
 2793SOL    HW220013   1.184   0.516   9.959  0.7003 -0.0106 -1.0187
 2794SOL     OW20014   4.040   3.929   4.568 -0.2843  0.5134  0.1786
 2794SOL    HW120015   4.032   3.877   4.488  1.7088  1.2077 -0.4741
 2794SOL    HW220016   3.966   3.989   4.563 -1.1838 -0.7108 -1.1789
 2795SOL     OW20017   4.192   0.375   6.485 -0.0681 -0.3094  0.2663
 2795SOL    HW120018   4.115   0.348   6.437 -1.1877 -0.5763  2.1885
 2795SOL    HW220019   4.248   0.318   6.433  0.2911  0.8900 -0.6519
 2796SOL     OW20020   1.978   0.800   6.518  0.0266 -0.4441 -0.2476
 2796SOL    HW120021   2.038   0.801   6.593 -0.0424  1.6213 -0.2295
 2796SOL    HW220022   1.994   0.713   6.483  3.0721 -0.3016  0.8335
 2797SOL     OW20023   1.154   2.487   6.491 -0.0753 -0.4204  0.1190
 2797SOL    HW120024   1.144   2.449   6.404  0.9964  0.0899 -0.2325
 2797SOL    HW220025   1.062   2.507   6.508 -0.1025  0.2854 -0.8868
 2798SOL     OW20026   1.121   2.643   5.410 -0.6378  0.2719 -0.0279
 2798SOL    HW120027   1.035   2.676   5.435  0.2404  0.7070  2.3661
 2798SOL    HW220028   1.104   2.549   5.397  0.2299  0.3572 -1.8202
 2799SOL     OW20029   2.039   2.192   7.222 -0.5920 -0.3465  0.2762
 2799SOL    HW120030   2.108   2.241   7.177 -1.8545  1.1446 -0.0623
 2799SOL    HW220031   1.997   2.253   7.283  0.7743  1.5949 -0.7372
 2800SOL     OW20032   2.931   1.223   7.452 -0.1324 -0.5174 -0.4382
 2800SOL    HW120033   3.022   1.248   7.433 -0.7905  1.9270 -0.4708
 2800SOL    HW220034   2.903   1.211   7.361 -0.0495  0.2422 -0.5668
 2801SOL     OW20035   2.818   1.649   6.665 -0.2028  0.9338  0.3213
 2801SOL    HW120036   2.837   1.708   6.592 -0.3800 -1.0586 -1.3278
 2801SOL    HW220037   2.852   1.698   6.740  0.1710  0.7646  0.2658
 2802SOL     OW20038   1.586   3.887   7.319 -0.0103 -0.7021  0.6628
 2802SOL    HW120039   1.596   3.981   7.304  2.0173 -1.0636 -0.2043
 2802SOL    HW220040   1.578   3.849   7.232  1.6893 -2.5918  1.3376
 2803SOL     OW20041   3.172   2.206   4.970 -0.2902 -0.2919  0.3823
 2803SOL    HW120042   3.235   2.145   4.934 -0.6739  1.7460 -3.7115
 2803SOL    HW220043   3.176   2.278   4.907 -1.6666  0.1530  0.7770
 2804SOL     OW20044   2.192   1.088  10.331 -0.0795  0.4583 -0.1910
 2804SOL    HW120045   2.208   0.995  10.344 -1.2119  0.0640 -1.6794
 2804SOL    HW220046   2.282   1.122  10.329 -0.3535  1.1551 -0.5763
 2805SOL     OW20047   3.829   1.727   2.279  0.0270 -0.1506  0.1155
 2805SOL    HW120048   3.904   1.722   2.338 -1.7230 -1.3548  2.2102
 2805SOL    HW220049   3.796   1.638   2.272 -1.4026  0.2067  2.4037
 2806SOL     OW20050   1.361   1.858  10.362  0.4008  0.0806  0.0031
 2806SOL    HW120051   1.326   1.938  10.402 -0.1403  0.8521 -1.9954
 2806SOL    HW220052   1.456   1.870  10.359  0.3985 -0.0422 -0.6513
 2807SOL     OW20053   2.708   0.590  14.048 -0.0474 -0.5091  0.2914
 2807SOL    HW120054   2.689   0.590  14.142 -1.9925 -0.6457 -0.0976
 2807SOL    HW220055   2.625   0.564  14.008  0.1893 -0.6147 -0.1289
 2808SOL     OW20056   1.428   4.245   5.941 -0.4533 -0.2241  0.3648
 2808SOL    HW120057   1.388   4.332   5.932  0.2902  0.0882  0.0684
 2808SOL    HW220058   1.349   4.191   5.941  0.1241 -1.0581  0.1313
 2809SOL     OW20059   2.229   2.826   3.126 -0.1044  0.5193  0.1021
 2809SOL    HW120060   2.154   2.853   3.178 -0.4927 -1.4246  0.5539
 2809SOL    HW220061   2.189   2.812   3.040 -0.4861 -0.4639  0.4425
 2810SOL     OW20062   1.289   2.131   7.917 -0.7567 -0.5903 -0.4450
 2810SOL    HW120063   1.333   2.047   7.927  1.4239  0.6865  0.6711
 2810SOL    HW220064   1.317   2.147   7.827  0.3076  0.5102  0.0832
 2811SOL     OW20065   3.862   1.875  12.519  0.2027 -0.1264 -0.0312
 2811SOL    HW120066   3.767   1.866  12.517  0.0557  1.2403  0.8338
 2811SOL    HW220067   3.859   1.971  12.522 -1.2713 -0.1441 -0.9535
 2812SOL     OW20068   4.506   0.503   3.090  0.8686 -0.3322 -0.5671
 2812SOL    HW120069   4.517   0.408   3.080 -0.6423 -0.6878  1.1376
 2812SOL    HW220070   4.442   0.509   3.161 -0.1030  2.3449 -1.6875
 2813SOL     OW20071   2.367   3.093   7.706  0.2063 -0.5164  0.0771
 2813SOL    HW120072   2.295   3.141   7.664  0.5877  0.0982  0.1277
 2813SOL    HW220073   2.334   3.003   7.705 -0.4212 -0.2974  2.5804
 2814SOL     OW20074   3.859   1.155   2.443  0.9961  0.1471  0.2760
 2814SOL    HW120075   3.765   1.164   2.430  0.5008 -2.5292  2.1079
 2814SOL    HW220076   3.908   1.238   2.444  1.7246 -0.2939  0.9509
 2815SOL     OW20077   2.327   1.819  11.759  0.1825 -0.1360 -0.1082
 2815SOL    HW120078   2.287   1.879  11.821 -0.6633 -0.1776 -0.6101
 2815SOL    HW220079   2.341   1.743  11.815 -0.0097  0.6383  0.9714
 2816SOL     OW20080   2.712   0.007   4.087 -0.0684 -1.3163 -0.2355
 2816SOL    HW120081   2.803   0.038   4.086 -0.6505  0.3872 -0.1575
 2816SOL    HW220082   2.713   4.646   4.110 -0.9626 -0.8527  1.6806
 2817SOL     OW20083   0.202   0.717   8.108 -0.2866 -0.3449 -0.3957
 2817SOL    HW120084   0.255   0.640   8.086 -0.8464 -0.9148  0.2812
 2817SOL    HW220085   0.131   0.713   8.044 -0.5333  1.9164 -0.2843
 2818SOL     OW20086   0.379   3.533  13.102 -0.1911  0.6975 -0.5198
 2818SOL    HW120087   0.425   3.600  13.051  2.5718 -0.0360  1.0269
 2818SOL    HW220088   0.397   3.453  13.053 -1.7904  0.3638 -0.5505
 2819SOL     OW20089   1.467   0.766  11.875  0.3786 -0.0580  0.2579
 2819SOL    HW120090   1.484   0.844  11.821 -1.0880  0.1815  0.1487
 2819SOL    HW220091   1.372   0.761  11.861  0.5992 -1.6593 -0.6899
 2820SOL     OW20092   2.181   0.511   9.495 -0.1155 -0.5163  0.3733
 2820SOL    HW120093   2.131   0.474   9.422 -2.6451 -0.2377  1.9613
 2820SOL    HW220094   2.250   0.446   9.503 -1.5666 -2.1814 -0.6739
 2821SOL     OW20095   0.137   4.152   7.418  0.7173 -0.4548 -0.5324
 2821SOL    HW120096   0.195   4.191   7.352  0.4691  0.0729 -0.4392
 2821SOL    HW220097   0.121   4.067   7.376 -0.8176 -0.6866  0.5495
 2822SOL     OW20098   2.022   1.284  15.799  0.0337  0.1880 -0.1016
 2822SOL    HW120099   2.012   1.284  15.704 -0.8198  2.7613 -0.0208
 2822SOL    HW220100   2.050   1.376  15.804 -1.9226  0.8721 -1.5931
 2823SOL     OW20101   3.574   3.207   9.278 -0.2800  0.1073 -0.3650
 2823SOL    HW120102   3.590   3.219   9.372 -0.0814 -1.3621 -0.2087
 2823SOL    HW220103   3.661   3.187   9.243  0.6679  1.0714  1.4285
 2824SOL     OW20104   1.422   1.258   7.646 -0.8065  0.6303 -0.2263
 2824SOL    HW120105   1.404   1.346   7.680  1.2993  1.9953 -2.6492
 2824SOL    HW220106   1.516   1.274   7.642 -0.9494  1.1173 -1.4956
 2825SOL     OW20107   3.839   0.797   3.071 -0.1768 -0.3303  0.2778
 2825SOL    HW120108   3.857   0.820   3.162 -0.6043 -0.2920  0.3523
 2825SOL    HW220109   3.822   0.702   3.076  0.8803 -0.4671  1.3594
 2826SOL     OW20110   1.244   3.900   3.926  0.0658  0.9617 -0.3268
 2826SOL    HW120111   1.225   3.816   3.884 -0.4979 -0.6023  3.0534
 2826SOL    HW220112   1.215   3.955   3.853  1.7122  0.2380 -1.5186
 2827SOL     OW20113   1.742   4.508  10.121 -0.6018  0.5630 -0.3415
 2827SOL    HW120114   1.661   4.552  10.099 -0.0885  2.0099  0.6554
 2827SOL    HW220115   1.801   4.548  10.057  1.3591  0.3469  1.3240
 2828SOL     OW20116   0.682   3.490  13.855  0.4364  0.0572  0.8440
 2828SOL    HW120117   0.710   3.416  13.909  1.6565 -0.9956 -1.2187
 2828SOL    HW220118   0.637   3.541  13.922  0.1588  1.8489 -0.7181
 2829SOL     OW20119   3.681   0.896   3.918  0.2831 -0.1566  0.1612
 2829SOL    HW120120   3.766   0.912   3.878 -1.3066  0.4065 -2.9995
 2829SOL    HW220121   3.652   0.827   3.859  2.4109  0.4677 -1.6305
 2830SOL     OW20122   3.662   3.287   9.973 -0.3635  0.2172  0.3750
 2830SOL    HW120123   3.696   3.212  10.021 -0.3574 -0.3128 -0.4757
 2830SOL    HW220124   3.602   3.318  10.042  0.1422  2.3430 -0.1297
 2831SOL     OW20125   3.749   1.407   9.824  0.5641 -0.1411  0.4312
 2831SOL    HW120126   3.814   1.464   9.783 -1.4691  0.9140 -1.3308
 2831SOL    HW220127   3.772   1.437   9.912  0.6952  2.8870 -0.6269
 2832SOL     OW20128   3.034   2.770   8.888  0.0834 -0.2461 -0.1489
 2832SOL    HW120129   3.076   2.695   8.846 -1.1949  0.4513 -2.6962
 2832SOL    HW220130   3.029   2.826   8.810  1.0950  1.7934  1.2276
 2833SOL     OW20131   4.526   2.651   2.653 -0.3436  0.0887  0.4483
 2833SOL    HW120132   4.607   2.647   2.705 -0.7904 -0.5246  1.0842
 2833SOL    HW220133   4.543   2.736   2.612 -2.4863  0.4562  0.3510
 2834SOL     OW20134   4.699   1.619  11.179 -0.2319 -0.1815 -0.2363
 2834SOL    HW120135   4.696   1.646  11.087 -1.1683 -0.7955 -0.3888
 2834SOL    HW220136   4.709   1.698  11.231 -0.9961 -1.1003  1.3035
 2835SOL     OW20137   1.142   0.711  15.319 -0.0148 -0.1831 -0.6089
 2835SOL    HW120138   1.205   0.780  15.299  0.5561 -0.0509  1.7383
 2835SOL    HW220139   1.101   0.697  15.233 -0.9247  2.6967 -0.6430
 2836SOL     OW20140   3.769   2.759   5.402 -0.2278 -0.0184  0.0180
 2836SOL    HW120141   3.836   2.711   5.353 -0.0463 -1.4688  1.6645
 2836SOL    HW220142   3.695   2.758   5.342  0.3070  0.3006 -0.6395
 2837SOL     OW20143   2.222   4.081   3.119  0.5159  0.0804  0.4181
 2837SOL    HW120144   2.161   4.027   3.070  1.3210 -0.3730 -0.0961
 2837SOL    HW220145   2.221   4.166   3.075  0.0115 -0.2363 -0.1755
 2838SOL     OW20146   1.258   3.975   1.865 -0.2708  0.3249 -0.2091
 2838SOL    HW120147   1.297   3.892   1.837 -0.5024 -0.7941  2.6854
 2838SOL    HW220148   1.334   4.032   1.876  0.3547 -0.2213 -1.8129
 2839SOL     OW20149   2.009   1.410  16.129  0.1341  0.3506  0.5326
 2839SOL    HW120150   1.957   1.446  16.058  0.1767 -0.8300 -0.1089
 2839SOL    HW220151   2.095   1.447  16.106  0.9856 -2.4679 -0.8672
 2840SOL     OW20152   2.635   3.174   0.543  0.2415 -0.5289  0.0928
 2840SOL    HW120153   2.715   3.221   0.566  0.4351 -1.6143  1.6546
 2840SOL    HW220154   2.639   3.175   0.448 -1.3806  1.0313  0.0481
 2841SOL     OW20155   0.314   0.858   5.483  0.1614 -0.3820 -0.3253
 2841SOL    HW120156   0.397   0.904   5.471  0.3271 -0.1839  1.6401
 2841SOL    HW220157   0.274   0.870   5.396  2.2690 -0.6658 -1.3233
 2842SOL     OW20158   0.864   3.052   9.152  0.4972 -0.3432 -0.1698
 2842SOL    HW120159   0.852   3.145   9.130 -0.8769 -0.2402  1.0272
 2842SOL    HW220160   0.941   3.062   9.208  0.6783  2.5923 -0.9326
 2843SOL     OW20161   4.575   1.786   3.372 -0.3407  0.4174  0.1228
 2843SOL    HW120162   4.578   1.875   3.337 -0.4670  0.0252 -0.8841
 2843SOL    HW220163   4.543   1.736   3.297  2.8480  1.1071 -1.6837
 2844SOL     OW20164   0.047   4.628   2.307  0.1139 -0.1486 -0.4366
 2844SOL    HW120165   0.135   4.599   2.333  0.2338  0.5538 -0.0555
 2844SOL    HW220166   0.054   4.666   2.220 -1.0439 -0.8888 -0.8559
 2845SOL     OW20167   1.008   4.245   6.178  0.4855  0.2205 -0.8350
 2845SOL    HW120168   1.080   4.298   6.214  0.4755  0.0375 -0.5411
 2845SOL    HW220169   1.047   4.157   6.177  2.5074  1.1363 -2.0307
 2846SOL     OW20170   0.882   2.579   0.163  0.4368 -0.4157  0.2543
 2846SOL    HW120171   0.923   2.527   0.233 -0.5932  2.5922  3.1164
 2846SOL    HW220172   0.812   2.519   0.136 -0.8414  1.0891  0.2290
 2847SOL     OW20173   3.310   2.332   6.449  0.3643 -0.6219 -0.8388
 2847SOL    HW120174   3.245   2.401   6.433  0.7527 -0.4420 -1.6494
 2847SOL    HW220175   3.346   2.361   6.533 -2.4852  1.3542 -0.2800
 2848SOL     OW20176   3.125   4.345   2.556  0.1145  0.4622  0.0104
 2848SOL    HW120177   3.051   4.359   2.497  0.7726  0.2501 -0.8501
 2848SOL    HW220178   3.121   4.426   2.608 -1.3841  1.1816 -1.1983
 2849SOL     OW20179   1.595   2.317   6.009  0.3552  0.1843  0.4640
 2849SOL    HW120180   1.646   2.344   5.933  0.5446 -1.9937 -0.1874
 2849SOL    HW220181   1.636   2.231   6.024  0.6226  0.1675 -0.3551
 2850SOL     OW20182   1.057   1.214   5.782 -0.0931  0.5088  0.0078
 2850SOL    HW120183   1.093   1.209   5.871 -1.2545  0.9691  0.5002
 2850SOL    HW220184   1.132   1.183   5.732  0.1123  3.1750 -1.3195
 2851SOL     OW20185   4.470   4.359   3.747  0.1903 -0.0602 -0.3628
 2851SOL    HW120186   4.385   4.363   3.792  0.6545  0.6660  0.4303
 2851SOL    HW220187   4.472   4.445   3.704  1.4180 -0.0473 -0.2607
 2852SOL     OW20188   3.255   2.172   3.453 -0.2437  0.0961  0.0173
 2852SOL    HW120189   3.322   2.103   3.449 -0.9183 -0.6017  0.7931
 2852SOL    HW220190   3.211   2.157   3.370 -1.3664  1.5605  0.3585
 2853SOL     OW20191   4.222   0.369   5.351 -0.0681  0.1640 -0.2651
 2853SOL    HW120192   4.176   0.305   5.406  2.5708 -0.8027  0.7799
 2853SOL    HW220193   4.186   0.347   5.265  1.2889 -0.7619 -0.5871
 2854SOL     OW20194   3.298   1.055  10.082  0.2387 -0.5991  0.2479
 2854SOL    HW120195   3.361   1.034  10.152  1.3874 -0.1894 -0.6654
 2854SOL    HW220196   3.242   0.978  10.077 -0.0198 -0.2065 -2.5268
 2855SOL     OW20197   4.620   3.981   2.340 -0.0557 -0.8529  0.6775
 2855SOL    HW120198   4.679   3.907   2.353  1.2311 -0.0023 -0.2549
 2855SOL    HW220199   4.624   3.972   2.245  1.4197 -0.6984  0.7199
 2856SOL     OW20200   1.820   2.557   3.038  0.2409  0.0495  0.1406
 2856SOL    HW120201   1.812   2.477   2.985  2.7444  0.4864 -0.8628
 2856SOL    HW220202   1.730   2.561   3.072  0.2895  1.3051  0.1038
 2857SOL     OW20203   3.885   4.242   9.049 -0.6610 -0.3373 -0.8625
 2857SOL    HW120204   3.830   4.231   8.971 -0.9005 -1.9716 -0.4779
 2857SOL    HW220205   3.829   4.195   9.111  1.9976 -2.9789 -0.4490
 2858SOL     OW20206   0.640   4.209  15.384 -0.0354 -0.5203 -0.9197
 2858SOL    HW120207   0.660   4.226  15.476 -1.0003  1.8953 -1.1610
 2858SOL    HW220208   0.559   4.259  15.371  0.8498  0.5526 -2.3142
 2859SOL     OW20209   2.553   2.876  15.702  0.1388 -0.1696 -0.3408
 2859SOL    HW120210   2.563   2.839  15.614  2.1697 -0.4081  0.0033
 2859SOL    HW220211   2.464   2.913  15.698  0.0413 -0.5956 -1.9702
 2860SOL     OW20212   1.390   2.223  10.297 -0.1457 -0.7317 -0.7272
 2860SOL    HW120213   1.352   2.230  10.209  1.0348 -2.0063 -1.3436
 2860SOL    HW220214   1.449   2.299  10.293  0.7533 -1.3885  0.1148
 2861SOL     OW20215   0.081   1.790   6.562 -0.1796  0.2233  0.6171
 2861SOL    HW120216   0.048   1.880   6.570 -1.3499  0.1813 -3.9886
 2861SOL    HW220217   0.046   1.744   6.638 -0.2006 -0.4332  0.2071
 2862SOL     OW20218   4.418   2.073   3.521  0.0152 -0.4579  0.2363
 2862SOL    HW120219   4.440   2.163   3.544 -0.1399  0.1023 -1.7947
 2862SOL    HW220220   4.471   2.017   3.578  0.7045 -1.0864 -1.0288
 2863SOL     OW20221   0.552   1.958   8.190  0.3912 -0.1515 -0.2469
 2863SOL    HW120222   0.566   1.960   8.284  0.5999  0.5035 -0.2903
 2863SOL    HW220223   0.641   1.966   8.154  1.0330 -0.0453  1.3693
 2864SOL     OW20224   4.439   0.225   7.794  0.3684  0.4379  0.1647
 2864SOL    HW120225   4.490   0.187   7.723  0.9854 -0.8114  1.2820
 2864SOL    HW220226   4.456   0.164   7.866  0.5791 -0.2183 -0.4431
 2865SOL     OW20227   2.147   0.174   4.870 -0.4076 -0.4053 -0.3116
 2865SOL    HW120228   2.147   0.078   4.874 -1.4318 -0.4137 -0.5581
 2865SOL    HW220229   2.101   0.189   4.787 -1.4641  1.0186  0.5290
 2866SOL     OW20230   0.576   4.112   3.439  0.3586 -0.1732  0.2714
 2866SOL    HW120231   0.491   4.126   3.480 -0.0642 -0.2424 -0.5809
 2866SOL    HW220232   0.615   4.199   3.451  0.3827 -0.1093 -0.2925
 2867SOL     OW20233   3.270   2.415   4.507  0.1086 -0.3351  0.5623
 2867SOL    HW120234   3.336   2.412   4.576  0.2782 -0.0678  0.4109
 2867SOL    HW220235   3.266   2.331   4.462 -0.4159 -0.7592  1.4091
 2868SOL     OW20236   1.125   2.058   4.838 -0.1771 -0.0736  0.0221
 2868SOL    HW120237   1.146   1.965   4.847  1.7534  0.1793 -1.6479
 2868SOL    HW220238   1.188   2.091   4.902 -0.6078  1.1414 -0.1824
 2869SOL     OW20239   1.799   3.818   3.027 -0.7767  0.4604  0.1240
 2869SOL    HW120240   1.816   3.735   2.981  1.3719 -0.1589  2.0234
 2869SOL    HW220241   1.787   3.877   2.952 -0.1783  0.3157 -0.0931
 2870SOL     OW20242   3.061   0.702   8.643  0.3839 -0.1506 -0.4135
 2870SOL    HW120243   3.119   0.774   8.670 -0.1390 -0.5635  1.7838
 2870SOL    HW220244   3.038   0.743   8.560 -0.3172 -0.4708 -0.3719
 2871SOL     OW20245   4.665   3.223   1.614  0.2286  0.5248 -0.7916
 2871SOL    HW120246   4.600   3.169   1.568 -0.5919  0.5940  0.2951
 2871SOL    HW220247   4.603   3.266   1.673 -0.2722 -0.6253 -0.4882
 2872SOL     OW20248   2.034   4.521   5.080 -0.1969  0.6276  0.5979
 2872SOL    HW120249   2.076   4.583   5.140 -1.0709  1.2020  0.6071
 2872SOL    HW220250   2.002   4.445   5.129 -0.3700  1.2596  1.4629
 2873SOL     OW20251   0.917   0.284  11.845 -0.9305 -0.1190  0.1309
 2873SOL    HW120252   0.923   0.215  11.911 -3.0709 -0.3818  0.0542
 2873SOL    HW220253   0.853   0.250  11.781 -1.0308 -0.2426  0.2965
 2874SOL     OW20254   3.066   4.328   8.746 -0.1126 -0.3169 -0.3691
 2874SOL    HW120255   3.133   4.259   8.745  1.9596  1.7091  0.2374
 2874SOL    HW220256   3.093   4.363   8.831 -0.1191 -1.1915  0.0012
 2875SOL     OW20257   3.085   1.542   8.611  0.2241  0.4899  0.2984
 2875SOL    HW120258   3.097   1.598   8.535 -2.2686 -1.8415 -1.8041
 2875SOL    HW220259   3.014   1.489   8.575  1.6434  0.7431 -2.8299
 2876SOL     OW20260   2.321   2.385  14.846  0.1573 -0.0380  0.4899
 2876SOL    HW120261   2.277   2.395  14.931 -1.0072 -1.3748  0.0413
 2876SOL    HW220262   2.406   2.357  14.880  0.1606 -0.8127 -0.1699
 2877SOL     OW20263   2.703   1.002   1.970 -0.0653  0.1751 -0.0833
 2877SOL    HW120264   2.630   1.043   1.925  0.0027  1.0418  0.6053
 2877SOL    HW220265   2.713   0.928   1.910 -0.4202  0.2857 -0.2774
 2878SOL     OW20266   0.805   4.537  10.426  0.3696  1.2576 -0.3710
 2878SOL    HW120267   0.801   4.592  10.348 -1.8398 -0.5063 -1.4830
 2878SOL    HW220268   0.714   4.533  10.456  0.7478 -1.1470  0.4900
 2879SOL     OW20269   3.367   1.047   2.111 -0.4869  0.5048 -0.2104
 2879SOL    HW120270   3.433   0.989   2.072  0.0030  0.4359  0.7184
 2879SOL    HW220271   3.295   0.985   2.120  0.3525 -0.3243  0.7780
 2880SOL     OW20272   1.459   3.317   5.477  0.5035  0.0894 -0.2545
 2880SOL    HW120273   1.400   3.385   5.510 -0.6349 -1.8817  1.7829
 2880SOL    HW220274   1.462   3.343   5.385  0.5819  1.3508  0.1057
 2881SOL     OW20275   0.305   2.817  13.623 -0.1940  0.2654 -0.3132
 2881SOL    HW120276   0.390   2.780  13.647 -0.6284 -0.5198  0.0225
 2881SOL    HW220277   0.304   2.904  13.663  2.2487  0.1926 -0.0863
 2882SOL     OW20278   2.921   0.917  10.138 -0.0163 -0.3414 -0.2150
 2882SOL    HW120279   3.015   0.899  10.146  0.2602  0.5461 -1.5305
 2882SOL    HW220280   2.881   0.851  10.194 -0.0902 -1.1585 -1.2299
 2883SOL     OW20281   0.575   0.422   4.729 -0.1200 -0.3856  0.4120
 2883SOL    HW120282   0.525   0.373   4.795  1.4183 -2.1382  0.2647
 2883SOL    HW220283   0.541   0.511   4.723  1.1694  0.3206  3.4790
 2884SOL     OW20284   1.977   0.423   6.895 -0.2110  0.0109  0.5853
 2884SOL    HW120285   2.038   0.378   6.953  1.1924 -0.2803 -1.1033
 2884SOL    HW220286   1.993   0.392   6.806  0.7722  2.2357  0.0024
 2885SOL     OW20287   2.798   1.311   8.945 -0.5066  0.0432  0.2425
 2885SOL    HW120288   2.836   1.250   8.882  0.1269 -0.1277  0.7955
 2885SOL    HW220289   2.736   1.358   8.888 -0.2981 -3.7203 -3.0596
 2886SOL     OW20290   0.346   0.779   0.527  0.1503 -0.3404 -0.3922
 2886SOL    HW120291   0.355   0.840   0.601 -0.9399 -2.2172  1.2910
 2886SOL    HW220292   0.277   0.723   0.562 -0.2292 -0.8191 -1.9242
 2887SOL     OW20293   3.997   0.977   5.217  0.6486  0.1583 -0.4279
 2887SOL    HW120294   3.971   0.903   5.273  0.6983 -0.3650 -1.0891
 2887SOL    HW220295   4.084   0.951   5.186  0.2494  0.4051 -1.7451
 2888SOL     OW20296   0.426   1.578   6.037  0.5213 -0.6476  0.2617
 2888SOL    HW120297   0.462   1.602   6.122 -0.0261  0.3591  0.2017
 2888SOL    HW220298   0.463   1.490   6.025  2.7960  0.1947  1.2002
 2889SOL     OW20299   4.189   2.530   8.580  0.2473  1.0301  0.0847
 2889SOL    HW120300   4.276   2.502   8.609 -0.2774 -1.9925 -1.2319
 2889SOL    HW220301   4.162   2.564   8.665 -2.7876 -3.6991  1.0135
 2890SOL     OW20302   3.674   3.333   3.627 -0.3650  0.6528  0.5890
 2890SOL    HW120303   3.645   3.400   3.688  0.3365  0.2019  1.4168
 2890SOL    HW220304   3.723   3.391   3.569  1.8900 -0.2385  1.6120
 2891SOL     OW20305   0.270   1.175   7.317  0.6069 -0.0616 -0.2974
 2891SOL    HW120306   0.334   1.124   7.267  1.1034 -0.3204  0.5887
 2891SOL    HW220307   0.316   1.259   7.323  1.0039 -0.2899 -0.0873
 2892SOL     OW20308   4.032   3.171  13.518 -0.1904  0.8545  0.0783
 2892SOL    HW120309   4.126   3.155  13.515 -0.4251 -0.2285 -1.3671
 2892SOL    HW220310   3.994   3.092  13.557  0.3878 -0.1230 -1.3546
 2893SOL     OW20311   3.087   1.596  11.162 -0.5790  0.8812  0.8212
 2893SOL    HW120312   3.121   1.678  11.198 -0.1303  0.7073  0.7929
 2893SOL    HW220313   3.073   1.635  11.076 -1.1434 -1.1050  0.0063
 2894SOL     OW20314   0.640   2.397   8.313 -0.2339  0.2210 -0.6076
 2894SOL    HW120315   0.681   2.388   8.227  1.5968  0.4700  0.2308
 2894SOL    HW220316   0.682   2.477   8.346 -1.6406 -0.0193  1.8094
 2895SOL     OW20317   3.603   1.864   2.278  0.3774  0.3755  0.1350
 2895SOL    HW120318   3.584   1.864   2.371 -0.0249 -0.8271  0.0442
 2895SOL    HW220319   3.689   1.821   2.278  0.3702  0.3625  0.3407
 2896SOL     OW20320   2.129   4.451   4.114 -0.1672  0.1033  0.0097
 2896SOL    HW120321   2.169   4.368   4.141  0.8471  0.6664  0.2430
 2896SOL    HW220322   2.171   4.465   4.029 -2.5967 -0.8607 -1.3236
 2897SOL     OW20323   0.365   0.228   6.188  0.1905  0.4205  0.2126
 2897SOL    HW120324   0.304   0.250   6.258  1.2555  1.7838  0.7152
 2897SOL    HW220325   0.408   0.148   6.218  0.9159  0.7467  0.0316
 2898SOL     OW20326   2.599   2.950  15.222 -0.3220  0.2856  0.3529
 2898SOL    HW120327   2.654   2.901  15.161  3.0213  2.4983  1.5891
 2898SOL    HW220328   2.616   3.035  15.182 -0.3067  0.4861  0.7855
 2899SOL     OW20329   4.698   2.489   3.895  0.0221  0.2250  0.0256
 2899SOL    HW120330   4.609   2.523   3.894  0.0384  0.3155  1.5224
 2899SOL    HW220331   4.705   2.446   3.810  4.8599 -0.0114  0.5292
 2900SOL     OW20332   4.433   4.720   2.975  0.3112 -0.4431 -0.3753
 2900SOL    HW120333   4.478   4.642   2.943  0.4392 -0.5434  0.0524
 2900SOL    HW220334   4.411   4.697   3.065 -0.9636  0.2379 -0.5021
 2901SOL     OW20335   3.396   1.948   3.434 -0.6822 -0.1487  0.3192
 2901SOL    HW120336   3.465   1.934   3.498  0.6346  1.8552 -0.6951
 2901SOL    HW220337   3.422   1.897   3.357 -1.0428 -0.1168  0.1731
 2902SOL     OW20338   2.924   1.953   9.194  0.3501  0.0656  0.4080
 2902SOL    HW120339   2.962   1.880   9.146 -0.6775 -0.1020 -0.1508
 2902SOL    HW220340   2.862   1.896   9.240 -0.8934 -0.6058 -2.1325
 2903SOL     OW20341   4.031   2.663   6.196  0.0730  0.3446 -0.2775
 2903SOL    HW120342   4.009   2.583   6.147  0.7749 -0.2304  0.3417
 2903SOL    HW220343   4.120   2.639   6.222  0.6040  1.8295 -0.7697
 2904SOL     OW20344   1.660   3.475   1.728  0.1984  0.1760 -0.4042
 2904SOL    HW120345   1.668   3.523   1.810 -1.8324 -0.2346  0.0248
 2904SOL    HW220346   1.604   3.409   1.768 -0.3656  1.9250  1.6990
 2905SOL     OW20347   0.679   2.995   5.062  0.1522 -0.6842 -0.8524
 2905SOL    HW120348   0.688   2.944   5.142  1.7921 -0.7941 -1.1094
 2905SOL    HW220349   0.642   2.936   4.996 -3.5793 -0.2577  0.8844
 2906SOL     OW20350   3.850   0.272   7.513  0.0314 -0.0210  0.4686
 2906SOL    HW120351   3.805   0.337   7.458 -1.1618 -1.7695 -0.5961
 2906SOL    HW220352   3.927   0.316   7.549 -1.7382  2.2527  1.5037
 2907SOL     OW20353   2.553   0.478   4.663 -0.1167 -0.2590 -0.4321
 2907SOL    HW120354   2.546   0.394   4.709  1.6005  0.6456  1.4560
 2907SOL    HW220355   2.505   0.535   4.723  2.7908 -2.1547  3.7553
 2908SOL     OW20356   2.820   0.167   9.790 -0.1450  0.3533  0.1030
 2908SOL    HW120357   2.874   0.160   9.869  1.4568  1.8225 -0.8572
 2908SOL    HW220358   2.737   0.145   9.831  1.1976 -0.2846  2.5099
 2909SOL     OW20359   2.433   1.126   3.250 -0.2452 -0.1253 -0.5431
 2909SOL    HW120360   2.364   1.097   3.310 -1.3305  0.8047 -1.3579
 2909SOL    HW220361   2.381   1.168   3.181  0.9460  0.2713 -1.1959
 2910SOL     OW20362   4.238   4.250   0.914 -0.3031 -0.4094  0.3020
 2910SOL    HW120363   4.317   4.270   0.965 -0.7292 -1.0847  1.2278
 2910SOL    HW220364   4.274   4.188   0.850 -1.3449 -1.9650  1.2213
 2911SOL     OW20365   1.481   0.483  17.678 -0.0887  0.5914  0.2919
 2911SOL    HW120366   1.393   0.448  17.692 -1.0107  2.2021 -1.5254
 2911SOL    HW220367   1.497   0.477  17.584  0.6051 -1.3320  0.5518
 2912SOL     OW20368   4.073   2.020  13.187  0.4595 -0.1312 -0.4814
 2912SOL    HW120369   3.978   2.010  13.194  0.2980  1.0316 -1.0115
 2912SOL    HW220370   4.079   2.085  13.257 -2.8547  1.0407 -1.2821
 2913SOL     OW20371   4.728   2.091   7.847 -0.1939  0.0367  0.6481
 2913SOL    HW120372   4.696   2.003   7.864 -0.5220  0.6273  3.0846
 2913SOL    HW220373   0.079   2.091   7.895  0.6451  0.7150 -0.8281
 2914SOL     OW20374   1.198   0.711   3.046  0.1120  0.7433  0.0537
 2914SOL    HW120375   1.234   0.688   3.132 -0.9672  0.1145  0.3443
 2914SOL    HW220376   1.192   0.620   3.018  1.2384 -0.1366  2.6074
 2915SOL     OW20377   1.333   2.265   8.682  0.3963 -0.3359 -0.2997
 2915SOL    HW120378   1.274   2.208   8.730  0.5028 -2.1876 -2.3698
 2915SOL    HW220379   1.285   2.347   8.673 -1.1149 -1.2445 -0.3539
 2916SOL     OW20380   1.830   4.165   2.457  0.6562 -0.3928 -0.3629
 2916SOL    HW120381   1.741   4.130   2.466 -0.5843  2.6544 -0.4223
 2916SOL    HW220382   1.793   4.246   2.420 -1.5599 -1.2368  0.0026
 2917SOL     OW20383   4.046   4.653   0.849  0.1295  0.2849  0.2895
 2917SOL    HW120384   3.992   4.666   0.772 -1.9472 -0.7744  1.5496
 2917SOL    HW220385   4.091   4.573   0.821 -1.3128 -1.4534  2.8933
 2918SOL     OW20386   4.569   1.634   3.899 -0.3748 -0.2460 -0.9796
 2918SOL    HW120387   4.662   1.617   3.890 -0.2569 -0.3207  0.3586
 2918SOL    HW220388   4.571   1.669   3.988 -1.6697  0.6186 -1.2894
 2919SOL     OW20389   1.130   1.837  16.658 -0.1220  0.0401  0.2177
 2919SOL    HW120390   1.169   1.749  16.657 -0.1899  0.0087  0.2796
 2919SOL    HW220391   1.187   1.870  16.728 -0.4645  2.0046 -0.4460
 2920SOL     OW20392   0.228   3.825  17.317 -0.2744  0.5339 -0.2700
 2920SOL    HW120393   0.239   3.909  17.362 -0.7112 -0.4001  1.5660
 2920SOL    HW220394   0.180   3.861  17.243  0.3291  1.1572 -0.3601
 2921SOL     OW20395   0.587   2.761   4.233 -0.6519 -0.0913 -0.0879
 2921SOL    HW120396   0.522   2.806   4.287 -0.9598 -0.7871  0.1235
 2921SOL    HW220397   0.555   2.779   4.145 -1.0377  1.6584  0.4056
 2922SOL     OW20398   3.494   3.554   6.394  0.5142  0.5246  0.0606
 2922SOL    HW120399   3.484   3.644   6.426  0.8838  1.2704 -1.9442
 2922SOL    HW220400   3.447   3.507   6.463 -0.3974  1.3577  0.0024
 2923SOL     OW20401   1.762   2.188   5.225 -0.3448  0.4265 -0.7028
 2923SOL    HW120402   1.844   2.173   5.179 -0.4436  2.7696 -1.6790
 2923SOL    HW220403   1.725   2.265   5.180  0.3537  0.2518 -1.5681
 2924SOL     OW20404   2.715   0.577   5.560  0.0034  0.2188 -0.2620
 2924SOL    HW120405   2.767   0.557   5.482 -0.5905 -3.3882  0.2419
 2924SOL    HW220406   2.701   0.488   5.593  2.6272 -0.3662 -0.7690
 2925SOL     OW20407   0.871   3.277   6.916 -0.1218  0.7200  0.4646
 2925SOL    HW120408   0.874   3.367   6.881 -0.9172  0.3654 -0.5092
 2925SOL    HW220409   0.950   3.285   6.971  0.5307  0.7991 -0.4816
 2926SOL     OW20410   2.507   0.834   9.783  0.0969  0.5255 -0.0095
 2926SOL    HW120411   2.470   0.813   9.697  0.7142 -0.6614  0.0114
 2926SOL    HW220412   2.546   0.747   9.795 -1.0085  0.1178  0.6650
 2927SOL     OW20413   2.715   2.640   8.957  1.1113 -0.0163  0.3946
 2927SOL    HW120414   2.768   2.705   9.004  1.9667 -0.3740 -0.0593
 2927SOL    HW220415   2.723   2.559   9.008  2.0634  0.5684  1.1811
 2928SOL     OW20416   0.560   4.226   2.272 -0.0298 -0.6410 -1.1103
 2928SOL    HW120417   0.583   4.176   2.350 -1.4010 -2.8403 -2.1109
 2928SOL    HW220418   0.516   4.158   2.220  0.1045 -0.9752 -0.7886
 2929SOL     OW20419   2.371   0.501  11.572 -0.4758 -0.5869  0.4981
 2929SOL    HW120420   2.433   0.429  11.555 -0.4413 -1.3052  3.7355
 2929SOL    HW220421   2.356   0.498  11.666  0.0581 -0.6744  0.5804
 2930SOL     OW20422   1.878   4.639   0.638  0.3905 -0.3806 -0.3381
 2930SOL    HW120423   1.790   4.675   0.624  0.3113 -0.6597 -0.5646
 2930SOL    HW220424   1.848   4.572   0.699  2.4964  0.6982  1.8961
 2931SOL     OW20425   3.526   1.645  11.811  0.3226  0.1186  0.1995
 2931SOL    HW120426   3.532   1.552  11.790 -1.0409 -0.2791  1.5823
 2931SOL    HW220427   3.620   1.662  11.803 -0.1566  2.6366 -0.1110
 2932SOL     OW20428   1.465   1.357  10.649  0.6074  0.0988  0.0677
 2932SOL    HW120429   1.428   1.296  10.585  1.2806  1.8797 -1.9989
 2932SOL    HW220430   1.433   1.442  10.617 -0.5743  0.8960  3.3507
 2933SOL     OW20431   2.610   0.341  16.403 -0.1450  0.1485  0.3016
 2933SOL    HW120432   2.553   0.268  16.426  0.7970 -0.5867  0.3085
 2933SOL    HW220433   2.550   0.410  16.376  1.4488 -0.2989 -4.4983
 2934SOL     OW20434   0.996   3.257   4.882  0.0332  0.5527  0.4914
 2934SOL    HW120435   1.021   3.347   4.858 -2.0020  0.8110 -0.6061
 2934SOL    HW220436   1.087   3.233   4.900 -0.3482 -0.0820  1.5389
 2935SOL     OW20437   0.072   0.136   9.266 -0.4507 -0.2618 -0.1591
 2935SOL    HW120438   0.049   0.120   9.175  2.8749 -1.5295 -0.7868
 2935SOL    HW220439   4.719   0.163   9.298 -0.9349 -2.8988  0.7411
 2936SOL     OW20440   0.541   3.275   4.544 -0.1539  0.5750  0.0743
 2936SOL    HW120441   0.547   3.242   4.634  0.1527 -1.2069 -0.6069
 2936SOL    HW220442   0.511   3.197   4.500 -0.9559  0.8804  0.0875
 2937SOL     OW20443   2.357   3.956   7.954 -0.6875  0.0844  0.0647
 2937SOL    HW120444   2.293   3.901   7.999 -0.2783 -0.5259 -0.0962
 2937SOL    HW220445   2.437   3.904   7.956 -1.3165 -0.8374  0.9528
 2938SOL     OW20446   3.314   1.451   2.781 -0.4174  0.2712  0.3895
 2938SOL    HW120447   3.347   1.392   2.850 -1.1131  0.1076  0.5766
 2938SOL    HW220448   3.219   1.444   2.789 -0.3957 -1.3328 -0.6374
 2939SOL     OW20449   2.988   4.161   5.159 -0.1043  0.3741  0.0579
 2939SOL    HW120450   2.938   4.232   5.199  0.4456  0.4213  0.6563
 2939SOL    HW220451   2.964   4.078   5.200  0.8995 -0.3606 -0.8372
 2940SOL     OW20452   3.468   1.463   1.536 -0.1417 -0.3009 -0.3669
 2940SOL    HW120453   3.478   1.546   1.582  2.6653 -0.0778 -1.3664
 2940SOL    HW220454   3.423   1.415   1.605  2.5051 -1.3729  0.6129
 2941SOL     OW20455   3.229   0.093   9.497 -0.0317 -0.2887  0.1433
 2941SOL    HW120456   3.270   0.118   9.580 -0.1554  1.8840 -0.4646
 2941SOL    HW220457   3.139   0.099   9.529 -0.1560 -0.0080 -0.2643
 2942SOL     OW20458   0.637   0.934   1.128  0.0923  0.2803 -0.0943
 2942SOL    HW120459   0.585   0.854   1.123  0.7437 -0.1067 -0.7498
 2942SOL    HW220460   0.599   0.985   1.057  0.1857  0.4584 -0.0184
 2943SOL     OW20461   4.537   3.860   6.047 -0.1200  0.6628 -0.8856
 2943SOL    HW120462   4.571   3.779   6.009  1.0937  0.2751  1.0020
 2943SOL    HW220463   4.597   3.922   6.005  0.6187  0.7050  0.2217
 2944SOL     OW20464   0.713   4.062   9.256 -1.0724 -0.1358  0.3619
 2944SOL    HW120465   0.622   4.031   9.253 -1.0724 -0.3572  2.1459
 2944SOL    HW220466   0.734   4.095   9.169 -0.9981 -0.4316  0.2683
 2945SOL     OW20467   2.066   4.418  11.363  0.0669 -0.1218 -0.0015
 2945SOL    HW120468   2.129   4.450  11.429 -1.3787  2.4837  0.1173
 2945SOL    HW220469   2.039   4.493  11.311  0.3575 -0.2886 -0.3884
 2946SOL     OW20470   1.660   2.155   3.121 -0.0446  0.3436  0.6812
 2946SOL    HW120471   1.664   2.066   3.085 -0.2239  0.6554 -0.1183
 2946SOL    HW220472   1.736   2.199   3.083 -0.1880 -0.7988 -0.9652
 2947SOL     OW20473   0.205   0.130   2.887  0.3752  0.6249 -0.0105
 2947SOL    HW120474   0.264   0.126   2.962  0.7449  0.3404 -0.3149
 2947SOL    HW220475   0.268   0.166   2.825  0.0046  1.2504 -0.0195
 2948SOL     OW20476   0.441   3.382   3.188  0.3902  0.3459  0.3490
 2948SOL    HW120477   0.346   3.372   3.180  0.2926  1.5615 -0.0835
 2948SOL    HW220478   0.452   3.303   3.240  2.6586  1.4341  1.5684
 2949SOL     OW20479   3.205   0.212   9.229  0.2515 -0.0071 -0.4064
 2949SOL    HW120480   3.199   0.288   9.287 -1.1385  0.0183 -0.5935
 2949SOL    HW220481   3.253   0.149   9.283  0.3383  1.1772  0.9202
 2950SOL     OW20482   4.025   1.583   4.324  0.6984  0.5101 -0.4830
 2950SOL    HW120483   4.080   1.652   4.285  0.4826 -0.4322 -2.4728
 2950SOL    HW220484   4.050   1.600   4.414  0.1804 -1.7775  0.0923
 2951SOL     OW20485   1.458   4.510   5.559  0.3416 -0.1869 -0.1238
 2951SOL    HW120486   1.509   4.434   5.586  1.5741  0.2348 -1.2337
 2951SOL    HW220487   1.389   4.484   5.620  0.8431 -1.1904  0.0178
 2952SOL     OW20488   0.002   0.429   4.436  0.3170 -0.0753 -0.6916
 2952SOL    HW120489   4.723   0.341   4.400 -2.0832 -0.4029  0.8677
 2952SOL    HW220490   0.009   0.477   4.354  1.6161 -1.6757 -1.5220
 2953SOL     OW20491   0.940   4.191   1.619 -0.3384  0.0177  0.2516
 2953SOL    HW120492   1.010   4.130   1.595 -1.2171 -0.9080  0.0326
 2953SOL    HW220493   0.994   4.257   1.662  1.5719 -0.4919 -1.3558
 2954SOL     OW20494   0.615   3.704   3.460  0.5480  0.2376  0.1458
 2954SOL    HW120495   0.572   3.694   3.375 -1.2677 -0.8960  1.2003
 2954SOL    HW220496   0.691   3.647   3.444 -0.0494 -0.5752  0.1935
 2955SOL     OW20497   0.129   0.258   7.610 -0.1890  0.3112 -0.0531
 2955SOL    HW120498   0.134   0.222   7.522 -2.3042 -1.1039  0.3976
 2955SOL    HW220499   0.034   0.260   7.621 -0.2361  2.7032 -0.9590
 2956SOL     OW20500   2.714   3.299  10.246 -0.6296  0.4305  0.0669
 2956SOL    HW120501   2.800   3.267  10.217 -1.6301 -1.7767 -0.4757
 2956SOL    HW220502   2.667   3.255  10.176  1.3426 -0.6563 -0.5785
 2957SOL     OW20503   1.866   3.115   8.162  0.0259  0.3851  0.1270
 2957SOL    HW120504   1.777   3.080   8.157  0.2794 -0.0263 -1.4438
 2957SOL    HW220505   1.914   3.038   8.190  2.2818  1.8907  0.3941
 2958SOL     OW20506   2.315   2.295   0.604 -0.2738  0.3956  0.3871
 2958SOL    HW120507   2.354   2.382   0.618 -0.3361  0.2461  1.5013
 2958SOL    HW220508   2.397   2.256   0.575 -0.3889 -1.0459  1.9523
 2959SOL     OW20509   0.823   2.002   4.889  0.8423  0.1281  0.1174
 2959SOL    HW120510   0.876   1.990   4.968 -0.4302 -1.6736  0.6868
 2959SOL    HW220511   0.750   2.050   4.927  0.2823 -0.5575 -0.0943
 2960SOL     OW20512   1.090   2.769   3.699 -0.3357 -0.2208 -0.2971
 2960SOL    HW120513   1.077   2.851   3.747  1.5217 -1.2606  1.9587
 2960SOL    HW220514   1.137   2.793   3.619 -1.2303 -0.3113 -0.8609
 2961SOL     OW20515   2.272   1.396   3.341 -0.1711  0.7445 -0.1896
 2961SOL    HW120516   2.201   1.332   3.333 -0.9697  1.5830  0.2158
 2961SOL    HW220517   2.261   1.406   3.436  0.3137  2.6615 -0.3474
 2962SOL     OW20518   2.196   3.182  13.326 -0.8699 -0.7132 -0.1383
 2962SOL    HW120519   2.168   3.261  13.372  0.6556  0.5635 -1.3953
 2962SOL    HW220520   2.220   3.220  13.241  2.2774  3.1154  2.4659
 2963SOL     OW20521   3.883   1.427  15.579  0.9531  0.0633  0.0672
 2963SOL    HW120522   3.946   1.496  15.600 -0.1857  0.0103  3.7291
 2963SOL    HW220523   3.876   1.437  15.484  0.7139  1.0363  0.1769
 2964SOL     OW20524   4.704   2.340  13.080  0.5382 -0.1899 -0.2662
 2964SOL    HW120525   0.020   2.419  13.104 -0.2398  0.6941 -1.5470
 2964SOL    HW220526   4.717   2.303  13.167  1.0167 -0.5260 -0.4775
 2965SOL     OW20527   2.200   1.791  15.356  0.2249  0.0835 -0.7534
 2965SOL    HW120528   2.280   1.821  15.314  1.0025  1.0718  1.4746
 2965SOL    HW220529   2.232   1.710  15.395 -0.4279  1.6151  2.8965
 2966SOL     OW20530   4.120   1.912   1.996 -0.0649  0.2774 -0.0556
 2966SOL    HW120531   4.127   1.877   1.908  1.0683  0.3212  0.0161
 2966SOL    HW220532   4.215   1.919   2.011 -0.0922 -0.2563  0.3841
 2967SOL     OW20533   0.993   4.219  15.232 -0.4267  0.3863 -0.2627
 2967SOL    HW120534   0.915   4.221  15.176 -0.9411  3.1102  0.5940
 2967SOL    HW220535   1.046   4.293  15.204 -0.3463  0.6224  0.5267
 2968SOL     OW20536   3.430   4.150   8.470 -0.0338  0.0076  0.2173
 2968SOL    HW120537   3.496   4.081   8.472  1.0132  0.9205 -2.7300
 2968SOL    HW220538   3.436   4.191   8.556 -1.2241 -1.4862  1.0229
 2969SOL     OW20539   0.066   0.244   6.818  0.0930 -0.3838  0.4801
 2969SOL    HW120540   0.026   0.217   6.901 -2.1887 -0.2993 -0.5955
 2969SOL    HW220541   0.142   0.186   6.816  0.6644  0.3270  1.3820
 2970SOL     OW20542   3.898   3.261   5.826  0.1662 -0.1057  0.2865
 2970SOL    HW120543   3.807   3.247   5.850  0.7132 -2.3681  1.0392
 2970SOL    HW220544   3.890   3.339   5.771 -1.4749 -0.7133 -0.3265
 2971SOL     OW20545   2.427   2.781  16.178  0.1492 -0.6682  0.1634
 2971SOL    HW120546   2.486   2.706  16.175  1.7681  0.6038  0.2381
 2971SOL    HW220547   2.342   2.739  16.167 -0.3467  0.1225  1.0090
 2972SOL     OW20548   1.088   1.276  16.449 -0.1391  0.7858 -0.2172
 2972SOL    HW120549   1.162   1.255  16.393 -0.7444 -1.7490 -0.0955
 2972SOL    HW220550   1.017   1.232  16.402 -0.1611 -0.3541  0.8552
 2973SOL     OW20551   2.551   1.494   7.502  0.0367 -0.0341 -0.2785
 2973SOL    HW120552   2.550   1.438   7.424 -1.4989 -2.9341  1.7907
 2973SOL    HW220553   2.612   1.444   7.556 -0.5653  0.8002  1.1993
 2974SOL     OW20554   0.531   0.035   3.547 -0.4976  0.6464 -0.3469
 2974SOL    HW120555   0.586   0.023   3.624 -0.6698 -2.7888 -0.7520
 2974SOL    HW220556   0.501   4.681   3.520  1.7186  0.0133 -0.7997
 2975SOL     OW20557   1.368   0.454  12.121 -0.2093 -0.0026 -0.6764
 2975SOL    HW120558   1.285   0.422  12.087 -0.9502  0.9740  0.2357
 2975SOL    HW220559   1.341   0.490  12.205  0.3736 -1.1031 -0.0170
 2976SOL     OW20560   3.104   1.139  14.569 -0.1728  0.3971 -0.4725
 2976SOL    HW120561   3.061   1.055  14.588  0.1618  0.1323 -0.8859
 2976SOL    HW220562   3.103   1.185  14.653  0.8047 -0.5638  0.0580
 2977SOL     OW20563   1.816   4.344   4.108  0.1281 -0.5811 -0.1031
 2977SOL    HW120564   1.894   4.393   4.133  0.0289 -1.5550  2.1414
 2977SOL    HW220565   1.749   4.386   4.161  0.2387 -0.9776  0.3561
 2978SOL     OW20566   2.357   3.699   4.261 -0.3484 -0.0740 -0.0986
 2978SOL    HW120567   2.416   3.703   4.186  1.1404  3.0512  1.2492
 2978SOL    HW220568   2.324   3.788   4.252  0.6516  0.3672  0.6039
 2979SOL     OW20569   2.011   4.296   6.928  0.0066 -0.0119  0.4013
 2979SOL    HW120570   2.045   4.314   6.840  1.1232 -0.8590  0.6574
 2979SOL    HW220571   1.926   4.257   6.905  0.0892 -0.4464  0.8188
 2980SOL     OW20572   2.488   2.182   2.222  0.1091 -0.2651 -0.2263
 2980SOL    HW120573   2.514   2.140   2.140 -0.6949 -0.1298 -0.5466
 2980SOL    HW220574   2.558   2.247   2.225  0.8008 -0.9569 -1.4533
 2981SOL     OW20575   1.895   3.363   0.043 -0.3081 -0.2716  0.0544
 2981SOL    HW120576   1.846   3.437   0.006  0.2444 -0.0265 -0.1865
 2981SOL    HW220577   1.980   3.383   0.005 -1.1994  1.1679 -1.2374
 2982SOL     OW20578   1.355   3.323  13.458 -0.5702 -0.7219 -0.3249
 2982SOL    HW120579   1.354   3.418  13.467  1.0715 -0.7023 -0.3367
 2982SOL    HW220580   1.351   3.295  13.550 -0.2823 -3.3158 -1.0971
 2983SOL     OW20581   2.369   3.769   9.159 -0.6978  0.4922  0.2813
 2983SOL    HW120582   2.423   3.829   9.211 -0.0703  0.3387 -0.1950
 2983SOL    HW220583   2.415   3.759   9.076 -0.2272  0.2448  0.5738
 2984SOL     OW20584   0.237   2.142   8.508  0.1209  0.1590 -0.4842
 2984SOL    HW120585   0.247   2.083   8.433 -1.2971  1.9301 -2.0902
 2984SOL    HW220586   0.165   2.107   8.560  1.2339 -1.4117 -0.0101
 2985SOL     OW20587   3.363   2.274  16.650  0.9498  0.0220  0.5123
 2985SOL    HW120588   3.333   2.218  16.579  0.6442 -0.0877  0.7299
 2985SOL    HW220589   3.378   2.356  16.603  1.0752 -0.7000 -0.7041
 2986SOL     OW20590   1.344   1.522   1.969  0.0602 -0.4095 -0.1836
 2986SOL    HW120591   1.389   1.600   2.002 -2.2988 -0.0784  2.2309
 2986SOL    HW220592   1.395   1.511   1.889  0.5211  2.5036 -0.2731
 2987SOL     OW20593   3.965   0.070   6.361  0.1136  0.0749  0.1308
 2987SOL    HW120594   3.951   0.066   6.456  2.3646  2.5849  0.5441
 2987SOL    HW220595   3.962   0.165   6.355 -1.0782 -0.0158 -0.5490
 2988SOL     OW20596   4.438   0.575   9.297  0.4247 -0.3783 -0.2548
 2988SOL    HW120597   4.530   0.548   9.301  0.5209 -0.2267 -1.4318
 2988SOL    HW220598   4.448   0.670   9.290  0.5994 -0.1356  3.4085
 2989SOL     OW20599   0.743   2.648   8.370  0.3959 -0.1339  0.4178
 2989SOL    HW120600   0.706   2.689   8.292 -0.9058 -3.1062 -0.5508
 2989SOL    HW220601   0.765   2.728   8.417 -0.9062 -0.0216  0.8462
 2990SOL     OW20602   2.754   4.597   9.190 -0.5976  0.2816  1.0180
 2990SOL    HW120603   2.684   4.587   9.255 -1.3676  0.3695  0.2156
 2990SOL    HW220604   2.706   4.601   9.107 -0.3334  0.1279  0.8609
 2991SOL     OW20605   2.580   4.161   7.637 -0.3603 -0.4309 -0.3024
 2991SOL    HW120606   2.493   4.127   7.616 -0.3451  0.6320 -2.1073
 2991SOL    HW220607   2.558   4.195   7.723  1.9879  2.1109 -0.7018
 2992SOL     OW20608   0.100   1.298  11.564  0.5350 -0.0112 -0.1059
 2992SOL    HW120609   0.151   1.231  11.609 -0.7792  0.0239  1.4098
 2992SOL    HW220610   0.054   1.246  11.498 -1.1977  0.6967  0.5464
 2993SOL     OW20611   2.909   1.791   3.488  0.5061  0.0560 -0.2766
 2993SOL    HW120612   2.982   1.806   3.428 -1.6977  0.5918 -2.8201
 2993SOL    HW220613   2.878   1.874   3.524 -2.5382 -0.7187 -1.2061
 2994SOL     OW20614   2.223   4.282   4.576 -0.1309 -0.3032  0.6455
 2994SOL    HW120615   2.265   4.326   4.502 -1.0430  0.0698  0.3599
 2994SOL    HW220616   2.256   4.192   4.586 -0.4880 -0.7546 -2.4247
 2995SOL     OW20617   4.677   3.193   2.646 -0.1925  0.4767  0.5791
 2995SOL    HW120618   4.693   3.135   2.571  0.2781  0.6031  0.5859
 2995SOL    HW220619   4.614   3.146   2.701  1.0085 -0.6718  0.9727
 2996SOL     OW20620   0.128   0.279   2.387 -0.0261 -0.5964 -0.6673
 2996SOL    HW120621   0.114   0.203   2.331 -0.7111 -0.5545 -0.5596
 2996SOL    HW220622   0.051   0.281   2.444  1.1587 -1.1273  0.9648
 2997SOL     OW20623   4.238   1.034   2.641  0.2271 -0.0067  0.2107
 2997SOL    HW120624   4.201   1.099   2.701  1.7770 -0.3436  1.4998
 2997SOL    HW220625   4.211   1.065   2.554 -0.7058  1.7683  1.1271
 2998SOL     OW20626   1.097   1.455   4.561 -0.1515 -0.0965 -0.8130
 2998SOL    HW120627   1.038   1.445   4.636 -1.2461  2.3520 -1.3511
 2998SOL    HW220628   1.041   1.423   4.490 -1.4664  1.0058 -0.2669
 2999SOL     OW20629   1.044   3.108   9.368 -0.1462 -0.1470  0.4553
 2999SOL    HW120630   1.065   3.089   9.459  1.9670 -1.0004 -0.2029
 2999SOL    HW220631   1.072   3.196   9.342 -2.3505  0.2547 -0.5638
 3000SOL     OW20632   2.747   1.480  10.119 -0.2751  0.6786 -0.2791
 3000SOL    HW120633   2.654   1.469  10.139 -0.4578  2.0344 -0.3810
 3000SOL    HW220634   2.782   1.392  10.108 -2.2615 -0.3007  1.3705
 3001SOL     OW20635   0.570   2.204  12.098 -0.2436 -0.0066  0.1723
 3001SOL    HW120636   0.513   2.275  12.127  0.4164  0.4547  0.3477
 3001SOL    HW220637   0.639   2.214  12.164 -0.2560 -1.8416  0.4413
 3002SOL     OW20638   4.065   1.795  16.659 -0.0029  0.0368 -0.5177
 3002SOL    HW120639   4.099   1.883  16.643  0.0233  0.1034 -0.1103
 3002SOL    HW220640   3.974   1.798  16.632 -0.0180  0.5928 -0.4070
 3003SOL     OW20641   1.834   0.624   5.438  0.3043  0.2935 -0.2372
 3003SOL    HW120642   1.916   0.628   5.388 -0.4395 -1.1381 -1.5702
 3003SOL    HW220643   1.849   0.570   5.516 -2.1466  1.0182  0.7279
 3004SOL     OW20644   1.320   2.147   4.632 -0.2040 -0.6258  0.1666
 3004SOL    HW120645   1.271   2.088   4.690 -0.3727 -0.2974  0.3560
 3004SOL    HW220646   1.310   2.094   4.552 -0.3009 -1.9695  1.0660
 3005SOL     OW20647   1.556   2.263   8.526  0.2031 -0.5094 -0.0523
 3005SOL    HW120648   1.485   2.271   8.591  0.8513 -1.8962  0.8163
 3005SOL    HW220649   1.630   2.304   8.571 -0.0363  0.7648 -0.7984
 3006SOL     OW20650   0.974   3.814  12.032 -0.7231 -0.1806  0.0870
 3006SOL    HW120651   0.901   3.755  12.052  0.5978 -1.4904  1.0709
 3006SOL    HW220652   1.009   3.830  12.120 -0.5110  0.0417 -0.0381
 3007SOL     OW20653   2.077   0.033   5.912  0.0744 -0.7587 -0.3644
 3007SOL    HW120654   2.165   0.013   5.945 -0.1845 -0.3373  0.5839
 3007SOL    HW220655   2.054   4.679   5.878  1.5160 -1.1285 -0.4033
 3008SOL     OW20656   1.066   3.423  15.873  0.3845 -0.2590 -0.4992
 3008SOL    HW120657   0.993   3.369  15.904  2.9443 -3.3258  0.2946
 3008SOL    HW220658   1.126   3.348  15.870  0.5768 -0.1810  1.3239
 3009SOL     OW20659   1.769   3.931   8.238 -0.1688  0.2177  0.5911
 3009SOL    HW120660   1.850   3.895   8.272  0.6215  1.0028 -0.4707
 3009SOL    HW220661   1.724   3.855   8.202  0.6522 -1.3996  2.9855
 3010SOL     OW20662   3.093   0.047   5.388 -0.1729 -0.8442 -0.3149
 3010SOL    HW120663   3.047   4.700   5.415  0.4098 -0.3950  1.9955
 3010SOL    HW220664   3.061   0.070   5.301 -1.8793  0.2955  0.6343
 3011SOL     OW20665   1.019   0.208   5.745  0.9172 -0.2848 -0.6403
 3011SOL    HW120666   1.074   0.231   5.670 -0.1731 -0.7217 -1.5568
 3011SOL    HW220667   1.074   0.227   5.821  0.9952 -0.4613 -0.6530
 3012SOL     OW20668   0.377   1.390   0.972  0.0517 -0.1272  0.3643
 3012SOL    HW120669   0.282   1.402   0.969  0.0191 -0.8929 -1.7002
 3012SOL    HW220670   0.405   1.460   0.911  1.0670  0.1006  1.0883
 3013SOL     OW20671   2.309   0.182   9.316 -0.2329  0.6462  0.2493
 3013SOL    HW120672   2.301   0.263   9.266 -1.5120 -0.8321 -1.9433
 3013SOL    HW220673   2.359   0.214   9.391  1.1294 -0.9608  0.0579
 3014SOL     OW20674   0.782   2.611  13.391  0.4260  0.0886 -0.2502
 3014SOL    HW120675   0.832   2.637  13.468  0.3541 -5.1687  1.6355
 3014SOL    HW220676   0.856   2.585  13.337  0.4097  0.4587 -0.4442
 3015SOL     OW20677   2.352   0.047   6.400  0.2325  0.0075  0.1225
 3015SOL    HW120678   2.264   0.083   6.389 -0.5080 -1.5236  1.1332
 3015SOL    HW220679   2.392   0.060   6.314  0.6307 -1.5960  0.0686
 3016SOL     OW20680   2.474   1.500  12.232 -0.8636  0.0973 -0.1076
 3016SOL    HW120681   2.522   1.491  12.150 -0.1706  1.9024  0.1025
 3016SOL    HW220682   2.525   1.564  12.282 -0.4207 -1.7305  1.7687
 3017SOL     OW20683   0.730   2.119   3.862  0.1974 -0.4963  0.1403
 3017SOL    HW120684   0.709   2.148   3.951  1.0722  1.4051 -0.2693
 3017SOL    HW220685   0.825   2.104   3.867  0.4695  1.5392  1.1891
 3018SOL     OW20686   0.161   4.287  16.705  0.1011  0.0562  0.1995
 3018SOL    HW120687   0.170   4.358  16.641 -1.5239 -0.8363 -1.0104
 3018SOL    HW220688   0.067   4.273  16.709  0.2603 -0.7620  1.0656
 3019SOL     OW20689   3.206   0.259   7.704  0.1622 -0.3211  0.2049
 3019SOL    HW120690   3.161   0.186   7.748 -1.6047 -0.7735 -2.2815
 3019SOL    HW220691   3.175   0.236   7.616  0.9088 -0.2401 -0.0714
 3020SOL     OW20692   2.456   0.684   4.818 -0.1958 -0.4681 -0.2134
 3020SOL    HW120693   2.494   0.707   4.903  1.5976  0.5381 -1.2869
 3020SOL    HW220694   2.368   0.713   4.843 -0.2206 -1.9089  1.4270
 3021SOL     OW20695   2.412   1.876   2.522  0.2616 -0.4571 -0.4139
 3021SOL    HW120696   2.454   1.867   2.608 -1.0333 -1.1905  0.1445
 3021SOL    HW220697   2.468   1.943   2.484  0.2242  1.4059  2.8003
 3022SOL     OW20698   3.374   0.600   3.154  0.1262 -0.0683  0.1161
 3022SOL    HW120699   3.414   0.523   3.194 -0.1302  1.0777  2.5693
 3022SOL    HW220700   3.379   0.576   3.061 -1.9725  0.1394 -0.0618
 3023SOL     OW20701   0.472   4.538   7.648 -0.2344 -0.2511 -0.1630
 3023SOL    HW120702   0.419   4.506   7.575  0.8575  3.0492 -2.4118
 3023SOL    HW220703   0.421   4.606   7.691  0.3645 -1.8371  3.0507
 3024SOL     OW20704   0.700   0.101   3.328 -0.5366  0.8902  0.5492
 3024SOL    HW120705   0.652   0.114   3.410  1.0241  4.3317  0.9344
 3024SOL    HW220706   0.637   0.146   3.271 -2.2098  2.9025  3.9636
 3025SOL     OW20707   4.607   1.186   4.920 -0.0075  0.5939  0.5882
 3025SOL    HW120708   4.513   1.194   4.933  0.0040  0.7236  0.5919
 3025SOL    HW220709   4.639   1.271   4.951  0.5002  0.6957 -0.2295
 3026SOL     OW20710   1.797   0.093   4.970  0.3087 -0.1162  0.0635
 3026SOL    HW120711   1.825   0.177   5.007 -2.2185  0.5186  0.5240
 3026SOL    HW220712   1.725   0.072   5.029 -1.3149  1.3668 -1.3846
 3027SOL     OW20713   4.556   3.645  14.152 -0.5619 -0.0816  0.6506
 3027SOL    HW120714   4.470   3.653  14.194  0.5813  0.5005  2.8524
 3027SOL    HW220715   4.596   3.560  14.171 -0.6111  0.0500  1.3656
 3028SOL     OW20716   1.223   4.097   1.598 -0.2139 -0.0707 -0.5203
 3028SOL    HW120717   1.313   4.118   1.572 -0.9334  0.9076 -2.1875
 3028SOL    HW220718   1.229   4.091   1.694  0.7280  0.0850 -0.5721
 3029SOL     OW20719   2.795   4.252   5.455 -0.9661  0.6850 -0.2318
 3029SOL    HW120720   2.753   4.189   5.396  0.3980 -0.7638  0.3296
 3029SOL    HW220721   2.872   4.198   5.473  0.0573  2.7917  1.7573
 3030SOL     OW20722   3.110   1.201   4.262  1.2859 -0.4175 -0.2457
 3030SOL    HW120723   3.146   1.242   4.341  1.5270  1.2924 -1.2700
 3030SOL    HW220724   3.088   1.117   4.304 -2.4008 -0.4636 -2.3099
 3031SOL     OW20725   0.608   4.047   2.503  0.8602 -0.6830 -0.0982
 3031SOL    HW120726   0.526   4.025   2.547  0.0212  0.8700 -0.8619
 3031SOL    HW220727   0.664   3.976   2.533  2.2519  1.2650  1.9199
 3032SOL     OW20728   2.542   2.997   6.328  0.5124  0.0627  0.1826
 3032SOL    HW120729   2.486   3.033   6.396 -0.8420 -2.5880  0.4737
 3032SOL    HW220730   2.488   2.928   6.288  0.1258  0.1353  0.5823
 3033SOL     OW20731   0.080   3.902   0.019 -0.8020 -0.4635 -0.4108
 3033SOL    HW120732   0.030   3.980  17.726 -1.2242 -0.8696 -0.8929
 3033SOL    HW220733   0.016   3.854   0.071 -0.8530 -1.3788 -1.3068
 3034SOL     OW20734   1.854   2.813   2.934  0.2532 -0.0203 -0.4814
 3034SOL    HW120735   1.836   2.723   2.963  0.8706  0.5200  1.6197
 3034SOL    HW220736   1.787   2.818   2.866  0.4468 -0.1250 -0.6800
 3035SOL     OW20737   0.513   2.834   9.865  0.1263 -0.4421  0.1119
 3035SOL    HW120738   0.558   2.782   9.931  3.6111  1.5033 -0.7298
 3035SOL    HW220739   0.547   2.920   9.892 -1.3031  0.5787 -1.3282
 3036SOL     OW20740   0.790   2.662   4.389 -0.2334 -0.1976 -0.1739
 3036SOL    HW120741   0.725   2.700   4.330 -1.8306 -1.4217  0.7823
 3036SOL    HW220742   0.738   2.587   4.419  0.0837 -0.1687  0.4484
 3037SOL     OW20743   4.271   0.736   0.479  0.1139  0.0538 -0.2616
 3037SOL    HW120744   4.204   0.671   0.459  2.2649 -2.4377  0.6259
 3037SOL    HW220745   4.282   0.787   0.398 -0.2208  0.9406  0.2454
 3038SOL     OW20746   0.624   1.794  14.948  0.3328 -0.6145  0.0129
 3038SOL    HW120747   0.593   1.815  14.860  1.0454  0.6000  0.0546
 3038SOL    HW220748   0.673   1.713  14.937  0.7259 -0.3236 -0.3589
 3039SOL     OW20749   4.304   0.563   6.904  0.5081  0.3650  0.1115
 3039SOL    HW120750   4.364   0.626   6.865 -1.1379  2.7642  1.4676
 3039SOL    HW220751   4.303   0.608   6.988 -1.4530  1.1743 -0.3615
 3040SOL     OW20752   2.822   1.264   2.438 -0.6487 -0.2368 -0.1965
 3040SOL    HW120753   2.846   1.193   2.498  0.7151  1.2649  1.0198
 3040SOL    HW220754   2.810   1.219   2.355 -0.1400  1.7772 -1.3610
 3041SOL     OW20755   4.539   4.590   6.390 -0.4516  0.0641  0.2637
 3041SOL    HW120756   4.549   4.638   6.308  2.4471  0.2881  0.7636
 3041SOL    HW220757   4.458   4.543   6.369 -0.8168  0.4451  0.8227
 3042SOL     OW20758   2.585   1.824  14.961 -0.4664  0.3350  0.1520
 3042SOL    HW120759   2.509   1.790  14.915  1.1327 -0.2889 -2.0501
 3042SOL    HW220760   2.592   1.912  14.925  0.2148 -0.4648 -1.6521
 3043SOL     OW20761   4.053   4.031   2.733  0.1246 -0.3321  0.1274
 3043SOL    HW120762   4.000   3.995   2.804  0.3050 -1.6968 -0.4175
 3043SOL    HW220763   4.113   4.076   2.792  0.9115 -1.3470  0.1164
 3044SOL     OW20764   0.470   0.968  15.248  0.3219  0.2970  0.4960
 3044SOL    HW120765   0.544   0.988  15.305  1.3228 -3.5876  0.5339
 3044SOL    HW220766   0.472   0.875  15.229  0.7977  0.7273 -1.4775
 3045SOL     OW20767   3.427   2.990   6.228 -0.6023 -0.1362  0.0501
 3045SOL    HW120768   3.437   2.904   6.189  0.2560  0.3982 -0.9049
 3045SOL    HW220769   3.446   2.975   6.321 -0.3688  1.3074  0.2350
 3046SOL     OW20770   2.989   1.024   3.865 -0.0045 -0.0312 -0.8767
 3046SOL    HW120771   2.895   1.025   3.848 -0.5999  0.8465  2.5505
 3046SOL    HW220772   3.004   1.091   3.932 -1.6681 -1.4155  0.8752
 3047SOL     OW20773   0.755   2.297   9.111 -0.3908 -0.2356  0.5275
 3047SOL    HW120774   0.722   2.251   9.189  0.3243  2.8914  2.6766
 3047SOL    HW220775   0.839   2.323   9.150  0.4423 -0.2164 -1.3108
 3048SOL     OW20776   1.756   4.349  16.268  0.6820 -0.3606 -0.4201
 3048SOL    HW120777   1.807   4.358  16.187  0.0359  1.1184 -0.6662
 3048SOL    HW220778   1.703   4.428  16.270  1.7119  0.3293 -0.5289
 3049SOL     OW20779   3.147   0.889  12.119  0.3363 -0.0036 -0.5658
 3049SOL    HW120780   3.128   0.804  12.078 -0.1335 -0.1789  0.0197
 3049SOL    HW220781   3.186   0.942  12.049  0.1081  0.7985 -0.0835
 3050SOL     OW20782   0.295   0.598   7.406  0.1283 -0.2841  0.2029
 3050SOL    HW120783   0.341   0.679   7.384 -1.2679  0.9033  1.6686
 3050SOL    HW220784   0.300   0.552   7.322 -0.8288 -0.4976  0.2672
 3051SOL     OW20785   4.693   4.066   0.463 -0.1639  0.9463  0.0814
 3051SOL    HW120786   0.014   4.008   0.408 -1.0078  0.7555 -0.5336
 3051SOL    HW220787   0.003   4.078   0.548 -0.2536 -0.7746  0.3606
 3052SOL     OW20788   2.973   2.889  15.685  0.2691  1.1158 -0.2478
 3052SOL    HW120789   2.907   2.938  15.733 -0.3864  0.4963 -0.5096
 3052SOL    HW220790   3.052   2.934  15.714  0.4423  0.2501  0.6262
 3053SOL     OW20791   0.969   3.081  16.415 -0.6597 -0.3098  0.0273
 3053SOL    HW120792   0.921   3.145  16.362  0.8679  1.6962  1.0725
 3053SOL    HW220793   0.918   3.075  16.496  0.5287 -1.4175  0.7131
 3054SOL     OW20794   4.539   2.209   6.370  0.3877 -0.1210 -0.5910
 3054SOL    HW120795   4.503   2.242   6.452  0.4469 -0.8987 -0.2446
 3054SOL    HW220796   4.599   2.148   6.413  2.5187  1.6091 -1.1331
 3055SOL     OW20797   4.649   3.891   8.036  0.0427  0.4021  0.6550
 3055SOL    HW120798   4.721   3.830   8.019 -1.1412  0.0300 -2.9200
 3055SOL    HW220799   4.648   3.940   7.954 -1.0062  0.2294  0.5682
 3056SOL     OW20800   4.479   0.447   7.979  0.1926  0.2371  0.2325
 3056SOL    HW120801   4.489   0.364   7.934 -2.4457  0.6362 -1.0557
 3056SOL    HW220802   4.553   0.441   8.041  0.0657 -0.8604  0.2765
 3057SOL     OW20803   2.933   0.363   0.865 -0.1740  0.3532 -0.0819
 3057SOL    HW120804   3.024   0.375   0.840 -0.5007 -0.0201 -1.4839
 3057SOL    HW220805   2.939   0.387   0.957  1.6305  0.5635 -0.2644
 3058SOL     OW20806   0.186   3.347   3.645  0.6214 -0.7863  0.6870
 3058SOL    HW120807   0.225   3.427   3.680 -2.6679  1.0333  0.2693
 3058SOL    HW220808   0.242   3.304   3.580  0.6621  0.1963  0.0566
 3059SOL     OW20809   1.646   4.305  12.268  0.4281  0.0201 -0.3324
 3059SOL    HW120810   1.734   4.281  12.237  0.6124 -1.4134  1.2307
 3059SOL    HW220811   1.604   4.325  12.185 -1.8550  1.2935  1.1473
 3060SOL     OW20812   3.573   0.290  10.154 -0.0952  0.4702 -0.4296
 3060SOL    HW120813   3.529   0.209  10.179 -3.1632  1.8810 -1.2555
 3060SOL    HW220814   3.509   0.334  10.099 -0.8795 -0.4103 -0.2253
 3061SOL     OW20815   3.400   2.297   2.571 -0.4864 -0.3327 -0.4518
 3061SOL    HW120816   3.451   2.318   2.493 -0.5034  1.7284  0.0858
 3061SOL    HW220817   3.455   2.347   2.632  0.3080 -1.9518  0.1663
 3062SOL     OW20818   0.245   1.924  16.866  0.0442 -0.2446  0.6618
 3062SOL    HW120819   0.250   1.952  16.958 -2.5087 -1.0055  1.0372
 3062SOL    HW220820   0.239   2.008  16.821  1.0881  0.2902  1.5373
 3063SOL     OW20821   3.037   3.197   2.565  0.1500  0.2269  0.0747
 3063SOL    HW120822   3.016   3.278   2.518 -2.1950 -0.8081 -0.6595
 3063SOL    HW220823   3.036   3.235   2.653 -1.3357  0.4077 -0.0201
 3064SOL     OW20824   4.358   2.790  14.942 -0.7724  0.4185  0.0023
 3064SOL    HW120825   4.284   2.765  14.887 -2.5422  0.6999  2.2715
 3064SOL    HW220826   4.405   2.710  14.966 -2.9770 -1.1485 -0.9550
 3065SOL     OW20827   3.777   3.172   1.619  0.3145  0.5726 -0.1861
 3065SOL    HW120828   3.760   3.085   1.583  0.6536  0.7966 -0.8838
 3065SOL    HW220829   3.730   3.226   1.556 -2.0025  1.0852  1.9786
 3066SOL     OW20830   2.914   0.978  12.234 -0.6321  0.0601  0.1148
 3066SOL    HW120831   2.995   0.949  12.193  0.3814  0.5058  1.8415
 3066SOL    HW220832   2.906   1.059  12.184  0.9294  1.2428  1.8417
 3067SOL     OW20833   4.592   3.142   6.053  0.1023 -0.4567 -0.4534
 3067SOL    HW120834   4.502   3.130   6.023 -0.4342 -1.5977  1.6344
 3067SOL    HW220835   4.639   3.068   6.015  1.0228 -0.4106  0.5953
 3068SOL     OW20836   2.523   3.406  15.795 -0.8237 -0.1959 -0.1850
 3068SOL    HW120837   2.528   3.499  15.818  0.1604 -0.3167  0.0988
 3068SOL    HW220838   2.429   3.401  15.784 -1.2099 -2.2703  4.1750
 3069SOL     OW20839   3.248   2.941  10.854 -0.3789 -0.0209  0.1744
 3069SOL    HW120840   3.257   3.035  10.868  0.1515 -0.0906  0.2957
 3069SOL    HW220841   3.302   2.922  10.777 -0.4951  0.7826 -0.1074
 3070SOL     OW20842   0.325   3.582   3.726 -0.0572  0.5252  0.1888
 3070SOL    HW120843   0.248   3.639   3.719  1.2708  2.4136  0.6725
 3070SOL    HW220844   0.397   3.635   3.759 -0.4790 -0.0649  2.0651
 3071SOL     OW20845   4.303   3.051  11.938  0.5507  0.1521  0.3739
 3071SOL    HW120846   4.364   3.046  11.864 -1.7758 -1.8650 -1.4213
 3071SOL    HW220847   4.247   3.120  11.902  2.5597  0.8602 -1.4046
 3072SOL     OW20848   3.336   4.279  17.467  0.1294  0.1338 -0.0642
 3072SOL    HW120849   3.399   4.215  17.434 -0.9653 -1.8297  1.6409
 3072SOL    HW220850   3.307   4.232  17.546  1.5334 -2.9712 -1.4279
 3073SOL     OW20851   2.955   2.045  11.930 -0.0554  0.1268  0.1476
 3073SOL    HW120852   2.881   2.102  11.907 -1.1060 -1.1262  0.4345
 3073SOL    HW220853   2.984   2.079  12.014 -0.1715  0.9365 -0.1398
 3074SOL     OW20854   1.513   2.592   6.914  0.1995 -0.0807 -0.8669
 3074SOL    HW120855   1.429   2.606   6.871  1.1968  2.0257 -2.0800
 3074SOL    HW220856   1.562   2.535   6.854  2.8489  1.2533  0.0435
 3075SOL     OW20857   2.545   4.544   3.139 -0.4388 -0.4750  0.2705
 3075SOL    HW120858   2.596   4.512   3.214 -1.0812  2.0907  1.8100
 3075SOL    HW220859   2.492   4.607   3.189  1.9669  0.8916  1.1253
 3076SOL     OW20860   4.399   1.088   2.881  0.6784 -0.0469  0.1431
 3076SOL    HW120861   4.355   1.047   2.807  2.5899 -0.9279 -0.4899
 3076SOL    HW220862   4.458   1.148   2.836  0.1526  0.2367 -0.1763
 3077SOL     OW20863   1.321   1.979   6.131 -0.2127 -0.1992 -0.2804
 3077SOL    HW120864   1.289   1.966   6.220  2.0170 -0.7613  0.4570
 3077SOL    HW220865   1.247   1.947   6.079 -0.2511 -0.7886  0.1365
 3078SOL     OW20866   2.430   3.329   8.583  0.0892 -0.2993 -0.2955
 3078SOL    HW120867   2.371   3.404   8.585 -0.0041 -0.4757  2.8164
 3078SOL    HW220868   2.505   3.369   8.627  0.7112 -0.5525 -1.1296
 3079SOL     OW20869   2.749   1.675   0.967 -0.3724 -0.1956 -0.4844
 3079SOL    HW120870   2.659   1.645   0.979  0.6259 -2.0538  2.4343
 3079SOL    HW220871   2.799   1.599   0.998 -1.8861 -1.0576 -0.1892
 3080SOL     OW20872   2.925   2.965   3.339 -0.2030  0.4385  0.0485
 3080SOL    HW120873   2.940   2.896   3.403 -2.2918 -1.7235 -1.7707
 3080SOL    HW220874   2.958   2.920   3.261  0.7349 -1.4668  1.5491
 3081SOL     OW20875   1.445   4.501   7.077  0.2140  0.7209 -0.3562
 3081SOL    HW120876   1.483   4.425   7.121 -2.7682 -1.1940 -1.0624
 3081SOL    HW220877   1.504   4.571   7.105 -0.5018  1.3964 -0.5280
 3082SOL     OW20878   3.689   3.657   6.832 -0.7576  0.4558  0.1881
 3082SOL    HW120879   3.715   3.673   6.741 -0.6649 -1.0689 -0.0541
 3082SOL    HW220880   3.721   3.569   6.852 -0.7094  0.1955 -0.9953
 3083SOL     OW20881   1.646   0.527   1.984  0.0363 -0.1025  0.3617
 3083SOL    HW120882   1.696   0.497   2.060  1.0837  1.5809  0.3374
 3083SOL    HW220883   1.565   0.482   2.008  1.0566 -1.8513  0.5037
 3084SOL     OW20884   0.663   2.194   5.775  0.5036  0.4858  0.3770
 3084SOL    HW120885   0.745   2.145   5.781  0.2424  0.3231  2.5145
 3084SOL    HW220886   0.597   2.126   5.779  0.7651  0.2252  0.2568
 3085SOL     OW20887   1.826   4.269  10.599  0.7913  0.1953  0.1672
 3085SOL    HW120888   1.781   4.286  10.517 -0.7909 -1.9012  0.6019
 3085SOL    HW220889   1.818   4.351  10.649  0.5398  0.3519 -0.1334
 3086SOL     OW20890   4.294   2.889   7.559  0.1704  0.1395  0.2987
 3086SOL    HW120891   4.291   2.966   7.616  1.7332  0.7679 -0.4739
 3086SOL    HW220892   4.374   2.848   7.592 -1.5923 -1.0935  3.0063
 3087SOL     OW20893   1.839   2.901  14.241 -0.0637 -0.5534 -0.3657
 3087SOL    HW120894   1.873   2.970  14.298 -1.3921 -2.2310  2.4475
 3087SOL    HW220895   1.897   2.825  14.246 -1.4757 -1.5113  1.5493
 3088SOL     OW20896   0.464   3.917   7.787  0.0942  0.5383 -0.1717
 3088SOL    HW120897   0.553   3.950   7.778  1.0791 -2.0687  0.0217
 3088SOL    HW220898   0.455   3.853   7.717 -0.3683  0.7358 -0.2920
 3089SOL     OW20899   2.582   4.493   6.166  0.5326  0.3826  0.4229
 3089SOL    HW120900   2.509   4.507   6.106  0.3250 -1.1569  0.3211
 3089SOL    HW220901   2.635   4.430   6.118  0.3696 -0.6278  1.5675
 3090SOL     OW20902   0.130   4.166   8.525  0.6791  0.4931  0.3605
 3090SOL    HW120903   0.048   4.190   8.568  0.3100 -0.7015  0.3306
 3090SOL    HW220904   0.096   4.170   8.436  0.2988 -0.7897  0.4356
 3091SOL     OW20905   0.970   2.606  13.190  0.4726 -0.6420  0.0033
 3091SOL    HW120906   1.064   2.587  13.180  1.3661  3.6260  0.5559
 3091SOL    HW220907   0.966   2.671  13.121 -1.5686  2.7625  3.3325
 3092SOL     OW20908   0.058   2.847  10.712 -0.2987 -0.1052  0.0571
 3092SOL    HW120909   4.696   2.829  10.704 -0.1371 -0.9965  0.1736
 3092SOL    HW220910   0.084   2.819  10.625 -0.5034  2.4741 -0.8509
 3093SOL     OW20911   1.084   2.741   8.433  0.3549  0.0875 -0.9845
 3093SOL    HW120912   1.026   2.814   8.409 -0.6921 -0.5187 -0.2728
 3093SOL    HW220913   1.036   2.698   8.503 -2.4275  0.3709 -2.7376
 3094SOL     OW20914   0.688   3.945  13.962  0.1147  0.1227  0.2007
 3094SOL    HW120915   0.620   3.961  13.897  1.2527  0.4220 -0.9330
 3094SOL    HW220916   0.640   3.950  14.044  2.0748  1.4616  1.2839
 3095SOL     OW20917   2.534   2.789  16.497  0.5423  0.4849 -0.1023
 3095SOL    HW120918   2.448   2.811  16.463  0.8859 -1.3846 -2.1779
 3095SOL    HW220919   2.587   2.798  16.418  0.1653 -3.0040 -0.7255
 3096SOL     OW20920   4.424   1.532   3.700 -0.0343  0.1532 -0.2189
 3096SOL    HW120921   4.488   1.477   3.655 -0.1998  0.8153 -1.2627
 3096SOL    HW220922   4.480   1.563   3.771 -0.8596 -2.7218  1.6961
 3097SOL     OW20923   0.154   0.313   3.587  0.1715 -0.1635 -0.0890
 3097SOL    HW120924   0.142   0.261   3.507 -0.3180 -0.7218  0.3521
 3097SOL    HW220925   0.079   0.372   3.590  1.8873  1.9744  0.7099
 3098SOL     OW20926   1.098   1.160  11.689  0.2505 -0.5749 -0.9967
 3098SOL    HW120927   1.189   1.161  11.661 -0.1242  0.1215 -2.1787
 3098SOL    HW220928   1.107   1.177  11.782  0.8436 -0.4541 -1.0778
 3099SOL     OW20929   1.948   2.383   4.637 -0.2311  0.1002  0.2025
 3099SOL    HW120930   1.918   2.295   4.613 -2.4548  1.6974 -2.8210
 3099SOL    HW220931   2.040   2.390   4.612 -0.5847  0.3986 -1.0453
 3100SOL     OW20932   1.117   0.951   3.058 -0.4180  0.2459 -0.4042
 3100SOL    HW120933   1.041   0.964   3.115  1.1912  0.4245  1.6718
 3100SOL    HW220934   1.129   0.856   3.057  1.9462  0.5460  1.0532
 3101SOL     OW20935   0.936   3.336   9.967  0.7045  0.1915 -0.1863
 3101SOL    HW120936   0.894   3.410   9.922  0.6835  0.5802  0.4617
 3101SOL    HW220937   1.029   3.356   9.955  1.1795 -0.2766  2.8246
 3102SOL     OW20938   3.150   1.214   8.865  0.1761  0.0580  0.0049
 3102SOL    HW120939   3.150   1.275   8.939 -0.7648  1.5710 -1.2364
 3102SOL    HW220940   3.060   1.182   8.863 -0.4160  1.7108  0.6996
 3103SOL     OW20941   0.810   0.107   6.818  0.2585 -0.0419 -0.0374
 3103SOL    HW120942   0.740   0.151   6.867  0.6043 -0.9416  1.2898
 3103SOL    HW220943   0.862   0.078   6.893  2.0525  0.7752 -0.9674
 3104SOL     OW20944   0.444   3.107  11.720 -0.5801  0.0178  0.0137
 3104SOL    HW120945   0.406   3.019  11.722  0.7625 -0.5364  1.3943
 3104SOL    HW220946   0.531   3.086  11.754  0.4410  2.8711 -0.7725
 3105SOL     OW20947   3.923   4.042  13.352  0.0169 -0.4324 -0.2111
 3105SOL    HW120948   3.921   4.045  13.448 -0.5038 -0.4139 -0.2209
 3105SOL    HW220949   3.994   4.104  13.333  0.0988 -0.3278  0.4319
 3106SOL     OW20950   2.225   0.710   3.122 -0.1858  0.0789  0.3917
 3106SOL    HW120951   2.192   0.625   3.150  4.0714 -1.0583  1.8515
 3106SOL    HW220952   2.258   0.684   3.036 -1.6298 -0.8790  0.1188
 3107SOL     OW20953   1.228   3.923  11.082 -0.8712  0.2394 -0.6153
 3107SOL    HW120954   1.191   3.993  11.027  0.7394  1.9032  0.4392
 3107SOL    HW220955   1.301   3.919  11.020 -0.0691  1.7407  0.2191
 3108SOL     OW20956   3.313   4.641   8.019 -0.2732 -0.1087 -0.0380
 3108SOL    HW120957   3.334   4.701   8.090 -0.5049 -0.4444  0.3142
 3108SOL    HW220958   3.226   4.672   7.993 -1.1517 -2.1003  0.5412
 3109SOL     OW20959   2.224   0.710  12.865 -0.4880 -0.4868 -0.1847
 3109SOL    HW120960   2.293   0.704  12.800 -1.3414 -0.7799 -1.0638
 3109SOL    HW220961   2.171   0.639  12.829 -2.0643  0.1642  0.8086
 3110SOL     OW20962   0.174   2.779   4.213 -0.8111  0.5467  0.0631
 3110SOL    HW120963   0.225   2.798   4.292  2.0614 -0.6580 -1.5073
 3110SOL    HW220964   0.240   2.787   4.145 -0.4985 -2.0817  0.0584
 3111SOL     OW20965   0.175   3.695   3.204 -0.0072  0.2777  0.1041
 3111SOL    HW120966   0.219   3.654   3.279 -1.6612  0.6459  1.2660
 3111SOL    HW220967   0.088   3.657   3.215  1.2981 -2.4121  1.4081
 3112SOL     OW20968   2.815   4.400  11.702  0.2538  0.2772  0.2593
 3112SOL    HW120969   2.760   4.467  11.741 -0.7631 -0.6367  0.4104
 3112SOL    HW220970   2.821   4.420  11.609 -0.2346 -2.1926 -0.3207
 3113SOL     OW20971   2.926   4.558   5.226  0.4052  0.0645 -0.3111
 3113SOL    HW120972   2.920   4.627   5.160  0.7985 -2.4147 -2.9129
 3113SOL    HW220973   2.897   4.480   5.179 -1.3636  0.7707 -0.3766
 3114SOL     OW20974   3.589   1.168  10.624 -0.4626 -0.3413  0.2206
 3114SOL    HW120975   3.624   1.250  10.658  0.3346  0.1965 -1.9184
 3114SOL    HW220976   3.531   1.201  10.556 -1.4550  0.6053  1.5222
 3115SOL     OW20977   0.625   2.539  17.422  0.2124 -0.0218  0.3387
 3115SOL    HW120978   0.574   2.577  17.493 -0.2187 -0.7866  0.4415
 3115SOL    HW220979   0.698   2.497  17.469  0.6677  0.9397  0.4754
 3116SOL     OW20980   0.785   3.244   0.013  0.8585  0.2178 -0.5894
 3116SOL    HW120981   0.719   3.270  17.679  0.3834  0.1097 -0.1350
 3116SOL    HW220982   0.851   3.204  17.686  0.4164  0.0361 -0.9774
 3117SOL     OW20983   0.004   3.076   3.983  0.2133 -0.1726 -0.3294
 3117SOL    HW120984   4.651   3.044   3.953 -0.5845  0.7030  1.0166
 3117SOL    HW220985   0.060   3.030   3.921  1.1426 -1.0649  1.1449
 3118SOL     OW20986   2.597   3.120   2.057  0.0999 -0.3427 -0.3456
 3118SOL    HW120987   2.691   3.112   2.039  0.8015  0.7421  2.8497
 3118SOL    HW220988   2.597   3.215   2.071  0.5720 -0.6422  1.7552
 3119SOL     OW20989   0.406   4.381  15.397  0.1061 -0.2103  0.4798
 3119SOL    HW120990   0.432   4.465  15.436  1.7662  0.7901 -2.8058
 3119SOL    HW220991   0.329   4.418  15.353 -0.8364 -0.4990  1.8695
 3120SOL     OW20992   3.703   0.914   5.722  0.4269  0.3742  0.2806
 3120SOL    HW120993   3.610   0.891   5.724  0.1429  1.3627 -0.7981
 3120SOL    HW220994   3.723   0.938   5.812 -1.2804  1.0356  0.4867
 3121SOL     OW20995   2.502   2.462  15.851 -0.3830  0.3551 -0.1838
 3121SOL    HW120996   2.538   2.521  15.785  0.6132  0.6141  0.5889
 3121SOL    HW220997   2.508   2.379  15.804  2.8091  0.7380 -0.4345
 3122SOL     OW20998   3.902   3.081   2.535 -0.3200  0.4663  0.3672
 3122SOL    HW120999   3.872   3.136   2.463 -0.9698 -2.1837 -1.4026
 3122SOL    HW221000   3.882   2.999   2.490 -0.9206  1.7042 -1.6344
 3123SOL     OW21001   0.880   1.997   1.773 -0.3308 -0.2451  0.3973
 3123SOL    HW121002   0.830   2.035   1.700  1.5347 -3.0682 -2.3523
 3123SOL    HW221003   0.931   1.929   1.729  0.8041 -0.0897  1.4683
 3124SOL     OW21004   3.115   1.759   5.328 -0.1747  0.3594  0.1834
 3124SOL    HW121005   3.165   1.767   5.410 -1.1157 -1.4569  0.9191
 3124SOL    HW221006   3.024   1.750   5.356 -0.4477  1.8470 -0.2180
 3125SOL     OW21007   4.720   1.857   6.164  0.6159  0.4078 -0.1460
 3125SOL    HW121008   0.009   1.943   6.127  1.3331 -0.2704 -1.2955
 3125SOL    HW221009   4.650   1.838   6.102  1.2430  4.3743 -2.0395
 3126SOL     OW21010   0.074   0.040   3.128  0.5990 -0.2283  0.2958
 3126SOL    HW121011   0.052   0.055   3.036  0.8695 -0.0113  0.2682
 3126SOL    HW221012   0.083   4.678   3.139 -0.6257 -0.7784 -3.6511
 3127SOL     OW21013   0.750   0.459  17.655 -0.1960  0.0945 -0.4639
 3127SOL    HW121014   0.714   0.491  17.573 -1.0323 -1.6041 -0.7699
 3127SOL    HW221015   0.675   0.466  17.714  0.8408  0.2036  0.8368
 3128SOL     OW21016   3.939   3.577   8.333  0.3924 -0.5237  0.0512
 3128SOL    HW121017   3.971   3.514   8.268  3.3107 -1.7591  2.6693
 3128SOL    HW221018   4.025   3.614   8.354 -0.1386  0.5652  0.2954
 3129SOL     OW21019   4.505   2.944   5.707  0.4511 -0.2388  0.3206
 3129SOL    HW121020   4.411   2.961   5.709  0.8389  1.7809  0.6172
 3129SOL    HW221021   4.526   2.949   5.614 -1.4729  1.2641 -0.0331
 3130SOL     OW21022   4.052   3.826   1.178  0.2829  0.2202  0.0489
 3130SOL    HW121023   4.064   3.836   1.083 -1.7858  2.0891 -0.0078
 3130SOL    HW221024   4.047   3.919   1.201  2.0620 -0.1546  1.9811
 3131SOL     OW21025   2.865   3.519   5.083  0.2189  0.1297 -0.5827
 3131SOL    HW121026   2.775   3.529   5.053 -0.2407  0.7113  1.0118
 3131SOL    HW221027   2.856   3.431   5.119  1.9289  0.3637  0.4390
 3132SOL     OW21028   2.880   0.044   0.994  0.1032  0.2007  0.0399
 3132SOL    HW121029   2.933   4.697   0.983 -0.6052 -0.0766 -1.3811
 3132SOL    HW221030   2.791   0.011   1.008  0.8654 -0.2681  3.5892
 3133SOL     OW21031   1.215   2.316  17.138 -0.4261 -0.3743 -0.2040
 3133SOL    HW121032   1.130   2.324  17.181  0.2081  1.1137  0.7702
 3133SOL    HW221033   1.188   2.301  17.047 -2.6916  2.2948  0.0306
 3134SOL     OW21034   1.328   0.602   3.257 -0.3037  0.2228 -0.1517
 3134SOL    HW121035   1.398   0.538   3.247 -0.6870 -0.2242 -0.0028
 3134SOL    HW221036   1.370   0.664   3.317  1.2715 -0.0677 -0.9824
 3135SOL     OW21037   3.478   3.868   6.417 -0.1564 -0.4137 -0.1367
 3135SOL    HW121038   3.570   3.887   6.397  0.1278  1.3572  2.9399
 3135SOL    HW221039   3.445   3.948   6.458 -2.4994 -0.6561 -1.5326
 3136SOL     OW21040   1.653   2.614  16.716  0.0889  0.7192 -0.4845
 3136SOL    HW121041   1.686   2.527  16.694 -1.6431 -0.4812  1.6043
 3136SOL    HW221042   1.702   2.671  16.657 -0.0851  0.4656 -0.8712
 3137SOL     OW21043   1.328   2.029   5.065 -0.0373 -0.3670 -0.0192
 3137SOL    HW121044   1.301   2.104   5.117 -0.6073 -0.1671 -0.6016
 3137SOL    HW221045   1.414   2.053   5.032  0.1693 -0.4960  0.4343
 3138SOL     OW21046   0.400   3.164   2.016  0.6403 -0.0733 -0.3935
 3138SOL    HW121047   0.323   3.221   2.013 -0.9981 -2.1835  1.9500
 3138SOL    HW221048   0.431   3.164   1.925 -1.5456  3.0406 -1.1354
 3139SOL     OW21049   4.657   1.316   1.183 -0.0244  0.8956  0.0606
 3139SOL    HW121050   4.592   1.290   1.248 -0.7277  0.3088 -0.8759
 3139SOL    HW221051   4.652   1.409   1.203 -0.0112  0.8290  0.3755
 3140SOL     OW21052   0.629   1.096   6.219  0.2200 -0.0633 -0.3476
 3140SOL    HW121053   0.614   1.003   6.233  0.7972  0.2084  2.0407
 3140SOL    HW221054   0.609   1.133   6.305  3.3679 -1.2934  0.8987
 3141SOL     OW21055   3.907   1.524   1.235 -0.1328  0.0286 -0.4816
 3141SOL    HW121056   3.955   1.592   1.283 -1.8457  2.3275 -2.0227
 3141SOL    HW221057   3.953   1.527   1.152 -1.9504 -2.0237 -1.5861
 3142SOL     OW21058   0.579   2.379   6.120  0.2663  0.5300 -0.3059
 3142SOL    HW121059   0.534   2.432   6.054 -0.2250 -0.6823 -0.9470
 3142SOL    HW221060   0.549   2.291   6.098 -0.8047  0.9732 -0.6392
 3143SOL     OW21061   3.523   3.905  12.273  0.2569  0.2350  0.2285
 3143SOL    HW121062   3.589   3.836  12.266 -2.0717 -1.9720  0.0637
 3143SOL    HW221063   3.526   3.943  12.186 -1.8271 -0.1770 -0.0081
 3144SOL     OW21064   0.991   2.417   9.687 -0.3181  0.1597  0.5182
 3144SOL    HW121065   1.014   2.438   9.778 -0.6552  2.8627 -0.0239
 3144SOL    HW221066   1.080   2.406   9.654 -1.1841  0.2760 -1.8214
 3145SOL     OW21067   4.580   0.435   5.479 -0.0592 -0.0829 -0.4109
 3145SOL    HW121068   4.538   0.383   5.411 -1.7538  2.2044 -1.1125
 3145SOL    HW221069   4.543   0.397   5.559  2.3309 -0.6283  0.4311
 3146SOL     OW21070   3.713   0.914  14.790  0.0941  0.1521  0.3169
 3146SOL    HW121071   3.762   0.997  14.790  0.3103  0.0176 -2.1806
 3146SOL    HW221072   3.700   0.903  14.696 -1.2586  1.4036  0.3599
 3147SOL     OW21073   3.449   3.871  16.898 -0.8323  0.6265  0.3437
 3147SOL    HW121074   3.381   3.813  16.863  0.1763  0.0774 -0.7431
 3147SOL    HW221075   3.463   3.915  16.814 -1.2526  0.9934  0.4653
 3148SOL     OW21076   2.619   0.436   1.311 -0.3829  0.1732 -0.0582
 3148SOL    HW121077   2.602   0.530   1.306  0.6074  0.3172 -0.6981
 3148SOL    HW221078   2.538   0.409   1.353 -1.0417 -0.3439 -1.6655
 3149SOL     OW21079   1.773   0.293  15.012 -0.4228 -0.0797 -0.0299
 3149SOL    HW121080   1.831   0.367  14.994 -1.9256  1.0034 -0.3837
 3149SOL    HW221081   1.771   0.257  14.924 -0.1628 -1.4935  0.5358
 3150SOL     OW21082   1.167   3.727  13.655  0.2099  0.3978 -0.3671
 3150SOL    HW121083   1.072   3.739  13.651 -0.0578 -1.4423  0.6717
 3150SOL    HW221084   1.177   3.720  13.560  1.7559  2.8293 -0.3932
 3151SOL     OW21085   0.706   3.095  16.207 -0.6693  0.4776 -0.0240
 3151SOL    HW121086   0.642   3.150  16.252 -1.7748 -0.6279 -0.2462
 3151SOL    HW221087   0.691   3.016  16.258  0.6632 -0.9717 -1.9030
 3152SOL     OW21088   1.949   2.782   8.928 -0.2453 -0.1278 -0.0074
 3152SOL    HW121089   1.952   2.706   8.870  2.3823 -1.6811  2.1620
 3152SOL    HW221090   1.977   2.849   8.866 -1.0254 -0.0649 -0.2881
 3153SOL     OW21091   3.493   1.426   9.530  0.0221  0.9200 -0.2119
 3153SOL    HW121092   3.570   1.461   9.484 -0.1501 -0.4721 -1.5562
 3153SOL    HW221093   3.537   1.346   9.558 -1.1278 -0.5088 -2.5356
 3154SOL     OW21094   3.106   1.205   2.316 -0.3560 -0.5753  0.1142
 3154SOL    HW121095   3.106   1.212   2.412 -2.1349  0.1869  0.0516
 3154SOL    HW221096   3.091   1.111   2.309  0.0474 -0.7420  1.3901
 3155SOL     OW21097   4.235   0.288   6.926 -0.2465 -0.0336  0.1430
 3155SOL    HW121098   4.307   0.311   6.985  0.4015  0.5225 -0.8436
 3155SOL    HW221099   4.243   0.376   6.888 -0.6289  0.3729  1.0000
 3156SOL     OW21100   2.634   0.207   3.920  0.2170  0.5341 -0.2907
 3156SOL    HW121101   2.558   0.253   3.956  0.8502  0.1421  1.5290
 3156SOL    HW221102   2.627   0.123   3.965 -0.1167 -0.5635 -2.3585
 3157SOL     OW21103   0.366   3.721  14.415  0.3949  0.0732 -0.1861
 3157SOL    HW121104   0.403   3.741  14.501  0.0548  2.5716 -0.6192
 3157SOL    HW221105   0.289   3.670  14.441 -0.5906  0.6538 -1.9678
 3158SOL     OW21106   4.249   1.829  15.386 -0.8870  0.2352  0.5754
 3158SOL    HW121107   4.264   1.746  15.432  1.7809  0.0236 -0.6851
 3158SOL    HW221108   4.177   1.874  15.431 -0.9235 -0.1427  0.8960
 3159SOL     OW21109   1.479   3.172   4.787  0.0180 -0.5226  0.4597
 3159SOL    HW121110   1.408   3.195   4.728 -0.9584  0.3324  1.9744
 3159SOL    HW221111   1.554   3.180   4.728 -0.1971 -0.1215  0.2438
 3160SOL     OW21112   0.651   0.555  17.416 -0.0254 -0.1610 -0.0656
 3160SOL    HW121113   0.622   0.472  17.380 -0.8098  0.3781 -0.6906
 3160SOL    HW221114   0.593   0.627  17.390  0.6234 -0.5605 -2.6009
 3161SOL     OW21115   0.348   3.794   0.015  0.4265 -0.3677  1.0596
 3161SOL    HW121116   0.308   3.708   0.008  0.1680 -0.0494 -1.5188
 3161SOL    HW221117   0.262   3.835   0.028  0.3469 -0.7751  1.7999
 3162SOL     OW21118   3.131   2.859   8.328  0.2411  0.1349 -0.1753
 3162SOL    HW121119   3.203   2.893   8.382 -0.9306 -0.2122  1.6369
 3162SOL    HW221120   3.131   2.934   8.268  0.8491  0.1959 -0.0946
 3163SOL     OW21121   1.172   1.907   5.320 -0.8177  0.5606 -0.2973
 3163SOL    HW121122   1.093   1.864   5.288  2.1596 -3.9114 -1.5081
 3163SOL    HW221123   1.141   1.978   5.377  2.0738  1.1383  0.5394
 3164SOL     OW21124   2.519   1.964  14.374 -0.0001  0.2976 -0.5020
 3164SOL    HW121125   2.501   2.052  14.408  1.7846  0.4438  0.0701
 3164SOL    HW221126   2.613   1.967  14.356 -0.1969 -0.0664 -1.6001
 3165SOL     OW21127   1.310   1.451  10.911  0.0751 -0.1654  0.4498
 3165SOL    HW121128   1.357   1.436  10.828 -1.1581 -0.5933 -0.1822
 3165SOL    HW221129   1.377   1.473  10.975 -0.0868 -0.4879  0.7302
 3166SOL     OW21130   1.623   0.440  10.122  0.1883 -0.1999 -0.7754
 3166SOL    HW121131   1.704   0.432  10.172 -0.3349  1.2293  0.2963
 3166SOL    HW221132   1.638   0.363  10.067 -1.2752 -1.4536  0.6112
 3167SOL     OW21133   3.940   2.550   5.633  0.1687 -0.9679 -0.4188
 3167SOL    HW121134   3.991   2.600   5.569  2.0152  0.6779  2.3360
 3167SOL    HW221135   3.883   2.491   5.585  0.5413 -1.5714 -0.1179
 3168SOL     OW21136   3.749   3.944   4.141  0.4068 -0.1534 -0.0637
 3168SOL    HW121137   3.727   3.953   4.048 -0.5152 -2.4005 -0.0526
 3168SOL    HW221138   3.785   4.030   4.167  0.6396 -0.1879 -0.2709
 3169SOL     OW21139   0.614   0.094  15.402 -0.1443 -0.2026  0.4899
 3169SOL    HW121140   0.575   0.058  15.322  1.2724  1.7691 -1.0784
 3169SOL    HW221141   0.705   0.110  15.380 -0.5133  1.6975  0.4043
 3170SOL     OW21142   1.462   3.490   7.146  0.0870  0.9290  0.5490
 3170SOL    HW121143   1.417   3.479   7.230  1.5278 -3.0284  0.7817
 3170SOL    HW221144   1.438   3.579   7.119  2.3275  1.3454 -0.0741
 3171SOL     OW21145   2.488   0.994   5.610 -0.0625 -0.1982 -0.0467
 3171SOL    HW121146   2.441   0.988   5.693  1.8048  1.4037  1.1123
 3171SOL    HW221147   2.473   1.087   5.594 -2.0729 -0.3362  1.0185
 3172SOL     OW21148   4.286   2.568   7.858  0.0514 -0.9283 -0.1311
 3172SOL    HW121149   4.321   2.547   7.771 -2.8198 -2.8817 -0.8015
 3172SOL    HW221150   4.292   2.487   7.908 -0.9203 -1.6510 -1.1715
 3173SOL     OW21151   4.358   1.285   4.965 -0.2412 -0.0437 -0.2486
 3173SOL    HW121152   4.321   1.231   5.034  0.8114  0.0366  0.3771
 3173SOL    HW221153   4.365   1.366   5.014 -1.6213 -0.2066  0.1982
 3174SOL     OW21154   3.508   4.036   2.326 -0.5045 -0.0146 -0.1547
 3174SOL    HW121155   3.474   4.125   2.312 -0.7771  0.2094  1.8981
 3174SOL    HW221156   3.560   4.051   2.406  0.6753 -1.9585 -0.5676
 3175SOL     OW21157   4.693   3.191   3.164  0.0289 -0.2326 -0.1214
 3175SOL    HW121158   4.620   3.155   3.114 -1.7393 -2.0631  3.7619
 3175SOL    HW221159   4.643   3.244   3.225  0.3832  0.1550 -0.1697
 3176SOL     OW21160   4.237   0.432   9.176  0.1633 -0.2408 -0.1176
 3176SOL    HW121161   4.183   0.509   9.161  1.5040  0.7849  0.3610
 3176SOL    HW221162   4.296   0.476   9.238  2.4156  0.9941 -3.1670
 3177SOL     OW21163   4.326   0.637   6.182  0.3931 -0.9654 -0.7538
 3177SOL    HW121164   4.361   0.713   6.135 -2.7711  1.0986  0.2276
 3177SOL    HW221165   4.233   0.661   6.183  0.7760  0.6305 -2.1817
 3178SOL     OW21166   1.143   0.779  14.621  0.3317 -0.6148 -0.0809
 3178SOL    HW121167   1.188   0.861  14.602 -0.4133 -0.2517 -0.2857
 3178SOL    HW221168   1.083   0.773  14.546  0.7123 -1.6068 -0.3089
 3179SOL     OW21169   0.123   0.920   5.314  0.4148 -0.1348  0.5775
 3179SOL    HW121170   0.108   1.008   5.281 -0.1648 -0.4309  0.0425
 3179SOL    HW221171   0.041   0.875   5.336 -0.0638 -0.1844 -1.2877
 3180SOL     OW21172   3.654   1.207   8.321  0.1530  0.5516  0.1192
 3180SOL    HW121173   3.559   1.209   8.310  0.3256  0.0313 -1.4574
 3180SOL    HW221174   3.658   1.211   8.416  0.2377 -0.0989  0.1407
 3181SOL     OW21175   3.231   3.690  17.701 -0.6177  0.1890 -0.1279
 3181SOL    HW121176   3.317   3.655  17.678  0.0323 -0.8057  3.7978
 3181SOL    HW221177   3.220   3.755  17.631 -1.4089 -0.4925 -0.6465
 3182SOL     OW21178   0.966   4.516   3.992  0.0136 -0.6785 -0.6394
 3182SOL    HW121179   0.899   4.546   3.930 -0.4979  0.6046  0.5065
 3182SOL    HW221180   1.044   4.492   3.943 -1.0848 -3.3596 -1.0583
 3183SOL     OW21181   2.051   4.043   2.330  0.1825  0.1461 -0.3143
 3183SOL    HW121182   2.006   4.083   2.255  1.4237  1.0452 -0.5619
 3183SOL    HW221183   1.987   4.060   2.399  0.0801  0.0869 -0.3936
 3184SOL     OW21184   3.359   2.367   8.882  0.1347  0.4703 -0.6658
 3184SOL    HW121185   3.359   2.276   8.853 -3.7250  0.9342 -2.0450
 3184SOL    HW221186   3.365   2.351   8.977 -1.6011 -2.7062 -1.1116
 3185SOL     OW21187   2.215   0.445   4.886  0.4061  0.2901  0.4293
 3185SOL    HW121188   2.220   0.349   4.881  2.2825  0.4384 -0.7689
 3185SOL    HW221189   2.236   0.468   4.976 -2.4173 -2.3210  1.7320
 3186SOL     OW21190   2.440   1.132   8.634  0.2229  0.3112 -0.0573
 3186SOL    HW121191   2.384   1.054   8.642  1.4071 -0.1430  3.6349
 3186SOL    HW221192   2.395   1.189   8.696  1.3464  1.1791 -0.0383
 3187SOL     OW21193   2.380   4.471   9.225 -0.2233 -0.2116 -0.0010
 3187SOL    HW121194   2.343   4.463   9.137  0.9837  1.5648 -0.6721
 3187SOL    HW221195   2.423   4.387   9.242  0.6421  0.5798  1.6480
 3188SOL     OW21196   4.270   2.704   4.029 -0.1215  0.5851  0.0908
 3188SOL    HW121197   4.335   2.665   3.970  1.6211 -0.7352  2.8696
 3188SOL    HW221198   4.314   2.770   4.083  2.0660  0.5597 -1.6513
 3189SOL     OW21199   3.752   0.972   7.868  0.8800 -0.5753 -0.1383
 3189SOL    HW121200   3.823   1.012   7.816 -0.6560 -1.0509 -2.6130
 3189SOL    HW221201   3.742   0.894   7.813  1.3188  0.2531 -1.4089
 3190SOL     OW21202   3.015   2.699   0.650  0.4033  0.0471  0.2799
 3190SOL    HW121203   3.080   2.749   0.601  1.1330 -1.0247  0.1597
 3190SOL    HW221204   3.063   2.627   0.692  2.1141  0.8048 -0.3972
 3191SOL     OW21205   0.880   1.495   7.072  0.0160  0.0497  0.1677
 3191SOL    HW121206   0.908   1.531   6.988  1.1546 -0.3269  0.3839
 3191SOL    HW221207   0.931   1.414   7.072 -1.8933 -1.1727  2.7235
 3192SOL     OW21208   1.346   2.159   3.273  0.0512  0.0425  0.0275
 3192SOL    HW121209   1.269   2.103   3.265  1.2963 -1.3252 -2.5614
 3192SOL    HW221210   1.420   2.103   3.299  0.0330 -0.7423 -1.6281
 3193SOL     OW21211   4.680   2.243   9.001  0.0062 -0.6131 -0.7907
 3193SOL    HW121212   4.651   2.333   8.982 -2.8490 -1.3438  0.0615
 3193SOL    HW221213   4.606   2.202   8.956 -1.1528  0.1876  0.3941
 3194SOL     OW21214   0.676   2.703  11.044  0.3659  0.0149 -0.2425
 3194SOL    HW121215   0.655   2.732  10.956  1.1204  0.0651 -0.4054
 3194SOL    HW221216   0.713   2.615  11.044  0.5945  0.1117 -0.4950
 3195SOL     OW21217   1.565   0.417   7.517 -0.1383 -0.0184  0.1492
 3195SOL    HW121218   1.630   0.384   7.579  0.1401 -0.0375 -0.1490
 3195SOL    HW221219   1.513   0.341   7.490  0.8329 -0.8500  0.6420
 3196SOL     OW21220   4.321   2.781   1.581 -0.4485  0.2268  0.3799
 3196SOL    HW121221   4.326   2.839   1.657 -0.4342  4.6161 -2.9720
 3196SOL    HW221222   4.390   2.721   1.608  0.4308  1.3497  0.6086
 3197SOL     OW21223   3.738   4.045  15.631  0.3568  0.0498  0.3277
 3197SOL    HW121224   3.672   4.110  15.658  0.8297  1.3152 -1.6019
 3197SOL    HW221225   3.727   4.044  15.536  0.0891  0.0681  0.3581
 3198SOL     OW21226   2.895   4.049   2.448  0.0390  0.0933 -0.0153
 3198SOL    HW121227   2.817   4.006   2.413 -0.1265  0.4121 -0.0448
 3198SOL    HW221228   2.935   4.102   2.379  0.0055 -0.1161 -0.1960
 3199SOL     OW21229   3.694   3.535   9.839  0.1328 -0.4139 -0.2235
 3199SOL    HW121230   3.657   3.468   9.896  0.8340 -0.2598  0.4059
 3199SOL    HW221231   3.783   3.532   9.874  0.5430  2.1864 -1.0810
 3200SOL     OW21232   4.222   2.014   8.410  0.4967  0.0288  0.1270
 3200SOL    HW121233   4.145   2.001   8.465 -1.2230 -0.8495 -2.4765
 3200SOL    HW221234   4.186   2.039   8.325  2.0430  2.2274  0.1031
 3201SOL     OW21235   3.532   1.141   2.745  0.3642  0.0600  0.5758
 3201SOL    HW121236   3.515   1.213   2.807  0.5281  1.0634 -0.5394
 3201SOL    HW221237   3.607   1.099   2.788  1.1143  0.3521 -0.4604
 3202SOL     OW21238   3.704   1.750   0.803 -0.9575  0.4675  0.8027
 3202SOL    HW121239   3.720   1.823   0.863  0.9909  0.2688  0.5190
 3202SOL    HW221240   3.726   1.776   0.714  2.1439 -0.9553  1.1541
 3203SOL     OW21241   4.667   0.135  11.069 -0.5123  0.4240  0.1456
 3203SOL    HW121242   4.631   0.088  10.994 -0.4793  0.1883  0.2788
 3203SOL    HW221243   4.602   0.206  11.074  2.7930  3.5428 -1.0962
 3204SOL     OW21244   2.556   0.534   6.809 -0.4141 -0.0988 -0.3094
 3204SOL    HW121245   2.527   0.624   6.799 -1.7078 -0.5400 -0.5208
 3204SOL    HW221246   2.545   0.509   6.900  0.5622  1.0641  0.1344
 3205SOL     OW21247   2.956   4.607   2.255  0.1276 -0.4969 -0.2167
 3205SOL    HW121248   2.945   4.545   2.328 -0.5467 -0.6075 -0.4191
 3205SOL    HW221249   2.947   4.553   2.176 -0.2396 -0.5087 -0.1646
 3206SOL     OW21250   1.095   2.500   9.916  0.4330  0.0625  0.8646
 3206SOL    HW121251   1.052   2.495  10.001 -0.1022  0.2979  0.6018
 3206SOL    HW221252   1.182   2.516   9.954  0.5485 -1.6034  1.3197
 3207SOL     OW21253   3.529   4.273   7.124 -0.3214 -0.0178  0.6796
 3207SOL    HW121254   3.524   4.366   7.105 -0.6285  0.0202  0.9498
 3207SOL    HW221255   3.562   4.231   7.044  0.0747  1.9379 -0.1842
 3208SOL     OW21256   2.582   1.769   9.985 -0.4307 -0.1540 -0.4747
 3208SOL    HW121257   2.648   1.721   9.936 -0.6380 -0.4446 -0.4674
 3208SOL    HW221258   2.617   1.777  10.074 -0.9211  2.7920 -0.5267
 3209SOL     OW21259   1.682   1.303   8.304 -0.4983  0.0316 -0.6563
 3209SOL    HW121260   1.650   1.393   8.306 -2.5397 -0.6667 -1.3461
 3209SOL    HW221261   1.751   1.297   8.239 -0.5152  0.5429 -0.7192
 3210SOL     OW21262   2.978   1.181  14.192  0.2116 -0.3077  0.0834
 3210SOL    HW121263   2.910   1.159  14.128  1.3735 -0.1025 -1.2036
 3210SOL    HW221264   3.023   1.098  14.204  0.4116  0.1491  2.5715
 3211SOL     OW21265   3.374   0.985   4.322 -0.9571  0.2211  0.2244
 3211SOL    HW121266   3.282   0.964   4.311 -0.4574 -1.9979  0.2200
 3211SOL    HW221267   3.376   1.051   4.252 -1.1459 -0.9793 -0.9078
 3212SOL     OW21268   3.782   3.966   9.729  0.4126 -0.3074 -0.3653
 3212SOL    HW121269   3.833   3.922   9.797  1.8544  1.4800 -0.2874
 3212SOL    HW221270   3.809   4.054   9.754  2.6555 -0.7331 -1.3372
 3213SOL     OW21271   0.516   0.205   7.586  0.5665  0.1286 -0.2426
 3213SOL    HW121272   0.477   0.202   7.673  0.7960  0.9692 -0.1119
 3213SOL    HW221273   0.480   0.289   7.557  0.3847  0.5119  1.1378
 3214SOL     OW21274   1.460   1.135   2.223 -0.2856 -0.5678  0.3302
 3214SOL    HW121275   1.379   1.091   2.199 -1.5942  1.4686  0.9857
 3214SOL    HW221276   1.486   1.086   2.301 -1.4788 -2.3484 -0.4019
 3215SOL     OW21277   0.190   0.849   8.509 -0.5774 -0.3252  0.2779
 3215SOL    HW121278   0.261   0.826   8.449 -0.9018  0.9469 -0.6112
 3215SOL    HW221279   0.216   0.800   8.587 -0.7585  2.3330  1.9894
 3216SOL     OW21280   3.583   2.064  15.170 -0.1598  0.7272  0.6104
 3216SOL    HW121281   3.645   2.049  15.242  0.0465 -0.9096  0.0939
 3216SOL    HW221282   3.646   2.042  15.101 -0.4411  0.8360  0.3213
 3217SOL     OW21283   4.703   4.165   6.681 -0.3713 -0.1847 -0.0252
 3217SOL    HW121284   4.643   4.240   6.682  0.4207  0.4139  2.6130
 3217SOL    HW221285   0.032   4.182   6.610 -0.5235  0.0485 -0.0998
 3218SOL     OW21286   1.914   3.862   6.429 -0.7324  0.1489  0.4996
 3218SOL    HW121287   1.928   3.895   6.341  1.6312 -1.1208  0.3946
 3218SOL    HW221288   1.846   3.798   6.409 -0.4571  0.0915 -0.2271
 3219SOL     OW21289   4.649   2.939   9.049  0.1526  0.0665 -0.2063
 3219SOL    HW121290   4.690   3.003   9.107 -0.2011 -0.8102  1.0288
 3219SOL    HW221291   4.608   3.002   8.989  1.8233  1.0326 -0.3157
 3220SOL     OW21292   2.363   3.255   4.279  0.4326 -0.0145 -0.1828
 3220SOL    HW121293   2.300   3.187   4.255  1.3344 -0.5407 -1.0439
 3220SOL    HW221294   2.309   3.330   4.252  1.6976  0.9295 -0.1126
 3221SOL     OW21295   1.158   0.525   2.215 -0.0509 -0.2715 -0.1100
 3221SOL    HW121296   1.142   0.488   2.128 -0.5821 -0.8510  0.2396
 3221SOL    HW221297   1.112   0.609   2.207  0.2739  0.1604  2.4787
 3222SOL     OW21298   0.216   3.635   5.360 -0.2013 -0.3167  0.5425
 3222SOL    HW121299   0.288   3.647   5.423  0.4614 -1.2586 -0.0274
 3222SOL    HW221300   0.147   3.602   5.417  0.4804 -1.3577  0.7861
 3223SOL     OW21301   2.307   2.150  12.512 -0.1495 -0.1043 -0.2601
 3223SOL    HW121302   2.320   2.174  12.421  0.5139  2.7467  0.6049
 3223SOL    HW221303   2.383   2.186  12.556 -0.5264 -1.3798  1.4321
 3224SOL     OW21304   0.869   2.739  17.503  0.2015 -0.6048 -0.0592
 3224SOL    HW121305   0.781   2.715  17.473  0.4869 -0.1397 -1.2856
 3224SOL    HW221306   0.917   2.694  17.434  1.5025  0.2943  0.2791
 3225SOL     OW21307   1.283   4.705   1.757 -0.0145  0.3187  0.0803
 3225SOL    HW121308   1.365   4.657   1.770 -0.4053 -0.6521 -1.0333
 3225SOL    HW221309   1.299   0.018   1.675  0.5730  2.1136  1.1721
 3226SOL     OW21310   2.593   4.503   7.211  0.0840 -0.1720  0.2546
 3226SOL    HW121311   2.560   4.427   7.260  2.5435 -0.6558  1.1285
 3226SOL    HW221312   2.579   4.457   7.128  1.0977  2.6678 -1.4962
 3227SOL     OW21313   1.098   2.022   6.615 -0.3412 -0.1557 -0.3959
 3227SOL    HW121314   1.156   2.086   6.656  0.8979 -0.8415 -1.0821
 3227SOL    HW221315   1.009   2.051   6.638 -0.4586  0.5415 -1.7165
 3228SOL     OW21316   4.692   3.334   2.233 -0.1546 -0.0089  0.7098
 3228SOL    HW121317   4.688   3.426   2.208 -1.0058 -0.0040  0.8490
 3228SOL    HW221318   0.009   3.341   2.314  0.2171  1.3465  0.3683
 3229SOL     OW21319   3.113   1.905  12.778  0.0215  0.0491  0.0753
 3229SOL    HW121320   3.173   1.956  12.833 -0.7456 -0.3866  1.3159
 3229SOL    HW221321   3.102   1.823  12.825  2.3941  0.4241  1.3363
 3230SOL     OW21322   3.819   2.768   6.773  0.3278 -0.0232  0.5819
 3230SOL    HW121323   3.812   2.738   6.864 -2.4030 -1.7287 -0.1863
 3230SOL    HW221324   3.840   2.861   6.782 -1.6977  0.1821  3.2153
 3231SOL     OW21325   3.386   4.125   3.707  0.0274  0.0907 -0.0858
 3231SOL    HW121326   3.432   4.209   3.712  1.7951 -0.8263 -0.7791
 3231SOL    HW221327   3.303   4.139   3.753  0.6834  1.5067  0.6844
 3232SOL     OW21328   2.929   1.254   4.854  0.0233 -0.2583  0.4005
 3232SOL    HW121329   2.909   1.329   4.911 -0.6380 -0.5211  0.5104
 3232SOL    HW221330   2.838   1.232   4.833  0.0221 -0.1795  0.3237
 3233SOL     OW21331   1.443   3.783   9.876 -0.1687  0.3588  0.7714
 3233SOL    HW121332   1.512   3.750   9.818  0.0963 -0.6721  1.6850
 3233SOL    HW221333   1.390   3.821   9.806  1.4018 -1.3254 -1.3422
 3234SOL     OW21334   2.815   0.689   9.514 -0.4127 -0.3269 -0.4688
 3234SOL    HW121335   2.745   0.665   9.453 -1.3194 -1.1041  0.8867
 3234SOL    HW221336   2.782   0.655   9.597 -0.8836  0.2328 -0.4278
 3235SOL     OW21337   1.511   1.340   5.199  0.3794  0.1278 -0.2321
 3235SOL    HW121338   1.566   1.394   5.255 -1.1668  0.6443  0.7730
 3235SOL    HW221339   1.469   1.275   5.256  1.5558 -0.9162 -0.5633
 3236SOL     OW21340   3.334   0.819  13.146 -0.0735 -0.1106 -0.4148
 3236SOL    HW121341   3.318   0.909  13.116 -2.6834 -0.8632 -1.2851
 3236SOL    HW221342   3.309   0.776  13.064  2.4141 -1.2987 -0.5345
 3237SOL     OW21343   0.817   4.090   4.558 -0.3873  0.1932 -0.3811
 3237SOL    HW121344   0.765   4.119   4.633  1.4353  0.4683  0.7841
 3237SOL    HW221345   0.867   4.018   4.596 -0.7257  0.8557  1.3149
 3238SOL     OW21346   0.304   3.309  11.804  0.0945  0.3676 -0.1748
 3238SOL    HW121347   0.220   3.294  11.761 -0.0043 -0.1722  0.2138
 3238SOL    HW221348   0.358   3.238  11.771 -3.6752 -3.6932  2.4612
 3239SOL     OW21349   0.895   3.975   0.810 -0.1202 -0.5222 -0.0349
 3239SOL    HW121350   0.927   4.046   0.754 -1.1480  0.2430  0.3388
 3239SOL    HW221351   0.934   3.897   0.773 -0.8440 -1.1568  0.5203
 3240SOL     OW21352   0.491   0.165  10.497  1.1092 -0.0025 -0.1127
 3240SOL    HW121353   0.481   0.257  10.524 -0.4757 -0.2714  0.2258
 3240SOL    HW221354   0.415   0.128  10.542  0.5630  2.2073  0.7837
 3241SOL     OW21355   0.179   2.112   5.084  0.3435 -0.1725 -0.0763
 3241SOL    HW121356   0.161   2.111   5.178 -0.8119 -1.0466 -0.3091
 3241SOL    HW221357   0.111   2.061   5.040  1.3760 -2.0215  0.4754
 3242SOL     OW21358   2.988   4.071   8.874  0.3078 -0.2982  0.5632
 3242SOL    HW121359   2.964   4.155   8.912  1.5065 -0.5513  1.8753
 3242SOL    HW221360   2.980   4.096   8.782 -1.0164  1.1829  1.0868
 3243SOL     OW21361   2.391   0.336   9.532  0.3855 -0.0825  0.1467
 3243SOL    HW121362   2.390   0.267   9.598 -1.3642  0.5959  0.8197
 3243SOL    HW221363   2.480   0.371   9.542  0.4288  0.5602 -2.4379
 3244SOL     OW21364   1.259   3.622   5.260  0.1547  0.4315 -0.5783
 3244SOL    HW121365   1.268   3.663   5.346  2.4056  0.0293 -0.6158
 3244SOL    HW221366   1.202   3.551   5.291  2.0195  0.5256  2.9728
 3245SOL     OW21367   1.646   0.306   2.409 -0.2201  0.0072 -0.3287
 3245SOL    HW121368   1.736   0.288   2.434 -0.6307 -1.1869  0.2650
 3245SOL    HW221369   1.656   0.268   2.322 -0.2774 -2.8734  0.9328
 3246SOL     OW21370   4.130   0.651   8.463  0.5403 -0.4959 -0.3156
 3246SOL    HW121371   4.086   0.673   8.546 -2.9681 -1.8917 -1.7876
 3246SOL    HW221372   4.070   0.595   8.414  1.1056 -0.7608 -0.6927
 3247SOL     OW21373   1.127   2.174   9.195  0.1203 -0.2908  0.4692
 3247SOL    HW121374   1.135   2.083   9.166 -1.9024 -0.5799  0.8174
 3247SOL    HW221375   1.215   2.208   9.180 -0.3500 -0.2972 -2.3254
 3248SOL     OW21376   3.108   0.898   2.316 -0.0870 -0.5922 -0.1884
 3248SOL    HW121377   3.029   0.944   2.289 -0.0977 -0.3201  0.3070
 3248SOL    HW221378   3.139   0.873   2.229 -0.0562 -0.3878 -0.2367
 3249SOL     OW21379   4.530   1.568   4.866  0.1682 -0.1217  0.0367
 3249SOL    HW121380   4.484   1.514   4.930 -0.9301 -1.6807 -2.0663
 3249SOL    HW221381   4.456   1.622   4.836  1.1132  0.9117 -0.4329
 3250SOL     OW21382   3.342   0.101   7.182 -0.5301  0.5559 -0.0201
 3250SOL    HW121383   3.425   0.111   7.135 -1.0771 -1.6790 -1.5053
 3250SOL    HW221384   3.280   0.137   7.118 -3.1566 -0.6223  1.8327
 3251SOL     OW21385   1.746   1.109   5.897 -0.4056  0.2257 -0.2172
 3251SOL    HW121386   1.806   1.043   5.931 -0.1195  0.0271 -1.1079
 3251SOL    HW221387   1.731   1.065   5.814  0.3865  0.5053 -0.5105
 3252SOL     OW21388   1.061   1.492  16.621 -0.0505 -0.2212 -0.9049
 3252SOL    HW121389   1.069   1.425  16.553  0.6983 -1.2284  0.2016
 3252SOL    HW221390   1.154   1.497  16.643 -0.1630  2.3419 -0.9885
 3253SOL     OW21391   3.729   4.662   7.125  0.3385 -0.3286  0.6685
 3253SOL    HW121392   3.694   4.620   7.204  0.1039  0.8112  1.1795
 3253SOL    HW221393   3.738   4.594   7.058  1.1570  1.2080 -0.7890
 3254SOL     OW21394   0.817   1.272   8.281  0.1870  0.1687  0.1846
 3254SOL    HW121395   0.810   1.342   8.345  0.8000 -0.9815  1.4984
 3254SOL    HW221396   0.803   1.315   8.197  0.5053 -2.4411 -1.2255
 3255SOL     OW21397   4.548   3.984   8.444 -0.3788 -0.0857 -0.1553
 3255SOL    HW121398   4.479   4.021   8.500 -0.1346  1.5173 -0.9242
 3255SOL    HW221399   4.544   3.900   8.489 -1.8620 -1.0917 -2.1631
 3256SOL     OW21400   4.592   3.689   8.336  0.3078 -0.0926  0.3911
 3256SOL    HW121401   4.670   3.717   8.384 -0.1726 -0.2125  1.2394
 3256SOL    HW221402   4.606   3.595   8.329  1.1472  0.1160 -0.9276
 3257SOL     OW21403   0.974   4.515   2.486 -0.0467 -0.2588  0.1715
 3257SOL    HW121404   1.001   4.505   2.577  2.4092 -0.8748 -0.6389
 3257SOL    HW221405   0.973   4.609   2.468 -1.6038 -0.4373 -0.6944
 3258SOL     OW21406   1.295   1.795   4.750 -0.9152  0.1603 -0.3216
 3258SOL    HW121407   1.315   1.706   4.781  1.6516  1.1476  0.8452
 3258SOL    HW221408   1.253   1.768   4.668  0.4394  0.5353 -1.1465
 3259SOL     OW21409   2.511   2.183  11.275 -0.0168 -0.5972  0.4442
 3259SOL    HW121410   2.594   2.221  11.248 -0.2660  0.1053  0.6511
 3259SOL    HW221411   2.519   2.088  11.278 -1.0471 -0.6810  0.6963
 3260SOL     OW21412   3.833   3.089   3.948 -0.4122  0.7715  0.1173
 3260SOL    HW121413   3.927   3.103   3.935 -0.0575 -0.7955  1.0062
 3260SOL    HW221414   3.804   3.071   3.859 -0.6684 -2.7006  0.9334
 3261SOL     OW21415   2.480   2.884   9.128 -0.5832 -0.2441  0.0485
 3261SOL    HW121416   2.531   2.817   9.175 -0.3860  0.7096  1.1813
 3261SOL    HW221417   2.406   2.902   9.184  0.9473  3.1355  0.9796
 3262SOL     OW21418   4.480   0.621   3.498  0.0607  1.0231  0.2636
 3262SOL    HW121419   4.428   0.622   3.578 -1.6989 -0.2155 -0.8666
 3262SOL    HW221420   4.510   0.530   3.487 -3.0421  0.0500 -0.1110
 3263SOL     OW21421   4.171   4.082   7.556 -0.4591  0.0237 -0.0255
 3263SOL    HW121422   4.220   4.115   7.481 -2.3319  0.4661 -1.0545
 3263SOL    HW221423   4.169   4.164   7.605  1.2967  0.5838 -0.9226
 3264SOL     OW21424   2.339   1.089  15.212  0.2908 -0.3810  0.3971
 3264SOL    HW121425   2.271   1.128  15.158  3.4022  1.5529 -2.1574
 3264SOL    HW221426   2.407   1.086  15.144 -0.5713  2.8160 -0.5484
 3265SOL     OW21427   1.945   0.618   4.380  0.7473  0.3445  0.0703
 3265SOL    HW121428   1.898   0.597   4.299  1.0172 -0.4127  0.1082
 3265SOL    HW221429   1.907   0.555   4.441  2.4162 -0.2071  0.5337
 3266SOL     OW21430   3.939   0.801   3.364 -0.3754 -0.0242 -0.0731
 3266SOL    HW121431   3.988   0.883   3.372 -1.0592  0.4601 -0.7852
 3266SOL    HW221432   3.850   0.827   3.389  0.0057 -1.0489  2.3298
 3267SOL     OW21433   0.462   0.259   7.849  0.1235 -0.2268  1.1094
 3267SOL    HW121434   0.427   0.201   7.917  0.4098 -0.4383  1.0814
 3267SOL    HW221435   0.548   0.218   7.840 -0.0511 -0.1573 -0.8044
 3268SOL     OW21436   4.406   1.364  10.403 -0.3245  0.1637 -0.0743
 3268SOL    HW121437   4.491   1.344  10.363 -0.8639  2.0843 -2.2011
 3268SOL    HW221438   4.351   1.288  10.388 -2.6703  1.8210  0.1292
 3269SOL     OW21439   4.715   0.363   8.141  0.3297 -0.1279  0.7498
 3269SOL    HW121440   0.017   0.339   8.055  1.0365 -1.8760  1.5030
 3269SOL    HW221441   4.710   0.275   8.179  0.1434 -1.1969 -1.7368
 3270SOL     OW21442   2.490   2.753  12.513  0.1522 -0.3903 -0.1025
 3270SOL    HW121443   2.465   2.843  12.492  1.2857  0.1304  0.7586
 3270SOL    HW221444   2.423   2.702  12.467  0.8432 -0.6081 -0.8557
 3271SOL     OW21445   3.591   0.316   6.357 -0.1480  0.1418 -0.1658
 3271SOL    HW121446   3.541   0.285   6.433  0.7522 -1.8944 -0.4264
 3271SOL    HW221447   3.663   0.362   6.400  0.3266 -1.9545  1.2757
 3272SOL     OW21448   2.311   3.862   3.928 -0.1438 -0.4050  0.2490
 3272SOL    HW121449   2.381   3.890   3.987  0.6445 -1.7744 -0.0618
 3272SOL    HW221450   2.313   3.768   3.940  1.0461 -0.3541  0.4740
 3273SOL     OW21451   3.073   4.652   1.287  0.3596 -0.8517  0.5685
 3273SOL    HW121452   2.995   4.602   1.263 -1.4990  2.6895 -0.7830
 3273SOL    HW221453   3.031   0.002   1.309  1.2272 -0.0783 -0.6513
 3274SOL     OW21454   4.537   0.658  15.376  0.2520 -0.3802 -0.2284
 3274SOL    HW121455   4.471   0.591  15.360 -4.6838  3.5329  3.7169
 3274SOL    HW221456   4.569   0.681  15.289 -2.8226 -1.7325 -1.6945
 3275SOL     OW21457   1.239   3.483  12.045  0.2074 -0.1882  0.3005
 3275SOL    HW121458   1.209   3.499  12.134 -1.1036  0.3641 -0.2501
 3275SOL    HW221459   1.314   3.543  12.044  0.3518 -0.3876 -0.8084
 3276SOL     OW21460   2.346   2.667   1.836 -0.8243 -0.1457 -0.1201
 3276SOL    HW121461   2.345   2.635   1.926 -3.1594  1.0930  0.3109
 3276SOL    HW221462   2.419   2.728   1.835  0.4047 -1.6697 -1.9121
 3277SOL     OW21463   2.493   0.385   7.749  0.2328 -0.3966  0.3174
 3277SOL    HW121464   2.450   0.471   7.752 -0.0161 -0.5575  1.1808
 3277SOL    HW221465   2.455   0.337   7.823  0.1936  1.5726  1.5801
 3278SOL     OW21466   4.364   3.587  11.703  0.2213  0.4501  0.3964
 3278SOL    HW121467   4.311   3.584  11.623  0.2400 -1.0296  0.4442
 3278SOL    HW221468   4.394   3.496  11.700 -1.3796 -0.0479 -0.2310
 3279SOL     OW21469   1.103   0.449  12.008 -0.2891  0.2412  0.8145
 3279SOL    HW121470   1.134   0.507  11.938  3.4667 -2.2290  0.4288
 3279SOL    HW221471   1.069   0.373  11.960  0.3544  0.0976  0.5775
 3280SOL     OW21472   3.173   2.812   3.699  0.5551 -0.2818 -0.0482
 3280SOL    HW121473   3.209   2.898   3.679 -2.6134  1.0325 -0.1350
 3280SOL    HW221474   3.239   2.750   3.668  0.0753 -0.0112 -1.5985
 3281SOL     OW21475   4.528   2.582   5.242  0.7518 -0.0957  0.1597
 3281SOL    HW121476   4.595   2.530   5.199  0.9025  1.0589 -0.9820
 3281SOL    HW221477   4.524   2.529   5.322 -0.0581 -2.4220 -1.4371
 3282SOL     OW21478   2.815   3.729   3.282 -0.2774  0.2323 -0.1892
 3282SOL    HW121479   2.782   3.645   3.251  1.9313 -1.9023  3.2267
 3282SOL    HW221480   2.736   3.777   3.307 -1.2576 -0.9213 -1.0902
 3283SOL     OW21481   2.387   4.235   8.752  0.1540 -0.5309  0.4208
 3283SOL    HW121482   2.437   4.161   8.788  0.5294 -1.1059 -1.2818
 3283SOL    HW221483   2.317   4.180   8.717  1.4961 -2.2657  0.4587
 3284SOL     OW21484   3.327   3.931   7.986 -0.1458  0.5109  0.0249
 3284SOL    HW121485   3.399   3.983   8.021  0.5226  0.2177 -0.9045
 3284SOL    HW221486   3.258   3.975   8.035 -1.9511 -2.6374  0.3212
 3285SOL     OW21487   1.178   2.727  16.132  0.3858 -0.2962  0.6478
 3285SOL    HW121488   1.257   2.750  16.182 -1.8965  1.0292  3.6243
 3285SOL    HW221489   1.204   2.741  16.041 -0.7095  2.3857  0.7441
 3286SOL     OW21490   3.328   3.893   9.774 -0.3408  0.0282  0.2786
 3286SOL    HW121491   3.369   3.978   9.787 -0.3163  0.1458 -0.5800
 3286SOL    HW221492   3.236   3.916   9.758 -0.1817 -0.7305 -1.7714
 3287SOL     OW21493   2.716   4.634   7.434 -0.1215 -0.1200 -0.1533
 3287SOL    HW121494   2.799   4.666   7.401 -0.5177  1.3149  0.2285
 3287SOL    HW221495   2.688   4.590   7.354 -0.2894 -0.8586  0.3042
 3288SOL     OW21496   3.121   4.463  11.407  0.7324  0.5008  0.7554
 3288SOL    HW121497   3.135   4.490  11.498 -2.9900 -2.0861  2.0794
 3288SOL    HW221498   3.040   4.505  11.377  1.2419 -0.5868 -2.1269
 3289SOL     OW21499   4.215   2.007   7.020 -0.4648  0.4122 -0.1288
 3289SOL    HW121500   4.194   1.941   6.954  1.5117  0.2724 -0.6165
 3289SOL    HW221501   4.149   1.984   7.086 -0.5490  0.9942 -0.0070
 3290SOL     OW21502   1.889   2.763   6.998 -0.0136  0.3223  0.4777
 3290SOL    HW121503   1.962   2.797   6.947  0.3268 -3.1710 -1.3980
 3290SOL    HW221504   1.917   2.673   7.015  2.9294  0.9204 -1.1155
 3291SOL     OW21505   1.462   2.895   2.137 -0.2850  1.3174  0.5925
 3291SOL    HW121506   1.476   2.929   2.226  2.5843  1.4274  0.1128
 3291SOL    HW221507   1.442   2.963   2.073  0.9827  3.2731  2.2540
 3292SOL     OW21508   1.985   0.425  11.734  0.0488 -0.3912  0.2502
 3292SOL    HW121509   2.004   0.484  11.661  0.0849  0.0614  0.6299
 3292SOL    HW221510   1.906   0.462  11.773 -0.2436 -2.8812  2.0327
 3293SOL     OW21511   4.558   1.245   8.220 -0.4480 -0.6765  0.0411
 3293SOL    HW121512   4.517   1.309   8.279  1.0827  1.0166 -0.7425
 3293SOL    HW221513   4.588   1.307   8.154 -0.8052 -0.6321 -0.0789
 3294SOL     OW21514   2.776   3.237   8.529 -0.6313  0.0905 -0.0231
 3294SOL    HW121515   2.722   3.162   8.554  1.3018 -0.5641  2.1798
 3294SOL    HW221516   2.716   3.304   8.562 -0.5488 -0.2595  0.8398
 3295SOL     OW21517   2.585   3.909   1.821 -0.5975  0.7911  0.0799
 3295SOL    HW121518   2.621   3.915   1.910  0.7109 -1.3501 -0.3034
 3295SOL    HW221519   2.660   3.952   1.780  0.9139 -1.0377  0.8865
 3296SOL     OW21520   0.844   3.665   1.002  0.7092  0.3323 -0.6135
 3296SOL    HW121521   0.915   3.682   0.940 -0.0673  2.9380 -0.7612
 3296SOL    HW221522   0.860   3.571   1.009  1.3928  0.6464  2.0170
 3297SOL     OW21523   3.348   2.796   4.427 -0.9311 -0.4137 -0.3535
 3297SOL    HW121524   3.334   2.854   4.501  0.7039  0.3953 -0.6623
 3297SOL    HW221525   3.341   2.859   4.355 -0.8373 -1.4576 -1.2735
 3298SOL     OW21526   0.895   0.676   2.233 -0.4777  0.2192  0.3570
 3298SOL    HW121527   0.892   0.748   2.296  1.8090  1.8596 -1.4154
 3298SOL    HW221528   0.852   0.608   2.284 -2.4784  0.0736 -1.5047
 3299SOL     OW21529   4.270   2.559   2.757  0.2903  0.5428  0.0945
 3299SOL    HW121530   4.310   2.525   2.837  0.3257 -2.3380 -1.1560
 3299SOL    HW221531   4.346   2.585   2.705 -0.4182  2.1168 -0.1483
 3300SOL     OW21532   2.243   2.249   3.669  0.8885 -0.1404 -0.1244
 3300SOL    HW121533   2.208   2.217   3.752  0.9437  1.9377  0.7057
 3300SOL    HW221534   2.179   2.316   3.645  0.8854  0.4411  1.5275
 3301SOL     OW21535   3.570   2.506   1.511 -0.0543 -0.2055  0.4053
 3301SOL    HW121536   3.546   2.569   1.578 -0.6565  1.6155 -1.5203
 3301SOL    HW221537   3.483   2.475   1.486 -1.8303  4.5449  0.7664
 3302SOL     OW21538   1.220   1.335   7.435  0.7874  0.1054 -0.3164
 3302SOL    HW121539   1.186   1.341   7.346  0.1089  0.4379 -0.0322
 3302SOL    HW221540   1.184   1.256   7.475  3.0298 -1.7470 -1.9974
 3303SOL     OW21541   2.749   1.261   6.325  0.5581  0.5984 -0.5495
 3303SOL    HW121542   2.740   1.182   6.272  0.1222  1.1648 -1.3045
 3303SOL    HW221543   2.844   1.272   6.330  0.7171 -0.2634 -1.6269
 3304SOL     OW21544   4.164   0.992   8.851 -0.1695  0.8029  0.2154
 3304SOL    HW121545   4.219   0.920   8.819 -0.7346  0.9752 -1.1168
 3304SOL    HW221546   4.208   1.069   8.815 -0.8400 -0.1420 -2.6218
 3305SOL     OW21547   3.122   2.410   8.639 -0.0818  0.4936  0.1793
 3305SOL    HW121548   3.158   2.465   8.708  0.4384  1.8626 -1.1679
 3305SOL    HW221549   3.096   2.481   8.580  1.3949 -1.9986 -3.4741
 3306SOL     OW21550   1.532   3.622  14.967 -0.8232  0.4033 -0.3998
 3306SOL    HW121551   1.493   3.566  15.034  0.4840 -0.0023  0.0038
 3306SOL    HW221552   1.511   3.575  14.886  0.6574 -2.2198  0.7699
 3307SOL     OW21553   2.587   2.180   8.957  0.4170 -0.9676  0.2977
 3307SOL    HW121554   2.632   2.233   8.890  0.2454  0.1106  1.0322
 3307SOL    HW221555   2.544   2.251   9.006  0.6304 -2.2487  2.3050
 3308SOL     OW21556   4.372   1.154  11.902  0.6281  0.3002  0.0493
 3308SOL    HW121557   4.441   1.177  11.840 -0.6504  0.8486 -1.1749
 3308SOL    HW221558   4.393   1.063  11.924  0.9942  0.3656 -0.0315
 3309SOL     OW21559   1.822   4.537   4.583  0.0707 -0.2430  0.4637
 3309SOL    HW121560   1.852   4.526   4.673 -0.5909  0.6664  0.7921
 3309SOL    HW221561   1.794   4.450   4.554  2.4310 -0.5703 -0.7936
 3310SOL     OW21562   4.090   3.487   8.096  0.0203  0.2457 -1.0747
 3310SOL    HW121563   4.183   3.484   8.074  1.0465 -0.0588  3.2272
 3310SOL    HW221564   4.093   3.423   8.167  1.0701 -0.0617 -1.3941
 3311SOL     OW21565   0.271   4.286   1.150 -0.1555  0.1678 -0.1087
 3311SOL    HW121566   0.291   4.200   1.185 -1.0210 -0.0767 -0.2279
 3311SOL    HW221567   0.301   4.274   1.060  2.0001  1.0648  0.4790
 3312SOL     OW21568   3.311   3.552   8.841 -0.2685 -0.2615 -0.0639
 3312SOL    HW121569   3.246   3.537   8.909 -0.5636  0.5752 -0.1572
 3312SOL    HW221570   3.276   3.506   8.765 -2.8643 -0.3084  1.1645
 3313SOL     OW21571   1.968   3.724   2.338  0.2518  0.2325 -0.0599
 3313SOL    HW121572   1.952   3.795   2.275  0.8116 -0.0990 -0.5683
 3313SOL    HW221573   2.001   3.653   2.283  1.5207  1.2378 -0.5931
 3314SOL     OW21574   1.714   2.855   9.027  0.3595  0.7349 -0.4942
 3314SOL    HW121575   1.664   2.865   8.946  1.4776 -0.4763 -1.3612
 3314SOL    HW221576   1.802   2.827   9.001  1.2595  1.7067  1.5378
 3315SOL     OW21577   0.019   1.865  11.287  0.1279 -0.1662 -0.2497
 3315SOL    HW121578   0.085   1.838  11.351  0.6834 -1.6618 -1.4613
 3315SOL    HW221579   0.050   1.951  11.260  0.7667  0.6735  3.1968
 3316SOL     OW21580   2.213   1.538   1.764  0.2220 -0.0729  0.1205
 3316SOL    HW121581   2.233   1.545   1.670  0.5690  0.5677  0.2400
 3316SOL    HW221582   2.274   1.608   1.791  0.5651 -0.4320  0.2776
 3317SOL     OW21583   0.016   2.161   5.607 -0.3585 -0.1526 -0.3287
 3317SOL    HW121584   4.700   2.202   5.678  1.1048 -0.2444  0.7063
 3317SOL    HW221585   4.684   2.091   5.594 -1.2045  1.1394 -3.1518
 3318SOL     OW21586   2.541   2.407   4.370 -0.6523  0.1583  0.1621
 3318SOL    HW121587   2.469   2.370   4.421 -0.0685  1.0095  1.6067
 3318SOL    HW221588   2.583   2.329   4.332 -1.0775 -0.2203  0.4745
 3319SOL     OW21589   4.115   1.565   1.044  0.5566 -0.2013  0.1642
 3319SOL    HW121590   4.128   1.549   0.951 -0.2891  1.8113 -0.3064
 3319SOL    HW221591   4.129   1.660   1.040 -2.1897  0.2106 -0.2154
 3320SOL     OW21592   2.982   1.447  14.027  0.4649  0.4302 -0.5343
 3320SOL    HW121593   2.921   1.393  14.077  0.7866 -0.2293 -0.8571
 3320SOL    HW221594   2.927   1.469  13.951  1.2671 -0.2619 -1.3133
 3321SOL     OW21595   0.543   0.328   2.615  0.0755 -0.0578 -0.3327
 3321SOL    HW121596   0.491   0.408   2.608  1.3809  0.9113  1.0886
 3321SOL    HW221597   0.524   0.293   2.528 -0.0496  0.9141 -0.7007
 3322SOL     OW21598   1.310   3.334   2.842  0.1714  0.0222  0.0850
 3322SOL    HW121599   1.310   3.352   2.748  1.5115 -1.1649 -0.1464
 3322SOL    HW221600   1.350   3.414   2.875 -2.2002  1.5599 -0.8206
 3323SOL     OW21601   0.032   0.800  16.121 -0.7507 -0.1055 -0.4838
 3323SOL    HW121602   0.046   0.707  16.102 -0.7187 -0.1089 -0.4465
 3323SOL    HW221603   0.114   0.844  16.101 -2.1341  1.5948 -2.2922
 3324SOL     OW21604   1.014   3.265   7.340 -0.2568 -0.4144 -0.8110
 3324SOL    HW121605   1.028   3.355   7.311  0.8408 -0.5718 -0.7684
 3324SOL    HW221606   1.109   3.248   7.341 -0.0162  0.7065 -3.8244
 3325SOL     OW21607   1.909   2.133   4.554 -0.0401 -0.4685  0.4387
 3325SOL    HW121608   1.996   2.096   4.541  0.3935 -0.1359  2.4065
 3325SOL    HW221609   1.853   2.056   4.569  0.3469 -1.0174 -0.9527
 3326SOL     OW21610   0.628   3.959   6.069 -0.8081  0.1091  0.5726
 3326SOL    HW121611   0.676   4.041   6.057 -3.3874  1.7511  1.3596
 3326SOL    HW221612   0.696   3.893   6.055  0.3477  1.0423  1.7503
 3327SOL     OW21613   1.930   4.615  10.956  0.0019 -0.0726  0.3525
 3327SOL    HW121614   1.994   4.609  11.027 -0.7168  1.8991  1.1791
 3327SOL    HW221615   1.845   4.607  11.000 -0.3613 -1.1244 -0.5338
 3328SOL     OW21616   0.680   3.551  17.616 -1.0475  0.0264  0.0047
 3328SOL    HW121617   0.652   3.460  17.604  2.0256 -0.7641 -1.1614
 3328SOL    HW221618   0.751   3.552  17.552  0.1615  0.9458  1.3570
 3329SOL     OW21619   0.141   1.984  16.091  0.8358 -0.7082  0.9244
 3329SOL    HW121620   0.123   1.931  16.168  0.6653  0.2750  1.5714
 3329SOL    HW221621   0.230   2.017  16.101  0.9479 -0.7346  0.0376
 3330SOL     OW21622   1.815   3.194  12.233 -0.3986  0.1529  0.3665
 3330SOL    HW121623   1.743   3.135  12.257  0.3096 -1.6176 -1.9054
 3330SOL    HW221624   1.805   3.196  12.138  0.6765  4.0692  0.3617
 3331SOL     OW21625   4.535   0.430   0.071 -0.2141  0.3176 -0.7957
 3331SOL    HW121626   4.470   0.389   0.129 -0.8458  0.6284 -1.2860
 3331SOL    HW221627   4.604   0.366   0.089  1.4979  1.9375 -1.6725
 3332SOL     OW21628   2.302   1.419   3.626 -0.0241  0.8023 -0.0339
 3332SOL    HW121629   2.259   1.484   3.682  0.1576  0.9529 -0.0713
 3332SOL    HW221630   2.358   1.371   3.687 -1.4104  0.1473  0.7264
 3333SOL     OW21631   0.169   1.338   7.679 -0.1917 -0.1314 -0.2036
 3333SOL    HW121632   0.125   1.400   7.621  0.1881 -0.8708 -1.2609
 3333SOL    HW221633   0.156   1.251   7.644 -0.1554 -0.6034  0.9523
 3334SOL     OW21634   2.164   1.735   4.388 -0.3303  0.7226  0.0099
 3334SOL    HW121635   2.119   1.651   4.405  0.4216  0.1883 -0.6450
 3334SOL    HW221636   2.181   1.738   4.294  0.0326 -0.7128  0.0279
 3335SOL     OW21637   1.488   3.628  13.913 -0.6030 -0.1548  0.0645
 3335SOL    HW121638   1.544   3.680  13.970  0.2267 -0.5408 -0.3980
 3335SOL    HW221639   1.546   3.579  13.855  0.3209  1.2433 -0.1871
 3336SOL     OW21640   0.768   2.526   7.026 -0.0117  0.3592 -0.3145
 3336SOL    HW121641   0.823   2.596   7.060 -0.8409  0.8071  0.1045
 3336SOL    HW221642   0.751   2.560   6.939 -0.4522 -0.5515 -0.5841
 3337SOL     OW21643   3.986   3.314   3.411  0.0041  0.2762 -0.4278
 3337SOL    HW121644   4.009   3.344   3.499  1.2130 -1.9218 -0.0031
 3337SOL    HW221645   4.023   3.384   3.359 -1.9168  1.5149 -0.1268
 3338SOL     OW21646   3.378   3.174   4.386  0.3085  0.1776  0.8285
 3338SOL    HW121647   3.339   3.256   4.356 -0.5264 -0.7976 -0.7349
 3338SOL    HW221648   3.460   3.211   4.418  0.3113 -1.7134  3.0531
 3339SOL     OW21649   1.281   3.609   7.630  0.4415 -0.4554 -0.5817
 3339SOL    HW121650   1.320   3.590   7.715  0.9784  0.8851 -0.5293
 3339SOL    HW221651   1.190   3.623   7.656  1.3904 -0.1266  2.6268
 3340SOL     OW21652   4.515   4.618   2.387 -0.0664 -0.3105  0.0168
 3340SOL    HW121653   4.610   4.622   2.379 -0.1364  0.5107 -0.4584
 3340SOL    HW221654   4.488   4.710   2.390 -0.8120 -0.5523  0.7201
 3341SOL     OW21655   2.741   2.561   3.629  0.1177 -0.2874  0.2695
 3341SOL    HW121656   2.834   2.560   3.606 -0.0776  0.6346 -0.5668
 3341SOL    HW221657   2.711   2.625   3.564 -1.1235 -0.7849  0.3497
 3342SOL     OW21658   3.804   4.115   0.748 -0.1106 -0.5134 -0.2938
 3342SOL    HW121659   3.861   4.143   0.676  1.0437 -3.3060 -0.4388
 3342SOL    HW221660   3.757   4.045   0.703 -0.2648 -0.1923 -0.6345
 3343SOL     OW21661   2.427   0.743   1.850 -0.3068 -0.1657 -0.2737
 3343SOL    HW121662   2.470   0.678   1.794  0.3533  1.3448 -1.5350
 3343SOL    HW221663   2.345   0.751   1.800 -0.7792  2.1871  0.8778
 3344SOL     OW21664   2.677   4.088   2.648 -0.4497 -0.0195 -0.1943
 3344SOL    HW121665   2.770   4.066   2.652  0.4157  3.7822  0.4632
 3344SOL    HW221666   2.667   4.150   2.720 -0.2742  0.5662 -0.6648
 3345SOL     OW21667   3.762   0.391   6.122  0.3670 -0.4489 -0.3143
 3345SOL    HW121668   3.695   0.393   6.053 -1.2192  0.0980  1.2394
 3345SOL    HW221669   3.739   0.466   6.176  0.7081  0.6485 -1.7084
 3346SOL     OW21670   1.246   4.724  13.670 -0.0616 -0.4364 -0.1957
 3346SOL    HW121671   1.306   0.020  13.601 -1.1287  1.4558 -0.3498
 3346SOL    HW221672   1.210   0.077  13.694 -0.3662 -0.2167 -1.4404
 3347SOL     OW21673   2.829   0.384   5.069  0.1896 -0.1421 -0.3995
 3347SOL    HW121674   2.897   0.443   5.035 -0.0332  0.1398 -0.3580
 3347SOL    HW221675   2.829   0.319   4.998  0.2677  0.7547 -1.2286
 3348SOL     OW21676   2.390   3.954   5.797 -0.0887  0.5187 -0.4487
 3348SOL    HW121677   2.306   3.976   5.838 -0.5278  0.0286 -1.0700
 3348SOL    HW221678   2.445   3.954   5.875  0.6996 -0.5978 -0.9950
 3349SOL     OW21679   3.942   3.528   3.801  0.2993 -0.3142 -0.0159
 3349SOL    HW121680   3.881   3.543   3.728  0.2526  0.2514  0.1353
 3349SOL    HW221681   3.916   3.588   3.871 -1.5883 -0.7692 -0.3282
 3350SOL     OW21682   4.463   0.853   8.245 -0.2169  0.1716 -0.4046
 3350SOL    HW121683   4.441   0.881   8.156 -3.5876 -1.7125 -0.1857
 3350SOL    HW221684   4.532   0.789   8.226 -1.3090 -1.5444  1.3918
 3351SOL     OW21685   1.946   3.533   4.236 -0.4888  0.4470  0.0465
 3351SOL    HW121686   1.928   3.622   4.206  2.1785  1.4549  1.4471
 3351SOL    HW221687   1.866   3.482   4.242 -1.3252  1.4821 -2.3031
 3352SOL     OW21688   4.058   2.655   2.249 -0.3330 -0.0131  0.0321
 3352SOL    HW121689   4.109   2.683   2.324  0.0978  0.1448 -0.3214
 3352SOL    HW221690   4.126   2.624   2.189 -1.0096 -0.6995 -0.3946
 3353SOL     OW21691   4.462   2.895   3.443  0.0205 -0.6798 -0.1716
 3353SOL    HW121692   4.437   2.976   3.487  0.9555 -1.2778  1.4563
 3353SOL    HW221693   4.378   2.874   3.401  0.4095 -1.7271 -0.4367
 3354SOL     OW21694   4.334   0.799   9.081 -0.0808  0.4694  0.3946
 3354SOL    HW121695   4.245   0.829   9.097 -0.0011  0.5114  0.7484
 3354SOL    HW221696   4.320   0.742   9.005 -0.3969 -2.2108  2.4420
 3355SOL     OW21697   3.789   4.482   1.582 -0.3589  0.2099  0.5109
 3355SOL    HW121698   3.776   4.397   1.623 -3.2119  0.6165  0.4184
 3355SOL    HW221699   3.823   4.528   1.659  2.1298 -0.9117  0.0913
 3356SOL     OW21700   4.075   3.118  11.338 -0.1280  0.3593  0.3098
 3356SOL    HW121701   4.094   3.207  11.309 -0.2248  0.1552 -0.3775
 3356SOL    HW221702   4.072   3.130  11.433 -0.6250 -1.4026  0.5085
 3357SOL     OW21703   1.907   2.657   4.184  0.1523  0.2558  0.0337
 3357SOL    HW121704   1.894   2.665   4.278 -0.7442 -3.3137  0.1908
 3357SOL    HW221705   1.869   2.571   4.169 -2.0098  0.7927  2.4951
 3358SOL     OW21706   3.117   2.625   4.449 -0.2365  0.2735 -0.0466
 3358SOL    HW121707   3.194   2.678   4.428  0.7956 -0.0336  2.9632
 3358SOL    HW221708   3.163   2.544   4.472  1.0256  1.7187  2.4697
 3359SOL     OW21709   1.551   3.295   1.925  0.1214 -0.5345 -0.6299
 3359SOL    HW121710   1.641   3.265   1.939  0.8571  1.9032 -0.0594
 3359SOL    HW221711   1.498   3.219   1.947  0.7146  0.2671  3.5940
 3360SOL     OW21712   3.517   1.915   7.002  0.5069 -0.0868 -0.0044
 3360SOL    HW121713   3.578   1.843   7.020  1.6474  0.8877  0.0164
 3360SOL    HW221714   3.507   1.948   7.091  1.2922 -0.5506  0.2566
 3361SOL     OW21715   4.099   3.021   7.252  0.3225 -0.3667 -0.1099
 3361SOL    HW121716   4.180   3.063   7.279  1.6562 -2.0541 -1.5177
 3361SOL    HW221717   4.047   3.035   7.331 -0.9792 -1.7195 -0.7264
 3362SOL     OW21718   0.534   4.527   2.347  0.4828 -0.0572  0.2092
 3362SOL    HW121719   0.547   4.436   2.321 -0.8352  0.0585 -0.8596
 3362SOL    HW221720   0.550   4.525   2.441  2.0892  1.9491  0.0007
 3363SOL     OW21721   4.689   2.356  12.768  0.3456 -0.0446  0.2236
 3363SOL    HW121722   0.028   2.291  12.766 -2.0026 -2.6105  0.2267
 3363SOL    HW221723   4.686   2.367  12.863 -1.4382 -0.9063  0.2531
 3364SOL     OW21724   3.773   0.090   1.292  0.0043 -0.1743 -0.1404
 3364SOL    HW121725   3.703   0.086   1.227  0.8249 -3.7014 -0.8486
 3364SOL    HW221726   3.823   0.008   1.284 -0.5072 -0.4733 -0.2443
 3365SOL     OW21727   1.104   0.574   5.825 -0.7135  0.0562 -0.7331
 3365SOL    HW121728   1.125   0.578   5.732 -1.8701  0.5710 -0.9683
 3365SOL    HW221729   1.174   0.630   5.859 -0.1652 -1.6477  0.9652
 3366SOL     OW21730   4.193   1.453   7.520  0.4172 -0.6886 -0.2342
 3366SOL    HW121731   4.255   1.526   7.525 -0.8335  0.5773 -3.4347
 3366SOL    HW221732   4.241   1.380   7.481  0.1136 -0.0542 -1.8079
 3367SOL     OW21733   0.755   4.503  15.420 -0.2454  0.1821 -0.2775
 3367SOL    HW121734   0.818   4.563  15.380 -2.0965  0.9060 -2.0811
 3367SOL    HW221735   0.761   4.510  15.515  1.3822 -1.5761 -0.2346
 3368SOL     OW21736   3.060   4.621   8.638  0.1409 -0.1579  0.4863
 3368SOL    HW121737   3.154   4.607   8.631  0.1390  0.3834 -0.6490
 3368SOL    HW221738   3.054   4.706   8.681  0.0258  0.4137 -0.6521
 3369SOL     OW21739   2.460   0.472   8.215 -0.3291 -0.0697  0.5186
 3369SOL    HW121740   2.402   0.544   8.242  0.9868  0.3361  2.2670
 3369SOL    HW221741   2.533   0.514   8.169  0.4026 -0.4601  1.3299
 3370SOL     OW21742   3.109   3.372   3.601 -0.3373  0.2289  0.1405
 3370SOL    HW121743   3.066   3.316   3.666 -0.6727 -0.1705 -0.4289
 3370SOL    HW221744   3.199   3.369   3.634  0.4858  0.3075 -2.1148
 3371SOL     OW21745   1.095   3.497   3.373 -0.0686 -0.2901  0.0375
 3371SOL    HW121746   1.184   3.463   3.362  0.2799 -0.4521  3.1582
 3371SOL    HW221747   1.069   3.494   3.281 -1.0145 -1.1739  0.3373
 3372SOL     OW21748   3.847   0.363  13.871 -0.1149 -0.4658 -0.3524
 3372SOL    HW121749   3.875   0.413  13.794 -1.0643 -0.6471 -0.8101
 3372SOL    HW221750   3.850   0.440  13.928  0.6550 -0.0080 -0.9995
 3373SOL     OW21751   4.104   4.431   2.691 -0.1004  0.0442  0.5255
 3373SOL    HW121752   4.151   4.361   2.646 -1.6822 -0.3207 -0.5748
 3373SOL    HW221753   4.159   4.444   2.769  0.6370 -0.3959  0.0814
 3374SOL     OW21754   4.069   2.157   4.934  0.1042 -0.4086  0.8167
 3374SOL    HW121755   4.129   2.157   4.859 -1.7092 -1.2459 -0.6358
 3374SOL    HW221756   4.029   2.244   4.939  2.9789  0.8272  2.0706
 3375SOL     OW21757   2.110   0.515   2.748 -0.5974 -0.6215  0.3433
 3375SOL    HW121758   2.186   0.456   2.749 -0.4897 -0.4795  0.4127
 3375SOL    HW221759   2.146   0.597   2.782  0.6031 -1.5430  1.3322
 3376SOL     OW21760   4.506   0.272   5.034  0.1868 -0.2302 -0.1033
 3376SOL    HW121761   4.482   0.274   5.126  0.8203  0.5751  0.0442
 3376SOL    HW221762   4.426   0.315   5.003 -0.2209 -1.6160 -0.9413
 3377SOL     OW21763   2.516   3.339  14.048  0.4922  0.2551 -0.0425
 3377SOL    HW121764   2.547   3.348  14.138 -0.6121 -0.4060  0.4029
 3377SOL    HW221765   2.472   3.424  14.043  1.0414  0.5696  0.5434
 3378SOL     OW21766   1.695   4.723   3.815  0.4867  0.2392  0.0087
 3378SOL    HW121767   1.721   4.631   3.822  0.8907  0.1829 -2.2097
 3378SOL    HW221768   1.684   4.717   3.720  0.0145 -0.0943  0.0831
 3379SOL     OW21769   1.202   3.190  17.385  0.5426  0.2492  0.4086
 3379SOL    HW121770   1.214   3.227  17.472 -0.3024  1.1890  0.1222
 3379SOL    HW221771   1.145   3.120  17.417  0.5610 -0.0598 -0.2337
 3380SOL     OW21772   3.265   2.790  16.471 -0.6113  0.2446  0.1711
 3380SOL    HW121773   3.355   2.769  16.448 -0.6841 -0.9158  0.9472
 3380SOL    HW221774   3.237   2.699  16.460 -0.5184  0.1090  1.1222
 3381SOL     OW21775   1.015   2.463   8.968  0.8394 -0.4014 -0.2210
 3381SOL    HW121776   1.020   2.448   9.062  4.0175 -1.4547 -0.5608
 3381SOL    HW221777   0.989   2.555   8.967  0.3434 -0.5354  1.2316
 3382SOL     OW21778   3.311   2.887  12.918 -0.2425 -0.6775  0.1211
 3382SOL    HW121779   3.230   2.858  12.960  1.1963 -3.6282  0.8621
 3382SOL    HW221780   3.268   2.925  12.841 -1.4122  0.1756  1.1835
 3383SOL     OW21781   0.898   0.127   2.094  0.4909 -0.1750 -0.5195
 3383SOL    HW121782   0.914   0.041   2.133  0.4514  0.0450 -0.0167
 3383SOL    HW221783   0.824   0.099   2.041  0.5890 -1.4225  0.0028
 3384SOL     OW21784   1.351   4.275   7.426  0.1202 -0.0000  0.1897
 3384SOL    HW121785   1.279   4.338   7.413  0.5213  0.2082 -1.0329
 3384SOL    HW221786   1.317   4.217   7.494  1.8036  0.3215  1.3103
 3385SOL     OW21787   1.067   0.649   6.431  0.0790 -0.3319  0.6573
 3385SOL    HW121788   1.130   0.618   6.367  0.6549 -2.1631  2.1136
 3385SOL    HW221789   0.994   0.663   6.371  0.2070 -0.6849  0.4243
 3386SOL     OW21790   0.652   0.090   4.156  0.4882 -0.0768 -0.6963
 3386SOL    HW121791   0.708   0.165   4.141 -1.0039  1.3255  0.8355
 3386SOL    HW221792   0.708   0.037   4.213  0.0092 -1.0825 -1.1507
 3387SOL     OW21793   4.709   4.645   3.480  0.3964 -0.4407 -0.4173
 3387SOL    HW121794   0.013   4.649   3.568 -2.5055 -2.8448  0.9015
 3387SOL    HW221795   0.007   4.730   3.448  1.5115  0.1030  2.0929
 3388SOL     OW21796   3.004   2.817   6.951 -0.3068 -0.2047 -0.5605
 3388SOL    HW121797   2.941   2.889   6.961 -0.4943 -0.3263 -0.8655
 3388SOL    HW221798   3.057   2.834   6.873  1.7670 -1.7644  0.5219
 3389SOL     OW21799   3.508   3.703   6.002 -0.0851  0.2914 -0.2326
 3389SOL    HW121800   3.442   3.639   6.028 -0.2855 -0.3993 -2.4184
 3389SOL    HW221801   3.572   3.649   5.955 -0.1886 -0.8877  0.9885
 3390SOL     OW21802   0.011   2.336  10.748  0.4172  0.2355  0.2221
 3390SOL    HW121803   0.051   2.400  10.807  0.9552  0.3563 -0.2777
 3390SOL    HW221804   4.655   2.372  10.737  0.8982  1.3563  0.0990
 3391SOL     OW21805   0.552   2.205   4.065 -0.5346  0.3373  0.0609
 3391SOL    HW121806   0.467   2.182   4.101 -1.2516 -0.0483 -1.9084
 3391SOL    HW221807   0.567   2.284   4.118 -1.0363  0.9553 -0.7131
 3392SOL     OW21808   2.244   2.094   2.289 -0.3305  0.2454  0.3846
 3392SOL    HW121809   2.328   2.127   2.256  0.4142  0.0073  2.0291
 3392SOL    HW221810   2.228   2.031   2.218 -1.4098  1.2290 -0.2389
 3393SOL     OW21811   0.167   3.286   1.942  0.1725 -0.5623  0.1638
 3393SOL    HW121812   0.091   3.318   1.990  1.2679 -0.2076  1.6866
 3393SOL    HW221813   0.198   3.364   1.894 -0.5270  0.5068  1.4684
 3394SOL     OW21814   4.450   1.368   9.634 -0.2426 -0.1917 -0.0595
 3394SOL    HW121815   4.452   1.413   9.718 -0.5965 -0.1967 -0.0463
 3394SOL    HW221816   4.519   1.418   9.591 -1.3225  0.5073 -0.9955
 3395SOL     OW21817   3.717   1.696   3.109 -0.2959  0.2350  0.7662
 3395SOL    HW121818   3.801   1.650   3.113  0.7697  2.0805 -0.7036
 3395SOL    HW221819   3.693   1.695   3.016 -1.4764  2.1079  1.0427
 3396SOL     OW21820   2.361   4.230   6.617 -0.5509  0.1207 -0.3130
 3396SOL    HW121821   2.338   4.141   6.642  0.5692 -0.4087 -1.1875
 3396SOL    HW221822   2.413   4.208   6.540 -0.6041 -1.2978  0.0570
 3397SOL     OW21823   0.134   3.845  13.535 -0.3723 -0.3953 -0.1609
 3397SOL    HW121824   0.124   3.823  13.442  1.2447 -2.6885  0.2046
 3397SOL    HW221825   0.040   3.842  13.553 -0.5169 -1.0092 -1.0172
 3398SOL     OW21826   2.222   3.309  14.936 -0.5343  0.0097 -0.4924
 3398SOL    HW121827   2.218   3.327  14.842 -2.1470 -0.5520 -0.5306
 3398SOL    HW221828   2.204   3.215  14.936  0.0963 -0.1187 -2.3533
 3399SOL     OW21829   0.487   1.312  13.176  0.5561 -0.3760  0.5761
 3399SOL    HW121830   0.564   1.257  13.165  0.4184 -0.4377 -0.1193
 3399SOL    HW221831   0.471   1.341  13.086  2.6814 -1.0430 -0.0156
 3400SOL     OW21832   1.278   1.556  15.601 -0.0601 -0.1166 -0.7241
 3400SOL    HW121833   1.189   1.569  15.634  0.5941 -0.3568  1.1231
 3400SOL    HW221834   1.290   1.643  15.562  1.2653  0.7699  1.6766
 3401SOL     OW21835   4.173   1.864   8.688  0.9474  0.1231  0.3331
 3401SOL    HW121836   4.157   1.801   8.759  0.7903  0.7971  0.8860
 3401SOL    HW221837   4.116   1.836   8.617 -1.1204  1.4925  1.4551
 3402SOL     OW21838   3.907   3.938   8.520  0.0174  0.1949  0.3685
 3402SOL    HW121839   3.891   3.848   8.550 -0.1784  0.1433  0.1082
 3402SOL    HW221840   3.893   3.932   8.426 -0.3432  0.2780  0.4171
 3403SOL     OW21841   0.566   1.330   5.013 -0.2412 -0.3802 -0.1652
 3403SOL    HW121842   0.504   1.402   5.008  0.8570  0.2761 -4.5126
 3403SOL    HW221843   0.570   1.290   4.926  0.3757  1.6532 -1.0681
 3404SOL     OW21844   1.860   0.426   4.147  0.4738  1.0163  0.3253
 3404SOL    HW121845   1.770   0.395   4.140  0.0982  2.1523  0.1963
 3404SOL    HW221846   1.862   0.467   4.061 -0.4390  3.6349  1.5467
 3405SOL     OW21847   3.318   1.340   7.011  0.5186 -0.1721 -0.3919
 3405SOL    HW121848   3.297   1.402   7.082 -1.4654  0.0335 -1.1540
 3405SOL    HW221849   3.292   1.389   6.933  0.9839  0.6174 -0.0559
 3406SOL     OW21850   2.301   4.516   6.443 -0.2586 -0.2258  0.6267
 3406SOL    HW121851   2.340   4.602   6.428 -0.8943 -0.3061 -1.4672
 3406SOL    HW221852   2.236   4.499   6.375  1.0069  0.3464 -0.7133
 3407SOL     OW21853   2.715   1.856   4.096 -0.5078 -0.3191 -0.5197
 3407SOL    HW121854   2.634   1.815   4.127  0.3829 -0.1618  1.9952
 3407SOL    HW221855   2.748   1.800   4.026 -1.0699  0.5932 -1.5086
 3408SOL     OW21856   0.512   4.326  16.692  0.2674 -0.3387 -0.2031
 3408SOL    HW121857   0.565   4.353  16.768  2.6076 -1.8454 -1.2875
 3408SOL    HW221858   0.486   4.239  16.724  0.0367  0.5773  2.1286
 3409SOL     OW21859   3.765   2.581  12.563  0.0599 -0.0103  0.4354
 3409SOL    HW121860   3.719   2.587  12.647 -0.3435 -1.6252  0.3271
 3409SOL    HW221861   3.815   2.501  12.583  1.0796 -0.1513 -2.7053
 3410SOL     OW21862   2.953   3.331   7.159  0.1853 -0.0527 -0.0616
 3410SOL    HW121863   2.988   3.420   7.152 -1.7492  0.5315 -2.4465
 3410SOL    HW221864   2.940   3.318   7.253 -2.9299  0.1432 -0.4388
 3411SOL     OW21865   0.685   4.541   3.031  0.1371 -0.0499 -0.5165
 3411SOL    HW121866   0.745   4.605   3.070  0.2933 -0.0456 -0.7627
 3411SOL    HW221867   0.628   4.509   3.101 -0.6173  0.3627 -0.9401
 3412SOL     OW21868   3.516   1.624   6.843 -0.0467 -0.4367  0.3149
 3412SOL    HW121869   3.507   1.570   6.922 -2.1439  0.4210  0.6511
 3412SOL    HW221870   3.609   1.616   6.822  0.1681 -0.0397  1.1196
 3413SOL     OW21871   4.293   3.119   7.674 -0.4109  0.3197  0.3243
 3413SOL    HW121872   4.266   3.121   7.766  1.6434  1.5363  0.9120
 3413SOL    HW221873   4.366   3.181   7.683 -0.4410  0.2190  1.2212
 3414SOL     OW21874   4.699   3.132  17.631 -0.0699  0.4580  0.4692
 3414SOL    HW121875   0.001   3.070  17.567 -3.4662 -0.1950 -0.7362
 3414SOL    HW221876   4.708   3.219  17.592  0.4041 -0.5759 -1.7092
 3415SOL     OW21877   3.908   2.947  13.631  0.0367 -0.4323 -0.4725
 3415SOL    HW121878   3.925   2.856  13.606  1.0449 -0.1658 -0.7486
 3415SOL    HW221879   3.817   2.945  13.661 -0.2273 -1.8430 -1.3457
 3416SOL     OW21880   4.003   2.509   3.207 -0.4389 -0.3423 -0.5915
 3416SOL    HW121881   3.943   2.467   3.145 -3.0036  1.0269  0.9666
 3416SOL    HW221882   4.057   2.433   3.228 -3.2642 -1.9644  0.8307
 3417SOL     OW21883   1.582   0.587  12.056  0.5469  0.0522  0.3319
 3417SOL    HW121884   1.545   0.662  12.009  0.9774 -2.0260 -3.3171
 3417SOL    HW221885   1.504   0.544  12.090  1.3692 -1.4327  0.3612
 3418SOL     OW21886   0.172   0.775   3.942 -0.0278 -0.3560 -0.1232
 3418SOL    HW121887   0.192   0.868   3.929 -0.6469  0.0150  1.5519
 3418SOL    HW221888   0.077   0.776   3.933  0.0893 -0.2706 -1.3308
 3419SOL     OW21889   2.421   1.197   9.731 -0.2437  0.3013  0.1012
 3419SOL    HW121890   2.347   1.138   9.717 -1.9636  2.7371 -1.2996
 3419SOL    HW221891   2.495   1.138   9.721  0.4891  1.1196  0.6872
 3420SOL     OW21892   3.861   4.615   6.737 -0.7547  0.1140 -0.4724
 3420SOL    HW121893   3.852   4.583   6.827  2.4044  1.1101  0.2189
 3420SOL    HW221894   3.815   4.545   6.691  1.5415 -1.5075 -0.3055
 3421SOL     OW21895   0.539   0.617   2.100 -0.3970 -0.4927  0.2875
 3421SOL    HW121896   0.462   0.667   2.072  0.5600  0.4652 -0.5909
 3421SOL    HW221897   0.530   0.619   2.195 -1.2874 -0.2165  0.1974
 3422SOL     OW21898   0.076   3.737   1.375 -0.8093 -0.2457 -0.4472
 3422SOL    HW121899   0.093   3.745   1.282  1.8313  2.0206  0.2318
 3422SOL    HW221900   0.029   3.653   1.376  0.4572 -0.9605 -1.4585
 3423SOL     OW21901   1.076   3.925  12.984  0.0308 -0.7079  0.1624
 3423SOL    HW121902   1.125   3.941  12.903 -0.7822  0.0449 -0.1858
 3423SOL    HW221903   1.034   4.011  12.994 -0.9121 -1.1386 -0.0818
 3424SOL     OW21904   2.998   3.959   7.603  0.6058 -0.2812 -0.3695
 3424SOL    HW121905   2.979   3.973   7.511 -1.3594 -2.5826 -0.3005
 3424SOL    HW221906   3.083   3.914   7.605  0.3055 -0.8663 -0.8534
 3425SOL     OW21907   3.631   2.682   8.700 -0.5833  0.0008 -0.5643
 3425SOL    HW121908   3.715   2.637   8.699 -0.7607 -0.2998 -1.6423
 3425SOL    HW221909   3.615   2.674   8.794  0.0707 -1.2541 -0.5675
 3426SOL     OW21910   2.286   1.276  12.304  0.0102  0.4474  0.2035
 3426SOL    HW121911   2.297   1.241  12.216 -2.5018  1.1160 -0.3639
 3426SOL    HW221912   2.341   1.354  12.309 -0.6275  0.7947  1.7666
 3427SOL     OW21913   0.171   4.103   5.747  0.1720 -0.2298 -0.1146
 3427SOL    HW121914   0.080   4.091   5.719  0.6237 -3.4984 -0.2068
 3427SOL    HW221915   0.165   4.092   5.842  2.7900  0.7175  0.1542
 3428SOL     OW21916   0.778   0.497  15.703  0.3417 -0.6017  0.0363
 3428SOL    HW121917   0.776   0.575  15.648  0.4068 -1.6335 -1.4466
 3428SOL    HW221918   0.738   0.527  15.784  1.7914  1.2972  0.0421
 3429SOL     OW21919   1.934   0.143   7.395  0.5460 -0.1368  0.4910
 3429SOL    HW121920   1.893   0.224   7.364 -0.1755 -0.5761  0.3190
 3429SOL    HW221921   1.860   0.091   7.424 -0.3491  0.6701 -0.3665
 3430SOL     OW21922   2.759   3.623   4.078  0.0698 -0.1964 -0.1093
 3430SOL    HW121923   2.837   3.580   4.114  1.1055  1.4679 -0.3795
 3430SOL    HW221924   2.769   3.705   4.125 -1.5933 -0.2185  0.2537
 3431SOL     OW21925   1.703   3.550  13.157  0.8569 -0.1738 -0.2078
 3431SOL    HW121926   1.769   3.585  13.098  0.9132 -0.1862 -0.1525
 3431SOL    HW221927   1.763   3.511  13.221 -0.6143 -1.7592  0.2137
 3432SOL     OW21928   1.835   0.092   6.161  0.5600 -0.4248 -0.1565
 3432SOL    HW121929   1.814   0.058   6.073  0.3040  0.0369 -0.2730
 3432SOL    HW221930   1.779   0.036   6.215 -0.1583 -1.2250 -1.7250
 3433SOL     OW21931   1.593   3.201   0.541  0.7618 -0.6111  0.1036
 3433SOL    HW121932   1.685   3.174   0.553  1.4541  1.3286 -0.8448
 3433SOL    HW221933   1.547   3.120   0.519 -1.1081  0.2861  0.7177
 3434SOL     OW21934   0.302   1.305   3.723 -0.0034 -0.1116 -0.0646
 3434SOL    HW121935   0.243   1.266   3.659 -0.9737  0.9915  0.1608
 3434SOL    HW221936   0.300   1.230   3.783 -1.3027 -0.4941 -0.5969
 3435SOL     OW21937   3.487   2.738   0.452 -0.4401 -0.0644  0.4444
 3435SOL    HW121938   3.468   2.649   0.483 -0.5718  0.1884  1.0738
 3435SOL    HW221939   3.570   2.757   0.497  0.0874 -2.4653  0.5011
 3436SOL     OW21940   3.614   0.994   3.209 -0.0733  0.1901 -0.1005
 3436SOL    HW121941   3.675   1.033   3.147 -2.1663  2.1231 -0.9524
 3436SOL    HW221942   3.630   1.051   3.285  0.2214 -1.9587  1.4585
 3437SOL     OW21943   1.661   3.397  16.326 -0.1120 -0.2419  0.4064
 3437SOL    HW121944   1.609   3.317  16.323  1.1822 -1.1321  2.0492
 3437SOL    HW221945   1.660   3.411  16.421 -0.8113  0.3003  0.3196
 3438SOL     OW21946   4.504   3.811  16.956 -0.5332  0.2308  0.8273
 3438SOL    HW121947   4.491   3.725  16.916  0.6505  0.3148  0.2559
 3438SOL    HW221948   4.419   3.846  16.929 -0.0140 -0.7507 -2.0435
 3439SOL     OW21949   4.114   4.438   9.074  0.4373  0.6019 -0.4473
 3439SOL    HW121950   4.158   4.512   9.115  1.9424 -0.4545 -0.1365
 3439SOL    HW221951   4.030   4.450   9.118 -0.4625 -4.2506 -0.8308
 3440SOL     OW21952   4.636   2.094   1.104  0.0840  0.5265 -0.7230
 3440SOL    HW121953   4.697   2.102   1.031  0.4182 -0.4667 -0.5405
 3440SOL    HW221954   4.700   2.124   1.168  1.1714 -1.7271 -0.7713
 3441SOL     OW21955   3.928   3.837   9.923 -0.3910  0.2944 -0.1808
 3441SOL    HW121956   3.926   3.744   9.947 -1.6005  0.3837  0.0953
 3441SOL    HW221957   3.941   3.865  10.013 -0.2285  0.4486 -0.2531
 3442SOL     OW21958   2.197   3.257   6.027 -0.0242  0.5536 -0.0339
 3442SOL    HW121959   2.222   3.214   5.945 -0.7674 -3.2211  1.7272
 3442SOL    HW221960   2.236   3.197   6.090 -0.1676  0.5205  0.0220
 3443SOL     OW21961   0.174   0.683   9.570  0.2551 -0.0948  0.0648
 3443SOL    HW121962   0.115   0.609   9.580 -2.5624  2.1570  0.1987
 3443SOL    HW221963   0.252   0.638   9.536 -1.3334 -1.4344 -1.8088
 3444SOL     OW21964   3.766   0.628   6.731 -0.2625 -0.2728 -0.6254
 3444SOL    HW121965   3.801   0.718   6.730  1.6612 -0.9769  1.3884
 3444SOL    HW221966   3.834   0.590   6.787 -1.9943 -0.8917  1.0437
 3445SOL     OW21967   4.118   1.309  15.065  0.2289  0.0917 -0.0082
 3445SOL    HW121968   4.140   1.313  15.158 -2.5357  1.2956  0.5888
 3445SOL    HW221969   4.030   1.272  15.075  2.2138 -4.6790 -0.3466
 3446SOL     OW21970   3.145   4.112   8.372 -0.0392  0.4106 -0.2737
 3446SOL    HW121971   3.085   4.108   8.447 -1.1746  0.9644 -1.1438
 3446SOL    HW221972   3.223   4.135   8.422 -0.7976  0.5967  0.8509
 3447SOL     OW21973   2.514   4.701   9.338 -0.7419  0.2932  0.4730
 3447SOL    HW121974   2.434   0.018   9.324 -0.2187  0.3695 -2.2138
 3447SOL    HW221975   2.480   4.612   9.330 -0.3522  0.3542 -1.9089
 3448SOL     OW21976   3.215   0.672   5.785 -0.2339  0.7534  0.3121
 3448SOL    HW121977   3.142   0.666   5.723 -0.8200 -0.0887  1.0789
 3448SOL    HW221978   3.261   0.589   5.769 -0.8105  1.0118 -2.7812
 3449SOL     OW21979   1.864   2.536   5.263  1.0678 -0.1231 -0.4417
 3449SOL    HW121980   1.893   2.515   5.352 -1.0491  1.4834  0.6522
 3449SOL    HW221981   1.777   2.576   5.275  0.8140  0.1343 -3.1003
 3450SOL     OW21982   0.800   1.629   2.083  0.1666  0.0447 -0.5815
 3450SOL    HW121983   0.710   1.662   2.087 -0.0431 -0.5888 -0.1157
 3450SOL    HW221984   0.773   1.539   2.064  2.5853 -0.7609 -0.1360
 3451SOL     OW21985   4.346   4.690   8.736 -0.1516  0.2613  0.2464
 3451SOL    HW121986   4.414   4.674   8.801 -0.9033  1.6949  1.4107
 3451SOL    HW221987   4.360   0.048   8.708  0.7772 -0.0996 -0.4505
 3452SOL     OW21988   1.590   0.035  14.304 -0.1098 -0.2055  0.8621
 3452SOL    HW121989   1.597   4.673  14.316  0.2714 -0.2579  0.1924
 3452SOL    HW221990   1.601   0.039  14.210 -2.3024  0.7973  0.6384
 3453SOL     OW21991   1.162   2.963   2.267  0.0206 -0.2528 -0.2161
 3453SOL    HW121992   1.111   2.882   2.269  0.4947 -0.5711 -0.8716
 3453SOL    HW221993   1.097   3.026   2.298  0.6503 -0.3099  1.2371
 3454SOL     OW21994   3.638   4.554   4.719 -0.1005  0.0528 -0.4646
 3454SOL    HW121995   3.664   4.646   4.732  2.4985 -0.6734 -0.4571
 3454SOL    HW221996   3.600   4.541   4.806  0.7731 -1.8941 -0.3778
 3455SOL     OW21997   1.841   2.105   7.014  0.5536 -0.6494  0.0819
 3455SOL    HW121998   1.877   2.135   7.097  1.2654  0.6954 -0.7247
 3455SOL    HW221999   1.791   2.026   7.035  0.6961 -1.1450 -1.4757
 3456SOL     OW22000   2.085   0.131   3.243  0.8122  0.2613 -0.3555
 3456SOL    HW122001   2.172   0.113   3.209  1.0673  0.8611 -0.0198
 3456SOL    HW222002   2.036   0.144   3.161 -0.3911  1.4341  0.5371
 3457SOL     OW22003   2.954   4.547   1.580  0.0328  0.9478  0.3921
 3457SOL    HW122004   3.008   4.626   1.577  2.6101 -0.8868 -2.2028
 3457SOL    HW222005   2.981   4.519   1.667  3.6067  1.9021 -0.3832
 3458SOL     OW22006   1.987   2.468   6.210 -0.1298  0.3421  0.4304
 3458SOL    HW122007   1.918   2.510   6.160  0.4365  0.7420 -0.0114
 3458SOL    HW222008   1.932   2.417   6.270 -0.1985  0.3009  0.3330
 3459SOL     OW22009   2.295   0.049  14.745  0.6739  0.3149 -0.2125
 3459SOL    HW122010   2.362   0.046  14.814  1.2372 -3.1560 -0.8977
 3459SOL    HW222011   2.260   0.136  14.761 -1.4285 -0.7797  1.1707
 3460SOL     OW22012   1.852   2.564  13.919 -0.0340 -0.2892 -0.0614
 3460SOL    HW122013   1.850   2.651  13.879 -1.2656 -0.4911 -0.4284
 3460SOL    HW222014   1.773   2.522  13.884  0.3271  0.4961 -1.7967
 3461SOL     OW22015   0.465   1.685   9.014  0.3849 -0.0255  0.9783
 3461SOL    HW122016   0.435   1.773   9.038 -0.1471  0.0324  0.1113
 3461SOL    HW222017   0.527   1.715   8.947  0.2969  1.1883  1.4446
 3462SOL     OW22018   0.062   1.724   8.896  0.2054 -0.0995 -0.1126
 3462SOL    HW122019   0.090   1.813   8.874 -2.4703  0.9756  0.8945
 3462SOL    HW222020   4.713   1.709   8.849  0.1405 -1.3016  0.3676
 3463SOL     OW22021   4.274   0.631   6.446 -0.0905 -0.0617 -0.1733
 3463SOL    HW122022   4.245   0.544   6.472  2.0226 -0.6826  0.0649
 3463SOL    HW222023   4.320   0.612   6.364  0.0360 -0.9467  0.1009
 3464SOL     OW22024   3.991   2.770   1.690  0.0223 -0.3110  0.0243
 3464SOL    HW122025   3.986   2.730   1.777 -1.2100 -1.9314 -0.7951
 3464SOL    HW222026   4.083   2.770   1.666 -0.2047 -0.2962 -0.8664
 3465SOL     OW22027   2.002   1.731  14.210  0.1378  0.2389 -0.5292
 3465SOL    HW122028   2.062   1.794  14.172  0.2361  0.7983  0.5560
 3465SOL    HW222029   1.926   1.787  14.227  0.8285  1.3030 -1.0001
 3466SOL     OW22030   3.217   4.589   3.168  0.0789 -0.0156 -0.2364
 3466SOL    HW122031   3.218   4.557   3.258 -0.6611 -0.0185 -0.2297
 3466SOL    HW222032   3.123   4.579   3.151  0.2580  1.0637 -1.8812
 3467SOL     OW22033   3.954   0.683  10.613  0.4918  0.3484  0.4131
 3467SOL    HW122034   3.878   0.718  10.660 -0.0745 -0.2487 -0.0642
 3467SOL    HW222035   4.025   0.701  10.674  0.2882 -0.5673  0.9184
 3468SOL     OW22036   0.385   1.938   9.027  0.2048  0.0424  0.2291
 3468SOL    HW122037   0.304   1.954   9.076 -0.3844 -0.4691 -0.5814
 3468SOL    HW222038   0.435   2.019   9.020  1.5387 -0.7404  0.5592
 3469SOL     OW22039   4.401   2.684   6.044 -0.0216 -0.2135 -0.4945
 3469SOL    HW122040   4.383   2.684   6.138 -0.7721  1.7446 -0.6287
 3469SOL    HW222041   4.323   2.734   6.018 -0.6710 -0.4188  1.0664
 3470SOL     OW22042   3.308   1.879   8.620  0.1410  0.2265  0.1349
 3470SOL    HW122043   3.266   1.893   8.535  1.0024 -1.1634 -0.5120
 3470SOL    HW222044   3.345   1.966   8.637 -0.5270  0.7571 -1.1476
 3471SOL     OW22045   4.521   0.922   2.374  0.3453  0.3441  0.2762
 3471SOL    HW122046   4.490   1.012   2.363 -0.4405  0.0087 -0.2576
 3471SOL    HW222047   4.570   0.923   2.456 -2.1032 -1.6076  1.7555
 3472SOL     OW22048   3.870   1.092   9.119 -0.0740  0.1506  0.4195
 3472SOL    HW122049   3.859   1.054   9.206  0.7169  1.4134  1.0738
 3472SOL    HW222050   3.807   1.051   9.060  1.1038 -2.2201  0.8072
 3473SOL     OW22051   2.540   4.395   6.960 -0.2223  0.3727  0.1660
 3473SOL    HW122052   2.476   4.430   6.897 -0.9303 -0.4004  0.4498
 3473SOL    HW222053   2.613   4.361   6.907 -1.9342 -3.0566 -0.0073
 3474SOL     OW22054   1.575   3.688   5.035  0.1991  0.3348  0.4164
 3474SOL    HW122055   1.598   3.597   5.052 -0.8470  0.0408  0.2332
 3474SOL    HW222056   1.493   3.677   4.987 -0.4750 -0.8694  1.8651
 3475SOL     OW22057   1.745   3.113  11.938  0.4080 -0.3373 -0.1605
 3475SOL    HW122058   1.794   3.031  11.929  0.3716 -0.5256  1.2149
 3475SOL    HW222059   1.795   3.157  11.870  0.8597 -0.7562 -0.1060
 3476SOL     OW22060   1.139   4.255  16.774  0.3395  0.7589 -0.2769
 3476SOL    HW122061   1.205   4.325  16.775  1.8178 -0.6468 -0.6519
 3476SOL    HW222062   1.185   4.188  16.724 -0.8195  0.1126 -0.4718
 3477SOL     OW22063   0.474   3.562   0.597  0.0363  0.0796 -0.0134
 3477SOL    HW122064   0.453   3.470   0.584  1.1313 -0.2373  0.4324
 3477SOL    HW222065   0.437   3.571   0.685 -1.4086  1.3160 -0.7441
 3478SOL     OW22066   3.289   3.727   6.604 -0.0105 -0.5315 -0.4618
 3478SOL    HW122067   3.332   3.704   6.687  1.0773  0.6128 -0.7002
 3478SOL    HW222068   3.361   3.772   6.560  0.2499  0.3308  0.8465
 3479SOL     OW22069   1.321   1.851   3.023 -0.1458  0.1364 -0.3854
 3479SOL    HW122070   1.271   1.862   3.103  0.4907  2.0120 -0.2586
 3479SOL    HW222071   1.244   1.844   2.967  0.4385 -2.3538 -0.8744
 3480SOL     OW22072   1.790   1.164  13.565 -0.2821  0.4513  0.3981
 3480SOL    HW122073   1.775   1.161  13.660  0.5484 -0.4643  0.4985
 3480SOL    HW222074   1.720   1.104  13.538  0.5655 -0.0122 -0.7858
 3481SOL     OW22075   0.031   3.658  17.597  0.0056  0.0061  0.2514
 3481SOL    HW122076   4.699   3.688  17.532  1.3452 -0.5390 -1.3241
 3481SOL    HW222077   0.070   3.743  17.614  2.6174 -0.7272 -1.9408
 3482SOL     OW22078   3.543   1.213   7.891  0.6065 -0.0058  0.3813
 3482SOL    HW122079   3.610   1.217   7.823  1.9522 -1.2234  1.6488
 3482SOL    HW222080   3.581   1.146   7.947 -2.1530 -2.4752 -0.6495
 3483SOL     OW22081   4.204   1.349   0.381  0.1381 -0.0982  0.0957
 3483SOL    HW122082   4.283   1.297   0.364  0.2650  0.2270 -0.3028
 3483SOL    HW222083   4.148   1.284   0.422  2.1079 -0.7837  1.6969
 3484SOL     OW22084   4.158   3.797  14.416 -0.4747 -0.0403  0.1269
 3484SOL    HW122085   4.249   3.803  14.386 -1.2227  0.4710 -2.0256
 3484SOL    HW222086   4.153   3.848  14.497 -0.9668 -1.3225  0.9089
 3485SOL     OW22087   0.036   4.040  15.506 -0.1817 -0.3965  0.0552
 3485SOL    HW122088   0.058   3.990  15.584 -2.0239 -2.5884 -0.8343
 3485SOL    HW222089   0.112   4.097  15.496 -0.3404  0.4180  3.5548
 3486SOL     OW22090   0.322   2.144   1.362 -0.3477  0.0648  0.5092
 3486SOL    HW122091   0.284   2.095   1.435  1.4026 -2.4548 -0.2417
 3486SOL    HW222092   0.416   2.126   1.371  0.0183  1.6479 -0.1558
 3487SOL     OW22093   1.598   1.909   5.779 -0.3480 -0.0465 -0.0784
 3487SOL    HW122094   1.605   1.971   5.851  0.4173 -1.4412  1.0329
 3487SOL    HW222095   1.683   1.866   5.788 -0.2498 -0.0898 -1.1684
 3488SOL     OW22096   2.816   2.789   1.000 -0.2228 -0.2116 -0.4825
 3488SOL    HW122097   2.870   2.860   0.967  0.7946 -0.9647 -0.4512
 3488SOL    HW222098   2.854   2.782   1.088  0.3519  1.1827 -0.6204
 3489SOL     OW22099   1.720   0.024   7.525 -0.0169  0.6178 -0.3971
 3489SOL    HW122100   1.632   0.013   7.560  0.3257 -1.8659 -0.3350
 3489SOL    HW222101   1.752   4.690   7.585 -1.0987 -1.9367 -2.6603
 3490SOL     OW22102   4.616   1.408   6.484  0.2751 -0.6478  0.1265
 3490SOL    HW122103   4.685   1.435   6.545  0.5401  0.5822 -0.7056
 3490SOL    HW222104   4.626   1.484   6.426 -0.3630  0.2180  1.1593
 3491SOL     OW22105   4.092   4.534   7.032  0.2411 -0.2493  0.5476
 3491SOL    HW122106   4.168   4.577   6.990 -1.2497 -0.6763 -2.5894
 3491SOL    HW222107   4.058   4.613   7.073 -1.4878  0.1134 -1.6209
 3492SOL     OW22108   3.026   0.939   1.911  0.3017 -0.2941 -0.1847
 3492SOL    HW122109   3.088   0.877   1.950  0.4446  0.0983  0.2032
 3492SOL    HW222110   2.951   0.890   1.876 -0.9355 -0.1328  2.2259
 3493SOL     OW22111   0.491   2.137   6.053  0.6643  0.4947 -0.3923
 3493SOL    HW122112   0.409   2.130   6.103  1.3969 -0.1167  0.7230
 3493SOL    HW222113   0.525   2.048   6.038  0.0572  0.2849 -0.5535
 3494SOL     OW22114   0.812   2.412   3.426 -0.2386  0.3859  0.8182
 3494SOL    HW122115   0.773   2.446   3.507 -2.7162  2.8953 -1.4201
 3494SOL    HW222116   0.743   2.361   3.385 -0.7038  1.5035  0.1994
 3495SOL     OW22117   1.269   2.252   4.244 -0.5553  0.0248  0.4759
 3495SOL    HW122118   1.235   2.227   4.158  0.5641  1.6908 -0.4502
 3495SOL    HW222119   1.219   2.191   4.297  1.0005 -0.2842  1.5962
 3496SOL     OW22120   1.850   4.059   6.623  0.0150  0.1260  0.1629
 3496SOL    HW122121   1.897   4.023   6.698 -1.1713  0.5455  1.0979
 3496SOL    HW222122   1.883   4.002   6.553  2.0980  1.5245  0.0186
 3497SOL     OW22123   4.555   4.170   9.854  0.2107  0.0706  0.0879
 3497SOL    HW122124   4.465   4.161   9.886  0.2409 -0.2214  0.0949
 3497SOL    HW222125   4.570   4.262   9.875 -0.3786 -0.1437  1.4019
 3498SOL     OW22126   2.192   4.285   1.897  0.3248  0.2756  0.1992
 3498SOL    HW122127   2.173   4.233   1.819  0.8587  0.8191 -0.2944
 3498SOL    HW222128   2.212   4.222   1.966  0.4065 -1.0569 -1.0465
 3499SOL     OW22129   2.197   1.767   2.399 -0.0408  0.8138  0.4073
 3499SOL    HW122130   2.276   1.801   2.440 -0.4931  1.6039  0.6294
 3499SOL    HW222131   2.147   1.762   2.481 -0.2561 -0.6069  0.1957
 3500SOL     OW22132   0.149   1.566  16.800 -0.2503 -0.5859 -0.0393
 3500SOL    HW122133   0.079   1.617  16.842  2.3466  0.6278  2.8149
 3500SOL    HW222134   0.096   1.537  16.726 -0.3456  0.4504 -0.3737
 3501SOL     OW22135   0.064   4.126  17.500 -0.4215  0.6665  0.3123
 3501SOL    HW122136   0.048   4.120  17.406 -1.3466 -2.4803  0.6608
 3501SOL    HW222137   0.156   4.100  17.497  0.0425  2.2062  1.6744
 3502SOL     OW22138   0.863   0.410   4.725  0.0032 -0.3571  0.6460
 3502SOL    HW122139   0.879   0.389   4.817  0.5361  0.6954  0.7993
 3502SOL    HW222140   0.770   0.430   4.735  0.1149  1.4537 -1.9240
 3503SOL     OW22141   0.396   4.131   9.365  0.2662 -0.0908 -0.1463
 3503SOL    HW122142   0.310   4.089   9.359  0.6233 -0.5487 -2.1435
 3503SOL    HW222143   0.392   4.186   9.287  1.4792  0.2544  0.0364
 3504SOL     OW22144   2.642   3.429   7.356  0.5812 -0.0370  0.9116
 3504SOL    HW122145   2.716   3.490   7.353  1.3919 -1.0194  1.0576
 3504SOL    HW222146   2.581   3.487   7.310  0.1048  0.6070  2.3718
 3505SOL     OW22147   1.360   4.560  15.405 -0.1978 -0.9206 -0.4864
 3505SOL    HW122148   1.442   4.581  15.361 -0.8385 -1.9713 -2.1919
 3505SOL    HW222149   1.342   4.646  15.443  0.1887 -0.3367 -1.6206
 3506SOL     OW22150   4.646   2.544   4.377 -0.4159  0.1405 -0.2090
 3506SOL    HW122151   4.648   2.512   4.287  0.4933  0.1297 -0.1869
 3506SOL    HW222152   4.730   2.586   4.395  1.1716 -3.2693  0.4271
 3507SOL     OW22153   3.326   0.719   6.655  0.6074 -0.3704 -0.0128
 3507SOL    HW122154   3.415   0.754   6.647  0.6153  0.0037  1.7452
 3507SOL    HW222155   3.356   0.630   6.677  1.4257 -0.6798 -2.4265
 3508SOL     OW22156   4.327   4.046  16.510  0.0536 -0.4859  0.4590
 3508SOL    HW122157   4.333   3.956  16.476  0.8536 -0.8331  1.5205
 3508SOL    HW222158   4.421   4.062  16.518  0.2760 -0.2695 -2.4793
 3509SOL     OW22159   3.456   4.197  15.325 -0.6594  0.2928 -0.2409
 3509SOL    HW122160   3.414   4.215  15.241  0.2204  1.8713 -0.3521
 3509SOL    HW222161   3.431   4.263  15.390 -0.2573  0.5804 -0.3767
 3510SOL     OW22162   1.137   0.170   7.693 -0.0086  0.1173  0.0669
 3510SOL    HW122163   1.192   0.213   7.759  1.5114 -0.2454 -0.9532
 3510SOL    HW222164   1.103   0.106   7.755 -2.2016  2.4527  1.2718
 3511SOL     OW22165   2.754   3.273   3.046  0.2570 -0.1770  0.3132
 3511SOL    HW122166   2.849   3.259   3.051  0.4719  1.3203  0.2762
 3511SOL    HW222167   2.728   3.227   2.966  3.0114 -1.1078 -0.0665
 3512SOL     OW22168   2.225   4.566   2.641  0.0182 -0.5112 -0.1448
 3512SOL    HW122169   2.221   4.496   2.706 -0.3019  0.2106  0.6120
 3512SOL    HW222170   2.159   4.538   2.578  0.3757 -2.0706  0.1814
 3513SOL     OW22171   1.627   1.535   6.652 -0.2958 -0.0332 -0.0381
 3513SOL    HW122172   1.621   1.535   6.748  0.7776 -2.5655  0.0289
 3513SOL    HW222173   1.643   1.443   6.632 -0.8244  0.2145 -1.6022
 3514SOL     OW22174   2.821   3.803   9.022 -0.0235  0.7874  0.0767
 3514SOL    HW122175   2.857   3.800   8.933 -0.3493  1.2868 -0.0753
 3514SOL    HW222176   2.814   3.712   9.049 -1.4095  0.5928 -0.9404
 3515SOL     OW22177   3.699   2.565   6.369  0.2603 -0.0276  0.3845
 3515SOL    HW122178   3.671   2.510   6.295  1.0229 -0.1537  0.1954
 3515SOL    HW222179   3.794   2.563   6.360  0.3853  0.2990  1.6489
 3516SOL     OW22180   4.555   3.766  17.387  0.3314  0.2099 -0.0126
 3516SOL    HW122181   4.600   3.755  17.303 -0.5731 -0.3004 -0.4283
 3516SOL    HW222182   4.467   3.731  17.372  0.2401 -0.5350  2.3167
 3517SOL     OW22183   1.384   0.900   4.680 -0.0199 -0.2615  0.1145
 3517SOL    HW122184   1.405   0.808   4.698 -1.2250 -0.2191  1.7318
 3517SOL    HW222185   1.390   0.903   4.584  1.2253  0.6081  0.2260
 3518SOL     OW22186   0.845   4.438   1.790 -0.5698  0.2923 -0.2740
 3518SOL    HW122187   0.779   4.368   1.793  0.3147 -0.4884  0.9832
 3518SOL    HW222188   0.891   4.410   1.869  0.2615 -0.5553 -1.0765
 3519SOL     OW22189   2.845   1.128   8.417 -0.4849  0.6934  0.6065
 3519SOL    HW122190   2.861   1.161   8.329 -0.7780  0.6438  0.5323
 3519SOL    HW222191   2.843   1.033   8.408  0.4657  0.4181  3.2090
 3520SOL     OW22192   3.882   2.936   6.472 -0.2105  0.4295  0.2210
 3520SOL    HW122193   3.857   3.018   6.514 -2.5950 -0.0540 -0.2203
 3520SOL    HW222194   3.879   2.874   6.545 -0.3428  1.3796  1.0093
 3521SOL     OW22195   2.639   2.572   7.596  0.6241 -0.4222 -0.4851
 3521SOL    HW122196   2.717   2.522   7.573  0.4382 -0.9870  0.1055
 3521SOL    HW222197   2.648   2.583   7.691  0.2877 -1.2892 -0.3559
 3522SOL     OW22198   2.503   2.914   8.169  0.0395  0.0709 -0.6287
 3522SOL    HW122199   2.543   2.998   8.148  1.3036 -0.5891 -0.9089
 3522SOL    HW222200   2.515   2.865   8.088  0.3693 -1.0235  0.0814
 3523SOL     OW22201   1.578   1.247   7.991  0.6272  0.1802  0.5133
 3523SOL    HW122202   1.485   1.263   8.001  0.4765 -0.2346 -0.2257
 3523SOL    HW222203   1.577   1.202   7.906 -0.0919  2.0086 -0.4408
 3524SOL     OW22204   0.815   3.371   7.766 -0.1797 -0.2350  0.1894
 3524SOL    HW122205   0.886   3.333   7.715  0.2648  0.1725  0.4984
 3524SOL    HW222206   0.763   3.295   7.788  1.1649 -1.0546  0.5547
 3525SOL     OW22207   2.237   0.121  12.053  0.7229  0.4703  0.4515
 3525SOL    HW122208   2.251   0.204  12.099  0.8924  1.5233 -1.5003
 3525SOL    HW222209   2.288   0.132  11.973  2.5899 -0.0634  1.5875
 3526SOL     OW22210   2.464   3.882   2.668  0.6175  0.1313  0.1210
 3526SOL    HW122211   2.528   3.954   2.674 -1.2837  1.8031  0.2983
 3526SOL    HW222212   2.446   3.855   2.758 -0.1266 -0.5433 -0.2420
 3527SOL     OW22213   2.491   2.936   8.854  0.2482  0.0867  0.4124
 3527SOL    HW122214   2.503   2.919   8.947  1.0918  0.4804  0.3699
 3527SOL    HW222215   2.500   2.844   8.826  0.4531  0.5246 -0.9619
 3528SOL     OW22216   2.037   2.941   8.699  0.1740  0.4338 -0.0491
 3528SOL    HW122217   2.001   2.941   8.611  1.0617  1.9771 -0.4229
 3528SOL    HW222218   2.109   3.003   8.683  0.6185  0.3948  1.7716
 3529SOL     OW22219   0.345   2.455   1.517 -0.0316 -0.5175 -0.3226
 3529SOL    HW122220   0.305   2.456   1.430 -0.0614 -2.5127 -0.3207
 3529SOL    HW222221   0.422   2.510   1.506  0.7347 -1.8381 -1.5338
 3530SOL     OW22222   4.557   3.548   8.782  0.1696  0.4105 -0.1147
 3530SOL    HW122223   4.464   3.553   8.804  0.2678 -1.5079  0.7339
 3530SOL    HW222224   4.580   3.477   8.843 -1.2232 -1.1287 -1.3990
 3531SOL     OW22225   3.804   1.353   5.978  0.2014 -0.2348  0.0795
 3531SOL    HW122226   3.866   1.333   6.049 -0.4449  0.0102  0.7093
 3531SOL    HW222227   3.805   1.449   5.984  2.5319 -0.1709 -1.0596
 3532SOL     OW22228   2.236   4.077   6.293  0.4505 -0.6160  0.7134
 3532SOL    HW122229   2.158   4.024   6.277  0.0015 -0.3098  1.8747
 3532SOL    HW222230   2.254   4.037   6.378  0.3349 -0.9534  0.5801
 3533SOL     OW22231   0.391   1.525   5.016  0.7240 -0.0010  0.4622
 3533SOL    HW122232   0.335   1.471   5.073  3.2271 -3.2948 -0.2035
 3533SOL    HW222233   0.337   1.604   5.011  0.9168  0.1134  0.1881
 3534SOL     OW22234   1.761   4.434   2.398 -0.0205 -0.2373  0.3107
 3534SOL    HW122235   1.666   4.435   2.392 -0.0962  2.8095  1.9734
 3534SOL    HW222236   1.787   4.451   2.307 -0.8244  0.6345  0.2461
 3535SOL     OW22237   4.150   3.658   7.176 -0.1362  0.7359 -0.0186
 3535SOL    HW122238   4.213   3.694   7.239  0.1343  0.5742 -0.1988
 3535SOL    HW222239   4.072   3.696   7.216  1.5521  2.1329  1.9752
 3536SOL     OW22240   4.073   4.168  10.384  0.1255  0.3715  0.2406
 3536SOL    HW122241   4.145   4.215  10.427  0.3182  1.0981 -0.8769
 3536SOL    HW222242   4.012   4.143  10.454 -1.6304  0.0419 -1.4259
 3537SOL     OW22243   4.272   0.348   4.934 -0.1899 -0.5149 -0.6308
 3537SOL    HW122244   4.256   0.442   4.923  0.9483 -0.3271 -0.7104
 3537SOL    HW222245   4.195   0.306   4.897  1.7964 -4.6139 -0.0699
 3538SOL     OW22246   0.391   2.426  17.317 -0.0223 -0.1630 -0.2122
 3538SOL    HW122247   0.461   2.464  17.370 -0.8195  1.3222 -0.2318
 3538SOL    HW222248   0.314   2.457  17.363  0.7420 -2.1838  2.4208
 3539SOL     OW22249   0.872   2.388   3.740  0.5363  0.4665  0.3215
 3539SOL    HW122250   0.937   2.377   3.671 -1.2200  0.5878 -1.3626
 3539SOL    HW222251   0.912   2.364   3.823 -0.1125 -3.0745 -0.4008
 3540SOL     OW22252   2.295   2.934   8.425 -0.4503 -0.3318 -0.3187
 3540SOL    HW122253   2.248   2.926   8.342  0.8807 -0.5979 -1.0460
 3540SOL    HW222254   2.374   2.976   8.392  0.0399  1.0724  2.6307
 3541SOL     OW22255   4.141   2.141   2.807  0.2518  0.6983 -0.0649
 3541SOL    HW122256   4.139   2.099   2.893  1.7947  1.8775  0.5416
 3541SOL    HW222257   4.080   2.215   2.810  0.9431  1.2585  0.0225
 3542SOL     OW22258   3.391   2.084   6.644 -0.3578 -0.3391  0.2358
 3542SOL    HW122259   3.426   2.034   6.570 -0.2954 -1.1608  0.8196
 3542SOL    HW222260   3.305   2.113   6.612 -0.5135 -0.4005  0.5910
 3543SOL     OW22261   0.193   2.929   2.643 -0.1364 -0.7088  0.4422
 3543SOL    HW122262   0.269   2.959   2.692  0.4805  0.3905 -1.1841
 3543SOL    HW222263   0.159   2.866   2.707 -1.0599  0.2566  0.8989
 3544SOL     OW22264   2.464   3.813   3.222 -0.0700 -0.4013  0.1240
 3544SOL    HW122265   2.384   3.761   3.232 -0.2209  0.4109  3.0015
 3544SOL    HW222266   2.511   3.782   3.299 -0.0218 -0.1019  0.2107
 3545SOL     OW22267   0.397   3.544   2.158  0.3210 -1.0355  0.1220
 3545SOL    HW122268   0.469   3.606   2.167  0.7851 -1.3557 -1.5004
 3545SOL    HW222269   0.417   3.494   2.238  2.8170 -0.5425 -0.1891
 3546SOL     OW22270   2.733   4.482   5.013 -0.1992 -0.0967  0.1521
 3546SOL    HW122271   2.779   4.564   4.994  2.8603 -1.2039  2.9622
 3546SOL    HW222272   2.645   4.522   5.007 -0.1516  0.5306  3.6411
 3547SOL     OW22273   1.711   1.925   4.515 -0.2216 -0.2969  0.8287
 3547SOL    HW122274   1.683   1.835   4.499 -0.2462  0.4307 -3.2412
 3547SOL    HW222275   1.626   1.968   4.523 -1.2843 -2.4502  1.0086
 3548SOL     OW22276   0.899   2.689   2.404  0.4046 -0.2313 -0.0589
 3548SOL    HW122277   0.847   2.622   2.448  0.1088  2.9406  4.3243
 3548SOL    HW222278   0.839   2.762   2.391 -0.1014 -1.2723 -3.6624
 3549SOL     OW22279   4.271   1.719   5.264  0.7172 -0.0503  0.1287
 3549SOL    HW122280   4.177   1.738   5.256  0.5372 -1.0620 -0.1950
 3549SOL    HW222281   4.278   1.654   5.334 -0.6689 -0.6402 -0.2639
 3550SOL     OW22282   0.301   4.364   1.446  0.1558 -0.4006  0.0015
 3550SOL    HW122283   0.307   4.376   1.351 -3.6193 -1.0695 -0.2962
 3550SOL    HW222284   0.381   4.313   1.460  0.2467 -0.5266 -1.0154
 3551SOL     OW22285   1.065   2.875  15.328 -0.7466 -0.2818 -0.0086
 3551SOL    HW122286   1.091   2.889  15.236  2.0299  1.5694  1.0442
 3551SOL    HW222287   1.107   2.790  15.341 -0.5336 -0.3162 -0.9007
 3552SOL     OW22288   2.242   2.300   4.662 -0.3969 -0.2699 -0.2268
 3552SOL    HW122289   2.261   2.363   4.730  0.7752 -0.6956 -0.1673
 3552SOL    HW222290   2.221   2.219   4.710  3.1594 -2.3877 -2.2716
 3553SOL     OW22291   4.686   3.718  17.153 -0.0931 -0.3383 -0.4682
 3553SOL    HW122292   4.639   3.763  17.083  0.1036  0.4002 -0.1299
 3553SOL    HW222293   4.676   3.628  17.122  2.2105  0.0505 -2.3165
 3554SOL     OW22294   0.682   1.257   9.522  0.3217 -0.1014  0.4070
 3554SOL    HW122295   0.601   1.307   9.523  0.1655 -0.3264 -1.3986
 3554SOL    HW222296   0.656   1.172   9.558  2.2492 -1.0134 -0.3399
 3555SOL     OW22297   2.652   3.426   8.693  0.1849  0.2339  0.0869
 3555SOL    HW122298   2.659   3.403   8.786  0.0723  1.1932  0.3315
 3555SOL    HW222299   2.739   3.466   8.689  0.1139  0.4349  0.5114
 3556SOL     OW22300   2.267   1.397   5.214  0.5170 -0.6157  0.2503
 3556SOL    HW122301   2.218   1.477   5.233  0.0627 -1.0581  0.9032
 3556SOL    HW222302   2.291   1.367   5.301 -1.5727 -0.9150  0.7068
 3557SOL     OW22303   1.849   1.598   7.688  0.1986 -0.2010 -0.2429
 3557SOL    HW122304   1.927   1.640   7.724 -0.1431 -0.6808  1.0961
 3557SOL    HW222305   1.884   1.511   7.668 -1.0952 -0.4545 -1.4005
 3558SOL     OW22306   2.091   1.753  12.842  0.1347  0.1201 -0.0609
 3558SOL    HW122307   2.120   1.798  12.763  2.4256 -0.6881  0.3302
 3558SOL    HW222308   2.147   1.805  12.900 -0.5184 -0.5128  1.1178
 3559SOL     OW22309   1.914   1.339   2.018 -0.5909 -0.2027 -0.0138
 3559SOL    HW122310   1.979   1.335   2.088 -2.1493  0.3301  1.4648
 3559SOL    HW222311   1.964   1.339   1.936 -0.6494 -1.5691 -0.0588
 3560SOL     OW22312   1.705   4.590   8.420 -0.1790  0.1613  1.1437
 3560SOL    HW122313   1.772   4.583   8.351 -0.3736 -0.1701  0.9892
 3560SOL    HW222314   1.706   4.497   8.441  2.7322 -0.3580 -1.1864
 3561SOL     OW22315   0.132   1.752   3.366 -0.0027 -1.0253 -0.1134
 3561SOL    HW122316   0.042   1.747   3.335 -0.3295 -0.1788  0.6961
 3561SOL    HW222317   0.147   1.683   3.431 -1.7278 -1.5798 -0.3120
 3562SOL     OW22318   4.254   1.924  10.163 -0.4287 -0.7865  0.1682
 3562SOL    HW122319   4.225   2.002  10.211 -2.0772  0.0384 -2.1496
 3562SOL    HW222320   4.272   1.960  10.076  0.2981 -1.8665 -0.1257
 3563SOL     OW22321   1.714   2.408   4.998  0.0078 -0.0958  0.1075
 3563SOL    HW122322   1.786   2.437   5.053 -0.5565  1.8697 -0.1833
 3563SOL    HW222323   1.738   2.438   4.910 -2.0191 -1.1112 -0.7913
 3564SOL     OW22324   4.650   2.581   1.942 -0.5488  0.0696  0.1951
 3564SOL    HW122325   4.687   2.669   1.934 -0.2480 -0.2376 -1.9752
 3564SOL    HW222326   4.649   2.572   2.037 -0.7805  0.9438  0.2772
 3565SOL     OW22327   0.985   4.523  13.346  0.6996  0.1018 -0.0720
 3565SOL    HW122328   1.065   4.498  13.393  1.2244  0.1990 -0.9188
 3565SOL    HW222329   0.920   4.532  13.416  1.4189 -0.2672  0.6347
 3566SOL     OW22330   3.604   2.643   2.042 -0.0950  0.0263 -0.3519
 3566SOL    HW122331   3.692   2.624   2.074 -0.3883 -0.9600 -0.1172
 3566SOL    HW222332   3.552   2.577   2.088  0.3584  1.0540  1.5926
 3567SOL     OW22333   0.623   3.767   8.114  0.1294  0.1298 -0.3171
 3567SOL    HW122334   0.627   3.767   8.209 -0.1144 -0.1389 -0.3051
 3567SOL    HW222335   0.534   3.736   8.095  0.7407 -1.2824 -0.8868
 3568SOL     OW22336   3.294   4.376  10.753 -0.4805 -0.4496  0.3828
 3568SOL    HW122337   3.317   4.454  10.804  0.7463 -0.3426 -0.3308
 3568SOL    HW222338   3.209   4.405  10.721 -1.6084 -4.1611  0.1000
 3569SOL     OW22339   2.959   0.413   9.615 -0.2251  0.0706 -0.1069
 3569SOL    HW122340   2.982   0.474   9.685 -1.1780 -0.9401  1.0989
 3569SOL    HW222341   3.034   0.354   9.627 -0.0147  0.3484 -0.0362
 3570SOL     OW22342   1.398   3.787   7.142  0.1461 -0.0733  0.0364
 3570SOL    HW122343   1.357   3.866   7.176  0.8592  0.0918  0.5032
 3570SOL    HW222344   1.463   3.823   7.082 -1.1577 -0.1926 -1.4685
 3571SOL     OW22345   2.199   2.595   6.314  0.3354  0.1686  0.0112
 3571SOL    HW122346   2.238   2.508   6.320 -0.7853 -0.3254  0.2551
 3571SOL    HW222347   2.113   2.562   6.290 -0.0110  1.6736 -0.8322
 3572SOL     OW22348   1.283   4.312   2.972  0.5225 -0.1787 -0.0158
 3572SOL    HW122349   1.359   4.370   2.980 -0.8283  1.8591 -1.7545
 3572SOL    HW222350   1.314   4.229   2.936  0.9492 -0.8552  1.9199
 3573SOL     OW22351   4.233   0.424  12.279 -0.1059  0.1097  0.2136
 3573SOL    HW122352   4.186   0.499  12.241 -0.2513  0.4650  1.0979
 3573SOL    HW222353   4.157   0.366  12.277  0.4446 -0.5989  0.1572
 3574SOL     OW22354   3.858   1.747   7.323  0.1622 -0.0622 -0.6669
 3574SOL    HW122355   3.901   1.781   7.402  1.0334  1.5101 -1.7996
 3574SOL    HW222356   3.893   1.659   7.328 -0.3362 -0.1582  1.0416
 3575SOL     OW22357   1.887   2.210  14.347 -0.6251 -0.2174  0.1028
 3575SOL    HW122358   1.885   2.303  14.370  2.4576 -0.3616  0.9239
 3575SOL    HW222359   1.980   2.191  14.357 -0.7037 -2.0445 -2.6861
 3576SOL     OW22360   2.124   2.862   2.872 -0.4218  0.1088  0.2177
 3576SOL    HW122361   2.142   2.785   2.820  0.5183  0.3324  0.2055
 3576SOL    HW222362   2.033   2.855   2.901 -0.8319 -0.1837 -1.1431
 3577SOL     OW22363   2.731   0.825   1.285  0.1615  0.1325 -0.0830
 3577SOL    HW122364   2.653   0.813   1.231 -0.8956 -0.5019  1.5797
 3577SOL    HW222365   2.779   0.885   1.227 -0.1431  0.2142 -0.2528
 3578SOL     OW22366   0.541   2.080   4.452  0.3487 -0.5505  0.3698
 3578SOL    HW122367   0.627   2.123   4.448  0.6687 -1.3832 -1.4719
 3578SOL    HW222368   0.560   2.005   4.397 -4.0609 -0.3942 -1.3420
 3579SOL     OW22369   3.460   2.056   4.743 -0.1037  0.1136  0.4174
 3579SOL    HW122370   3.497   1.994   4.680  2.9208  2.3453 -0.0245
 3579SOL    HW222371   3.375   2.016   4.762 -1.5681  2.1996 -1.6066
 3580SOL     OW22372   0.053   2.226   4.413 -0.3621  0.0242  0.4452
 3580SOL    HW122373   0.148   2.234   4.404 -0.3960 -0.4379 -0.3412
 3580SOL    HW222374   0.013   2.305   4.378  1.7432 -0.9027 -3.9976
 3581SOL     OW22375   3.573   4.703  10.030  0.1946 -0.1371  0.0717
 3581SOL    HW122376   3.515   0.032  10.073 -0.6081 -1.7747  1.3246
 3581SOL    HW222377   3.658   0.015  10.035  0.8571 -1.3458 -0.4531
 3582SOL     OW22378   3.006   2.911   2.709 -0.2127  0.0046 -0.0495
 3582SOL    HW122379   2.988   3.002   2.734  0.6632  0.3799 -0.7988
 3582SOL    HW222380   2.926   2.860   2.696 -0.5267  0.1701  1.2187
 3583SOL     OW22381   2.218   0.971  13.365 -0.0798  0.0583  0.3635
 3583SOL    HW122382   2.224   1.066  13.376 -3.2598  0.4418 -1.2783
 3583SOL    HW222383   2.198   0.977  13.272  0.3485 -0.4992  0.2353
 3584SOL     OW22384   1.964   1.217  17.592 -0.4013 -0.0327 -0.1686
 3584SOL    HW122385   1.909   1.148  17.630 -0.0735 -1.1201 -1.6739
 3584SOL    HW222386   2.047   1.181  17.621 -0.7667 -0.3554  0.4801
 3585SOL     OW22387   2.609   3.159   8.147 -0.2456  0.0779 -0.8072
 3585SOL    HW122388   2.545   3.189   8.212  2.6321 -0.3768  2.2540
 3585SOL    HW222389   2.588   3.205   8.066  2.1512  2.1482 -0.2778
 3586SOL     OW22390   0.285   0.274   3.293  0.0384 -0.2408 -0.2054
 3586SOL    HW122391   0.343   0.328   3.347  1.0656 -0.8236 -0.7062
 3586SOL    HW222392   0.346   0.204   3.268 -1.5278 -1.6002 -0.2126
 3587SOL     OW22393   1.949   1.154   6.830 -0.5132 -0.3970  0.3805
 3587SOL    HW122394   2.032   1.133   6.873  0.2630 -1.1409 -1.4838
 3587SOL    HW222395   1.894   1.186   6.901 -0.9573 -0.1593 -0.0725
 3588SOL     OW22396   1.180   4.449   5.998  0.3416  0.1759  0.1115
 3588SOL    HW122397   1.118   4.518   6.024  0.5697  0.7040 -0.7710
 3588SOL    HW222398   1.181   4.387   6.072  2.5333  1.7298  1.3787
 3589SOL     OW22399   3.547   0.492  15.499  0.1537 -0.4041  0.3783
 3589SOL    HW122400   3.598   0.414  15.479  2.2648  1.5579 -1.8124
 3589SOL    HW222401   3.464   0.472  15.456  0.8308 -1.9109 -0.2382
 3590SOL     OW22402   3.517   1.653   9.271 -0.1743  0.4161 -0.0349
 3590SOL    HW122403   3.574   1.656   9.347  0.7574 -1.4106 -0.6699
 3590SOL    HW222404   3.562   1.589   9.216 -1.6260  0.6551 -1.5125
 3591SOL     OW22405   2.700   4.241   5.143 -0.3980  0.0937  0.2980
 3591SOL    HW122406   2.640   4.297   5.192  0.7281  1.9608 -0.4391
 3591SOL    HW222407   2.704   4.289   5.060  2.3121  0.4731  0.6482
 3592SOL     OW22408   2.944   4.110   8.558 -0.4540  0.1451 -0.3924
 3592SOL    HW122409   2.892   4.033   8.534 -0.9263  0.8777 -1.7234
 3592SOL    HW222410   2.882   4.177   8.529 -1.3110 -0.3529  0.2489
 3593SOL     OW22411   4.399   3.858   2.980 -0.1719 -0.4012  0.4277
 3593SOL    HW122412   4.363   3.886   2.897  0.5466 -1.5275 -0.2649
 3593SOL    HW222413   4.395   3.932   3.041  1.7236 -0.3533  0.4961
 3594SOL     OW22414   2.527   0.660   7.299 -0.4864 -0.3769  0.5492
 3594SOL    HW122415   2.537   0.750   7.330  2.5304 -0.2847 -0.7212
 3594SOL    HW222416   2.603   0.614   7.335  0.0401 -1.2992 -1.7915
 3595SOL     OW22417   3.303   1.963   5.936 -0.7660  0.1800  0.2160
 3595SOL    HW122418   3.384   1.918   5.960  0.2846  2.4391  0.8602
 3595SOL    HW222419   3.308   1.957   5.840 -0.2644  1.2992  0.1753
 3596SOL     OW22420   2.691   1.226   4.733  0.9079 -0.5723  0.1184
 3596SOL    HW122421   2.635   1.201   4.660 -0.2982 -1.4070  1.3183
 3596SOL    HW222422   2.711   1.318   4.719  1.3182 -0.8976 -1.3846
 3597SOL     OW22423   3.155   0.381   5.179 -0.2672  0.6898  0.1530
 3597SOL    HW122424   3.250   0.371   5.173 -0.4235 -1.3824  1.3763
 3597SOL    HW222425   3.141   0.475   5.163 -1.4082  0.5350  0.2241
 3598SOL     OW22426   2.937   4.247   6.339  0.2399  0.4715  0.7581
 3598SOL    HW122427   2.940   4.342   6.328  0.4081  0.7008  2.8406
 3598SOL    HW222428   2.940   4.227   6.245 -0.9084  0.3897  0.7323
 3599SOL     OW22429   1.596   1.049   8.181  0.0311 -0.1567  0.1855
 3599SOL    HW122430   1.608   1.129   8.233 -2.3006 -0.1331  0.6542
 3599SOL    HW222431   1.607   1.087   8.093  2.1454 -0.5485  0.2668
 3600SOL     OW22432   4.180   3.067   2.130  0.4438 -0.0219  0.4078
 3600SOL    HW122433   4.138   3.142   2.088  0.2723  0.5968  1.6984
 3600SOL    HW222434   4.141   3.080   2.216 -0.4731  1.7075 -0.2719
 3601SOL     OW22435   1.724   3.937   6.168 -0.1425 -0.2076  0.6981
 3601SOL    HW122436   1.716   4.005   6.102 -1.5924  0.9896  2.1119
 3601SOL    HW222437   1.708   3.855   6.122  0.0992 -0.8878  1.8288
 3602SOL     OW22438   2.855   4.207  14.987 -0.4707 -0.0713 -0.1874
 3602SOL    HW122439   2.864   4.234  15.078 -0.1773 -0.8822  0.0275
 3602SOL    HW222440   2.859   4.295  14.951 -1.0360  1.2801  3.1049
 3603SOL     OW22441   3.877   4.255   3.173 -0.5652  0.4622  0.2184
 3603SOL    HW122442   3.887   4.161   3.189 -1.2537  0.5530  1.1893
 3603SOL    HW222443   3.863   4.265   3.079 -1.3291 -3.3710 -0.0956
 3604SOL     OW22444   4.131   1.515   4.028 -0.8387  0.1472  0.3850
 3604SOL    HW122445   4.207   1.572   4.038 -0.6224  0.0168 -0.4798
 3604SOL    HW222446   4.068   1.587   4.024 -0.8787  0.1771  1.7295
 3605SOL     OW22447   3.221   0.311   4.686 -0.5567  0.4032 -0.1832
 3605SOL    HW122448   3.198   0.218   4.684 -1.5834  0.6768 -1.2186
 3605SOL    HW222449   3.145   0.346   4.639 -2.5373  0.7980  3.2458
 3606SOL     OW22450   3.160   4.445   5.289  0.1534 -0.5091  0.3667
 3606SOL    HW122451   3.159   4.469   5.382  0.0802  0.9713 -0.0091
 3606SOL    HW222452   3.068   4.459   5.267  0.1764  1.6721  1.6138
 3607SOL     OW22453   3.501   0.829   4.122  0.5262 -0.0234 -0.3310
 3607SOL    HW122454   3.487   0.898   4.188 -1.0114 -1.3765  0.7440
 3607SOL    HW222455   3.545   0.878   4.052 -0.7972 -0.8033 -1.7082
 3608SOL     OW22456   2.948   2.418   2.089 -0.4313 -0.5633  0.0890
 3608SOL    HW122457   3.013   2.363   2.133 -2.3052 -2.8619 -0.0383
 3608SOL    HW222458   2.952   2.384   2.000  2.3512  0.4664 -0.1761
 3609SOL     OW22459   1.197   4.302   6.491  0.1607  0.3465 -0.4799
 3609SOL    HW122460   1.105   4.291   6.512  0.5487  0.5927  1.3536
 3609SOL    HW222461   1.240   4.258   6.565 -0.2422 -1.4698 -1.3312
 3610SOL     OW22462   0.622   1.794   5.593  0.1279  0.3835 -0.0378
 3610SOL    HW122463   0.685   1.803   5.522 -1.9805 -0.5432 -2.0213
 3610SOL    HW222464   0.608   1.699   5.591  0.2955  0.3478  0.4943
 3611SOL     OW22465   1.625   4.298   2.719 -0.0941  0.0254  0.0897
 3611SOL    HW122466   1.712   4.282   2.757 -0.6773 -0.3404  1.2818
 3611SOL    HW222467   1.629   4.393   2.725 -0.3056  0.1319 -1.5690
 3612SOL     OW22468   2.913   0.110  13.152  0.0169  0.6470 -0.2853
 3612SOL    HW122469   2.885   0.183  13.207  0.1492  1.1203 -0.8358
 3612SOL    HW222470   2.837   0.091  13.097  0.7405 -0.7324 -0.8321
 3613SOL     OW22471   3.814   3.441   7.986  0.2029 -0.8168  0.4051
 3613SOL    HW122472   3.839   3.527   8.020 -0.9012 -0.3062 -0.0717
 3613SOL    HW222473   3.824   3.381   8.061  0.0485  2.8926  3.3740
 3614SOL     OW22474   2.441   0.028   7.805 -0.0940 -0.0789 -0.5899
 3614SOL    HW122475   2.451   4.686   7.863  1.2777  0.1532 -0.5212
 3614SOL    HW222476   2.423   0.098   7.867  3.1206 -1.8510  2.3522
 3615SOL     OW22477   4.597   4.154   5.931  0.3124  0.8842 -0.1859
 3615SOL    HW122478   4.611   4.220   5.999  0.2021  0.4177  0.2884
 3615SOL    HW222479   4.571   4.215   5.862  0.8351 -0.0629 -1.2383
 3616SOL     OW22480   3.543   1.683   6.543 -0.0237  0.1063  0.3832
 3616SOL    HW122481   3.536   1.704   6.637 -0.7897  0.8368  0.1686
 3616SOL    HW222482   3.535   1.767   6.498 -0.0158 -0.3794 -0.5203
 3617SOL     OW22483   0.662   1.716   1.470 -0.2499  0.9899 -0.2560
 3617SOL    HW122484   0.755   1.736   1.464  0.0219  0.5106  2.2320
 3617SOL    HW222485   0.654   1.646   1.405  0.4064  0.3498  0.3548
 3618SOL     OW22486   3.927   2.804   3.168 -0.0973 -0.1929  0.3730
 3618SOL    HW122487   3.864   2.803   3.240  0.3292  0.0966  0.7484
 3618SOL    HW222488   3.929   2.711   3.148  1.1742 -0.4968  1.9592
 3619SOL     OW22489   2.900   4.379   2.393  0.4823 -0.4229 -0.0412
 3619SOL    HW122490   2.908   4.312   2.325  2.2044 -1.6714  1.3729
 3619SOL    HW222491   2.806   4.394   2.384  0.3145 -1.9559 -0.8293
 3620SOL     OW22492   3.278   2.426  11.704  0.0313 -0.3948 -0.5202
 3620SOL    HW122493   3.256   2.360  11.769  0.2164  1.1610  1.1042
 3620SOL    HW222494   3.373   2.423  11.715  0.0781 -1.6268 -1.2721
 3621SOL     OW22495   0.298   1.232   1.239 -0.5864  0.7475  0.2542
 3621SOL    HW122496   0.278   1.305   1.298  0.7733  0.2246  1.3497
 3621SOL    HW222497   0.372   1.194   1.286 -0.0829 -1.3698 -2.2543
 3622SOL     OW22498   4.509   3.448   1.162 -0.2163  0.1589  0.0339
 3622SOL    HW122499   4.484   3.470   1.072  1.8051  1.8229 -0.1176
 3622SOL    HW222500   4.426   3.451   1.211 -0.8207  0.7469 -1.0158
 3623SOL     OW22501   0.068   3.928  13.249 -0.0584 -0.0593 -0.5211
 3623SOL    HW122502   0.109   3.843  13.236 -0.7913 -0.1922 -2.0421
 3623SOL    HW222503   4.721   3.895  13.207 -1.6336  1.3482  1.3836
 3624SOL     OW22504   4.219   1.399  11.752 -0.7563 -0.3471  0.6841
 3624SOL    HW122505   4.203   1.459  11.679  1.6462  0.8882  1.1966
 3624SOL    HW222506   4.222   1.455  11.830  0.3418 -0.2747  0.5756
 3625SOL     OW22507   2.956   1.771  10.956  0.0532  0.4374  0.1772
 3625SOL    HW122508   2.967   1.800  10.866 -0.0522  2.8503  0.9367
 3625SOL    HW222509   2.893   1.703  10.933 -1.0297  0.3030  3.5418
 3626SOL     OW22510   2.415   0.214   9.774  0.1074  0.2286 -0.3794
 3626SOL    HW122511   2.405   0.289   9.832  1.8428  0.8654 -0.8987
 3626SOL    HW222512   2.438   0.143   9.834 -0.5042  1.8552  1.7824
 3627SOL     OW22513   3.471   1.574   7.365 -0.1795  0.2675 -0.5753
 3627SOL    HW122514   3.438   1.601   7.451 -0.5552 -1.6237 -0.1259
 3627SOL    HW222515   3.521   1.496   7.389  1.9170  1.7724 -0.0885
 3628SOL     OW22516   4.191   1.897   9.414 -0.3434 -0.3612 -0.0441
 3628SOL    HW122517   4.279   1.928   9.390 -0.4482  0.6004  0.7988
 3628SOL    HW222518   4.139   1.978   9.417  1.6748  0.8677  2.7016
 3629SOL     OW22519   1.598   1.163   6.108 -0.2271  0.1737  0.5931
 3629SOL    HW122520   1.640   1.113   6.038 -2.6367 -0.7607 -0.1991
 3629SOL    HW222521   1.563   1.245   6.072  0.5058 -1.1739 -3.2012
 3630SOL     OW22522   4.098   3.163   4.385  0.0252  0.3325 -0.5115
 3630SOL    HW122523   4.053   3.247   4.377 -2.0410 -0.8526 -1.2252
 3630SOL    HW222524   4.145   3.163   4.302  1.0999 -1.2639  0.0930
 3631SOL     OW22525   4.710   1.548   2.639  0.1841  0.0633 -0.5228
 3631SOL    HW122526   4.657   1.626   2.650  0.9162  0.8089 -2.2568
 3631SOL    HW222527   4.648   1.484   2.604 -0.8602  1.0146 -0.3899
 3632SOL     OW22528   0.288   3.256  12.096  0.3530 -0.2584  0.1163
 3632SOL    HW122529   0.319   3.283  12.010 -0.5534  0.3378 -0.0311
 3632SOL    HW222530   0.257   3.167  12.080 -0.3061  0.2300 -1.3413
 3633SOL     OW22531   0.129   4.470   2.079 -0.5360  0.7605 -0.4786
 3633SOL    HW122532   0.191   4.533   2.116  0.2351  0.4484 -1.2591
 3633SOL    HW222533   0.173   4.448   1.997 -0.1845 -2.1455  0.4999
 3634SOL     OW22534   3.141   3.376   8.081  0.5563  0.5766  0.7022
 3634SOL    HW122535   3.051   3.341   8.074  0.2457  1.0545  2.3126
 3634SOL    HW222536   3.169   3.376   7.989  0.2497 -1.9628  0.5872
 3635SOL     OW22537   2.482   0.275   5.937 -0.8116 -0.1357 -0.4344
 3635SOL    HW122538   2.537   0.208   5.896  0.0637 -0.5303  1.3319
 3635SOL    HW222539   2.416   0.281   5.869 -1.5045 -0.1564  0.2310
 3636SOL     OW22540   4.097   1.298   5.344 -0.3848  0.0819  0.4769
 3636SOL    HW122541   4.105   1.387   5.379 -0.7567  0.6575 -0.9147
 3636SOL    HW222542   4.080   1.311   5.251  0.0992 -0.3357  0.3241
 3637SOL     OW22543   3.876   0.028   5.924  0.0764  0.5053  0.1620
 3637SOL    HW122544   3.816   0.074   5.982 -0.8634  0.1483 -0.5236
 3637SOL    HW222545   3.901   4.685   5.976  0.5808 -1.2648 -2.6195
 3638SOL     OW22546   4.112   3.332  11.164  0.3770  0.4669  0.1303
 3638SOL    HW122547   4.206   3.332  11.147  0.7318 -1.6405  2.0322
 3638SOL    HW222548   4.094   3.425  11.181 -1.7713 -0.1461  1.0999
 3639SOL     OW22549   3.112   0.475   6.277 -0.1210 -0.4277  0.1664
 3639SOL    HW122550   3.108   0.415   6.351  0.1854 -1.5012 -0.6811
 3639SOL    HW222551   3.183   0.442   6.221  0.5154 -0.1148  0.7912
 3640SOL     OW22552   3.090   0.369   7.930 -0.1826  0.2694  0.1385
 3640SOL    HW122553   3.030   0.316   7.878 -1.7122  0.3524  1.8342
 3640SOL    HW222554   3.122   0.427   7.861 -0.0901  2.3703  1.9723
 3641SOL     OW22555   0.937   4.729  15.631  0.2981 -0.1433 -0.4662
 3641SOL    HW122556   1.005   0.001  15.698  1.1779 -1.6635 -1.2496
 3641SOL    HW222557   0.929   0.089  15.607 -2.4073 -0.5602 -1.1305
 3642SOL     OW22558   0.822   0.096   9.127 -0.4157 -0.1582  0.0239
 3642SOL    HW122559   0.754   0.124   9.066 -0.9707  1.8825  1.5777
 3642SOL    HW222560   0.850   0.177   9.169  2.1860 -1.6028  1.0749
 3643SOL     OW22561   3.214   4.717   2.513  0.3028 -0.0600 -0.4552
 3643SOL    HW122562   3.133   4.671   2.531  0.0658  0.1577 -0.9635
 3643SOL    HW222563   3.190   0.072   2.543 -0.9879 -0.7267  0.4449
 3644SOL     OW22564   1.315   4.434   4.253 -0.0874 -0.6582 -0.1986
 3644SOL    HW122565   1.343   4.460   4.165 -1.8971  3.7474  0.5577
 3644SOL    HW222566   1.252   4.365   4.231 -1.9171  1.8367 -2.7479
 3645SOL     OW22567   4.451   3.535   0.924  0.4547 -0.6014  0.2033
 3645SOL    HW122568   4.456   3.500   0.835 -2.6972  0.8896 -0.5434
 3645SOL    HW222569   4.433   3.629   0.919  0.0297 -0.7496 -1.0499
 3646SOL     OW22570   4.409   3.120   0.996 -0.0902 -0.0442 -0.4754
 3646SOL    HW122571   4.496   3.085   0.978 -0.3095 -0.8278 -0.0279
 3646SOL    HW222572   4.402   3.113   1.091 -1.2154  2.0607 -0.3995
 3647SOL     OW22573   4.711   1.382   8.754  0.0876 -0.0414  1.0032
 3647SOL    HW122574   4.687   1.298   8.794  1.2323 -0.1798  1.4129
 3647SOL    HW222575   4.641   1.439   8.786  0.0081 -1.0660  2.6734
 3648SOL     OW22576   4.282   4.137   5.614  0.0352 -0.4984  0.2963
 3648SOL    HW122577   4.234   4.211   5.577 -1.6656 -0.9603  1.5771
 3648SOL    HW222578   4.373   4.160   5.593 -0.9095  1.2475 -1.9068
 3649SOL     OW22579   0.590   2.272   2.082  0.0739  0.0512  0.1492
 3649SOL    HW122580   0.531   2.197   2.093 -0.6042  0.9771  2.7160
 3649SOL    HW222581   0.648   2.233   2.017 -1.4511 -0.0163 -1.1841
 3650SOL     OW22582   0.964   2.402   1.983  0.2944 -0.2080  0.0432
 3650SOL    HW122583   0.903   2.355   1.926  1.9317  1.7432 -3.2748
 3650SOL    HW222584   1.045   2.390   1.934 -0.1241 -0.6719 -0.5356
 3651SOL     OW22585   2.787   1.023  11.554  0.1799 -0.2871 -1.0145
 3651SOL    HW122586   2.858   0.990  11.499  1.5307 -0.8456  1.0860
 3651SOL    HW222587   2.708   0.983  11.518  0.9417 -2.6765 -0.0014
 3652SOL     OW22588   0.919   1.139   6.137  0.2279 -0.1665  0.4274
 3652SOL    HW122589   0.833   1.127   6.177 -0.2904  1.1683 -0.2716
 3652SOL    HW222590   0.976   1.108   6.208 -0.9486 -0.1731  1.3715
 3653SOL     OW22591   1.363   1.571   9.230  0.1751  0.8131 -0.0328
 3653SOL    HW122592   1.326   1.492   9.269  1.0027  1.4842  2.1080
 3653SOL    HW222593   1.346   1.554   9.137 -0.9576  0.6109  0.2162
 3654SOL     OW22594   2.552   3.220   5.228  0.2535 -0.5676 -0.1116
 3654SOL    HW122595   2.481   3.280   5.250  0.1882 -0.2362 -1.2492
 3654SOL    HW222596   2.514   3.155   5.169  1.2688  0.6815 -2.1369
 3655SOL     OW22597   1.952   1.316   8.931  0.3120  0.3788  0.0011
 3655SOL    HW122598   1.890   1.328   8.859  1.7009  1.1631 -1.0615
 3655SOL    HW222599   2.035   1.328   8.886 -1.0364 -0.5049 -2.6994
 3656SOL     OW22600   3.222   3.245   0.584  0.0046  0.0112  0.1249
 3656SOL    HW122601   3.146   3.208   0.630 -0.8410  1.2926 -0.2350
 3656SOL    HW222602   3.253   3.284   0.665  0.5472 -0.9474  0.3823
 3657SOL     OW22603   2.471   0.104  15.946  0.2740 -0.2715  0.0998
 3657SOL    HW122604   2.504   0.085  16.034  0.4717  0.2768  0.1406
 3657SOL    HW222605   2.545   0.153  15.911  0.5772 -0.7600  0.0594
 3658SOL     OW22606   1.025   3.456   5.437 -0.2154  0.1767  0.3415
 3658SOL    HW122607   1.001   3.543   5.405  1.9712 -0.1737 -2.2882
 3658SOL    HW222608   0.962   3.397   5.396 -0.6186 -0.1761  1.4992
 3659SOL     OW22609   1.872   0.665   5.088  0.0444  1.0513 -0.9285
 3659SOL    HW122610   1.812   0.727   5.129 -0.8904 -1.6573  1.7822
 3659SOL    HW222611   1.954   0.692   5.129  0.3091  2.0800 -2.1243
 3660SOL     OW22612   0.234   0.791   1.443  0.0296 -0.6288  0.1675
 3660SOL    HW122613   0.162   0.829   1.393 -0.9175 -1.4243  0.9205
 3660SOL    HW222614   0.207   0.699   1.451 -1.3052 -0.3057 -0.4958
 3661SOL     OW22615   0.914   1.103   2.340 -0.5224 -0.0180 -0.0987
 3661SOL    HW122616   0.854   1.063   2.277 -0.7073  0.1280 -0.0125
 3661SOL    HW222617   0.949   1.021   2.374 -0.5730  0.4303  1.0274
 3662SOL     OW22618   1.895   0.110   9.221  0.2263 -0.2785 -0.6345
 3662SOL    HW122619   1.817   0.105   9.165  0.4767 -2.0128 -0.8055
 3662SOL    HW222620   1.881   0.030   9.271  1.3059  1.6684  2.8022
 3663SOL     OW22621   3.267   4.331  15.188 -0.1316 -0.2915 -0.1386
 3663SOL    HW122622   3.272   4.421  15.156  0.5817 -0.1684  0.3029
 3663SOL    HW222623   3.278   4.283  15.106  2.1553 -0.6453  0.3655
 3664SOL     OW22624   4.157   2.669   5.472 -0.5337  0.0459  0.3280
 3664SOL    HW122625   4.132   2.746   5.421  1.1641 -1.0293 -2.1106
 3664SOL    HW222626   4.221   2.709   5.532  0.2815  1.5219 -1.5193
 3665SOL     OW22627   2.904   2.145   2.445 -0.4654 -0.3168 -0.0096
 3665SOL    HW122628   2.979   2.108   2.491  0.9219 -0.3517 -2.2664
 3665SOL    HW222629   2.848   2.068   2.458 -0.7217 -0.5992 -2.7881
 3666SOL     OW22630   2.699   0.091   3.515 -0.4878  0.0016 -0.0137
 3666SOL    HW122631   2.726   0.026   3.450  0.6096  0.8273 -0.3930
 3666SOL    HW222632   2.677   0.030   3.585 -0.4300  0.7178  0.6302
 3667SOL     OW22633   4.201   2.832   5.923  0.4876 -0.3933 -0.6085
 3667SOL    HW122634   4.125   2.885   5.948  0.6389 -0.1221 -0.7213
 3667SOL    HW222635   4.152   2.757   5.890 -0.7190  0.9223 -1.8109
 3668SOL     OW22636   2.749   0.047   6.386 -0.0209 -0.3576  0.5433
 3668SOL    HW122637   2.656   0.044   6.364 -0.2672  2.5341  1.1695
 3668SOL    HW222638   2.764   4.700   6.438 -1.5220 -0.4538  0.8314
 3669SOL     OW22639   1.036   1.423  13.112 -0.1504 -0.4046  0.5396
 3669SOL    HW122640   1.010   1.479  13.185 -0.5163  1.4361 -1.0099
 3669SOL    HW222641   1.073   1.340  13.142  1.8344 -0.5672 -2.3341
 3670SOL     OW22642   1.085   3.348   7.078 -0.0130 -0.1830 -0.4407
 3670SOL    HW122643   1.172   3.319   7.051  0.6127 -0.6472  2.0480
 3670SOL    HW222644   1.103   3.439   7.100 -0.8655 -0.2627  0.5808
 3671SOL     OW22645   0.767   2.753   2.981  0.1490 -0.1898  0.1287
 3671SOL    HW122646   0.785   2.847   2.984 -0.6674  0.0381 -1.7838
 3671SOL    HW222647   0.820   2.728   3.057 -2.6758 -0.0438  2.1435
 3672SOL     OW22648   4.538   2.258   3.062 -0.1500 -0.2797 -0.1626
 3672SOL    HW122649   4.589   2.191   3.108  0.0287  0.6908  1.0449
 3672SOL    HW222650   4.523   2.218   2.976 -0.4431 -1.4448  0.4251
 3673SOL     OW22651   1.009   3.251   9.666 -0.5474  0.3818 -0.0940
 3673SOL    HW122652   1.064   3.173   9.663  1.2550  1.6367  0.7950
 3673SOL    HW222653   0.959   3.243   9.747 -1.0730  0.0496 -0.4533
 3674SOL     OW22654   3.597   3.172   8.719  0.2744  0.4782  0.1380
 3674SOL    HW122655   3.622   3.247   8.772  3.4793 -0.5602  0.0991
 3674SOL    HW222656   3.505   3.164   8.744 -0.6402  0.4861 -3.1873
 3675SOL     OW22657   4.172   2.054   5.311  0.4216 -0.3720 -0.5756
 3675SOL    HW122658   4.086   2.096   5.305 -0.3423 -1.8009  0.3913
 3675SOL    HW222659   4.139   1.964   5.308  1.1218 -0.7229  2.9216
 3676SOL     OW22660   2.000   3.083   5.117 -0.1801 -0.0699 -0.2705
 3676SOL    HW122661   1.964   3.057   5.202  0.3035 -1.8125 -0.5866
 3676SOL    HW222662   1.924   3.106   5.063  1.5054  1.4389 -1.9910
 3677SOL     OW22663   2.850   2.827   2.459 -0.0696  0.7037  0.1076
 3677SOL    HW122664   2.798   2.833   2.379  1.1166  0.3908 -0.6992
 3677SOL    HW222665   2.890   2.741   2.448 -0.6565  0.7211 -2.2657
 3678SOL     OW22666   0.788   2.385   6.647  0.5389  0.1307 -0.4286
 3678SOL    HW122667   0.806   2.444   6.574 -1.5572 -1.3032 -2.0956
 3678SOL    HW222668   0.697   2.407   6.669  0.5683 -0.5065  0.3370
 3679SOL     OW22669   0.405   0.844   7.394 -0.0200  0.5306  0.1340
 3679SOL    HW122670   0.432   0.873   7.308 -0.9980  0.7907 -0.0894
 3679SOL    HW222671   0.488   0.841   7.442 -0.3776  3.3274  0.9003
 3680SOL     OW22672   1.733   4.295  17.061 -0.0491  0.3614  0.1407
 3680SOL    HW122673   1.656   4.352  17.067  0.0940  0.6214 -0.5129
 3680SOL    HW222674   1.725   4.208  17.101  0.2054  1.6924  3.1026
 3681SOL     OW22675   3.541   4.451   2.888  0.2390  0.2061 -0.0033
 3681SOL    HW122676   3.476   4.519   2.868  0.1517  0.4958  1.2546
 3681SOL    HW222677   3.478   4.387   2.920  0.1938  0.0907 -0.3272
 3682SOL     OW22678   1.536   1.267  15.126  0.2601  0.4441 -0.1529
 3682SOL    HW122679   1.469   1.295  15.189 -0.0183  2.0478 -1.1496
 3682SOL    HW222680   1.481   1.228  15.058 -1.0644  0.5369  0.8475
 3683SOL     OW22681   0.651   1.793   4.055  0.2753 -0.1551 -0.3990
 3683SOL    HW122682   0.708   1.860   4.093 -2.9564  2.2394  0.2694
 3683SOL    HW222683   0.576   1.839   4.017  1.7460  0.7225 -2.2503
 3684SOL     OW22684   1.930   0.211   2.012  0.4091 -0.0062 -0.2485
 3684SOL    HW122685   1.926   0.216   1.917 -1.7249 -1.2590 -0.2194
 3684SOL    HW222686   1.838   0.221   2.037 -0.3780 -2.1547 -2.2827
 3685SOL     OW22687   0.755   3.936   3.526 -0.3623 -0.8224 -0.0748
 3685SOL    HW122688   0.702   4.007   3.489  0.3434  0.1490  0.8011
 3685SOL    HW222689   0.700   3.859   3.509 -0.2518 -1.1643  1.1006
 3686SOL     OW22690   4.557   3.951  10.977 -0.0613  1.1244 -0.0315
 3686SOL    HW122691   4.636   3.900  10.960 -1.1788 -1.0555  1.2593
 3686SOL    HW222692   4.503   3.874  10.996  1.4496  0.0498 -0.1016
 3687SOL     OW22693   0.191   1.981   5.758  0.0859 -0.6663 -0.6300
 3687SOL    HW122694   0.280   2.015   5.747 -0.8746  1.4443 -1.9881
 3687SOL    HW222695   0.136   2.024   5.692  1.1182  1.5985 -0.0384
 3688SOL     OW22696   0.886   2.569   6.469  0.1278 -0.1153  0.2859
 3688SOL    HW122697   0.866   2.662   6.461  0.8079  0.0944  1.0094
 3688SOL    HW222698   0.881   2.554   6.375  1.7292  1.3493 -0.0251
 3689SOL     OW22699   0.808   3.710   7.926 -0.6401  0.6388 -0.4803
 3689SOL    HW122700   0.753   3.727   8.003  0.9178 -0.1416  0.7985
 3689SOL    HW222701   0.877   3.776   7.924  0.0756 -0.1264 -0.6870
 3690SOL     OW22702   0.013   0.050   5.343 -0.4985  0.5803  0.2379
 3690SOL    HW122703   0.082   0.005   5.392  0.2037 -0.9117 -2.1306
 3690SOL    HW222704   4.677   0.039   5.409  0.0397 -0.3540  0.6273
 3691SOL     OW22705   0.525   3.294   5.242 -0.0967 -0.1339 -0.4935
 3691SOL    HW122706   0.451   3.352   5.221  0.9066  1.4850  0.4202
 3691SOL    HW222707   0.558   3.328   5.326 -1.0035 -1.1255  0.2533
 3692SOL     OW22708   3.668   2.679   3.201  0.9779  0.6603  0.2146
 3692SOL    HW122709   3.594   2.737   3.218 -2.0064 -2.4694 -2.1257
 3692SOL    HW222710   3.631   2.614   3.141 -1.0379  1.7608  0.2559
 3693SOL     OW22711   2.280   4.626   7.257 -0.5018  0.4899 -0.0234
 3693SOL    HW122712   2.307   4.540   7.227 -0.9396 -0.4257  2.2616
 3693SOL    HW222713   2.348   4.664   7.312 -0.0692 -0.9417  0.4058
 3694SOL     OW22714   3.932   2.335  17.461  0.5700 -0.4667 -0.3385
 3694SOL    HW122715   3.957   2.424  17.488 -0.4511 -0.0190 -0.8581
 3694SOL    HW222716   3.837   2.341  17.468  0.5835  0.6949 -1.0887
 3695SOL     OW22717   3.646   2.332   2.409 -0.2391  0.5824  0.1845
 3695SOL    HW122718   3.669   2.276   2.335  0.0658  0.5327  0.3187
 3695SOL    HW222719   3.734   2.351   2.442  0.9506 -0.4671 -2.3580
 3696SOL     OW22720   0.871   2.576  12.528 -0.0369 -0.3245  0.1420
 3696SOL    HW122721   0.930   2.516  12.574  1.3714  0.7663 -0.2573
 3696SOL    HW222722   0.886   2.661  12.568  0.4695  0.9386 -2.7457
 3697SOL     OW22723   4.087   0.089   5.501 -0.4558 -0.2720  0.0388
 3697SOL    HW122724   4.004   0.095   5.454  0.7077 -1.7257 -2.2160
 3697SOL    HW222725   4.152   0.098   5.430  0.7777  0.6089  1.2690
 3698SOL     OW22726   2.835   3.606   3.580  0.1012 -0.2827 -0.2763
 3698SOL    HW122727   2.897   3.584   3.511 -0.7123 -2.4738 -0.3079
 3698SOL    HW222728   2.769   3.644   3.522  0.3665  2.1607  0.9938
 3699SOL     OW22729   3.557   4.724   8.940 -0.0123  0.1044 -0.4575
 3699SOL    HW122730   3.636   4.685   8.903  0.4468 -0.4794  1.1075
 3699SOL    HW222731   3.586   0.082   8.945  0.3361 -0.2234  3.9930
 3700SOL     OW22732   1.165   3.004   1.758 -0.3261 -0.8776  0.7464
 3700SOL    HW122733   1.089   2.961   1.798 -2.1213 -0.0804 -1.7508
 3700SOL    HW222734   1.162   2.965   1.670 -3.6070  1.0735 -0.0187
 3701SOL     OW22735   2.192   2.303   8.820 -0.2483 -0.5962  0.2852
 3701SOL    HW122736   2.215   2.321   8.728 -2.2234 -0.7333 -0.2270
 3701SOL    HW222737   2.240   2.366   8.874 -2.6971  1.2358  0.2892
 3702SOL     OW22738   0.938   3.563   1.775  0.2029  0.4557  0.7186
 3702SOL    HW122739   0.933   3.620   1.853 -1.3091  2.4453 -0.8209
 3702SOL    HW222740   0.848   3.566   1.743  0.6265  0.5224 -0.4498
 3703SOL     OW22741   3.979   0.528   6.855 -0.1317 -0.2378 -0.5404
 3703SOL    HW122742   4.064   0.512   6.814  0.5990  0.3471  0.7476
 3703SOL    HW222743   4.000   0.604   6.910 -0.3878 -0.7190  0.2306
 3704SOL     OW22744   3.527   0.239   7.576  0.1188 -0.5526 -0.3960
 3704SOL    HW122745   3.452   0.210   7.524  0.4235 -1.3134 -0.4081
 3704SOL    HW222746   3.605   0.207   7.532  1.0183  0.3312  0.5625
 3705SOL     OW22747   4.604   2.298  17.197  0.1632  0.1191 -0.2397
 3705SOL    HW122748   4.677   2.350  17.231  0.6384 -1.0962  0.5961
 3705SOL    HW222749   4.655   2.241  17.139 -0.4005  0.1751 -0.7893
 3706SOL     OW22750   0.305   0.905  14.081 -0.9876 -0.4165 -0.0565
 3706SOL    HW122751   0.264   0.955  14.010  0.7578 -0.9220 -1.3980
 3706SOL    HW222752   0.224   0.883  14.128 -0.5353 -1.4532  0.2258
 3707SOL     OW22753   0.836   3.575   7.260 -0.2703  0.5645  0.5607
 3707SOL    HW122754   0.823   3.567   7.165  0.1475  0.0817  0.5468
 3707SOL    HW222755   0.762   3.531   7.303 -0.3859 -1.2396 -1.4481
 3708SOL     OW22756   1.493   0.950  10.638 -0.0975 -0.3196 -0.0946
 3708SOL    HW122757   1.479   1.033  10.683 -1.1579 -0.3132 -0.4502
 3708SOL    HW222758   1.525   0.988  10.556  1.4747 -2.2898 -0.4003
 3709SOL     OW22759   0.344   1.768   4.591 -0.2856  0.1281  0.2661
 3709SOL    HW122760   0.285   1.715   4.537  1.3496 -1.0539 -0.3725
 3709SOL    HW222761   0.399   1.703   4.635  3.0987  0.7701 -3.0179
 3710SOL     OW22762   0.174   2.275  11.957 -0.2001  0.1796 -0.1799
 3710SOL    HW122763   0.131   2.241  12.036  1.5138 -1.1078  0.2073
 3710SOL    HW222764   0.186   2.197  11.902 -0.3050 -0.6525  0.9707
 3711SOL     OW22765   2.738   1.135  15.988 -0.2518  0.8148 -0.4907
 3711SOL    HW122766   2.716   1.208  15.930  0.0790  0.9102 -0.4964
 3711SOL    HW222767   2.708   1.174  16.070 -0.3158 -0.8587  0.2670
 3712SOL     OW22768   0.480   2.938   4.840 -0.4243  0.7066 -0.6142
 3712SOL    HW122769   0.435   2.877   4.898 -0.0443  0.5396 -0.4969
 3712SOL    HW222770   0.417   3.010   4.844 -1.3989 -0.5421  5.1170
 3713SOL     OW22771   2.243   2.259  11.225 -0.0672 -0.1705 -0.3937
 3713SOL    HW122772   2.268   2.352  11.224  1.8497 -0.6819 -0.1048
 3713SOL    HW222773   2.330   2.220  11.223 -0.1931 -0.4176 -0.9231
 3714SOL     OW22774   2.465   4.116   2.442  0.3513  0.5803  0.2617
 3714SOL    HW122775   2.516   4.155   2.514  0.1299 -1.4994  1.5692
 3714SOL    HW222776   2.478   4.023   2.459 -1.7356  0.4054  0.8768
 3715SOL     OW22777   1.958   0.414   3.501 -0.4233  0.2367 -0.7866
 3715SOL    HW122778   1.865   0.391   3.494 -0.4349  0.1615 -0.4047
 3715SOL    HW222779   1.964   0.494   3.449 -1.5450  0.6779 -0.2597
 3716SOL     OW22780   4.513   1.451   5.885 -0.1856  0.1142  0.0834
 3716SOL    HW122781   4.487   1.542   5.904 -0.3216  0.0474  0.2184
 3716SOL    HW222782   4.562   1.434   5.965  1.7443  0.6441 -0.9969
 3717SOL     OW22783   2.918   2.168  13.451  0.0333 -0.1426  0.1359
 3717SOL    HW122784   2.914   2.223  13.529  3.7306  0.7499 -0.3158
 3717SOL    HW222785   2.907   2.087  13.501  1.3958 -1.5375 -1.8140
 3718SOL     OW22786   4.679   0.126   3.996 -0.1828  0.4112  0.4167
 3718SOL    HW122787   4.729   0.206   4.011 -0.2539  0.4510  0.4457
 3718SOL    HW222788   4.610   0.145   4.061  0.8983  1.1456  1.3398
 3719SOL     OW22789   3.615   2.602   1.781  0.7666  0.3433  0.0745
 3719SOL    HW122790   3.567   2.631   1.859  1.3097  0.9013  0.1984
 3719SOL    HW222791   3.703   2.579   1.811  0.2989  0.1741  1.3433
 3720SOL     OW22792   2.982   2.588   2.458  0.1384 -0.1436  0.1301
 3720SOL    HW122793   3.061   2.540   2.484  0.2661  1.4407  2.6116
 3720SOL    HW222794   2.926   2.517   2.428 -1.2603  0.6601  0.8611
 3721SOL     OW22795   3.535   2.328   8.536  0.5004  0.0911  0.0413
 3721SOL    HW122796   3.471   2.398   8.544 -0.0010 -0.2862 -0.6415
 3721SOL    HW222797   3.509   2.267   8.606  2.3017 -1.3446 -0.5182
 3722SOL     OW22798   2.981   1.112   9.354 -0.4795 -0.0325 -0.1507
 3722SOL    HW122799   2.966   1.206   9.367  0.1060 -0.4274  3.5271
 3722SOL    HW222800   2.944   1.068   9.431 -3.7782  1.6966 -0.7407
 3723SOL     OW22801   1.554   0.792   8.262 -0.2858 -0.2744  0.4698
 3723SOL    HW122802   1.575   0.873   8.215  0.4486  1.4136  3.7260
 3723SOL    HW222803   1.582   0.824   8.347 -1.6054  1.3182  0.3020
 3724SOL     OW22804   2.195   1.974  12.985  0.6315 -0.0592 -0.3826
 3724SOL    HW122805   2.235   2.049  12.942 -0.4153  1.9692  2.1267
 3724SOL    HW222806   2.137   2.015  13.050  0.2718  1.1959 -1.4841
 3725SOL     OW22807   1.931   0.859   5.478 -0.4839 -0.2415  0.4100
 3725SOL    HW122808   1.855   0.802   5.474 -1.1375  0.4697  2.5784
 3725SOL    HW222809   1.996   0.795   5.448  0.0467  1.2547 -1.6190
 3726SOL     OW22810   1.024   1.765   2.133  0.2442 -0.0127  0.1710
 3726SOL    HW122811   0.956   1.701   2.112  1.3453 -1.3925  0.8193
 3726SOL    HW222812   0.994   1.850   2.100  0.4887 -0.0516 -0.1447
 3727SOL     OW22813   2.044   4.074   7.955  0.9889  0.2101 -0.4072
 3727SOL    HW122814   2.070   3.992   7.912  2.0653  0.7492 -0.7802
 3727SOL    HW222815   2.070   4.148   7.900  0.1995 -1.8943 -3.6218
 3728SOL     OW22816   4.380   1.503  12.662 -0.0304 -0.6095 -0.2942
 3728SOL    HW122817   4.316   1.433  12.675 -2.2725  1.3635 -0.7613
 3728SOL    HW222818   4.427   1.490  12.744 -1.5791  2.1280  1.0154
 3729SOL     OW22819   1.717   4.340  10.357 -0.0161  0.6908 -0.2515
 3729SOL    HW122820   1.733   4.399  10.284  2.1942  0.5124  0.0868
 3729SOL    HW222821   1.672   4.270  10.310  1.4391 -0.8277  0.6190
 3730SOL     OW22822   2.694   0.408  10.489 -0.2242 -0.1829  0.1398
 3730SOL    HW122823   2.786   0.400  10.513 -0.5423  1.3529  1.8125
 3730SOL    HW222824   2.662   0.343  10.552 -0.6720 -0.2940 -0.2038
 3731SOL     OW22825   1.183   1.722   1.816 -0.0138 -0.2517 -0.0630
 3731SOL    HW122826   1.197   1.792   1.880 -0.0188 -1.1943  0.9704
 3731SOL    HW222827   1.223   1.650   1.865 -0.6398 -0.7193 -0.2395
 3732SOL     OW22828   0.375   2.984   2.841 -0.2566  0.2380 -0.0458
 3732SOL    HW122829   0.426   2.967   2.920 -0.8397 -0.9049  0.0900
 3732SOL    HW222830   0.354   3.074   2.864 -1.1388 -0.4170  1.6665
 3733SOL     OW22831   1.829   2.956   1.810  0.2697 -0.2243  0.5358
 3733SOL    HW122832   1.899   2.952   1.745  1.9872  2.3160  2.2504
 3733SOL    HW222833   1.763   2.985   1.746  0.9897 -0.1267 -0.1639
 3734SOL     OW22834   0.138   0.482   8.969 -0.5352  0.1800 -0.3680
 3734SOL    HW122835   0.099   0.498   8.883 -0.3697 -0.0996 -0.4975
 3734SOL    HW222836   0.135   0.574   8.993 -0.7883  0.0965 -0.0806
 3735SOL     OW22837   3.537   2.136   6.043 -0.3199 -0.2414 -0.4207
 3735SOL    HW122838   3.535   2.157   6.136  0.7013  0.2139 -0.5016
 3735SOL    HW222839   3.454   2.165   6.006 -0.4225 -0.9622 -0.7628
 3736SOL     OW22840   3.968   0.949   6.168 -0.0566 -0.2109  0.9109
 3736SOL    HW122841   4.032   1.018   6.150 -0.0889 -0.6139 -0.8158
 3736SOL    HW222842   3.935   0.976   6.253 -0.6891 -0.0603  0.6187
 3737SOL     OW22843   1.733   3.318   4.203  0.2729 -0.1373  0.1166
 3737SOL    HW122844   1.791   3.245   4.223  0.5484  0.0987  0.1765
 3737SOL    HW222845   1.664   3.299   4.267 -0.1261  0.0874 -0.2483
 3738SOL     OW22846   3.169   2.450   4.794 -0.0102 -0.1434 -0.1833
 3738SOL    HW122847   3.076   2.470   4.787  0.1767  0.9349  0.4199
 3738SOL    HW222848   3.181   2.431   4.700 -0.4495  0.0496 -0.2774
 3739SOL     OW22849   2.732   0.415   5.854 -0.5340  0.0667  0.4161
 3739SOL    HW122850   2.704   0.363   5.929  0.1580  0.5050  0.9760
 3739SOL    HW222851   2.692   0.369   5.780 -0.7276 -1.9774  1.7996
 3740SOL     OW22852   3.832   4.232   9.842 -0.4523 -0.0647  0.0193
 3740SOL    HW122853   3.926   4.251   9.835 -0.2488 -0.1740  2.5179
 3740SOL    HW222854   3.798   4.316   9.873  2.1016  1.0317 -0.1135
 3741SOL     OW22855   1.822   2.295   2.066 -0.3706 -0.3429 -0.6542
 3741SOL    HW122856   1.905   2.329   2.032 -0.2378  0.8020  0.8305
 3741SOL    HW222857   1.847   2.216   2.114  2.5817  0.6749 -0.5079
 3742SOL     OW22858   4.251   3.279  16.631  0.4182  0.0490 -0.2893
 3742SOL    HW122859   4.244   3.308  16.540  1.5232  0.6913 -0.1681
 3742SOL    HW222860   4.219   3.189  16.625  1.9180 -0.3904 -1.7495
 3743SOL     OW22861   0.271   0.500   6.451 -0.4452  0.3043 -0.6590
 3743SOL    HW122862   0.334   0.449   6.503 -2.4518  0.6258  2.1309
 3743SOL    HW222863   0.196   0.488   6.510  0.9721 -1.0318  0.8839
 3744SOL     OW22864   3.629   0.682   4.943  0.0553 -0.2587 -0.1061
 3744SOL    HW122865   3.690   0.718   5.007 -1.8179  0.9628  0.9879
 3744SOL    HW222866   3.675   0.598   4.939 -0.6825 -0.6801  0.2866
 3745SOL     OW22867   0.885   0.524   9.787  0.7516 -0.3258 -0.8646
 3745SOL    HW122868   0.941   0.498   9.861  1.5669  2.7467 -0.4304
 3745SOL    HW222869   0.889   0.449   9.728 -1.5929  0.0339 -1.4442
 3746SOL     OW22870   3.503   1.630  14.341  0.4651  0.1781  0.2448
 3746SOL    HW122871   3.580   1.674  14.304 -0.6271  0.7445 -1.3471
 3746SOL    HW222872   3.512   1.541  14.305 -0.0392  0.5967 -0.8850
 3747SOL     OW22873   2.210   4.345  12.758 -0.6826 -0.1718  0.8579
 3747SOL    HW122874   2.166   4.264  12.732 -1.9349  1.0633 -0.8590
 3747SOL    HW222875   2.255   4.327  12.840 -2.4599  0.5727  1.9909
 3748SOL     OW22876   1.567   0.355   7.105  0.1266 -0.6559  0.2070
 3748SOL    HW122877   1.584   0.447   7.127 -3.8154 -0.0263  0.6699
 3748SOL    HW222878   1.656   0.321   7.105 -0.1755 -1.4525  0.7709
 3749SOL     OW22879   1.512   2.116   1.539  1.1157 -0.6391  0.3098
 3749SOL    HW122880   1.499   2.032   1.584  0.7327 -0.5535  0.3573
 3749SOL    HW222881   1.491   2.169   1.615  0.9087 -1.1915  0.6394
 3750SOL     OW22882   0.199   2.903   7.310 -0.4030 -0.0549 -0.1051
 3750SOL    HW122883   0.181   2.813   7.282 -0.4468 -0.6254  1.7440
 3750SOL    HW222884   0.179   2.888   7.403 -0.6583 -0.6695 -0.2584
 3751SOL     OW22885   3.741   0.753   2.063 -0.3820  0.6538 -0.2001
 3751SOL    HW122886   3.750   0.830   2.119  0.1752  0.3380  0.1473
 3751SOL    HW222887   3.818   0.756   2.005  0.0985  3.0587  0.5759
 3752SOL     OW22888   3.198   0.275   3.084 -0.3866 -0.6566  0.4097
 3752SOL    HW122889   3.107   0.286   3.113  0.4012 -1.2257  3.0823
 3752SOL    HW222890   3.231   0.230   3.162 -1.7585  0.9085  1.8959
 3753SOL     OW22891   2.455   2.557   8.323 -0.5211 -0.1114  0.5773
 3753SOL    HW122892   2.434   2.566   8.230 -3.0312  0.6475  1.2152
 3753SOL    HW222893   2.453   2.461   8.329  1.0430 -0.0893  1.3182
 3754SOL     OW22894   1.887   0.313   6.338  0.0525  0.7517 -0.1183
 3754SOL    HW122895   1.853   0.240   6.286 -1.0064  1.5446 -0.5346
 3754SOL    HW222896   1.817   0.378   6.341 -1.2079 -0.6380  0.9568
 3755SOL     OW22897   4.118   4.199  16.948 -0.4080  0.2232  0.4537
 3755SOL    HW122898   4.135   4.204  16.854  0.8509 -1.5215  0.5947
 3755SOL    HW222899   4.023   4.210  16.951 -0.3727 -0.1284  2.6075
 3756SOL     OW22900   3.066   4.153  17.403  0.2571 -0.0784  0.0584
 3756SOL    HW122901   3.095   4.157  17.494  0.8127  3.1895 -0.2806
 3756SOL    HW222902   3.107   4.235  17.375 -3.8989  1.5162 -1.3952
 3757SOL     OW22903   4.676   1.016   8.507  0.5561  0.0866  0.5182
 3757SOL    HW122904   4.707   0.970   8.585 -0.2143 -0.9282  0.2268
 3757SOL    HW222905   0.009   1.002   8.439 -1.0051  0.6443 -1.0890
 3758SOL     OW22906   2.585   4.111   4.673 -0.0997  0.1189  0.2521
 3758SOL    HW122907   2.553   4.198   4.695  0.3977  0.0614  1.2185
 3758SOL    HW222908   2.621   4.081   4.757  2.1605 -1.5479 -1.2847
 3759SOL     OW22909   2.794   3.867   3.027 -0.2529  0.6387 -0.1696
 3759SOL    HW122910   2.869   3.821   2.990 -1.3109  0.3640 -1.9459
 3759SOL    HW222911   2.772   3.798   3.089 -1.8348 -1.0674 -2.6737
 3760SOL     OW22912   3.866   0.321  17.663 -0.3896 -0.3408  0.1442
 3760SOL    HW122913   3.833   0.387  17.603 -2.8054 -0.8888  0.8436
 3760SOL    HW222914   3.960   0.338  17.657 -0.1425 -1.9919 -0.7150
 3761SOL     OW22915   2.686   0.040   4.764  0.2849  0.1498  0.2606
 3761SOL    HW122916   2.731   0.065   4.683  1.7243  0.7873  1.2414
 3761SOL    HW222917   2.761   0.016   4.819  0.0913  0.2604  0.5718
 3762SOL     OW22918   1.539   4.722   7.917 -0.0499 -0.0512  0.0374
 3762SOL    HW122919   1.450   4.688   7.929 -0.0894  0.0433  0.0137
 3762SOL    HW222920   1.560   0.017   8.006 -4.0204 -1.6935  1.4931
 3763SOL     OW22921   2.835   2.496   8.336 -0.5089  0.1539 -0.2964
 3763SOL    HW122922   2.930   2.491   8.323 -0.5520 -0.5462 -0.3580
 3763SOL    HW222923   2.832   2.583   8.375 -4.2749 -0.1148 -0.0597
 3764SOL     OW22924   0.179   4.047  11.627 -0.3393  0.7756  0.2631
 3764SOL    HW122925   0.186   4.137  11.596 -0.5399  1.1594  1.3400
 3764SOL    HW222926   0.161   4.001  11.545  0.4121  0.0698  0.4920
 3765SOL     OW22927   0.885   0.307   0.135 -0.4893  0.7365  0.3529
 3765SOL    HW122928   0.912   0.222   0.100 -1.2154 -0.6183  3.1314
 3765SOL    HW222929   0.849   0.349   0.057  0.0644 -0.3227 -0.4694
 3766SOL     OW22930   2.743   3.926   2.055  0.5755 -0.2558 -0.1811
 3766SOL    HW122931   2.714   4.015   2.076 -1.3475 -0.5527 -1.5760
 3766SOL    HW222932   2.838   3.935   2.059  0.6169 -0.1518 -1.4511
 3767SOL     OW22933   2.639   3.781   0.401 -0.0082 -0.0399 -0.1229
 3767SOL    HW122934   2.726   3.742   0.388 -0.7129 -2.0399  1.0861
 3767SOL    HW222935   2.658   3.841   0.473 -1.9115 -0.8542  1.0504
 3768SOL     OW22936   1.656   1.108   8.498 -0.4672  0.0067 -0.0633
 3768SOL    HW122937   1.649   1.195   8.458  0.9664 -0.0282 -0.3723
 3768SOL    HW222938   1.644   1.142   8.587 -2.0772  0.6096 -0.5107
 3769SOL     OW22939   4.263   2.895   3.009  0.6619  0.1551  0.0764
 3769SOL    HW122940   4.179   2.914   2.967  0.9594 -0.5316 -0.8221
 3769SOL    HW222941   4.234   2.827   3.070  0.9721  0.2078  0.2857
 3770SOL     OW22942   3.058   1.135   6.088 -0.3976 -0.9157 -0.0186
 3770SOL    HW122943   3.019   1.087   6.161  0.5549 -0.2909  0.9227
 3770SOL    HW222944   3.096   1.211   6.133  1.8890 -2.3156  0.4059
 3771SOL     OW22945   3.932   1.707   3.976  0.5461 -0.0545 -0.0191
 3771SOL    HW122946   3.895   1.763   3.908  0.0167  1.7179  1.7275
 3771SOL    HW222947   3.909   1.759   4.053  1.0024  1.0423 -0.6247
 3772SOL     OW22948   3.380   3.439   4.296  0.2604 -0.2566 -0.1560
 3772SOL    HW122949   3.388   3.456   4.202  2.7709 -0.9777 -0.0926
 3772SOL    HW222950   3.318   3.508   4.317  2.2698  1.9938 -1.5438
 3773SOL     OW22951   3.078   1.428   7.752 -0.7013 -0.1799 -0.0135
 3773SOL    HW122952   3.085   1.338   7.785 -0.9321 -1.0616 -2.3370
 3773SOL    HW222953   2.994   1.454   7.789 -0.6696  3.0240 -2.1964
 3774SOL     OW22954   3.017   3.468   4.135  0.3340  0.9494  0.0081
 3774SOL    HW122955   3.064   3.532   4.081 -0.0647  0.3613 -1.0323
 3774SOL    HW222956   3.027   3.496   4.226  2.3317 -2.9074  0.9874
 3775SOL     OW22957   1.858   4.645   4.143  0.7628  0.4290 -0.1175
 3775SOL    HW122958   1.824   0.001   4.128  1.1415  0.4133 -1.0203
 3775SOL    HW222959   1.926   4.641   4.077  0.4396  3.0883 -0.6261
 3776SOL     OW22960   3.966   2.260  16.152  0.0593 -0.4520  0.0408
 3776SOL    HW122961   4.027   2.285  16.222 -1.6849 -1.3904  1.8998
 3776SOL    HW222962   3.964   2.164  16.146 -0.5098 -0.5419  1.7558
 3777SOL     OW22963   1.657   1.100   3.405 -0.1736 -0.0877  1.0488
 3777SOL    HW122964   1.568   1.068   3.393  0.8026 -2.0336 -0.9153
 3777SOL    HW222965   1.694   1.046   3.335 -0.6634 -0.0013  0.7284
 3778SOL     OW22966   0.024   3.804   2.998  0.0584  0.4811 -0.5773
 3778SOL    HW122967   0.013   3.724   2.947  1.8157  0.0049 -0.1934
 3778SOL    HW222968   0.063   3.768   3.077  0.6446 -0.9111 -1.5104
 3779SOL     OW22969   3.434   1.696   1.707  0.2916 -0.1272  0.3075
 3779SOL    HW122970   3.357   1.666   1.756 -0.3343 -0.1297 -0.6865
 3779SOL    HW222971   3.493   1.733   1.773  1.1488 -0.3021 -0.3722
 3780SOL     OW22972   4.511   4.358   7.979  0.4881  0.0130  0.5169
 3780SOL    HW122973   4.504   4.374   8.073  0.3398 -1.4542  0.7606
 3780SOL    HW222974   4.438   4.413   7.952  3.2754  2.1376 -2.6762
 3781SOL     OW22975   3.098   3.093   6.708  0.3764 -0.2390 -0.2786
 3781SOL    HW122976   3.188   3.061   6.703  0.5294  0.5404 -2.4523
 3781SOL    HW222977   3.046   3.012   6.706 -1.8550  1.1718  0.7802
 3782SOL     OW22978   2.770   4.013   7.910 -0.1681  0.5126 -0.3944
 3782SOL    HW122979   2.723   4.090   7.943  0.7175  1.9253 -2.4504
 3782SOL    HW222980   2.837   4.065   7.865 -0.6877  0.6619 -1.0109
 3783SOL     OW22981   0.504   0.094   7.316  0.2166  0.0542 -0.2331
 3783SOL    HW122982   0.487   0.118   7.407  2.3224  1.2353 -0.1539
 3783SOL    HW222983   0.555   0.165   7.277  0.6036  1.6843  3.2446
 3784SOL     OW22984   2.713   4.189   9.049 -0.8678  0.2990 -0.2662
 3784SOL    HW122985   2.667   4.125   8.994 -0.5698  0.5862 -0.8415
 3784SOL    HW222986   2.658   4.203   9.126 -2.0435 -1.1734 -0.8360
 3785SOL     OW22987   3.981   0.950   9.336  0.2011 -0.2326 -0.2866
 3785SOL    HW122988   3.979   0.892   9.260  0.3258  0.8279 -1.0964
 3785SOL    HW222989   4.076   0.962   9.347 -0.0680  1.4118  0.2764
 3786SOL     OW22990   0.933   3.827   0.543  0.2059 -0.2344  0.2437
 3786SOL    HW122991   0.974   3.746   0.513 -1.2073 -0.1135 -2.0293
 3786SOL    HW222992   0.844   3.793   0.553 -0.4420  1.1664 -0.7169
 3787SOL     OW22993   2.230   2.788   6.560  0.1929  0.4155  0.3404
 3787SOL    HW122994   2.141   2.761   6.535  0.4987 -1.9133  1.7658
 3787SOL    HW222995   2.276   2.731   6.499  0.2105  0.6809  0.1054
 3788SOL     OW22996   1.935   1.044   4.607  0.1283 -0.2208 -0.5114
 3788SOL    HW122997   1.866   1.002   4.659  0.7714 -1.0163 -0.3130
 3788SOL    HW222998   1.974   1.076   4.688 -0.6025  2.5208 -1.2464
 3789SOL     OW22999   0.766   1.114  16.424  0.1995  0.1141 -0.7149
 3789SOL    HW123000   0.673   1.128  16.442  0.2101  0.7637 -1.1963
 3789SOL    HW223001   0.790   1.193  16.375  1.9428  0.6555  1.0120
 3790SOL     OW23002   2.946   2.675   9.118 -0.5064 -0.7992 -0.3313
 3790SOL    HW123003   2.984   2.729   9.049  1.2941  0.7834  1.9199
 3790SOL    HW223004   2.926   2.598   9.065 -0.8108 -1.0385  0.1318
 3791SOL     OW23005   4.644   4.380   1.950  0.2739 -0.1591  0.2400
 3791SOL    HW123006   4.698   4.426   2.014 -1.0252 -0.0995  1.2842
 3791SOL    HW223007   4.619   4.444   1.883  1.9367 -1.0999 -1.2683
 3792SOL     OW23008   1.099   2.126  11.417 -0.4465  0.0608 -0.0220
 3792SOL    HW123009   1.121   2.053  11.358  2.1996  2.0240 -1.4595
 3792SOL    HW223010   1.186   2.137  11.454 -0.7556  0.0429  0.7119
 3793SOL     OW23011   4.329   2.320  17.105 -0.1380 -0.2610 -0.1417
 3793SOL    HW123012   4.309   2.400  17.153  0.5490 -1.6120  2.4189
 3793SOL    HW223013   4.417   2.298  17.136 -0.6760 -0.5384  1.1932
 3794SOL     OW23014   1.255   2.190   5.559  0.2180  0.9023  0.2147
 3794SOL    HW123015   1.231   2.159   5.646 -0.6926  0.6910 -0.1095
 3794SOL    HW223016   1.300   2.107   5.542  1.0123  0.9960  1.8859
 3795SOL     OW23017   4.073   3.585  11.186 -0.4275 -0.3420  0.3304
 3795SOL    HW123018   4.105   3.666  11.225  0.8339 -1.1625  1.0032
 3795SOL    HW223019   3.993   3.617  11.144  0.9857  1.3105 -1.1129
 3796SOL     OW23020   2.998   1.087   5.423  0.4441 -0.1223 -0.2053
 3796SOL    HW123021   2.992   1.180   5.403  0.1702 -0.0947 -0.0034
 3796SOL    HW223022   2.944   1.075   5.502  1.7113  0.2579  0.7128
 3797SOL     OW23023   0.359   0.697   3.481 -0.5318 -0.0720 -0.1314
 3797SOL    HW123024   0.289   0.649   3.436  0.6190 -1.7396 -0.1111
 3797SOL    HW223025   0.307   0.763   3.527 -1.2406 -0.8217  0.1452
 3798SOL     OW23026   0.498   1.778  12.185 -0.0196 -0.9003 -0.0888
 3798SOL    HW123027   0.585   1.809  12.210  0.4615 -0.5459 -2.2305
 3798SOL    HW223028   0.517   1.700  12.132  1.7118 -0.8947  0.5148
 3799SOL     OW23029   3.484   0.188   3.957 -0.3209  0.1708 -0.5400
 3799SOL    HW123030   3.407   0.139   3.986 -0.8040  2.2922  1.7557
 3799SOL    HW223031   3.558   0.157   4.009 -1.0630 -0.2146  0.2969
 3800SOL     OW23032   2.477   1.407   2.968  0.3036  0.2038  0.2990
 3800SOL    HW123033   2.532   1.425   3.044  0.8459 -1.2966  0.2592
 3800SOL    HW223034   2.537   1.381   2.898  0.3835 -0.1358  0.4968
 3801SOL     OW23035   3.961   0.778  10.143 -0.1108  0.0087 -0.0910
 3801SOL    HW123036   3.988   0.787  10.235 -0.6479 -2.2767  0.2737
 3801SOL    HW223037   3.887   0.838  10.130  0.2446  0.2444 -0.9830
 3802SOL     OW23038   2.822   4.668   3.242  0.0368 -0.3491 -0.0660
 3802SOL    HW123039   2.852   4.647   3.154  2.0099  1.3552  0.2133
 3802SOL    HW223040   2.824   4.581   3.282 -0.9358 -0.7267 -0.8343
 3803SOL     OW23041   3.872   4.140   3.950 -0.2075  0.0437  0.2085
 3803SOL    HW123042   3.867   4.198   3.874 -0.1302 -0.4282 -0.1575
 3803SOL    HW223043   3.962   4.111   3.936 -1.4577 -2.9749 -1.8074
 3804SOL     OW23044   3.610   0.867   6.151  0.3850 -0.7687  0.0095
 3804SOL    HW123045   3.585   0.939   6.092  1.1942  0.5553  1.2888
 3804SOL    HW223046   3.528   0.826   6.180 -1.1630  1.2708 -1.4224
 3805SOL     OW23047   1.531   4.420   9.167 -0.6455 -0.1161  0.6299
 3805SOL    HW123048   1.581   4.354   9.120 -2.4024 -1.3153  0.4168
 3805SOL    HW223049   1.502   4.483   9.100  2.4390 -1.1005 -1.6260
 3806SOL     OW23050   4.253   0.694   4.061  0.0007  0.3570 -0.2449
 3806SOL    HW123051   4.176   0.746   4.084 -0.9114 -0.9448 -0.3819
 3806SOL    HW223052   4.310   0.764   4.029 -0.4555 -0.5844 -3.1295
 3807SOL     OW23053   3.883   0.423   8.490 -0.7581 -0.0371  0.6927
 3807SOL    HW123054   3.856   0.479   8.417 -0.0753  1.4704  1.6027
 3807SOL    HW223055   3.921   0.344   8.452  0.0429  0.7278 -0.0979
 3808SOL     OW23056   2.653   3.553   5.393  0.3522  0.0127  0.8146
 3808SOL    HW123057   2.619   3.545   5.304 -0.3601 -3.0229  1.3617
 3808SOL    HW223058   2.595   3.520   5.462  0.6066  0.7915  1.4029
 3809SOL     OW23059   2.231   4.395  13.198  0.1382  0.0705  0.0385
 3809SOL    HW123060   2.256   4.373  13.108 -1.8105  1.4813 -0.8540
 3809SOL    HW223061   2.144   4.355  13.209 -0.7362  2.0694  0.2980
 3810SOL     OW23062   3.123   0.773   6.473 -0.8171  0.4585 -0.2442
 3810SOL    HW123063   3.088   0.684   6.467 -1.3520  0.8299 -2.8117
 3810SOL    HW223064   3.184   0.763   6.546 -0.8795 -2.1281 -0.5176
 3811SOL     OW23065   0.454   3.480   0.997 -0.1133  0.0331 -0.7120
 3811SOL    HW123066   0.533   3.434   1.027  0.4602  1.9438  0.6995
 3811SOL    HW223067   0.475   3.570   1.020  2.2407  0.1138 -3.1668
 3812SOL     OW23068   1.690   2.977   4.885  0.0231  0.1572 -0.4868
 3812SOL    HW123069   1.647   3.039   4.826 -0.4565 -1.1024 -1.4498
 3812SOL    HW223070   1.658   2.902   4.836 -0.4760  0.7220 -1.0229
 3813SOL     OW23071   3.997   2.496   4.760 -0.5267  0.5725 -0.3888
 3813SOL    HW123072   4.019   2.514   4.669 -3.1781 -0.2402 -1.1655
 3813SOL    HW223073   4.079   2.536   4.789  0.3850 -1.0928 -0.6714
 3814SOL     OW23074   3.970   4.492   3.577  0.1070 -0.1637  0.4731
 3814SOL    HW123075   4.006   4.494   3.488 -0.1761  0.8969  0.3923
 3814SOL    HW223076   4.047   4.533   3.617  0.2199  0.0931 -0.0128
 3815SOL     OW23077   2.096   2.978  11.371 -0.5038 -0.2999  0.1350
 3815SOL    HW123078   2.014   2.931  11.359 -0.6095 -0.4825  1.6490
 3815SOL    HW223079   2.154   2.946  11.302  0.7366  0.1300  0.9646
 3816SOL     OW23080   0.583   0.596  14.170  0.1600 -0.2153  0.1098
 3816SOL    HW123081   0.565   0.570  14.261 -0.4222  1.5652  0.4933
 3816SOL    HW223082   0.514   0.658  14.148 -0.3298 -1.0423 -0.7069
 3817SOL     OW23083   2.888   2.029   1.916 -0.4975 -0.4147  0.3818
 3817SOL    HW123084   2.954   1.964   1.934  0.2958  0.4313  0.5208
 3817SOL    HW223085   2.937   2.109   1.897 -0.4269 -0.1327  1.8127
 3818SOL     OW23086   1.205   1.183   9.796 -0.0033  0.0903 -0.2170
 3818SOL    HW123087   1.224   1.110   9.855  1.7108 -0.0765 -0.9771
 3818SOL    HW223088   1.114   1.175   9.769  0.0993  2.3985 -1.2349
 3819SOL     OW23089   0.102   2.835  16.021  0.3751  0.3948 -0.3192
 3819SOL    HW123090   0.084   2.798  15.935 -1.2393 -2.1557  1.1024
 3819SOL    HW223091   0.184   2.883  16.009  0.2762  0.3822 -1.0539
 3820SOL     OW23092   3.275   4.184   7.849  0.0111 -0.4107  0.0919
 3820SOL    HW123093   3.298   4.249   7.783  0.6644  1.5767  2.2640
 3820SOL    HW223094   3.329   4.109   7.825 -0.4028 -0.2980 -1.1885
 3821SOL     OW23095   0.305   2.847   5.071  0.0440  0.1246 -0.1094
 3821SOL    HW123096   0.236   2.822   5.133 -0.5388  3.3554  0.5700
 3821SOL    HW223097   0.387   2.853   5.119  0.3925 -0.0651 -0.6827
 3822SOL     OW23098   0.576   3.467   7.386 -0.2462 -0.1372 -0.3742
 3822SOL    HW123099   0.620   3.396   7.433 -2.1140 -1.6760 -0.9138
 3822SOL    HW223100   0.520   3.415   7.327  0.1800  1.2008 -1.9496
 3823SOL     OW23101   2.390   2.164  11.750  0.1368  0.2275  0.0915
 3823SOL    HW123102   2.374   2.095  11.814  1.4297  0.9627  1.2139
 3823SOL    HW223103   2.346   2.237  11.793  0.9411 -0.4528  2.0810
 3824SOL     OW23104   2.809   2.707   5.307 -0.2340  0.4700  0.5497
 3824SOL    HW123105   2.772   2.622   5.282 -0.1564  0.3218  0.9332
 3824SOL    HW223106   2.758   2.771   5.259 -1.1100 -1.3544 -0.9614
 3825SOL     OW23107   0.798   2.163  12.993 -0.1646 -0.5877  0.5231
 3825SOL    HW123108   0.743   2.234  12.961 -2.1429 -1.8232  1.2088
 3825SOL    HW223109   0.728   2.099  13.002 -1.2151  0.5943  0.7941
 3826SOL     OW23110   4.079   0.690   6.178 -0.9680  0.0729  0.3501
 3826SOL    HW123111   3.989   0.661   6.197 -0.0760 -1.4977  2.1984
 3826SOL    HW223112   4.047   0.777   6.153  0.7312  0.3234 -0.9244
 3827SOL     OW23113   3.081   2.773  13.019 -0.3524  0.1614  0.1614
 3827SOL    HW123114   3.124   2.691  13.043  0.9667  0.4319 -1.2514
 3827SOL    HW223115   3.022   2.743  12.950  1.9315 -3.2174 -0.3484
 3828SOL     OW23116   2.688   0.334   8.686 -0.0371  0.4295 -0.1792
 3828SOL    HW123117   2.641   0.259   8.723 -0.9304  0.4555 -1.2886
 3828SOL    HW223118   2.764   0.335   8.746  1.7703  1.1352 -2.4838
 3829SOL     OW23119   3.465   4.202  11.869  0.1635 -0.3540 -0.5474
 3829SOL    HW123120   3.421   4.287  11.879  0.8919  0.1125 -1.3348
 3829SOL    HW223121   3.461   4.202  11.773  1.4233 -0.0041 -0.6016
 3830SOL     OW23122   2.215   3.855   0.132  0.0355 -0.1735  0.1005
 3830SOL    HW123123   2.199   3.946   0.106  1.8666  0.2446  0.4351
 3830SOL    HW223124   2.166   3.803   0.068  1.8343 -0.9792 -0.6182
 3831SOL     OW23125   3.989   2.112   2.127  0.2218 -0.1185  0.0484
 3831SOL    HW123126   4.018   2.180   2.066  0.2379  0.4799  0.7258
 3831SOL    HW223127   4.048   2.045   2.092  2.3813  1.8270  0.0009
 3832SOL     OW23128   2.373   1.715  13.226 -0.0106 -0.7222  0.1345
 3832SOL    HW123129   2.392   1.683  13.315  0.7851  0.1909  0.2963
 3832SOL    HW223130   2.347   1.641  13.171  0.0920 -0.4372 -0.2971
 3833SOL     OW23131   0.562   2.319   9.666  0.1447  0.4234 -0.1575
 3833SOL    HW123132   0.507   2.324   9.744  2.9046  0.6530  1.7459
 3833SOL    HW223133   0.528   2.398   9.624 -2.7390 -1.3453 -1.1375
 3834SOL     OW23134   0.664   4.248   1.864  0.0254 -0.0564  0.0564
 3834SOL    HW123135   0.595   4.260   1.799 -2.0598 -3.6945  1.6030
 3834SOL    HW223136   0.655   4.155   1.884  1.2003  0.0753  1.2162
 3835SOL     OW23137   3.079   3.796  13.785  0.2602 -0.1481  0.2926
 3835SOL    HW123138   3.167   3.764  13.805  0.4692  0.4581  0.3109
 3835SOL    HW223139   3.024   3.729  13.827  1.6405 -0.9094  0.9035
 3836SOL     OW23140   0.576   2.764   5.712 -0.1220  0.7291  0.0868
 3836SOL    HW123141   0.618   2.849   5.700 -1.0046  1.3259  1.3118
 3836SOL    HW223142   0.582   2.762   5.807  1.0278 -0.5698 -0.0091
 3837SOL     OW23143   0.797   3.996   1.884  0.6196  0.4726  0.6890
 3837SOL    HW123144   0.825   3.907   1.908 -1.8121 -0.0423  1.5541
 3837SOL    HW223145   0.881   4.043   1.888  1.5462 -0.9856 -1.7781
 3838SOL     OW23146   0.724   1.692   7.709 -0.1662  0.2628 -0.2062
 3838SOL    HW123147   0.810   1.732   7.725  1.6203 -3.9187  0.8994
 3838SOL    HW223148   0.678   1.729   7.785  1.8988  2.6939 -0.1455
 3839SOL     OW23149   4.513   0.122   3.770  0.0257 -1.1200  0.3902
 3839SOL    HW123150   4.572   0.110   3.845 -0.2990 -1.9673  0.5054
 3839SOL    HW223151   4.475   0.208   3.790  1.8059 -1.0200  3.2961
 3840SOL     OW23152   1.463   2.230   1.822 -0.2729 -0.2222 -0.2191
 3840SOL    HW123153   1.501   2.303   1.870  2.0999 -1.0648 -0.7985
 3840SOL    HW223154   1.471   2.160   1.886 -0.7320 -0.8190 -0.8131
 3841SOL     OW23155   0.662   2.717   4.967 -0.6208  0.6259  0.5206
 3841SOL    HW123156   0.722   2.662   5.018  2.0742  1.5650 -1.6486
 3841SOL    HW223157   0.582   2.667   4.982  1.7327 -3.1216  0.8607
 3842SOL     OW23158   1.054   3.649  17.088  0.4755  0.5609  0.2211
 3842SOL    HW123159   1.134   3.662  17.037  1.1035  0.9614  1.3203
 3842SOL    HW223160   1.084   3.605  17.168  2.0066  4.8631  1.9870
 3843SOL     OW23161   4.533   2.398   4.949  0.3008 -0.2664  0.8724
 3843SOL    HW123162   4.605   2.429   5.004 -0.0797 -1.0332  1.8092
 3843SOL    HW223163   4.451   2.420   4.993  1.3371  2.1547  1.6083
 3844SOL     OW23164   4.130   2.101   4.238 -0.6559  0.2119  0.0827
 3844SOL    HW123165   4.074   2.179   4.226 -0.4668  0.2285 -0.6816
 3844SOL    HW223166   4.195   2.144   4.293 -1.6649  0.9908  0.6798
 3845SOL     OW23167   1.582   3.175   4.380  0.4248 -0.3958  0.3188
 3845SOL    HW123168   1.555   3.084   4.366 -2.1642  0.6951 -1.7776
 3845SOL    HW223169   1.499   3.219   4.362  0.8373 -0.1245 -0.9524
 3846SOL     OW23170   2.819   3.287   6.167  0.0556 -0.4941 -0.3818
 3846SOL    HW123171   2.884   3.271   6.235 -0.4570  0.4604  0.3304
 3846SOL    HW223172   2.805   3.382   6.169 -0.9575 -0.6994  1.9884
 3847SOL     OW23173   3.822   2.422   2.108 -0.1027  0.1194 -0.2031
 3847SOL    HW123174   3.810   2.328   2.123 -0.9264  0.4453  1.2552
 3847SOL    HW223175   3.910   2.415   2.072 -0.1152  3.2473 -0.8595
 3848SOL     OW23176   3.428   4.062   7.279  0.4233 -0.5814 -0.1680
 3848SOL    HW123177   3.447   4.110   7.360 -0.7886 -0.4690  0.0594
 3848SOL    HW223178   3.448   4.137   7.223  0.3227 -2.3777 -2.5810
 3849SOL     OW23179   2.703   1.436   3.148 -0.3712 -0.3089 -0.2666
 3849SOL    HW123180   2.679   1.405   3.236 -0.2901  1.0257  0.2140
 3849SOL    HW223181   2.721   1.527   3.168  0.4097 -0.5106 -0.0678
 3850SOL     OW23182   0.623   2.526   7.546  0.3623  0.3643 -0.3966
 3850SOL    HW123183   0.575   2.456   7.590  0.3605  1.1205  0.8284
 3850SOL    HW223184   0.556   2.578   7.503  0.1385 -0.1676 -0.6897
 3851SOL     OW23185   0.863   2.699  10.784  0.1056 -0.0718  0.1450
 3851SOL    HW123186   0.892   2.639  10.853  0.4137 -0.8527 -0.6682
 3851SOL    HW223187   0.891   2.781  10.826 -0.2382 -1.0184  2.2035
 3852SOL     OW23188   0.079   4.007  15.828  0.4014  0.1809  0.1041
 3852SOL    HW123189   0.151   4.042  15.880 -1.4399  0.7327  2.2980
 3852SOL    HW223190   0.049   3.924  15.866  2.6827  0.1141  1.7894
 3853SOL     OW23191   0.605   1.254   5.310 -0.2858 -0.1093  0.6879
 3853SOL    HW123192   0.683   1.270   5.363 -0.3671 -1.6913  1.2835
 3853SOL    HW223193   0.617   1.300   5.227  0.1571 -1.4731  0.0106
 3854SOL     OW23194   3.091   4.198   1.957  0.0357 -0.2529  0.3229
 3854SOL    HW123195   3.103   4.125   1.896  0.8850 -1.4377  1.8864
 3854SOL    HW223196   3.185   4.210   1.967 -0.3928  2.1623  1.5163
 3855SOL     OW23197   0.552   3.352   6.127  0.5250 -0.2654  0.2392
 3855SOL    HW123198   0.510   3.388   6.048  1.6639  1.3877  0.3741
 3855SOL    HW223199   0.512   3.266   6.130  0.4551 -0.2574 -0.4370
 3856SOL     OW23200   1.646   0.932   6.798 -0.1755 -0.0464 -0.5213
 3856SOL    HW123201   1.618   1.023   6.810  1.3058  0.2155  1.1136
 3856SOL    HW223202   1.606   0.913   6.713 -2.0951  1.1108  0.1338
 3857SOL     OW23203   1.759   4.126   3.756 -0.3965  0.4260 -0.2472
 3857SOL    HW123204   1.672   4.120   3.717 -0.5476  0.1973  0.1280
 3857SOL    HW223205   1.809   4.067   3.700 -2.5483  0.8494 -2.5968
 3858SOL     OW23206   3.737   1.150   1.971  0.1563  0.4437  0.9091
 3858SOL    HW123207   3.724   1.066   2.014 -0.0433  0.4544  0.8670
 3858SOL    HW223208   3.821   1.133   1.926  0.0113  1.4102  0.2551
 3859SOL     OW23209   2.022   1.850   3.041 -0.4044 -0.1168  0.3341
 3859SOL    HW123210   2.031   1.789   2.968 -0.8028  1.8977 -1.3857
 3859SOL    HW223211   1.945   1.814   3.086  0.4514 -0.6594  1.3570
 3860SOL     OW23212   0.775   2.026   7.856  0.5594 -0.0653  0.3818
 3860SOL    HW123213   0.709   1.959   7.873 -0.6277  0.9847 -0.0524
 3860SOL    HW223214   0.855   1.976   7.867  1.2544  0.6719 -1.3225
 3861SOL     OW23215   1.332   1.599  10.601 -0.1612  0.0595  0.1671
 3861SOL    HW123216   1.283   1.619  10.521  2.0547  2.1145 -0.6595
 3861SOL    HW223217   1.363   1.684  10.633 -0.8546  0.3509  0.0786
 3862SOL     OW23218   2.617   3.005   7.620  0.3181  0.2719  0.1682
 3862SOL    HW123219   2.524   3.027   7.628 -0.0156 -1.3676  0.8044
 3862SOL    HW223220   2.629   3.059   7.542 -0.8570  1.2396  0.6725
 3863SOL     OW23221   2.290   2.064   4.851  0.4871  0.3449 -0.2001
 3863SOL    HW123222   2.202   2.028   4.864 -0.0641  1.6355 -0.3151
 3863SOL    HW223223   2.324   2.043   4.938  0.5751 -3.7497 -1.2282
 3864SOL     OW23224   3.364   0.212  13.188 -0.2490  0.0167 -0.2193
 3864SOL    HW123225   3.286   0.171  13.226 -0.8979  0.5337 -0.9729
 3864SOL    HW223226   3.335   0.198  13.098  2.5830  0.9960 -1.2695
 3865SOL     OW23227   0.060   2.478  17.310  0.3353 -0.2709 -0.1755
 3865SOL    HW123228   0.108   2.488  17.392 -0.0240  0.6976 -0.0801
 3865SOL    HW223229   0.119   2.526  17.252 -1.3785  0.1299 -1.5987
 3866SOL     OW23230   4.366   2.633   5.023  0.1571  0.0231  0.5388
 3866SOL    HW123231   4.437   2.648   5.085 -1.4400  0.8310  2.1535
 3866SOL    HW223232   4.305   2.706   5.037 -0.5339  0.0967 -2.7718
 3867SOL     OW23233   0.781   3.563   6.970  0.8692 -0.0866 -0.6797
 3867SOL    HW123234   0.800   3.596   6.882 -0.3062  1.3410 -0.4164
 3867SOL    HW223235   0.704   3.511   6.947 -0.7483  0.8570  2.5637
 3868SOL     OW23236   2.517   2.136   5.634  0.2604  0.1670 -0.1164
 3868SOL    HW123237   2.477   2.221   5.656  0.8812  0.4813 -0.1977
 3868SOL    HW223238   2.458   2.097   5.571 -0.7633  2.3323 -0.5038
 3869SOL     OW23239   0.966   3.058   6.195  0.0164 -0.1073 -0.2328
 3869SOL    HW123240   0.955   3.028   6.285 -2.0070  1.0528 -0.0908
 3869SOL    HW223241   1.057   3.040   6.172 -0.2630 -0.9862 -0.6451
 3870SOL     OW23242   4.455   3.307  11.686 -0.3699  0.0340  0.4557
 3870SOL    HW123243   4.458   3.215  11.712 -1.1020 -0.3061 -0.6693
 3870SOL    HW223244   4.497   3.345  11.764  0.0647  0.2655  0.1076
 3871SOL     OW23245   0.437   2.056   2.501  0.0805 -0.7209  0.5569
 3871SOL    HW123246   0.522   2.048   2.457 -0.3018  1.5623 -0.6166
 3871SOL    HW223247   0.389   2.109   2.437 -0.2306 -0.1408  1.2669
 3872SOL     OW23248   1.504   3.176  16.376 -0.1200 -0.0345 -0.5445
 3872SOL    HW123249   1.414   3.152  16.357 -0.7060  1.6280  0.0700
 3872SOL    HW223250   1.549   3.092  16.372  0.4195  0.3101 -1.6013
 3873SOL     OW23251   0.793   0.055   8.713 -0.1367  0.0088  0.4084
 3873SOL    HW123252   0.731   0.081   8.781  1.3613 -1.4410  2.3624
 3873SOL    HW223253   0.758   4.705   8.680 -1.5971  0.7997  0.0111
 3874SOL     OW23254   0.740   2.546   3.925 -0.1332  0.1626  0.2842
 3874SOL    HW123255   0.810   2.611   3.921  2.4497 -2.7119 -1.0089
 3874SOL    HW223256   0.782   2.469   3.887  0.4915  1.6054 -1.9094
 3875SOL     OW23257   2.586   0.221  10.653  0.8335 -0.4485  0.1340
 3875SOL    HW123258   2.492   0.217  10.669  0.8763  0.6504  0.6139
 3875SOL    HW223259   2.613   0.133  10.679  2.4491 -0.9271 -3.1292
 3876SOL     OW23260   4.313   3.212  15.557  0.3755 -0.4029 -0.0118
 3876SOL    HW123261   4.332   3.184  15.468  0.7544 -0.6152  0.1364
 3876SOL    HW223262   4.365   3.292  15.558  1.4891 -1.1188 -0.4860
 3877SOL     OW23263   4.119   1.547   0.766 -0.1610  0.5415  0.3474
 3877SOL    HW123264   4.098   1.636   0.738  1.6746 -0.0870 -3.0255
 3877SOL    HW223265   4.030   1.512   0.759 -1.2478  3.0120  1.7364
 3878SOL     OW23266   1.462   2.423   5.189 -0.2188 -0.0106  0.2115
 3878SOL    HW123267   1.496   2.410   5.100 -1.5524 -4.2351  0.3369
 3878SOL    HW223268   1.393   2.359   5.202  0.3392 -1.5227 -4.1776
 3879SOL     OW23269   4.498   3.111  14.103  0.2033 -0.0410 -0.0112
 3879SOL    HW123270   4.522   3.200  14.128  3.7657 -1.7429  2.5708
 3879SOL    HW223271   4.471   3.070  14.185  1.0317  1.2772  0.9257
 3880SOL     OW23272   2.256   0.479   3.360  0.0292  0.2076  0.1820
 3880SOL    HW123273   2.258   0.407   3.422 -0.8146  1.5968  1.8493
 3880SOL    HW223274   2.284   0.540   3.428  2.0840 -1.3318  0.7104
 3881SOL     OW23275   4.547   3.400   9.921  0.8271  0.3853  0.1424
 3881SOL    HW123276   4.541   3.386  10.015 -0.7289 -0.6815 -0.1107
 3881SOL    HW223277   4.527   3.310   9.897  1.5579  0.2624  0.0110
 3882SOL     OW23278   4.330   2.254   2.375 -0.7397  0.4046  0.4563
 3882SOL    HW123279   4.356   2.262   2.467  0.2463  0.5050  0.1680
 3882SOL    HW223280   4.248   2.205   2.371 -1.2628  1.2823  0.5389
 3883SOL     OW23281   3.744   2.570  17.309 -0.4407  0.0644  0.3669
 3883SOL    HW123282   3.788   2.583  17.393  2.0010  0.7406 -1.0512
 3883SOL    HW223283   3.693   2.651  17.299 -1.4166 -0.7931 -1.5039
 3884SOL     OW23284   1.738   4.140   0.844  0.7442 -0.0660  0.2740
 3884SOL    HW123285   1.753   4.050   0.872  0.6058  0.2431  1.3340
 3884SOL    HW223286   1.655   4.145   0.890 -0.1690  1.3263 -1.5311
 3885SOL     OW23287   3.508   2.014   9.697  0.4914  0.6587 -0.3292
 3885SOL    HW123288   3.555   1.934   9.672  2.1096  2.0293 -1.6254
 3885SOL    HW223289   3.526   2.077   9.628 -0.5138  0.4572 -0.7814
 3886SOL     OW23290   1.213   3.494   5.008 -0.8927  0.3024  0.0114
 3886SOL    HW123291   1.248   3.411   4.975  2.3822  0.6109  2.6420
 3886SOL    HW223292   1.272   3.559   4.972 -3.9304  2.1443 -1.6354
 3887SOL     OW23293   0.449   3.459  14.719 -0.0836 -0.6466 -0.1151
 3887SOL    HW123294   0.504   3.451  14.797 -0.4199  0.1000  0.2019
 3887SOL    HW223295   0.464   3.550  14.694 -0.9117 -0.4557  0.0793
 3888SOL     OW23296   3.189   0.814  15.613 -0.2255 -0.5772 -0.0306
 3888SOL    HW123297   3.095   0.832  15.624  0.0714  3.4328 -4.0072
 3888SOL    HW223298   3.192   0.799  15.518  0.5057  0.9539 -0.2431
 3889SOL     OW23299   1.770   3.257   6.639 -0.0606  0.3437 -0.1046
 3889SOL    HW123300   1.739   3.173   6.607 -0.5357  0.4618  0.0452
 3889SOL    HW223301   1.702   3.314   6.603 -1.1811 -0.1253  1.2678
 3890SOL     OW23302   2.588   2.625   2.231  0.1661 -0.2217  0.2603
 3890SOL    HW123303   2.548   2.640   2.316  1.6624 -0.8711  1.0804
 3890SOL    HW223304   2.628   2.710   2.215 -0.2137  0.3444  2.4291
 3891SOL     OW23305   1.756   0.009   5.920 -0.4671  0.6311 -0.0402
 3891SOL    HW123306   1.701   4.665   5.906  0.2321 -0.0135  0.7587
 3891SOL    HW223307   1.823   4.721   5.855 -0.4467 -2.1512  0.8582
 3892SOL     OW23308   1.965   1.729  17.108 -0.7170  0.4126  0.1309
 3892SOL    HW123309   2.025   1.768  17.045  0.3361 -1.1595  0.1673
 3892SOL    HW223310   1.933   1.802  17.162  0.2495  0.4801  0.6167
 3893SOL     OW23311   3.830   0.085  11.156 -0.4089 -0.2752  0.2791
 3893SOL    HW123312   3.847   0.004  11.204  0.4417 -0.6145 -0.5967
 3893SOL    HW223313   3.836   0.159  11.217  0.1869 -0.3033  0.2503
 3894SOL     OW23314   2.453   0.704   1.353  0.3191  0.4579  0.0686
 3894SOL    HW123315   2.487   0.776   1.407 -1.2482  0.8176  0.5884
 3894SOL    HW223316   2.431   0.746   1.270 -0.4991  0.8928  0.5016
 3895SOL     OW23317   0.963   1.900   3.429 -0.4868 -0.7178 -0.8877
 3895SOL    HW123318   0.890   1.839   3.435  0.3535 -1.4909  1.5894
 3895SOL    HW223319   0.920   1.978   3.393 -0.5951 -0.2727  0.2142
 3896SOL     OW23320   2.245   1.548   2.194  0.3457  0.0698  0.0878
 3896SOL    HW123321   2.338   1.526   2.189 -0.3465 -2.7741  0.1739
 3896SOL    HW223322   2.241   1.632   2.241 -0.2601  0.1155 -0.0442
 3897SOL     OW23323   2.223   0.820   9.308 -0.2833 -0.4386  0.1349
 3897SOL    HW123324   2.160   0.892   9.318 -1.4065 -1.2806 -0.9400
 3897SOL    HW223325   2.226   0.793   9.400 -0.9810  1.5480  0.7565
 3898SOL     OW23326   3.416   4.262   6.457 -0.7254  0.9477 -0.2080
 3898SOL    HW123327   3.325   4.258   6.487 -0.2338 -0.7825  1.0926
 3898SOL    HW223328   3.447   4.343   6.497  0.7485  0.1753  0.2289
 3899SOL     OW23329   0.147   1.533   5.435 -0.5560 -0.3678  0.4971
 3899SOL    HW123330   0.135   1.446   5.471  0.4488 -0.7255 -0.0470
 3899SOL    HW223331   0.240   1.538   5.454 -0.5479 -1.2385  0.6603
 3900SOL     OW23332   0.057   1.515   3.658  0.1213  0.6465  0.1383
 3900SOL    HW123333   4.706   1.475   3.635  0.1244 -0.2184  1.6145
 3900SOL    HW223334   0.119   1.445   3.637  2.2355  1.6564  3.0119
 3901SOL     OW23335   3.492   2.922   2.117 -0.1096  0.0307 -0.4280
 3901SOL    HW123336   3.404   2.927   2.079 -0.1604 -0.8469 -0.4187
 3901SOL    HW223337   3.520   2.833   2.096  1.1482 -0.1538  1.9825
 3902SOL     OW23338   3.414   0.729   8.297 -0.3245  0.1681  0.4064
 3902SOL    HW123339   3.437   0.746   8.388 -1.0413 -0.3107  0.6797
 3902SOL    HW223340   3.407   0.821   8.268  0.1719 -0.7635 -2.7438
 3903SOL     OW23341   3.632   0.275   9.008  0.4879 -0.4040 -0.0294
 3903SOL    HW123342   3.547   0.318   8.996  0.8725  0.1365 -0.7967
 3903SOL    HW223343   3.664   0.322   9.085 -2.9997  0.8230  0.6658
 3904SOL     OW23344   4.457   1.395   5.588 -0.0731 -0.1807 -0.8976
 3904SOL    HW123345   4.473   1.421   5.679 -1.2482  2.9231 -1.5584
 3904SOL    HW223346   4.511   1.318   5.573  2.4810  0.8841  2.7006
 3905SOL     OW23347   1.548   3.354  10.694  0.6052 -0.4686  0.0541
 3905SOL    HW123348   1.590   3.307  10.766 -1.3352 -1.1045  0.7627
 3905SOL    HW223349   1.460   3.368  10.731  0.9256  0.9980  0.2938
 3906SOL     OW23350   2.789   0.551   1.865 -0.0185  0.1690 -0.1736
 3906SOL    HW123351   2.708   0.530   1.819 -0.2418 -3.5865  1.9623
 3906SOL    HW223352   2.770   0.526   1.955  1.2186  2.2445  0.6561
 3907SOL     OW23353   4.160   3.109   8.548 -0.5964  0.2460 -0.7533
 3907SOL    HW123354   4.176   3.020   8.581 -2.1748  0.0476 -0.5188
 3907SOL    HW223355   4.065   3.118   8.542 -0.4070  1.8113 -1.3023
 3908SOL     OW23356   2.032   1.751   2.608  0.2469  0.0301  0.7888
 3908SOL    HW123357   2.004   1.837   2.639 -0.2340 -0.3408  1.3743
 3908SOL    HW223358   2.028   1.700   2.689 -0.7456  0.6809  1.1337
 3909SOL     OW23359   0.071   1.258   9.397  0.2794  0.0641  0.1694
 3909SOL    HW123360   0.103   1.288   9.311 -0.5409 -2.9801 -1.1823
 3909SOL    HW223361   0.124   1.316   9.452 -0.1538 -1.6545  2.3915
 3910SOL     OW23362   2.183   3.331   8.798 -0.4881  0.4095  0.1130
 3910SOL    HW123363   2.182   3.265   8.868 -1.2985  1.3611  1.0045
 3910SOL    HW223364   2.194   3.285   8.715 -0.5847  0.0463  0.2988
 3911SOL     OW23365   2.560   2.751  17.014 -0.0885  0.0001  0.3791
 3911SOL    HW123366   2.550   2.847  17.013  0.7806  0.1023  1.7145
 3911SOL    HW223367   2.551   2.735  16.920  0.2241 -0.0250  0.3548
 3912SOL     OW23368   0.885   2.276  13.224  0.0190 -0.0635  0.5594
 3912SOL    HW123369   0.851   2.237  13.143  0.1880  1.3139 -0.1781
 3912SOL    HW223370   0.919   2.359  13.191  0.1871 -1.8453 -3.7863
 3913SOL     OW23371   3.061   1.490   9.698 -0.4467  0.0203  0.5432
 3913SOL    HW123372   3.034   1.402   9.721  2.2119 -0.2074  2.8362
 3913SOL    HW223373   3.070   1.482   9.603 -0.7132  2.8608  0.2777
 3914SOL     OW23374   0.342   3.259   9.009 -0.4572 -0.0755  0.0754
 3914SOL    HW123375   0.351   3.187   9.071  1.8145 -1.5395 -1.9769
 3914SOL    HW223376   0.249   3.260   8.986 -0.6025 -0.5053  0.6701
 3915SOL     OW23377   2.814   2.887   8.050  0.0336  0.5687  0.4025
 3915SOL    HW123378   2.894   2.836   8.038 -0.6073 -0.0957 -1.0810
 3915SOL    HW223379   2.852   2.971   8.025 -0.0996  0.2172 -0.9877
 3916SOL     OW23380   1.928   3.982   5.584  0.3126  0.0788 -0.7075
 3916SOL    HW123381   1.869   3.913   5.615  0.0572  0.5161 -0.2056
 3916SOL    HW223382   1.955   3.940   5.503  3.8314 -2.1417  1.6400
 3917SOL     OW23383   2.214   1.668   4.112  0.7744  0.5852 -0.8072
 3917SOL    HW123384   2.306   1.658   4.086  0.9338 -2.1842  0.7777
 3917SOL    HW223385   2.171   1.598   4.062  0.4652  0.5544 -0.4949
 3918SOL     OW23386   3.460   1.903   5.101  0.1811 -0.4534 -0.0980
 3918SOL    HW123387   3.364   1.908   5.101  0.2278  0.5024  0.9538
 3918SOL    HW223388   3.494   1.854   5.026 -1.9878 -3.1596  0.6992
 3919SOL     OW23389   3.268   1.326   3.936 -0.1804 -0.2096  0.0554
 3919SOL    HW123390   3.297   1.263   3.870 -2.4174  0.2530 -1.3993
 3919SOL    HW223391   3.294   1.408   3.893  3.2124 -0.9268  0.8286
 3920SOL     OW23392   0.638   0.572   9.450  0.2520  0.2906  0.2694
 3920SOL    HW123393   0.605   0.490   9.413 -0.7067  2.2476 -3.2505
 3920SOL    HW223394   0.603   0.559   9.538  0.3123 -1.7590 -0.0272
 3921SOL     OW23395   3.001   0.041   6.970 -0.2609 -0.4316  0.1533
 3921SOL    HW123396   2.916   0.064   7.006 -0.1108  0.0140  0.2253
 3921SOL    HW223397   2.982   4.706   6.905 -0.3238  1.2833 -1.6173
 3922SOL     OW23398   4.081   1.339   7.050  0.5243  0.3423  0.0282
 3922SOL    HW123399   4.082   1.304   7.138 -0.4657  0.1335 -0.0482
 3922SOL    HW223400   4.130   1.421   7.060  1.0665 -0.1031  1.0256
 3923SOL     OW23401   0.575   3.754   7.455 -0.0272 -0.5485  0.3731
 3923SOL    HW123402   0.619   3.700   7.521  1.1608  0.9129  0.7713
 3923SOL    HW223403   0.581   3.696   7.379  3.4728  0.6016 -0.2399
 3924SOL     OW23404   2.802   3.196  12.393  0.7335  0.2772  0.2931
 3924SOL    HW123405   2.889   3.206  12.353  0.6485  2.4579  0.6470
 3924SOL    HW223406   2.770   3.287  12.391  2.1436  0.7632 -0.4298
 3925SOL     OW23407   1.859   1.680   0.455 -0.1330 -0.0587 -0.2478
 3925SOL    HW123408   1.809   1.598   0.451 -0.1849  0.0371 -1.4083
 3925SOL    HW223409   1.946   1.670   0.417 -0.0633  2.7919 -0.8112
 3926SOL     OW23410   2.372   4.576   0.434 -0.0585  0.2610 -0.1962
 3926SOL    HW123411   2.282   4.580   0.467  1.0900  1.3632  2.8297
 3926SOL    HW223412   2.377   4.639   0.362  3.3608 -0.1883 -0.3484
 3927SOL     OW23413   2.090   3.752   6.627  0.0592 -0.1377 -0.1780
 3927SOL    HW123414   2.018   3.786   6.574  0.7429  1.0660 -0.3305
 3927SOL    HW223415   2.135   3.706   6.556  1.7490 -1.8245  1.9666
 3928SOL     OW23416   3.757   3.861  15.395  0.1310 -0.3608 -0.1724
 3928SOL    HW123417   3.841   3.841  15.353  0.1956  1.6305 -0.9794
 3928SOL    HW223418   3.779   3.812  15.474 -1.1736 -2.9365 -1.3893
 3929SOL     OW23419   3.293   1.657   4.650 -0.1181 -0.4170  0.3561
 3929SOL    HW123420   3.357   1.720   4.616 -0.5453  0.0110  0.3564
 3929SOL    HW223421   3.253   1.639   4.565 -1.5735 -1.2809  1.2218
 3930SOL     OW23422   4.352   3.363   2.333 -0.4552  0.0123 -0.1499
 3930SOL    HW123423   4.371   3.315   2.253 -1.8454 -1.4158  0.3745
 3930SOL    HW223424   4.267   3.398   2.303 -1.7682 -2.4345  0.6843
 3931SOL     OW23425   3.672   4.188   6.915  0.1166 -0.0218 -0.4052
 3931SOL    HW123426   3.684   4.204   6.821 -0.9903  0.4090 -0.4690
 3931SOL    HW223427   3.647   4.096   6.917 -0.4131  0.1187 -0.6041
 3932SOL     OW23428   0.910   4.084  16.432 -0.8123  0.4999 -0.2492
 3932SOL    HW123429   0.932   4.015  16.494 -2.5746  0.2860  0.1369
 3932SOL    HW223430   0.917   4.154  16.497 -0.6019  0.0832  0.1698
 3933SOL     OW23431   3.631   3.045   2.844 -0.1267  0.0515  0.4258
 3933SOL    HW123432   3.594   2.958   2.829  0.0837 -0.2801  1.7572
 3933SOL    HW223433   3.610   3.089   2.762 -0.1758 -1.2066 -0.2437
 3934SOL     OW23434   2.727   2.223  13.217  0.2130 -0.4378 -0.0586
 3934SOL    HW123435   2.778   2.177  13.283  1.4605  0.8104 -0.1459
 3934SOL    HW223436   2.773   2.306  13.204 -0.2037 -0.7594 -3.4198
 3935SOL     OW23437   3.898   2.363   5.022 -0.2551 -0.4368  0.3365
 3935SOL    HW123438   3.923   2.431   5.085 -2.5802  0.2858  0.4588
 3935SOL    HW223439   3.900   2.415   4.942 -0.9894  0.0281  0.6262
 3936SOL     OW23440   4.402   3.714  10.964 -0.6270  0.5398  0.3318
 3936SOL    HW123441   4.456   3.660  10.906 -1.1321  0.5758 -0.1702
 3936SOL    HW223442   4.335   3.747  10.905  0.2141 -0.4881 -1.1893
 3937SOL     OW23443   0.513   2.958   6.681 -0.2933 -0.4632  0.1245
 3937SOL    HW123444   0.490   3.024   6.616 -0.0405  0.3347  0.8361
 3937SOL    HW223445   0.586   3.007   6.719 -1.8366  1.3668  0.7233
 3938SOL     OW23446   0.872   1.536   1.111 -0.3493 -0.4348 -0.5183
 3938SOL    HW123447   0.837   1.617   1.074  0.9497 -0.4134 -1.7330
 3938SOL    HW223448   0.963   1.564   1.122  0.1088 -2.6524  1.2827
 3939SOL     OW23449   3.848   2.837   4.691 -0.0931  0.0876  0.3299
 3939SOL    HW123450   3.820   2.755   4.651  1.2525 -1.1805  2.0208
 3939SOL    HW223451   3.934   2.849   4.650 -0.1105 -2.8223 -0.5244
 3940SOL     OW23452   3.297   0.552  14.418 -0.8741 -0.5929  0.4598
 3940SOL    HW123453   3.385   0.523  14.397 -0.9850  0.6564 -1.6759
 3940SOL    HW223454   3.239   0.538  14.343 -0.6325 -2.3670  0.6070
 3941SOL     OW23455   0.541   3.060   5.356  0.7217 -0.0427  0.2171
 3941SOL    HW123456   0.520   3.133   5.298 -1.2237 -0.9778 -0.2565
 3941SOL    HW223457   0.531   3.089   5.446 -3.9944  0.0119 -0.3115
 3942SOL     OW23458   4.113   0.837   5.556 -0.3034 -0.2745 -0.4373
 3942SOL    HW123459   4.149   0.760   5.600 -0.9334 -0.2058  0.2047
 3942SOL    HW223460   4.036   0.807   5.506 -0.7587 -2.3158  1.5051
 3943SOL     OW23461   4.493   0.299  16.911  0.0061 -0.2959 -0.8800
 3943SOL    HW123462   4.475   0.344  16.828  0.3913  1.3916 -0.0577
 3943SOL    HW223463   4.491   0.207  16.886  1.4413 -0.2656 -1.0929
 3944SOL     OW23464   3.642   3.712   5.093  0.6007 -0.1366  0.5130
 3944SOL    HW123465   3.703   3.640   5.079  0.6220  0.2049 -1.1322
 3944SOL    HW223466   3.662   3.777   5.025 -0.2661 -0.5426 -0.1335
 3945SOL     OW23467   3.949   0.361   6.356 -0.4844 -0.0871 -0.2417
 3945SOL    HW123468   3.928   0.386   6.266 -2.1789  1.4673  0.6026
 3945SOL    HW223469   3.876   0.393   6.409  0.1377  0.1315  0.4780
 3946SOL     OW23470   1.795   3.439   6.339 -0.1606  0.0223 -0.4305
 3946SOL    HW123471   1.863   3.390   6.385 -0.4025  1.3511  1.3458
 3946SOL    HW223472   1.744   3.477   6.411 -0.6264  2.1511 -1.8644
 3947SOL     OW23473   4.115   0.829   9.923 -0.4312  0.6080  0.1741
 3947SOL    HW123474   4.079   0.806  10.009 -1.0005 -1.3027 -0.5806
 3947SOL    HW223475   4.138   0.745   9.885 -0.7403  0.3358  0.5871
 3948SOL     OW23476   4.141   3.470   1.892  0.2913 -0.2333  0.0047
 3948SOL    HW123477   4.047   3.450   1.897  0.3216 -0.8002 -1.7973
 3948SOL    HW223478   4.153   3.522   1.813  1.6357  1.1183  1.1078
 3949SOL     OW23479   1.013   4.704  13.017 -0.5071  0.1589  0.2542
 3949SOL    HW123480   0.933   0.022  13.030  0.2560  1.1927  0.8449
 3949SOL    HW223481   0.997   4.640  13.086  0.5380 -1.0072 -0.5656
 3950SOL     OW23482   3.190   3.746   6.009  0.2037 -0.3543  0.5708
 3950SOL    HW123483   3.212   3.770   6.100  0.7956 -2.0269  0.8630
 3950SOL    HW223484   3.096   3.756   6.024  0.3476  0.3196  1.0714
 3951SOL     OW23485   1.442   0.071  13.504  0.3721 -0.3548  0.6477
 3951SOL    HW123486   1.536   0.063  13.523  0.1895  0.4966  1.9065
 3951SOL    HW223487   1.429   0.025  13.421  0.4558  0.1379  0.3621
 3952SOL     OW23488   4.576   4.191   4.298 -0.3482 -0.1156 -0.8481
 3952SOL    HW123489   4.567   4.151   4.385 -0.3056  1.8746  0.0868
 3952SOL    HW223490   4.540   4.280   4.301  1.5306  0.4985  3.3640
 3953SOL     OW23491   3.988   1.508   8.386  0.5643 -0.3874 -0.2529
 3953SOL    HW123492   3.905   1.468   8.360 -0.6172  0.6530  1.9046
 3953SOL    HW223493   3.987   1.594   8.344  1.3180  0.7959  2.1412
 3954SOL     OW23494   2.449   1.233   2.195  0.3952  0.3739  0.0384
 3954SOL    HW123495   2.535   1.273   2.211 -0.3761  1.1628  2.1507
 3954SOL    HW223496   2.437   1.259   2.104 -0.7398 -0.4925 -0.0597
 3955SOL     OW23497   0.412   3.520   0.005 -0.3020  0.1546  0.3737
 3955SOL    HW123498   0.455   3.473   0.076  0.2516  2.0360  1.3034
 3955SOL    HW223499   0.478   3.577  17.694 -1.0910  1.0910  0.4086
 3956SOL     OW23500   2.392   0.968   5.096 -0.4491  0.0506 -0.0057
 3956SOL    HW123501   2.457   0.897   5.098 -1.1260 -0.5384  0.9238
 3956SOL    HW223502   2.440   1.035   5.047  1.4278 -1.2208  0.0838
 3957SOL     OW23503   1.065   2.854   5.193 -0.4468 -0.1813  0.8725
 3957SOL    HW123504   1.159   2.844   5.208 -0.0956  0.0921 -1.2055
 3957SOL    HW223505   1.062   2.915   5.119  1.8366  0.0290  0.9642
 3958SOL     OW23506   2.343   2.865   5.239 -0.8765  0.4061 -0.8412
 3958SOL    HW123507   2.333   2.868   5.334  1.3630 -1.4629 -0.5297
 3958SOL    HW223508   2.367   2.773   5.224  3.0501  1.5828 -1.7172
 3959SOL     OW23509   3.927   3.004   1.815 -0.2072  0.3641 -0.4450
 3959SOL    HW123510   3.929   2.932   1.752 -0.8895  1.1676 -1.3826
 3959SOL    HW223511   3.909   3.079   1.759  3.0066  2.7119  1.6811
 3960SOL     OW23512   3.922   2.160  10.141 -0.2905  0.0199  0.2794
 3960SOL    HW123513   3.927   2.068  10.117 -0.7789  0.7620 -2.5850
 3960SOL    HW223514   3.981   2.195  10.074  0.6408 -2.4233 -0.1536
 3961SOL     OW23515   2.381   3.814   5.312  0.1772 -0.1355  0.0289
 3961SOL    HW123516   2.326   3.850   5.243 -1.4040 -1.6908  0.4813
 3961SOL    HW223517   2.324   3.748   5.352 -0.5373  0.4600 -0.0164
 3962SOL     OW23518   1.521   3.441   0.375 -0.1871  0.0031  0.0986
 3962SOL    HW123519   1.426   3.441   0.391 -0.3050 -3.1739 -0.5217
 3962SOL    HW223520   1.542   3.350   0.396  0.7318  0.4693  1.1587
 3963SOL     OW23521   0.532   4.366  11.417 -0.1842 -0.2209  0.4997
 3963SOL    HW123522   0.612   4.367  11.365  0.8020 -3.3916  1.8999
 3963SOL    HW223523   0.484   4.441  11.382  0.3153  0.9225  2.2195
 3964SOL     OW23524   0.076   2.182   8.177 -0.4401 -0.0173 -0.2046
 3964SOL    HW123525   0.135   2.143   8.242  0.0836  1.9327  0.4941
 3964SOL    HW223526   0.110   2.133   8.101  1.1516  1.3619 -0.3976
 3965SOL     OW23527   0.269   2.135   4.149  0.5182  0.1090  0.7563
 3965SOL    HW123528   0.204   2.074   4.182  0.3556  0.3828  0.9413
 3965SOL    HW223529   0.232   2.162   4.065 -0.2037  1.3282  1.4649
 3966SOL     OW23530   1.277   3.825  14.021  0.5895  0.3210  1.0052
 3966SOL    HW123531   1.213   3.895  14.010  2.4969  1.7618 -0.9802
 3966SOL    HW223532   1.320   3.841  13.937  0.3544  0.2423  0.8690
 3967SOL     OW23533   4.207   0.782  11.051 -0.2656 -0.9677  0.2457
 3967SOL    HW123534   4.136   0.791  11.115 -0.9380 -0.0641 -0.6511
 3967SOL    HW223535   4.271   0.851  11.069 -1.4431  0.0621  0.4944
 3968SOL     OW23536   0.653   1.008   4.977  0.0419 -0.1997  0.5771
 3968SOL    HW123537   0.630   0.970   5.062 -1.2409 -0.7477 -0.0230
 3968SOL    HW223538   0.564   1.038   4.959  0.6681  1.7495  0.7953
 3969SOL     OW23539   1.452   0.179  14.901  0.2562  0.2437 -0.0520
 3969SOL    HW123540   1.500   0.120  14.959 -1.9937 -0.9550  0.6017
 3969SOL    HW223541   1.445   0.262  14.948  1.3458  0.5083 -0.3617
 3970SOL     OW23542   1.319   0.024   6.282  0.4554 -0.1744  0.2449
 3970SOL    HW123543   1.239   0.012   6.333  0.9064 -0.7383  0.8168
 3970SOL    HW223544   1.357   4.668   6.284  1.0731  0.0958  0.4727
 3971SOL     OW23545   2.840   1.288   1.207  0.2748  0.0303  0.0585
 3971SOL    HW123546   2.865   1.195   1.208 -0.3533 -0.1268  1.0512
 3971SOL    HW223547   2.744   1.281   1.211  0.2990 -0.5141 -0.2167
 3972SOL     OW23548   3.634   0.719   2.655  0.2306  0.5544 -0.2156
 3972SOL    HW123549   3.616   0.629   2.625 -2.3602  1.1589 -0.4949
 3972SOL    HW223550   3.716   0.714   2.704  0.4151  1.5698 -0.4226
 3973SOL     OW23551   0.631   0.679   3.877 -0.2473 -1.0652 -0.2224
 3973SOL    HW123552   0.548   0.633   3.883 -0.3054 -0.5142  3.3877
 3973SOL    HW223553   0.632   0.721   3.791  2.1852 -0.9284 -0.1481
 3974SOL     OW23554   3.660   3.023   4.478 -0.0672  0.3042  0.1860
 3974SOL    HW123555   3.661   3.118   4.487  0.5812  0.3640 -0.5144
 3974SOL    HW223556   3.614   3.002   4.560 -0.2874 -0.0181 -0.0199
 3975SOL     OW23557   2.938   1.365  12.710 -0.1266  0.3574 -0.3464
 3975SOL    HW123558   2.915   1.433  12.647 -3.0750 -0.4338 -0.1338
 3975SOL    HW223559   2.865   1.380  12.770  1.3754 -0.4899  1.6855
 3976SOL     OW23560   2.819   2.053   3.608 -0.2299  1.1510 -0.5279
 3976SOL    HW123561   2.875   2.022   3.679 -0.0363  2.2222 -0.2107
 3976SOL    HW223562   2.737   2.068   3.655  0.3983  0.8725  0.6415
 3977SOL     OW23563   3.115   2.670   8.541  0.0673  0.1167 -0.0009
 3977SOL    HW123564   3.086   2.757   8.566 -1.6724 -0.4815  0.0979
 3977SOL    HW223565   3.144   2.695   8.454 -2.9388  1.5392 -0.5963
 3978SOL     OW23566   3.335   4.256  11.187  0.2981  0.3244  0.0052
 3978SOL    HW123567   3.375   4.234  11.103  0.4069 -1.4834  0.5247
 3978SOL    HW223568   3.378   4.340  11.204 -0.7154  0.7952  0.2268
 3979SOL     OW23569   2.218   0.855  10.506  0.2523 -0.3169  0.0306
 3979SOL    HW123570   2.132   0.832  10.473 -0.0310  1.5059 -0.4849
 3979SOL    HW223571   2.206   0.841  10.600  1.2848 -0.8449  0.0860
 3980SOL     OW23572   0.768   1.515   2.559 -0.6311 -0.3109 -0.1968
 3980SOL    HW123573   0.834   1.484   2.497 -0.5816 -0.8862  0.1469
 3980SOL    HW223574   0.744   1.435   2.605  0.0807  0.7116  1.9405
 3981SOL     OW23575   0.569   4.046   5.685 -0.5092 -0.0516  0.9097
 3981SOL    HW123576   0.654   4.004   5.673 -1.2505 -0.7304 -2.0451
 3981SOL    HW223577   0.504   3.975   5.681  0.0922 -0.6308  1.3572
 3982SOL     OW23578   3.940   3.762  11.477  0.0218  0.2278  0.0710
 3982SOL    HW123579   4.025   3.794  11.449  0.2644 -0.9462 -0.5403
 3982SOL    HW223580   3.890   3.751  11.396  0.4588  0.1608 -0.1899
 3983SOL     OW23581   3.387   1.561  17.423  0.6373  0.1608 -0.3480
 3983SOL    HW123582   3.414   1.555  17.515 -1.8812 -0.7585  0.3322
 3983SOL    HW223583   3.386   1.656  17.416  1.0528  0.2642  0.9510
 3984SOL     OW23584   2.823   1.696   2.160  0.0420  0.0273 -1.1646
 3984SOL    HW123585   2.777   1.736   2.234  0.2191 -2.9448  0.5987
 3984SOL    HW223586   2.912   1.723   2.182 -1.3997  2.5413  1.5326
 3985SOL     OW23587   0.233   1.626   2.452 -0.4950 -0.1565 -0.3204
 3985SOL    HW123588   0.295   1.554   2.441  0.0281  0.5392 -1.8246
 3985SOL    HW223589   0.294   1.679   2.504 -0.7321  1.0122 -1.2372
 3986SOL     OW23590   3.140   2.200   3.217  0.0078  0.0741  0.0705
 3986SOL    HW123591   3.047   2.180   3.206 -0.1018 -1.3767  3.6174
 3986SOL    HW223592   3.147   2.253   3.138  3.4072 -1.4836 -0.6873
 3987SOL     OW23593   0.922   2.004   5.157 -0.0187  0.0068  0.4869
 3987SOL    HW123594   1.001   1.982   5.108  0.8820 -0.3684  2.1041
 3987SOL    HW223595   0.958   2.082   5.200  1.2319 -0.4675  0.3025
 3988SOL     OW23596   2.609   1.443   2.340  0.4249 -0.4048  0.0860
 3988SOL    HW123597   2.595   1.535   2.315 -1.4372  0.0740  3.0215
 3988SOL    HW223598   2.693   1.429   2.295  0.6056 -0.9876  0.5976
 3989SOL     OW23599   3.597   4.581   7.962  0.3904 -0.1875 -0.2822
 3989SOL    HW123600   3.590   4.492   7.996  0.6558  0.0227  0.3190
 3989SOL    HW223601   3.507   4.611   7.971 -0.1535 -1.5257 -1.1162
 3990SOL     OW23602   1.497   0.997   2.465 -0.3952  0.1813 -0.2052
 3990SOL    HW123603   1.499   0.928   2.532 -2.2127  0.6952  0.3937
 3990SOL    HW223604   1.537   1.075   2.503 -1.3924  0.5532  0.0871
 3991SOL     OW23605   1.650   1.338   4.902  0.3897 -0.4540 -0.3986
 3991SOL    HW123606   1.611   1.351   4.988 -2.7725  1.5829 -2.1515
 3991SOL    HW223607   1.605   1.261   4.869 -0.1104 -1.3641  2.4591
 3992SOL     OW23608   0.337   4.111  13.119 -0.6390  0.6377  0.0283
 3992SOL    HW123609   0.425   4.125  13.084 -0.3233  0.8563  0.9289
 3992SOL    HW223610   0.361   4.065  13.199 -0.8779  0.3540 -0.0619
 3993SOL     OW23611   1.082   4.651   1.916  0.0321 -1.0773  0.7393
 3993SOL    HW123612   0.999   4.690   1.888  1.1362 -0.5716 -1.7629
 3993SOL    HW223613   1.151   4.680   1.856  2.0422 -1.5382  2.8450
 3994SOL     OW23614   0.019   0.841  16.371 -0.5158 -0.5299  0.2710
 3994SOL    HW123615   0.111   0.815  16.357  0.4682  2.5885  0.9117
 3994SOL    HW223616   4.717   0.831  16.282  2.0816 -0.9274 -0.7016
 3995SOL     OW23617   4.165   3.253  11.626 -0.0642  0.1417  0.4485
 3995SOL    HW123618   4.249   3.230  11.587 -0.8720  0.6608 -1.6194
 3995SOL    HW223619   4.137   3.172  11.668 -0.4736 -1.1076 -2.2230
 3996SOL     OW23620   4.061   1.839   4.224  0.5289  0.4666  0.3203
 3996SOL    HW123621   4.065   1.931   4.247 -0.7733  0.6130 -0.0664
 3996SOL    HW223622   4.143   1.818   4.179  0.3014 -1.3196  0.7288
 3997SOL     OW23623   0.000   1.568   9.275 -0.2066  0.1777 -0.3140
 3997SOL    HW123624   0.033   1.499   9.218  0.1460  0.8414 -0.9038
 3997SOL    HW223625   4.682   1.607   9.205 -0.3744  2.1376  0.9090
 3998SOL     OW23626   1.883   4.130  14.689 -0.1991  0.0604  0.2729
 3998SOL    HW123627   1.950   4.176  14.739 -0.0797  1.6778 -1.3587
 3998SOL    HW223628   1.854   4.066  14.753  2.0657  0.4577  1.6940
 3999SOL     OW23629   4.198   0.205   4.237  0.8244 -0.5434 -0.0437
 3999SOL    HW123630   4.269   0.269   4.229 -0.5939  0.8777 -1.3079
 3999SOL    HW223631   4.204   0.161   4.152 -0.6468 -0.9397  0.0617
 4000SOL     OW23632   2.549   1.311  14.008 -0.0520 -0.8326  0.5055
 4000SOL    HW123633   2.601   1.239  14.046  0.4356 -2.0850 -2.5474
 4000SOL    HW223634   2.463   1.281  14.038 -0.6596  0.4409  0.0288
 4001SOL     OW23635   0.404   1.457   5.493 -0.1601 -0.2495  0.3012
 4001SOL    HW123636   0.466   1.521   5.457  1.1007 -1.1514  0.8656
 4001SOL    HW223637   0.425   1.456   5.586  0.6258 -0.6309  0.1201
 4002SOL     OW23638   0.794   4.630   6.391  0.5503  0.4784 -0.4143
 4002SOL    HW123639   0.790   4.593   6.302 -0.2178  0.0153 -0.1790
 4002SOL    HW223640   0.743   4.711   6.392 -1.6366 -0.8947 -1.7607
 4003SOL     OW23641   2.162   1.012   3.448  0.7458  0.1181  0.4981
 4003SOL    HW123642   2.164   1.028   3.542 -1.3425 -2.8412  1.0637
 4003SOL    HW223643   2.188   0.919   3.446  0.5450  0.0889 -0.8932
 4004SOL     OW23644   0.505   1.784   5.248 -0.6774 -0.1748  0.2314
 4004SOL    HW123645   0.541   1.719   5.309  0.4639 -0.8251 -1.1351
 4004SOL    HW223646   0.417   1.747   5.243 -0.1519 -1.5630  1.2162
 4005SOL     OW23647   3.660   1.598  15.309  0.9220 -0.7845  0.1753
 4005SOL    HW123648   3.633   1.626  15.397  0.7275 -0.0499 -0.1170
 4005SOL    HW223649   3.615   1.515  15.294  0.1193 -0.4356  0.6210
 4006SOL     OW23650   2.111   0.822   8.545 -0.0974  0.5283  0.0285
 4006SOL    HW123651   2.078   0.911   8.557  1.4705  1.2097 -0.5583
 4006SOL    HW223652   2.174   0.816   8.617  0.0105 -1.9210 -0.2876
 4007SOL     OW23653   3.266   3.025   4.592 -0.1546 -0.2662 -0.1883
 4007SOL    HW123654   3.283   3.088   4.662  0.5267 -1.6985  0.9144
 4007SOL    HW223655   3.296   3.073   4.515  0.5806 -4.7456 -2.6968
 4008SOL     OW23656   4.515   4.174   1.660  0.2580  0.2870  0.7133
 4008SOL    HW123657   4.431   4.161   1.703 -0.6527  0.7360 -0.9181
 4008SOL    HW223658   4.514   4.110   1.589  1.1189  0.9539  0.0923
 4009SOL     OW23659   1.738   1.799  16.024 -0.1090  0.0259  0.0452
 4009SOL    HW123660   1.715   1.891  16.013  0.1527  0.3084  1.9268
 4009SOL    HW223661   1.693   1.763  15.948 -4.3904 -0.2338  2.6818
 4010SOL     OW23662   3.704   3.920   4.907  0.1206  0.1225  0.7664
 4010SOL    HW123663   3.795   3.895   4.889 -1.1275 -2.8312 -1.4862
 4010SOL    HW223664   3.720   4.012   4.887 -5.7729  1.1826  0.8702
 4011SOL     OW23665   0.926   4.388   4.798 -0.0592 -0.0996 -0.0818
 4011SOL    HW123666   0.846   4.440   4.794  0.3947  0.6038 -0.1047
 4011SOL    HW223667   0.931   4.352   4.710  0.7080  1.5478 -0.7066
 4012SOL     OW23668   3.697   4.634   8.573  0.1074  0.2325 -0.4443
 4012SOL    HW123669   3.677   4.637   8.479  1.1834 -4.4449 -0.8385
 4012SOL    HW223670   3.771   4.693   8.587  0.6665 -0.4632 -0.4728
 4013SOL     OW23671   4.620   0.505   2.274  0.2786 -0.0215 -0.0457
 4013SOL    HW123672   4.603   0.412   2.258  3.1660 -0.9214  2.0884
 4013SOL    HW223673   4.607   0.511   2.368  0.7819  0.6840 -0.0196
 4014SOL     OW23674   4.462   2.796   7.861 -1.1307  0.1527 -0.2800
 4014SOL    HW123675   4.519   2.769   7.789 -1.0107 -1.2243  0.3339
 4014SOL    HW223676   4.410   2.716   7.859  1.9850 -1.8822 -1.2740
 4015SOL     OW23677   0.898   1.657  14.438  0.1375  0.7942 -0.1532
 4015SOL    HW123678   0.922   1.723  14.503  1.3617  0.5924 -0.4149
 4015SOL    HW223679   0.900   1.714  14.362 -0.6322 -0.1542 -0.8879
 4016SOL     OW23680   2.494   0.865   4.630 -0.0369  0.4657  0.4551
 4016SOL    HW123681   2.564   0.911   4.676  2.0652 -0.1990 -2.1397
 4016SOL    HW223682   2.492   0.790   4.689  0.2065 -0.3457 -0.5889
 4017SOL     OW23683   0.523   2.776   8.689 -0.2339 -0.2406 -0.0156
 4017SOL    HW123684   0.473   2.705   8.648 -1.7456  0.9281 -0.2135
 4017SOL    HW223685   0.448   2.825   8.724  0.5024  0.2073  0.9354
 4018SOL     OW23686   4.639   1.049   4.237  0.2661  0.0676 -0.0995
 4018SOL    HW123687   4.727   1.084   4.255 -0.0939 -0.3115  2.4903
 4018SOL    HW223688   4.589   1.127   4.259  1.3867  0.7222  0.1404
 4019SOL     OW23689   0.621   2.261   3.281 -0.1727 -0.3501  0.1177
 4019SOL    HW123690   0.577   2.275   3.197  0.2590  0.3558  0.0055
 4019SOL    HW223691   0.551   2.213   3.324  0.1177 -1.0911 -0.2357
 4020SOL     OW23692   1.251   2.653   6.111 -0.4164 -0.5680 -0.3685
 4020SOL    HW123693   1.174   2.707   6.091  1.7238  2.3112 -0.9363
 4020SOL    HW223694   1.219   2.566   6.135 -0.9442 -0.6058 -1.2011
 4021SOL     OW23695   1.070   2.078  13.586 -0.6579 -0.0605  0.3760
 4021SOL    HW123696   1.159   2.043  13.590  0.0370  1.5185 -1.3779
 4021SOL    HW223697   1.063   2.112  13.675 -0.1494 -2.1325  1.2126
 4022SOL     OW23698   2.065   2.742   9.464  0.1064 -1.0761  0.2898
 4022SOL    HW123699   2.058   2.687   9.386 -1.1521  1.2508 -1.2057
 4022SOL    HW223700   2.157   2.759   9.485 -0.4335 -0.3305  2.0023
 4023SOL     OW23701   3.311   2.693  10.994  0.2479  0.3042 -0.6332
 4023SOL    HW123702   3.285   2.771  10.945 -0.0427  1.0672  0.7340
 4023SOL    HW223703   3.234   2.637  11.007  0.2339  0.3642 -0.4570
 4024SOL     OW23704   3.111   2.102   8.936  0.1087  0.3620 -0.6687
 4024SOL    HW123705   3.067   2.017   8.932 -0.8727  0.8226  0.0320
 4024SOL    HW223706   3.189   2.067   8.980 -1.0436 -1.0045  0.3051
 4025SOL     OW23707   1.262   3.509   1.200  0.5756  0.5192 -0.0250
 4025SOL    HW123708   1.211   3.440   1.157  2.5376 -0.5442 -0.6634
 4025SOL    HW223709   1.298   3.542   1.117 -2.1696 -1.5724 -2.0762
 4026SOL     OW23710   0.425   3.646   5.556  0.5740 -0.6043  0.1212
 4026SOL    HW123711   0.423   3.732   5.599 -1.4656 -1.2075  1.2167
 4026SOL    HW223712   0.513   3.618   5.580  0.5342  0.7454  1.8351
 4027SOL     OW23713   1.792   3.483   3.972 -0.0924  0.3004  0.1456
 4027SOL    HW123714   1.780   3.427   4.050  1.5029 -2.6049 -1.6713
 4027SOL    HW223715   1.887   3.488   3.960 -0.0871 -3.4069 -1.4733
 4028SOL     OW23716   1.463   1.432   2.361  0.1357  0.1003  0.3380
 4028SOL    HW123717   1.491   1.361   2.303 -0.7674 -1.4552  1.8228
 4028SOL    HW223718   1.524   1.503   2.338 -1.1101  1.4344  1.1316
 4029SOL     OW23719   1.098   3.881   6.627  0.5184 -0.4176 -0.2293
 4029SOL    HW123720   1.149   3.837   6.695  0.8517 -0.9824 -0.8552
 4029SOL    HW223721   1.162   3.929   6.576 -1.3666  1.7623 -0.5551
 4030SOL     OW23722   0.961   1.131  14.326 -0.1394 -0.4875 -0.2922
 4030SOL    HW123723   0.871   1.117  14.299  0.1321 -0.8572 -0.9964
 4030SOL    HW223724   0.963   1.221  14.293  1.1331 -0.6810 -0.7519
 4031SOL     OW23725   1.281   3.184   0.353  0.4362 -0.3645  0.2729
 4031SOL    HW123726   1.348   3.138   0.303 -0.3527 -2.9987  1.5948
 4031SOL    HW223727   1.193   3.154   0.331  0.4280 -1.0624  1.2468
 4032SOL     OW23728   1.624   4.683  10.467  0.0413 -0.6587  0.1406
 4032SOL    HW123729   1.690   4.621  10.435 -0.3939  0.2398 -2.4941
 4032SOL    HW223730   1.623   4.665  10.561  2.0002 -0.2076  0.2536
 4033SOL     OW23731   0.112   1.560   2.873 -0.0422  0.1349 -0.0570
 4033SOL    HW123732   0.060   1.562   2.792 -1.6790 -0.7898  0.9610
 4033SOL    HW223733   0.192   1.604   2.848 -0.7267  0.0230 -2.4172
 4034SOL     OW23734   0.086   2.094   0.908 -0.2271  0.0941  0.1074
 4034SOL    HW123735   0.040   2.138   0.836  1.5105  1.1346 -0.3568
 4034SOL    HW223736   0.148   2.038   0.861  0.7563  1.1826  0.1015
 4035SOL     OW23737   2.097   4.278  11.684  0.0597  0.0359 -0.7783
 4035SOL    HW123738   2.160   4.220  11.728  0.7960  1.1949 -0.3189
 4035SOL    HW223739   2.160   4.336  11.642  1.4537 -1.8181 -1.2368
 4036SOL     OW23740   0.871   3.991  10.962 -0.0348  0.4964 -0.3215
 4036SOL    HW123741   0.868   3.973  11.056  0.0218 -0.1549 -0.4435
 4036SOL    HW223742   0.962   3.978  10.936 -0.6118 -2.3168 -1.0239
 4037SOL     OW23743   0.741   1.385   2.008  0.1222 -0.1164  0.3016
 4037SOL    HW123744   0.816   1.365   1.953  0.5881  3.5453 -0.3677
 4037SOL    HW223745   0.675   1.371   1.940  0.3667  2.1612 -0.3954
 4038SOL     OW23746   1.782   0.378   8.596 -0.7264 -0.7347  0.2766
 4038SOL    HW123747   1.786   0.310   8.529  0.0478  2.0683 -2.5250
 4038SOL    HW223748   1.803   0.456   8.544  0.5639 -1.6355 -0.5678
 4039SOL     OW23749   3.238   3.958   2.802 -0.3181 -0.5234  0.3322
 4039SOL    HW123750   3.144   3.965   2.812 -0.2966  0.2939 -0.0430
 4039SOL    HW223751   3.253   4.020   2.731  1.4008  0.7652  1.8061
 4040SOL     OW23752   0.088   2.498   8.573  0.0316 -0.3517 -0.3799
 4040SOL    HW123753   0.164   2.462   8.619 -0.4797  1.9241  2.2610
 4040SOL    HW223754   0.102   2.482   8.480  3.0777  0.1415 -0.0119
 4041SOL     OW23755   2.685   2.516  11.464 -0.5490 -0.6414  0.4121
 4041SOL    HW123756   2.749   2.448  11.484  0.0815 -0.5035 -1.1811
 4041SOL    HW223757   2.712   2.589  11.520  0.8947 -1.1378  0.3656
 4042SOL     OW23758   4.393   3.499  15.274  0.3103 -0.2521  0.5155
 4042SOL    HW123759   4.449   3.426  15.299 -0.2162 -0.8947 -0.2015
 4042SOL    HW223760   4.445   3.532  15.201  0.1813 -1.2155 -0.0003
 4043SOL     OW23761   3.604   1.252   3.730  0.1746 -0.4219  0.7883
 4043SOL    HW123762   3.643   1.190   3.668  2.7998  2.5347 -0.4985
 4043SOL    HW223763   3.637   1.336   3.698 -0.7163  0.5761  2.4696
 4044SOL     OW23764   1.160   1.014   5.296 -0.5578  0.5770 -0.5151
 4044SOL    HW123765   1.168   0.923   5.266  1.5240  0.0154  1.7244
 4044SOL    HW223766   1.226   1.032   5.363 -0.4869 -0.0121 -0.4226
 4045SOL     OW23767   0.483   1.665  13.761  0.0396 -0.0214 -0.1881
 4045SOL    HW123768   0.491   1.741  13.819 -0.8093  0.2099 -0.3629
 4045SOL    HW223769   0.497   1.703  13.674  0.4024  0.5156  0.1092
 4046SOL     OW23770   2.185   3.739   3.251  0.1085  0.6670  0.2648
 4046SOL    HW123771   2.118   3.787   3.203  0.0450 -0.5506 -0.8673
 4046SOL    HW223772   2.175   3.651   3.214 -1.6645  0.4475  1.2403
 4047SOL     OW23773   1.255   1.442   0.607  0.9841 -0.0813 -1.1084
 4047SOL    HW123774   1.309   1.366   0.585  2.0400  0.2093  0.4744
 4047SOL    HW223775   1.206   1.452   0.525 -1.0356 -2.1073 -0.1858
 4048SOL     OW23776   3.878   3.199  13.304  0.2219 -0.1588 -0.2740
 4048SOL    HW123777   3.941   3.207  13.376 -0.8020 -0.4443  0.6506
 4048SOL    HW223778   3.843   3.113  13.325  0.4967 -0.2871 -0.3451
 4049SOL     OW23779   4.343   0.831  13.622  0.7887 -0.1101 -0.1520
 4049SOL    HW123780   4.328   0.779  13.701  0.7943 -3.1450 -2.1531
 4049SOL    HW223781   4.381   0.912  13.656 -1.9090  1.6672 -1.3540
 4050SOL     OW23782   0.118   0.811  10.367  0.1586  0.1533  0.2890
 4050SOL    HW123783   0.042   0.773  10.323  1.8288 -0.7546 -1.7929
 4050SOL    HW223784   0.085   0.842  10.452  2.7892  0.3990  1.2070
 4051SOL     OW23785   0.517   2.328   3.046  0.2123  0.5682  0.1135
 4051SOL    HW123786   0.429   2.359   3.068 -0.3138 -1.9752  1.6039
 4051SOL    HW223787   0.499   2.283   2.963 -0.8391  1.2422 -0.0270
 4052SOL     OW23788   1.274   1.742   8.605 -0.4885  0.5345 -0.0316
 4052SOL    HW123789   1.270   1.742   8.509  2.1711 -1.9484 -0.1551
 4052SOL    HW223790   1.305   1.829   8.628  0.9037  0.5870 -2.0929
 4053SOL     OW23791   4.398   0.840   1.283 -0.0463  0.6673  0.0736
 4053SOL    HW123792   4.328   0.783   1.251 -0.1388  0.2572  0.9965
 4053SOL    HW223793   4.417   0.887   1.202  0.5899  0.9525  0.3926
 4054SOL     OW23794   1.577   2.391   1.995 -0.1002  0.2381  0.3569
 4054SOL    HW123795   1.664   2.361   2.022 -0.1108  0.5787  0.7636
 4054SOL    HW223796   1.561   2.451   2.068  0.2523  0.8208 -0.0463
 4055SOL     OW23797   2.671   1.968  17.006  0.3111  0.1780 -0.4352
 4055SOL    HW123798   2.706   2.054  16.981 -1.0689  0.3913 -1.5914
 4055SOL    HW223799   2.646   1.984  17.097  2.4595 -0.4571  0.2807
 4056SOL     OW23800   0.901   2.859   4.210  1.0762 -0.4474 -0.5941
 4056SOL    HW123801   0.878   2.845   4.118 -1.3755  1.4052 -0.2560
 4056SOL    HW223802   0.868   2.782   4.256 -0.3351  0.8078  0.4932
 4057SOL     OW23803   2.277   4.465  11.590 -1.0548 -0.0377  0.7189
 4057SOL    HW123804   2.225   4.545  11.586  1.2344  1.5194  2.5378
 4057SOL    HW223805   2.314   4.484  11.677 -2.4337  3.3886  0.5569
 4058SOL     OW23806   0.078   2.584  10.940  0.0100 -0.5500  0.3697
 4058SOL    HW123807   0.111   2.647  10.875 -0.2202  0.6034  1.3705
 4058SOL    HW223808   0.026   2.647  10.991  0.5426  0.5854 -0.4857
 4059SOL     OW23809   2.442   3.174   3.963  0.2289 -0.3712  0.3251
 4059SOL    HW123810   2.500   3.199   4.035 -0.4408 -1.1949  1.1581
 4059SOL    HW223811   2.444   3.080   3.976 -1.9884 -0.4218  0.3797
 4060SOL     OW23812   1.846   0.397   4.489 -0.1028  0.1950 -0.3482
 4060SOL    HW123813   1.842   0.328   4.554 -1.1737  0.7616  0.1892
 4060SOL    HW223814   1.834   0.339   4.414  0.6143  0.9870 -1.0761
 4061SOL     OW23815   0.354   0.318   4.234 -0.1471  0.2266 -0.0633
 4061SOL    HW123816   0.441   0.318   4.272 -0.6081 -1.3528  0.9762
 4061SOL    HW223817   0.334   0.227   4.210  1.1555 -0.0153 -0.1977
 4062SOL     OW23818   2.348   1.918   5.391 -0.0576  0.2397  0.5997
 4062SOL    HW123819   2.330   1.846   5.450  1.2274  1.7336  2.8021
 4062SOL    HW223820   2.259   1.953   5.377  0.1860  0.5646 -0.1342
 4063SOL     OW23821   2.985   3.365   7.838  0.2439  0.1537  0.1564
 4063SOL    HW123822   3.055   3.380   7.774 -0.9857 -1.6716 -1.6523
 4063SOL    HW223823   2.969   3.270   7.836  0.1465  0.1761 -0.1230
 4064SOL     OW23824   0.829   4.370   0.625  0.4091 -0.1260  0.3595
 4064SOL    HW123825   0.842   4.405   0.713  1.3047  1.0318 -0.2472
 4064SOL    HW223826   0.751   4.414   0.592  2.1669  1.8312 -1.1416
 4065SOL     OW23827   2.223   3.114   3.305  0.1819 -0.1871  0.5655
 4065SOL    HW123828   2.307   3.072   3.286  1.0261  1.5849  0.3748
 4065SOL    HW223829   2.183   3.058   3.371  1.0288 -2.1131 -0.5740
 4066SOL     OW23830   3.831   1.450   2.394 -0.1041  0.2324  0.5763
 4066SOL    HW123831   3.834   1.441   2.299  0.6492 -2.7984  0.8740
 4066SOL    HW223832   3.738   1.435   2.413  0.1513 -2.9401 -0.6578
 4067SOL     OW23833   0.748   0.720   6.565  0.2155  0.4081  0.6138
 4067SOL    HW123834   0.695   0.782   6.515  0.9592  0.0145 -0.6880
 4067SOL    HW223835   0.831   0.764   6.584 -0.3901  2.0106 -0.4571
 4068SOL     OW23836   1.083   4.680   6.424 -0.6090  0.0826  0.0086
 4068SOL    HW123837   0.997   4.642   6.405  0.3471 -2.7754  1.3007
 4068SOL    HW223838   1.075   0.005   6.500  2.7344 -1.6706  1.7274
 4069SOL     OW23839   0.250   1.076   3.870 -0.1670  0.0982 -0.1479
 4069SOL    HW123840   0.324   1.039   3.918  1.1216  2.0872 -0.6134
 4069SOL    HW223841   0.206   1.108   3.949 -0.0628 -2.1862  0.8435
 4070SOL     OW23842   4.332   2.832   4.656  0.1398  0.1108  0.2341
 4070SOL    HW123843   4.259   2.868   4.606 -0.4422 -0.6397  0.5494
 4070SOL    HW223844   4.387   2.806   4.583  0.7033  4.5151 -0.9048
 4071SOL     OW23845   2.979   4.702   0.053  0.0690 -0.1939  0.5579
 4071SOL    HW123846   2.893   4.713   0.093  0.3489 -0.1287  1.1432
 4071SOL    HW223847   3.042   4.727   0.121  0.4792 -0.9402  0.4653
 4072SOL     OW23848   0.649   3.674  10.020  0.1573  0.2251 -0.7564
 4072SOL    HW123849   0.699   3.702  10.097  0.7222 -1.0974 -0.6417
 4072SOL    HW223850   0.694   3.595   9.992 -1.1336 -1.5387  2.0381
 4073SOL     OW23851   0.087   2.693   6.049 -0.2945  0.2403 -0.1613
 4073SOL    HW123852   0.058   2.625   6.109  1.0685  1.2245  1.6179
 4073SOL    HW223853   0.009   2.709   5.995 -1.1588 -1.3645  0.6223
 4074SOL     OW23854   2.745   4.190   3.507  0.3783  0.4506 -0.2504
 4074SOL    HW123855   2.767   4.129   3.578  0.9177 -0.0765 -0.8651
 4074SOL    HW223856   2.775   4.149   3.426  2.0748  1.0285  0.0685
 4075SOL     OW23857   0.513   3.212  14.620  0.0893  0.1287  0.0583
 4075SOL    HW123858   0.452   3.147  14.654 -0.5472  0.0872 -1.1369
 4075SOL    HW223859   0.486   3.299  14.649 -0.7810  0.4049 -1.5331
 4076SOL     OW23860   3.395   1.001   8.174  0.1860  0.3738  0.6310
 4076SOL    HW123861   3.479   1.026   8.135 -0.7543  0.2476 -1.4698
 4076SOL    HW223862   3.402   1.051   8.255  1.4643 -0.2963  0.9319
 4077SOL     OW23863   3.478   3.910  15.311 -0.2213 -0.4075  0.6515
 4077SOL    HW123864   3.557   3.883  15.358 -0.7133 -1.5467  0.8252
 4077SOL    HW223865   3.481   4.006  15.314 -2.8471 -0.3038 -0.5031
 4078SOL     OW23866   2.204   3.619   5.375  0.3318 -0.0344  0.1717
 4078SOL    HW123867   2.113   3.618   5.407 -0.5869 -2.1371 -2.5124
 4078SOL    HW223868   2.210   3.527   5.348  0.3175  0.3561 -1.1579
 4079SOL     OW23869   2.771   2.270   4.852 -0.0322  0.2000  0.0004
 4079SOL    HW123870   2.819   2.350   4.831  1.2147 -0.5131  0.1191
 4079SOL    HW223871   2.700   2.307   4.904 -0.1172 -0.1784  0.1533
 4080SOL     OW23872   4.106   1.137  11.727  0.7157 -0.3840 -0.3609
 4080SOL    HW123873   4.131   1.227  11.707 -1.2045  0.6551  1.9046
 4080SOL    HW223874   4.162   1.128  11.804  0.6600 -1.8370 -0.4969
 4081SOL     OW23875   0.817   1.935   6.083 -0.5341  0.3056 -0.4440
 4081SOL    HW123876   0.752   1.923   6.014  0.7218 -1.8296 -1.2579
 4081SOL    HW223877   0.823   2.030   6.080 -0.1144  0.2694 -0.7032
 4082SOL     OW23878   1.203   3.482   0.695 -0.1495 -0.0546 -0.3909
 4082SOL    HW123879   1.121   3.435   0.708  0.0965 -0.5130 -0.4727
 4082SOL    HW223880   1.216   3.476   0.600 -0.2874 -0.3186 -0.3953
 4083SOL     OW23881   0.139   0.073   1.805  0.0856  0.0385 -0.7166
 4083SOL    HW123882   0.045   0.064   1.791 -0.2886  1.5480  0.8197
 4083SOL    HW223883   0.166   0.123   1.729 -0.2229 -0.8516 -1.4135
 4084SOL     OW23884   3.879   3.960  10.529  0.0442 -0.0778  0.2033
 4084SOL    HW123885   3.797   4.006  10.544  0.1482  0.0345  0.4463
 4084SOL    HW223886   3.931   3.986  10.606 -2.1477 -0.8332  1.9436
 4085SOL     OW23887   1.862   0.549  16.315  0.3285  0.4685  0.5761
 4085SOL    HW123888   1.874   0.502  16.232 -3.2485 -0.4227  0.5560
 4085SOL    HW223889   1.827   0.631  16.279 -2.3137 -0.3833  1.1656
 4086SOL     OW23890   4.202   4.522   4.762 -0.8513 -0.0956 -0.0362
 4086SOL    HW123891   4.149   4.594   4.729  0.0923  0.6175  0.0177
 4086SOL    HW223892   4.150   4.478   4.830 -0.6970 -2.3621 -1.3693
 4087SOL     OW23893   4.311   2.473   9.116  0.0438  0.2332  0.1664
 4087SOL    HW123894   4.362   2.553   9.103  0.7692 -0.5101 -1.4847
 4087SOL    HW223895   4.350   2.429   9.041 -1.7093  2.5609 -2.0953
 4088SOL     OW23896   2.557   2.112   2.597  0.0914  0.3639 -0.0276
 4088SOL    HW123897   2.465   2.132   2.577 -0.4847  0.1386  2.3240
 4088SOL    HW223898   2.599   2.197   2.584  1.4550 -0.1793  0.8947
 4089SOL     OW23899   3.894   2.282   4.175 -0.0195  0.6041 -0.3746
 4089SOL    HW123900   3.874   2.373   4.198 -2.2362  0.5489 -2.0422
 4089SOL    HW223901   3.855   2.270   4.088 -1.0400  0.6966  0.0623
 4090SOL     OW23902   0.503   0.353   2.171 -0.3580 -0.0885 -0.4035
 4090SOL    HW123903   0.535   0.280   2.118 -0.0121 -2.0065  2.4138
 4090SOL    HW223904   0.527   0.433   2.125  0.8379  0.5276  1.2949
 4091SOL     OW23905   0.414   2.887   1.797  0.5658 -0.3862 -0.2531
 4091SOL    HW123906   0.338   2.931   1.835  1.0955 -1.7114  2.3237
 4091SOL    HW223907   0.474   2.961   1.796  1.1765 -0.8716  0.5063
 4092SOL     OW23908   0.012   1.474   2.348  0.5624  0.1609 -0.0231
 4092SOL    HW123909   0.078   1.539   2.372 -1.0708  0.8349  2.6144
 4092SOL    HW223910   4.689   1.452   2.423 -0.5356 -2.8243 -1.7138
 4093SOL     OW23911   0.528   0.466   8.180  0.5280  0.3878 -0.0270
 4093SOL    HW123912   0.468   0.493   8.110  0.9606  0.2477 -0.4519
 4093SOL    HW223913   0.607   0.520   8.168 -0.3686  2.2204  2.3284
 4094SOL     OW23914   0.521   3.987   8.610  0.5307  0.2203  0.3999
 4094SOL    HW123915   0.475   4.070   8.599 -0.5401 -0.4913 -0.5593
 4094SOL    HW223916   0.562   4.015   8.692  1.2962  1.8901 -0.5477
 4095SOL     OW23917   1.188   2.101   5.811 -0.4949 -0.0607 -0.4056
 4095SOL    HW123918   1.109   2.111   5.864 -0.9868  0.3636 -1.2129
 4095SOL    HW223919   1.220   2.017   5.842 -0.7743  0.5563  1.5792
 4096SOL     OW23920   1.920   4.247   5.934 -0.3049  0.0001  0.3193
 4096SOL    HW123921   1.828   4.221   5.937  0.2696 -1.5856  3.5276
 4096SOL    HW223922   1.925   4.252   5.838 -1.9508 -1.6502  0.1538
 4097SOL     OW23923   0.771   1.008   4.267 -0.6110  0.6728  0.2332
 4097SOL    HW123924   0.823   0.960   4.203 -0.0764  2.7810 -0.9050
 4097SOL    HW223925   0.704   0.945   4.292 -1.3583  0.8471 -1.3020
 4098SOL     OW23926   1.173   1.469   7.192  0.2361  0.3225  0.4864
 4098SOL    HW123927   1.138   1.503   7.110  0.4013 -0.9665 -0.1207
 4098SOL    HW223928   1.260   1.507   7.203  0.3066  1.4363 -3.9078
 4099SOL     OW23929   4.173   2.603  10.330 -0.1631  0.2321 -0.0424
 4099SOL    HW123930   4.146   2.664  10.261 -0.0516  0.2110 -0.1042
 4099SOL    HW223931   4.153   2.654  10.409 -1.3638 -1.0740  0.4940
 4100SOL     OW23932   4.196   1.256   2.065  0.5215  0.4027  0.0735
 4100SOL    HW123933   4.193   1.279   2.158  1.0701 -0.7618  0.3786
 4100SOL    HW223934   4.290   1.239   2.054  0.2079 -1.3798  0.2152
 4101SOL     OW23935   2.945   0.287   7.441  0.1153 -0.2788 -0.6762
 4101SOL    HW123936   2.966   0.353   7.374  1.0650 -1.4799 -1.5518
 4101SOL    HW223937   2.917   0.350   7.507  1.7486  0.4563 -0.6657
 4102SOL     OW23938   0.133   2.423   4.845  0.4561  0.0525 -0.7564
 4102SOL    HW123939   0.193   2.387   4.911  1.4920 -0.9549 -2.2336
 4102SOL    HW223940   0.091   2.343   4.814 -0.5368  0.4116 -0.3212
 4103SOL     OW23941   4.660   3.572   2.057  0.2141  0.1656 -0.1494
 4103SOL    HW123942   4.586   3.553   2.000 -1.5992 -2.0629  2.9554
 4103SOL    HW223943   4.625   3.624   2.130  0.3302  1.9258 -1.3301
 4104SOL     OW23944   1.649   0.391   3.478  1.0396  0.8965 -0.0496
 4104SOL    HW123945   1.589   0.363   3.547  0.1870  1.7528 -0.4423
 4104SOL    HW223946   1.602   0.374   3.397  1.3701  0.9790 -0.2554
 4105SOL     OW23947   0.213   4.586   0.836 -0.1337 -0.2402  0.0958
 4105SOL    HW123948   0.197   4.558   0.926 -1.4753 -0.5211 -0.2359
 4105SOL    HW223949   0.216   4.680   0.853  1.5038 -0.3487  0.4071
 4106SOL     OW23950   2.243   4.035  12.807 -0.2441  0.5581 -0.6322
 4106SOL    HW123951   2.280   3.974  12.743 -0.4980 -0.6215  0.3347
 4106SOL    HW223952   2.175   3.977  12.841  0.4516  1.2471  2.0125
 4107SOL     OW23953   2.131   0.787   6.744  0.0240  0.6344  0.3125
 4107SOL    HW123954   2.187   0.719   6.781 -2.3472 -0.5858  1.6363
 4107SOL    HW223955   2.045   0.773   6.783 -0.6229  1.5178 -0.8068
 4108SOL     OW23956   3.808   2.845   6.165  0.7799 -0.6068  0.1005
 4108SOL    HW123957   3.767   2.847   6.251  0.5337  1.0905 -0.0657
 4108SOL    HW223958   3.893   2.808   6.186  1.4907 -0.3272 -2.3321
 4109SOL     OW23959   3.605   0.907   9.511  0.5798  0.7515 -0.5176
 4109SOL    HW123960   3.544   0.973   9.479 -0.4026  0.2163  0.2468
 4109SOL    HW223961   3.676   0.965   9.537 -0.7715  1.6594  1.1388
 4110SOL     OW23962   0.177   4.154   9.108  0.4416  0.2164  0.0391
 4110SOL    HW123963   0.249   4.092   9.120  0.9629  0.4064 -2.1354
 4110SOL    HW223964   0.217   4.227   9.061 -0.5097 -0.6452 -2.1088
 4111SOL     OW23965   4.008   4.169   0.541 -0.4423 -0.5154  0.2042
 4111SOL    HW123966   4.082   4.228   0.524 -0.1108 -1.0503 -0.2201
 4111SOL    HW223967   4.025   4.101   0.476 -0.7527  0.4999 -0.9375
 4112SOL     OW23968   3.258   1.657   1.911 -0.2853  0.3570  0.4303
 4112SOL    HW123969   3.188   1.593   1.898 -0.8380  1.4760 -2.2197
 4112SOL    HW223970   3.285   1.640   2.001 -1.0753  0.3603  0.6685
 4113SOL     OW23971   1.630   1.745   8.130  0.9253  0.1591  0.3280
 4113SOL    HW123972   1.708   1.762   8.183  0.1327 -0.2072  1.5958
 4113SOL    HW223973   1.657   1.745   8.038 -0.1029 -1.2872  0.0308
 4114SOL     OW23974   2.427   1.727   4.715  0.8611 -0.1014  0.0409
 4114SOL    HW123975   2.424   1.823   4.712  0.5354 -0.1041  0.3472
 4114SOL    HW223976   2.492   1.711   4.646  0.7628 -0.1781 -0.0321
 4115SOL     OW23977   1.899   2.054  15.216  0.2673 -0.9733  0.1152
 4115SOL    HW123978   1.896   2.014  15.129 -1.2099  0.2390 -0.3893
 4115SOL    HW223979   1.819   2.017  15.254 -0.2841 -0.5601 -0.6448
 4116SOL     OW23980   2.943   0.522   1.644 -0.9630  0.5814 -0.4237
 4116SOL    HW123981   2.915   0.543   1.733  1.9411 -1.1719  0.9020
 4116SOL    HW223982   3.010   0.590   1.634  0.8160 -1.2793 -1.1650
 4117SOL     OW23983   0.639   0.676  16.789  0.5889 -0.3282 -0.2918
 4117SOL    HW123984   0.725   0.688  16.747 -0.5976  1.6164 -2.2001
 4117SOL    HW223985   0.601   0.760  16.764  0.9466 -0.2432 -0.5616
 4118SOL     OW23986   2.459   1.711   3.046  0.3366 -0.1991 -0.2505
 4118SOL    HW123987   2.488   1.625   3.014 -1.8419 -1.1745  0.4215
 4118SOL    HW223988   2.421   1.693   3.132 -1.0384 -1.7827 -1.2004
 4119SOL     OW23989   4.234   0.432   2.928  0.2433 -0.1175  0.3440
 4119SOL    HW123990   4.315   0.462   2.971  1.8745 -1.7721 -1.5903
 4119SOL    HW223991   4.265   0.383   2.852 -0.1930  0.7839 -0.4181
 4120SOL     OW23992   0.981   1.467   5.827  0.4739 -0.5013  0.3614
 4120SOL    HW123993   1.003   1.374   5.834  0.3226 -0.4943  0.9709
 4120SOL    HW223994   0.904   1.455   5.883 -0.5397  0.7262 -0.7957
 4121SOL     OW23995   4.379   2.935  10.382  0.4075 -0.5009 -0.1663
 4121SOL    HW123996   4.342   3.000  10.321 -2.4841  0.4861  2.6568
 4121SOL    HW223997   4.472   2.928  10.357 -0.2445  2.4445 -3.5269
 4122SOL     OW23998   0.292   0.561   6.828 -0.3532 -0.5278 -0.2697
 4122SOL    HW123999   0.306   0.484   6.884 -1.3912 -1.1508 -0.8768
 4122SOL    HW224000   0.217   0.538   6.773 -0.2388 -3.2404  0.7250
 4123SOL     OW24001   4.426   2.367   1.013  0.2096  0.1974 -0.1037
 4123SOL    HW124002   4.492   2.298   1.007 -0.7695 -0.7356 -0.0136
 4123SOL    HW224003   4.469   2.435   1.066  0.8175  0.5271 -1.0112
 4124SOL     OW24004   2.296   4.207   6.039  0.4183  0.7887  0.1419
 4124SOL    HW124005   2.232   4.153   5.994  2.0324 -0.5315 -0.5609
 4124SOL    HW224006   2.282   4.166   6.124 -0.1254 -0.7737 -0.7161
 4125SOL     OW24007   1.243   4.168   4.605  0.0486 -0.5852 -0.0061
 4125SOL    HW124008   1.168   4.204   4.653 -0.1774 -0.2062 -0.6343
 4125SOL    HW224009   1.250   4.080   4.642  1.5759 -0.0760  0.8955
 4126SOL     OW24010   1.942   2.041   3.939  0.3292 -0.1974 -0.3837
 4126SOL    HW124011   2.005   1.970   3.925 -1.6847 -1.9719 -0.5663
 4126SOL    HW224012   1.856   2.001   3.924  0.9630 -1.4306 -0.7809
 4127SOL     OW24013   4.649   3.346   3.609 -0.5455 -0.2069  0.1525
 4127SOL    HW124014   4.631   3.272   3.667 -1.3755  0.0048  0.1661
 4127SOL    HW224015   0.010   3.363   3.617 -0.1311 -2.3858 -0.0027
 4128SOL     OW24016   2.252   1.711   5.979  0.6134  0.4021 -0.4924
 4128SOL    HW124017   2.209   1.639   5.933 -0.7942  2.3088 -2.1571
 4128SOL    HW224018   2.337   1.671   5.995 -0.0470 -0.7112  0.1929
 4129SOL     OW24019   4.412   1.670  15.934 -0.1835 -0.2938  0.4254
 4129SOL    HW124020   4.356   1.615  15.989  0.2696 -0.7014  0.4782
 4129SOL    HW224021   4.393   1.757  15.970 -1.0775 -0.6278  0.7598
 4130SOL     OW24022   2.961   2.858   6.651 -0.0811  0.5346  0.2742
 4130SOL    HW124023   2.904   2.896   6.585 -1.3583 -2.5868 -0.4009
 4130SOL    HW224024   2.898   2.801   6.695 -1.8027  3.2147  1.2462
 4131SOL     OW24025   3.448   1.751  14.590 -0.5777  0.6155  0.2377
 4131SOL    HW124026   3.465   1.693  14.516  1.8213 -1.7183  2.5919
 4131SOL    HW224027   3.437   1.841  14.560 -0.2731  0.6693  0.2823
 4132SOL     OW24028   2.690   4.328   8.628 -0.1865 -0.1972  0.1948
 4132SOL    HW124029   2.596   4.315   8.613  0.0264 -2.2500  0.6274
 4132SOL    HW224030   2.699   4.337   8.723  0.8288 -0.5236  0.1273
 4133SOL     OW24031   2.097   4.251   2.750 -0.5377  0.0475  0.2319
 4133SOL    HW124032   2.179   4.298   2.762 -2.0023  3.0329 -1.4164
 4133SOL    HW224033   2.143   4.169   2.729 -1.3443 -0.4432  0.4044
 4134SOL     OW24034   3.074   2.920  15.216 -0.7046 -0.0828 -0.3138
 4134SOL    HW124035   2.994   2.966  15.242  0.2614  2.1825 -1.2939
 4134SOL    HW224036   3.115   2.891  15.297 -2.1351 -1.2790 -0.0356
 4135SOL     OW24037   4.370   0.899   6.049 -0.0221 -0.2996  0.3600
 4135SOL    HW124038   4.307   0.971   6.052  2.7391  2.0848  0.4951
 4135SOL    HW224039   4.360   0.874   5.957 -1.3735  1.7002 -0.0531
 4136SOL     OW24040   4.577   0.117   1.761 -0.2897 -0.4476  0.5859
 4136SOL    HW124041   4.571   0.212   1.769  0.5055 -0.2976 -0.5670
 4136SOL    HW224042   4.502   0.099   1.704 -0.9989  1.5978  0.8958
 4137SOL     OW24043   4.660   2.614  11.861 -0.5215  0.5636 -0.1702
 4137SOL    HW124044   4.612   2.537  11.894 -0.7526  2.3343  3.6682
 4137SOL    HW224045   0.016   2.591  11.888 -0.9500 -0.3140  0.5266
 4138SOL     OW24046   1.327   1.608   5.131  0.2629 -0.5348  0.0816
 4138SOL    HW124047   1.239   1.572   5.123  0.1152 -0.4368  1.2672
 4138SOL    HW224048   1.380   1.535   5.161 -0.7664 -0.8060  1.2353
 4139SOL     OW24049   4.523   2.752   4.487 -0.0089  0.3621  0.5833
 4139SOL    HW124050   4.603   2.768   4.537  0.5626 -1.5979  0.2982
 4139SOL    HW224051   4.549   2.663   4.463 -1.0573  0.6653 -1.7406
 4140SOL     OW24052   3.862   1.410   4.179  0.3047 -0.0330 -0.0037
 4140SOL    HW124053   3.922   1.476   4.214  0.5312 -0.4926  0.4685
 4140SOL    HW224054   3.791   1.467   4.150 -1.0259 -0.2230  2.8448
 4141SOL     OW24055   1.502   3.185   6.797 -0.2816  0.2175 -0.5049
 4141SOL    HW124056   1.441   3.112   6.787  0.9240 -0.7196 -0.8894
 4141SOL    HW224057   1.515   3.211   6.705  0.3176 -1.3871 -0.8710
 4142SOL     OW24058   3.642   1.300   3.989  0.1448 -0.4034  0.1044
 4142SOL    HW124059   3.630   1.395   3.991 -0.0891 -0.4252 -0.2388
 4142SOL    HW224060   3.623   1.283   3.897 -1.1518  1.6396 -0.0027
 4143SOL     OW24061   1.285   4.268   2.369 -0.9519  0.5030 -0.0120
 4143SOL    HW124062   1.367   4.317   2.363  0.7266 -2.5914 -2.2062
 4143SOL    HW224063   1.280   4.259   2.464  0.1792  1.5146  0.1457
 4144SOL     OW24064   0.571   2.460  11.480 -0.1383  0.1947  0.2950
 4144SOL    HW124065   0.511   2.525  11.516 -0.4113  0.4829 -0.6651
 4144SOL    HW224066   0.608   2.414  11.555  1.5436 -0.9613 -1.2418
 4145SOL     OW24067   3.724   1.656   8.447 -0.2445  0.3489 -0.3480
 4145SOL    HW124068   3.657   1.610   8.398  1.2308 -0.4480 -1.6368
 4145SOL    HW224069   3.792   1.667   8.380 -1.1415 -2.0115 -1.6306
 4146SOL     OW24070   1.748   1.546   8.667  0.4378 -0.1620 -0.1643
 4146SOL    HW124071   1.727   1.622   8.612  0.0443 -1.8577 -2.3839
 4146SOL    HW224072   1.722   1.574   8.755  0.8379  0.2892 -0.1889
 4147SOL     OW24073   4.094   3.059   3.650  0.0346 -0.2999  0.1794
 4147SOL    HW124074   4.114   3.030   3.738 -0.3806 -1.3613 -0.0745
 4147SOL    HW224075   4.122   3.147   3.672 -2.5508  0.8251 -0.9378
 4148SOL     OW24076   3.980   2.418   6.865  0.0955 -0.3087 -0.1124
 4148SOL    HW124077   3.896   2.462   6.852  0.2913 -0.1501 -0.8558
 4148SOL    HW224078   3.949   2.328   6.851 -2.0686  0.7012 -1.7649
 4149SOL     OW24079   4.388   0.448  15.294  0.1857 -0.1633 -0.0077
 4149SOL    HW124080   4.470   0.412  15.262  1.3992  0.3551  2.5579
 4149SOL    HW224081   4.357   0.386  15.361  1.1659 -1.5026 -0.8057
 4150SOL     OW24082   2.270   0.874  14.657 -0.0725  0.9616  0.2876
 4150SOL    HW124083   2.261   0.804  14.593 -0.9260  1.9231 -0.6406
 4150SOL    HW224084   2.181   0.910  14.654 -0.7073 -0.5055  1.9537
 4151SOL     OW24085   2.316   1.327   8.804 -0.3823  0.1760 -0.1680
 4151SOL    HW124086   2.407   1.314   8.831  0.3705  0.1234 -2.7374
 4151SOL    HW224087   2.283   1.351   8.891  1.3819 -1.6544  1.0134
 4152SOL     OW24088   1.276   0.582  12.878 -0.3288  0.3597 -0.4028
 4152SOL    HW124089   1.342   0.557  12.943  0.2878 -1.3071 -1.6494
 4152SOL    HW224090   1.308   0.523  12.809  0.8259  1.1431 -0.5311
 4153SOL     OW24091   2.109   4.355  15.303  0.5403  0.7131  0.5599
 4153SOL    HW124092   2.203   4.353  15.283  0.5636  0.1525  0.7075
 4153SOL    HW224093   2.086   4.271  15.261 -1.1809  0.7738  1.3950
 4154SOL     OW24094   4.658   3.578   4.673 -0.1593  0.4529  1.0763
 4154SOL    HW124095   4.569   3.592   4.640 -0.9758  1.3653  3.6208
 4154SOL    HW224096   4.672   3.486   4.653  0.1697  0.1125  2.8507
 4155SOL     OW24097   1.632   0.848   7.657 -0.0908 -0.6841 -0.2444
 4155SOL    HW124098   1.565   0.818   7.595 -0.0057 -0.3908 -0.4789
 4155SOL    HW224099   1.639   0.773   7.716  0.3473 -0.2728  0.2271
 4156SOL     OW24100   1.230   0.306   7.910 -0.2479 -0.2848 -0.2969
 4156SOL    HW124101   1.292   0.377   7.925 -1.7009  0.7602  0.6474
 4156SOL    HW224102   1.266   0.240   7.969  0.2388 -0.3668 -0.6828
 4157SOL     OW24103   1.481   1.455   6.900  0.3465  0.4083 -0.0941
 4157SOL    HW124104   1.399   1.459   6.850  1.4872  2.3417 -1.8330
 4157SOL    HW224105   1.507   1.546   6.915 -2.8629  1.1993  0.6319
 4158SOL     OW24106   3.499   1.837   4.579  0.6167  0.7240 -0.5017
 4158SOL    HW124107   3.584   1.800   4.555 -1.0467 -3.0909 -0.5157
 4158SOL    HW224108   3.493   1.896   4.504  2.5766 -1.6788 -2.5505
 4159SOL     OW24109   1.582   1.774  11.321 -0.0942  0.1909  0.2834
 4159SOL    HW124110   1.528   1.795  11.396 -0.7620  1.6664 -0.6249
 4159SOL    HW224111   1.563   1.853  11.272  1.2841 -0.8860 -2.0318
 4160SOL     OW24112   0.689   3.283   5.038 -0.1939 -0.1551  0.0664
 4160SOL    HW124113   0.682   3.187   5.037  0.7245 -0.2458  2.1594
 4160SOL    HW224114   0.638   3.292   5.119 -2.4374 -0.1305 -1.3579
 4161SOL     OW24115   0.331   1.293   2.185  0.1326 -0.1237  0.4772
 4161SOL    HW124116   0.266   1.253   2.243  1.2095 -0.3568  1.5164
 4161SOL    HW224117   0.328   1.230   2.112 -3.3725  0.1721  0.3697
 4162SOL     OW24118   1.320   3.737   5.501 -0.1690  0.1985  0.6303
 4162SOL    HW124119   1.269   3.805   5.547 -0.2571  0.3223  0.3510
 4162SOL    HW224120   1.311   3.664   5.562 -0.6859 -2.0380 -2.1616
 4163SOL     OW24121   3.697   1.453   8.646 -0.6321  0.4189  0.7155
 4163SOL    HW124122   3.705   1.527   8.586 -1.3446 -1.9056 -2.2121
 4163SOL    HW224123   3.623   1.474   8.703  0.0019  0.7128  1.4311
 4164SOL     OW24124   2.641   3.560   5.745  0.3092  0.0917  0.7191
 4164SOL    HW124125   2.734   3.550   5.763  0.7660 -0.1690 -1.8384
 4164SOL    HW224126   2.622   3.467   5.761  2.4042 -0.6252 -0.9715
 4165SOL     OW24127   3.390   1.975   4.076 -0.0997  0.0010  0.1959
 4165SOL    HW124128   3.402   1.979   3.981 -1.8990  3.8977  0.1401
 4165SOL    HW224129   3.306   2.020   4.082 -1.3509 -2.2126 -0.9652
 4166SOL     OW24130   0.159   2.367   6.213  0.2169  0.0605  0.2765
 4166SOL    HW124131   0.230   2.424   6.182  1.3301 -0.0280  2.6652
 4166SOL    HW224132   0.194   2.281   6.191  0.0129  0.3834 -1.3665
 4167SOL     OW24133   0.812   4.216   8.735 -0.2872 -0.0962 -0.2874
 4167SOL    HW124134   0.783   4.219   8.644 -0.0466 -1.3563 -0.4055
 4167SOL    HW224135   0.906   4.200   8.720 -0.0355  0.9328  0.1797
 4168SOL     OW24136   0.266   2.543   4.432 -0.7784  1.0484 -0.0400
 4168SOL    HW124137   0.276   2.519   4.340  2.7440  1.0740  0.3423
 4168SOL    HW224138   0.295   2.461   4.470 -2.2204  0.6833  0.2473
 4169SOL     OW24139   2.063   4.571  13.421  0.0760  0.3252 -0.5184
 4169SOL    HW124140   2.026   4.593  13.335 -0.4721  1.1669 -0.0598
 4169SOL    HW224141   2.138   4.631  13.414  2.5372 -2.4856  1.4598
 4170SOL     OW24142   3.971   1.310  14.244  0.3883 -0.2789  0.4820
 4170SOL    HW124143   4.065   1.318  14.229  0.2342  0.6631  0.0063
 4170SOL    HW224144   3.940   1.380  14.186  1.2611 -1.1145 -0.9899
 4171SOL     OW24145   1.360   3.816   3.548 -0.4886 -0.2663  0.4955
 4171SOL    HW124146   1.298   3.781   3.612 -1.7709 -0.2641 -0.7406
 4171SOL    HW224147   1.303   3.879   3.503 -0.4757 -1.5066 -1.2570
 4172SOL     OW24148   1.922   3.638   5.433  0.1550  0.5060  0.5883
 4172SOL    HW124149   1.833   3.606   5.443 -0.6799  3.2295  1.8270
 4172SOL    HW224150   1.902   3.712   5.376 -0.9133 -0.0126  0.3068
 4173SOL     OW24151   2.410   4.322   1.399 -0.0076  1.2301  0.0574
 4173SOL    HW124152   2.460   4.351   1.475  0.5050  1.5814 -0.4151
 4173SOL    HW224153   2.468   4.321   1.323  1.3161 -1.2026  1.1132
 4174SOL     OW24154   3.301   2.855  11.615 -0.2656  0.1124 -0.0867
 4174SOL    HW124155   3.265   2.787  11.671 -3.2107 -0.6660 -2.9275
 4174SOL    HW224156   3.350   2.806  11.548  0.0811  1.2490 -0.6735
 4175SOL     OW24157   4.638   1.510   9.519 -0.2940 -0.4019  0.7042
 4175SOL    HW124158   4.724   1.546   9.543  0.2905 -0.4780 -1.2593
 4175SOL    HW224159   4.641   1.520   9.424  1.7878  1.3570  0.9619
 4176SOL     OW24160   3.779   2.040   7.984  0.3805  0.1955 -0.1934
 4176SOL    HW124161   3.736   2.125   7.996 -0.3958 -0.1493 -0.4809
 4176SOL    HW224162   3.836   2.057   7.909  0.0265  1.0113 -0.2827
 4177SOL     OW24163   2.983   3.155   3.111  0.2926  0.2377 -0.2476
 4177SOL    HW124164   3.034   3.085   3.151 -3.4858 -2.0266  0.6534
 4177SOL    HW224165   3.018   3.228   3.161  0.8272 -1.3737  1.7241
 4178SOL     OW24166   3.724   0.591  10.439 -0.1532  0.3422 -0.1260
 4178SOL    HW124167   3.812   0.599  10.476 -0.0568 -4.3094  0.6871
 4178SOL    HW224168   3.684   0.515  10.483  0.8961 -1.9342 -3.1700
 4179SOL     OW24169   4.303   1.066   1.448  0.0574 -0.4883  0.0667
 4179SOL    HW124170   4.281   1.026   1.532  2.5470  0.1930  1.0442
 4179SOL    HW224171   4.289   0.994   1.386 -0.9833 -0.5929  0.4255
 4180SOL     OW24172   1.388   4.555   4.017  0.0836  0.1594 -0.3711
 4180SOL    HW124173   1.482   4.566   4.002  0.1563 -0.8751 -0.6723
 4180SOL    HW224174   1.371   4.494   3.945 -1.3421  1.0372 -0.7753
 4181SOL     OW24175   3.256   3.786   5.747 -0.1155 -0.1029 -0.1704
 4181SOL    HW124176   3.226   3.765   5.835  1.2374 -2.1168 -0.2002
 4181SOL    HW224177   3.347   3.809   5.766 -0.0218 -1.3957  0.8842
 4182SOL     OW24178   1.544   1.325   3.674 -0.0940 -0.4360  0.0032
 4182SOL    HW124179   1.546   1.355   3.583  1.6659  0.3186  0.2784
 4182SOL    HW224180   1.601   1.387   3.720 -0.5409 -1.7698  2.3435
 4183SOL     OW24181   0.846   3.759  16.026  0.0502  0.0182 -0.3899
 4183SOL    HW124182   0.763   3.790  16.061  1.5854  0.5552  2.8008
 4183SOL    HW224183   0.909   3.817  16.069 -1.0193  1.5416 -0.8925
 4184SOL     OW24184   2.926   0.647   5.059 -0.1773  0.1122  0.5752
 4184SOL    HW124185   2.954   0.637   4.969 -0.4006  0.2061  0.4948
 4184SOL    HW224186   2.956   0.731   5.094 -0.6031  0.2608  0.5846
 4185SOL     OW24187   3.831   2.893   2.040 -0.9722  0.4564 -0.1819
 4185SOL    HW124188   3.837   2.954   2.113 -3.9087 -0.5241  0.8677
 4185SOL    HW224189   3.846   2.944   1.960  0.2608 -1.0026 -0.8782
 4186SOL     OW24190   4.623   4.324   2.535  0.5164 -0.1175  0.6127
 4186SOL    HW124191   4.602   4.301   2.445 -0.6442  1.0525  0.5921
 4186SOL    HW224192   4.630   4.240   2.580 -1.8887  0.2135  1.5934
 4187SOL     OW24193   2.340   1.409   9.443  0.3535 -0.2910  0.5015
 4187SOL    HW124194   2.428   1.389   9.474  1.2254  1.2507 -0.9851
 4187SOL    HW224195   2.353   1.494   9.401  2.3696 -0.1728  1.3539
 4188SOL     OW24196   1.230   3.087   7.224  0.5490  0.0826 -0.3216
 4188SOL    HW124197   1.279   3.140   7.287 -1.4209  1.0326  0.4425
 4188SOL    HW224198   1.253   3.131   7.142 -1.0161 -1.7619 -1.7596
 4189SOL     OW24199   0.658   3.771   0.567 -0.2531  0.2159  0.0181
 4189SOL    HW124200   0.627   3.783   0.657 -1.0901 -1.3706 -0.0646
 4189SOL    HW224201   0.589   3.710   0.541  0.8405 -0.5375 -1.1280
 4190SOL     OW24202   0.044   1.892   2.092 -0.3847 -0.3041  0.6949
 4190SOL    HW124203   0.133   1.887   2.057 -1.0290 -0.1517 -0.9508
 4190SOL    HW224204   0.061   1.925   2.180  0.1577 -0.0519  0.4923
 4191SOL     OW24205   4.172   0.348   9.579 -0.0847 -0.3251  0.2826
 4191SOL    HW124206   4.086   0.311   9.561 -0.7517  0.3119  2.1906
 4191SOL    HW224207   4.166   0.432   9.534 -0.6182 -0.4097  0.1915
 4192SOL     OW24208   2.616   2.029   2.023 -0.1223 -0.1456  0.6423
 4192SOL    HW124209   2.707   2.044   1.995  0.5615 -0.6761  2.5577
 4192SOL    HW224210   2.592   1.962   1.959 -1.1939  0.2129  0.6827
 4193SOL     OW24211   2.480   2.144   4.277  0.1184 -0.0475  0.0767
 4193SOL    HW124212   2.457   2.150   4.184 -0.9102  2.2164  0.4934
 4193SOL    HW224213   2.396   2.171   4.314  0.1890  1.1706 -0.6699
 4194SOL     OW24214   2.063   3.139   1.404 -0.2366  0.6563  0.5263
 4194SOL    HW124215   2.109   3.056   1.409 -0.3929  0.5521  0.2069
 4194SOL    HW224216   2.077   3.151   1.310 -2.0061  1.9483  0.4232
 4195SOL     OW24217   0.757   0.640  15.302 -0.1487  0.2848 -0.0710
 4195SOL    HW124218   0.681   0.671  15.253 -0.0089 -1.4393 -1.3425
 4195SOL    HW224219   0.830   0.660  15.244  1.9559  0.7861  2.7672
 4196SOL     OW24220   4.269   4.019  11.642  0.5292  0.5342 -0.1305
 4196SOL    HW124221   4.262   3.948  11.706 -2.6597  1.0466  0.0728
 4196SOL    HW224222   4.309   3.983  11.563  1.3230 -0.7499  0.8567
 4197SOL     OW24223   3.760   1.005  11.606  0.2889  0.7102 -0.1451
 4197SOL    HW124224   3.832   0.969  11.555 -0.3692 -1.3594  0.4042
 4197SOL    HW224225   3.804   1.080  11.645 -0.4197  0.4967  1.0732
 4198SOL     OW24226   0.655   1.664  14.567  0.3473 -0.2661  0.8629
 4198SOL    HW124227   0.653   1.627  14.479  0.3371 -0.3313  0.8907
 4198SOL    HW224228   0.748   1.685  14.575  0.4392 -0.6778  0.8590
 4199SOL     OW24229   0.867   2.820   0.038  0.3093  0.2131  0.1482
 4199SOL    HW124230   0.883   2.740   0.089 -0.0449 -0.2248 -0.4315
 4199SOL    HW224231   0.871   2.781  17.680  0.5905  0.3779  0.0869
 4200SOL     OW24232   3.459   0.392   7.143 -0.1267  0.1006  0.6738
 4200SOL    HW124233   3.464   0.484   7.169  0.4324 -0.1218  1.3445
 4200SOL    HW224234   3.471   0.407   7.050  2.2124 -2.7174  0.5143
 4201SOL     OW24235   3.858   4.387   4.783  0.6599 -0.3677 -1.0769
 4201SOL    HW124236   3.795   4.453   4.751 -0.8267 -0.1938  2.2641
 4201SOL    HW224237   3.898   4.362   4.699 -0.6301 -1.5337 -1.3464
 4202SOL     OW24238   3.010   3.205   4.203 -0.0564 -0.3854  0.2190
 4202SOL    HW124239   2.999   3.298   4.181 -1.0812 -0.7472 -0.7901
 4202SOL    HW224240   3.081   3.183   4.143  0.2964  1.2598  0.0358
 4203SOL     OW24241   1.407   2.723   4.541 -0.0188  0.4656 -0.2031
 4203SOL    HW124242   1.348   2.790   4.507  0.5918  0.4739 -1.2845
 4203SOL    HW224243   1.409   2.665   4.464 -1.8352 -1.4139  1.2014
 4204SOL     OW24244   0.339   2.534   7.642 -0.1100 -0.2213  0.8175
 4204SOL    HW124245   0.291   2.537   7.559 -0.6626  0.2455  1.1547
 4204SOL    HW224246   0.316   2.445   7.670  2.1914 -0.8917  0.5753
 4205SOL     OW24247   1.884   1.447   3.572  0.6605 -0.1355  0.3355
 4205SOL    HW124248   1.943   1.460   3.647 -0.1549 -0.2314  0.9986
 4205SOL    HW224249   1.870   1.352   3.577  2.0029 -0.3171  0.6320
 4206SOL     OW24250   0.350   2.417  12.227 -0.2023 -0.0469 -0.0911
 4206SOL    HW124251   0.286   2.393  12.294  0.8343  1.9949  1.6334
 4206SOL    HW224252   0.408   2.480  12.270 -0.5286  0.6012 -0.6138
 4207SOL     OW24253   1.876   2.836  11.351 -0.1519  0.1533  0.7245
 4207SOL    HW124254   1.849   2.790  11.271  0.0472  1.4111 -0.0702
 4207SOL    HW224255   1.791   2.866  11.382 -0.5886  0.2507 -0.5532
 4208SOL     OW24256   4.442   2.457   8.651 -0.3923  0.1700 -0.0026
 4208SOL    HW124257   4.498   2.527   8.682  0.1778 -0.8227  1.1853
 4208SOL    HW224258   4.437   2.394   8.723 -3.2822  0.3834 -0.0348
 4209SOL     OW24259   3.121   1.888   1.981 -0.1632  0.2837  0.0264
 4209SOL    HW124260   3.144   1.800   1.951 -0.9073 -0.2688  1.0475
 4209SOL    HW224261   3.204   1.934   1.992  0.1584 -0.6829  1.6916
 4210SOL     OW24262   1.042   2.794   9.595 -0.1441  0.6670  0.3926
 4210SOL    HW124263   0.973   2.814   9.659 -1.3976 -0.0630 -0.7263
 4210SOL    HW224264   1.126   2.805   9.640  0.0199  2.2200 -0.2848
 4211SOL     OW24265   0.830   2.206   6.075 -0.1724 -0.2617 -0.2177
 4211SOL    HW124266   0.901   2.255   6.034  0.5145 -1.3309 -0.3096
 4211SOL    HW224267   0.756   2.245   6.029  0.8487  2.0588  0.1265
 4212SOL     OW24268   0.958   2.443   2.736  0.1999  0.0997 -0.5950
 4212SOL    HW124269   0.976   2.532   2.764  0.2411 -0.0434 -0.1692
 4212SOL    HW224270   1.044   2.405   2.755 -1.6653 -4.9432 -2.1699
 4213SOL     OW24271   0.326   4.439   5.445 -0.2098 -0.0546 -0.1889
 4213SOL    HW124272   0.303   4.348   5.465 -0.3708 -0.2914 -1.4995
 4213SOL    HW224273   0.400   4.453   5.505  0.4063  0.1992 -1.0064
 4214SOL     OW24274   3.130   3.444   4.576 -0.1386  0.4830  0.3403
 4214SOL    HW124275   3.167   3.425   4.490 -0.6499  1.7121 -0.1648
 4214SOL    HW224276   3.199   3.499   4.612 -0.7002 -0.1639  2.3761
 4215SOL     OW24277   0.009   2.643   7.996 -0.0363  0.3713  0.3217
 4215SOL    HW124278   0.034   2.725   8.038 -2.9772  1.8518 -0.8672
 4215SOL    HW224279   4.652   2.657   7.966  0.0731  0.2298 -0.0788
 4216SOL     OW24280   1.939   2.631  12.534  0.5489 -0.2773 -0.4307
 4216SOL    HW124281   1.890   2.575  12.474  1.3302 -0.7593 -0.6253
 4216SOL    HW224282   1.989   2.681  12.470  1.3090  0.5723  0.8166
 4217SOL     OW24283   4.171   4.295  14.499  0.5221  0.0998  0.2649
 4217SOL    HW124284   4.236   4.252  14.442  0.7607  0.1984  0.4614
 4217SOL    HW224285   4.098   4.234  14.504  0.9184 -0.4983 -1.3606
 4218SOL     OW24286   2.115   1.737   7.756 -0.1840  0.4465 -0.0943
 4218SOL    HW124287   2.166   1.818   7.764 -0.8713  0.6671  1.9665
 4218SOL    HW224288   2.181   1.677   7.719 -0.1660  2.0053 -2.6019
 4219SOL     OW24289   2.662   0.274   7.335 -0.0361  0.6197  0.2939
 4219SOL    HW124290   2.584   0.262   7.389 -0.6118 -0.9424 -0.8884
 4219SOL    HW224291   2.734   0.241   7.388 -2.8286 -2.3589  2.2096
 4220SOL     OW24292   0.105   4.129   4.334  0.0391 -0.4980 -0.2401
 4220SOL    HW124293   0.083   4.045   4.376 -1.7083  0.9241  1.7075
 4220SOL    HW224294   0.019   4.147   4.296 -0.3339 -0.5470  0.5876
 4221SOL     OW24295   2.783   0.695   3.786 -0.0887  0.1004 -0.2149
 4221SOL    HW124296   2.858   0.726   3.836 -1.7793 -0.1726  2.4695
 4221SOL    HW224297   2.769   0.608   3.824 -1.1217 -0.0670 -0.9598
 4222SOL     OW24298   2.548   2.853   4.281  0.1680  0.0517  0.2096
 4222SOL    HW124299   2.500   2.787   4.330  0.3955 -0.1860  0.1152
 4222SOL    HW224300   2.551   2.923   4.347 -2.2069 -0.3493  0.7263
 4223SOL     OW24301   3.481   3.872   7.094 -0.7718 -0.0484  0.0337
 4223SOL    HW124302   3.488   3.909   7.182 -0.3077 -0.0121 -0.0184
 4223SOL    HW224303   3.416   3.927   7.050  0.9105 -0.0292 -2.4153
 4224SOL     OW24304   0.580   1.844   7.895  0.0132  0.2130  0.2591
 4224SOL    HW124305   0.510   1.880   7.840  1.4116  0.3172 -1.4562
 4224SOL    HW224306   0.524   1.792   7.952  2.3664 -0.0471  2.3386
 4225SOL     OW24307   2.446   3.539   7.214  0.0823  0.3802  0.4322
 4225SOL    HW124308   2.379   3.531   7.282  1.6837  2.5272  2.2924
 4225SOL    HW224309   2.390   3.580   7.148  0.4142 -0.1498 -0.1735
 4226SOL     OW24310   4.501   3.783   1.238  0.0520  0.1010 -0.3351
 4226SOL    HW124311   4.487   3.819   1.150 -2.7975 -0.4752 -0.1093
 4226SOL    HW224312   4.590   3.749   1.232 -0.2203 -0.8546  1.1063
 4227SOL     OW24313   3.077   0.362  11.994  0.5570  0.0114 -0.2457
 4227SOL    HW124314   3.167   0.330  11.983  0.6215 -1.2526  3.9819
 4227SOL    HW224315   3.047   0.313  12.070 -0.8265 -2.3859 -2.3221
 4228SOL     OW24316   0.083   3.598   8.732  0.0246 -0.5854  0.4465
 4228SOL    HW124317   4.720   3.600   8.737  0.0405  2.3829 -0.3350
 4228SOL    HW224318   0.112   3.586   8.822  0.8551 -0.5860  0.1779
 4229SOL     OW24319   0.542   3.349   8.843  0.4806  0.5093 -0.9211
 4229SOL    HW124320   0.476   3.329   8.910 -0.2275  0.0831 -1.7392
 4229SOL    HW224321   0.495   3.406   8.783 -1.5770  0.3635  0.5524
 4230SOL     OW24322   4.052   2.959  14.718  0.0262  0.2058 -0.1703
 4230SOL    HW124323   3.994   3.025  14.680  0.6732 -0.1480 -1.7861
 4230SOL    HW224324   4.081   3.002  14.798 -1.3398 -1.6337  1.2900
 4231SOL     OW24325   4.608   1.108   3.644  0.0052  0.2685  0.2685
 4231SOL    HW124326   4.652   1.086   3.726  1.1619 -2.8539 -1.2054
 4231SOL    HW224327   4.520   1.072   3.655 -0.2278 -0.1134 -3.0760
 4232SOL     OW24328   2.904   2.188  12.674  0.0345  0.1057  0.3719
 4232SOL    HW124329   2.831   2.128  12.657 -0.2941  0.6141 -0.0227
 4232SOL    HW224330   2.888   2.207  12.766 -0.6571 -0.0511  0.2876
 4233SOL     OW24331   1.440   1.924   7.423  0.5537  0.0818  0.2318
 4233SOL    HW124332   1.411   2.009   7.389 -2.1365 -1.3504 -1.0658
 4233SOL    HW224333   1.368   1.907   7.483 -0.3162 -0.3069 -0.9267
 4234SOL     OW24334   0.763   1.802  12.248 -0.2816  0.3616 -0.5325
 4234SOL    HW124335   0.819   1.873  12.280 -1.2036  1.1737 -0.7222
 4234SOL    HW224336   0.806   1.767  12.170  0.7370  0.1730  0.1103
 4235SOL     OW24337   3.232   2.056   2.314  0.1957  0.0888  0.0257
 4235SOL    HW124338   3.241   2.064   2.409 -0.4896  2.4251 -0.0880
 4235SOL    HW224339   3.233   1.961   2.304  2.3248  0.0480  0.4790
 4236SOL     OW24340   0.074   2.451   4.137  0.0165 -0.0357 -0.3470
 4236SOL    HW124341   0.002   2.392   4.159 -0.6175  0.2464 -1.6315
 4236SOL    HW224342   0.035   2.478   4.054 -1.3278 -0.1099  0.2634
 4237SOL     OW24343   2.302   1.837   6.999 -0.0730 -0.1603 -0.6987
 4237SOL    HW124344   2.281   1.798   6.913 -2.3569 -0.2816 -0.0955
 4237SOL    HW224345   2.216   1.850   7.038  1.1134 -0.3841  1.9708
 4238SOL     OW24346   2.252   1.488  14.612  0.0558  0.0088  0.2114
 4238SOL    HW124347   2.308   1.564  14.601 -1.7724  1.1837 -0.9733
 4238SOL    HW224348   2.163   1.524  14.608  1.7254  3.8571 -1.2757
 4239SOL     OW24349   0.473   3.998   4.054 -0.6954  0.4890 -0.6932
 4239SOL    HW124350   0.417   3.923   4.074 -3.2450  2.7324  0.5462
 4239SOL    HW224351   0.509   4.029   4.137 -1.2016 -0.9736  0.0747
 4240SOL     OW24352   4.246   0.813  16.954  0.3102 -0.3862  0.0213
 4240SOL    HW124353   4.306   0.740  16.971  2.5394  0.9670 -1.9577
 4240SOL    HW224354   4.247   0.827  16.859 -0.9810 -0.0500  0.0586
 4241SOL     OW24355   2.296   1.237   3.052 -0.1802  0.3485 -0.0947
 4241SOL    HW124356   2.359   1.306   3.031 -0.3407  1.2787  2.4578
 4241SOL    HW224357   2.289   1.193   2.968  3.3173  1.8577 -1.1995
 4242SOL     OW24358   2.776   3.654  12.225  0.3903  0.0581 -0.0222
 4242SOL    HW124359   2.791   3.748  12.232  1.1587  0.1442 -2.8875
 4242SOL    HW224360   2.840   3.621  12.162 -0.4416  0.4803 -1.0858
 4243SOL     OW24361   4.139   1.386   6.250  0.6475 -0.0199  0.2706
 4243SOL    HW124362   4.169   1.383   6.341 -1.5280 -2.5893  0.9161
 4243SOL    HW224363   4.051   1.355   6.272 -0.2663  1.1008 -1.7414
 4244SOL     OW24364   0.115   0.268   7.920  0.6112 -0.1610  0.6495
 4244SOL    HW124365   0.134   0.281   7.827  0.7679  0.7016  0.8029
 4244SOL    HW224366   0.107   0.173   7.922 -0.4337 -0.1185 -1.3028
 4245SOL     OW24367   3.530   1.590   4.317 -0.5652 -0.6558 -0.4220
 4245SOL    HW124368   3.445   1.625   4.342 -0.2358  0.2134 -0.5131
 4245SOL    HW224369   3.508   1.497   4.319  0.2362 -0.7799  2.7920
 4246SOL     OW24370   3.488   2.004   7.767 -0.0242 -0.3544 -0.1770
 4246SOL    HW124371   3.534   1.926   7.800  1.5179  1.9518  3.0743
 4246SOL    HW224372   3.480   2.059   7.845  1.2657  0.3399 -0.5403
 4247SOL     OW24373   3.787   2.815   5.893 -0.2734  0.1993 -0.2289
 4247SOL    HW124374   3.795   2.827   5.988  0.3516 -0.5826 -0.1792
 4247SOL    HW224375   3.865   2.761   5.881  0.4145  1.5522 -1.8902
 4248SOL     OW24376   3.759   0.670   4.673  0.0401 -0.0519  0.3330
 4248SOL    HW124377   3.849   0.655   4.702 -0.0553 -2.0777 -0.4124
 4248SOL    HW224378   3.725   0.580   4.670  1.3595 -0.5224 -0.6953
 4249SOL     OW24379   1.946   1.313  15.528  0.0921 -0.3477  0.4502
 4249SOL    HW124380   1.965   1.405  15.550  1.3534 -0.5919  0.3866
 4249SOL    HW224381   1.853   1.322  15.509  0.4801  0.8785 -0.8086
 4250SOL     OW24382   3.333   2.921   8.489 -0.4831  0.4024 -0.4968
 4250SOL    HW124383   3.347   3.016   8.489  0.6624  0.2466 -1.7766
 4250SOL    HW224384   3.385   2.893   8.565  1.7617 -0.0862 -2.1984
 4251SOL     OW24385   3.210   3.665   3.668 -0.1387 -0.4702 -0.2171
 4251SOL    HW124386   3.179   3.578   3.642 -1.7393 -0.1217  0.5301
 4251SOL    HW224387   3.282   3.679   3.606 -0.0235  0.4139  0.1111
 4252SOL     OW24388   1.269   4.688  15.090 -0.1805  0.0928 -0.3443
 4252SOL    HW124389   1.252   4.609  15.039  1.1218 -1.7392  2.0410
 4252SOL    HW224390   1.363   4.705  15.077 -0.3833  1.2833 -0.2533
 4253SOL     OW24391   0.564   4.086  12.922 -0.2064 -0.1673 -0.9969
 4253SOL    HW124392   0.631   4.149  12.895  0.3254 -0.2533  0.1404
 4253SOL    HW224393   0.486   4.109  12.871 -2.4955 -3.4502  1.0103
 4254SOL     OW24394   0.722   0.418  14.023 -0.2802  0.2310  0.0389
 4254SOL    HW124395   0.678   0.481  14.081  0.0615 -1.3002  1.9830
 4254SOL    HW224396   0.684   0.441  13.939 -0.9214 -0.3660  0.1630
 4255SOL     OW24397   1.361   3.458  17.690 -0.1022  0.2170 -0.3000
 4255SOL    HW124398   1.337   3.366  17.696 -0.2985  0.2290 -0.9294
 4255SOL    HW224399   1.438   3.465   0.018 -1.9154 -1.0533  2.2983
 4256SOL     OW24400   3.367   0.417   6.213 -0.3533  0.3431 -0.3173
 4256SOL    HW124401   3.379   0.497   6.265  0.4853 -0.5945  0.9537
 4256SOL    HW224402   3.420   0.363   6.272  0.7561 -0.1748 -1.7768
 4257SOL     OW24403   0.106   2.843   0.614  0.5747  0.1689 -0.2377
 4257SOL    HW124404   0.137   2.931   0.637 -0.3922  0.4200  0.0873
 4257SOL    HW224405   0.074   2.861   0.526 -0.4374 -0.4775 -0.0041
 4258SOL     OW24406   1.046   0.395   4.099  0.0875 -0.5904  0.1291
 4258SOL    HW124407   1.002   0.459   4.043  2.9504 -0.1268 -1.6243
 4258SOL    HW224408   1.136   0.429   4.102 -1.1165  2.6262 -0.3356
 4259SOL     OW24409   0.180   3.226  14.890  0.3718 -0.5914 -0.0190
 4259SOL    HW124410   0.143   3.139  14.876 -0.0681 -0.3553 -0.3416
 4259SOL    HW224411   0.265   3.186  14.906  0.8441  1.2662  2.2146
 4260SOL     OW24412   0.670   2.864  14.511  0.2061 -0.0410  0.4652
 4260SOL    HW124413   0.591   2.830  14.469  0.9382  0.4168 -1.2901
 4260SOL    HW224414   0.743   2.806  14.490 -0.0741 -0.1272 -0.2969
 4261SOL     OW24415   0.084   4.162   4.763 -0.3039  0.5641  0.2455
 4261SOL    HW124416   4.728   4.164   4.726 -0.6334  1.7869  1.1166
 4261SOL    HW224417   0.072   4.149   4.857 -0.4769 -0.2254  0.1083
 4262SOL     OW24418   0.623   1.559   5.394  0.0220 -0.4240 -0.0479
 4262SOL    HW124419   0.641   1.466   5.381  0.2595 -0.8382  3.1171
 4262SOL    HW224420   0.711   1.594   5.379 -0.1007 -0.4447 -0.7823
 4263SOL     OW24421   3.387   1.507   3.746  0.1767  0.0302 -0.4104
 4263SOL    HW124422   3.470   1.479   3.709  0.6990 -0.8485  1.4094
 4263SOL    HW224423   3.341   1.539   3.669 -0.0522  0.5799 -0.0489
 4264SOL     OW24424   1.190   2.261   5.206 -0.1915 -0.8521 -0.3196
 4264SOL    HW124425   1.120   2.311   5.163 -1.1304 -1.8849  0.0102
 4264SOL    HW224426   1.171   2.290   5.295 -0.9049  0.6024 -0.9273
 4265SOL     OW24427   0.730   1.326   5.843  0.2807  0.8010 -0.0348
 4265SOL    HW124428   0.728   1.350   5.751 -0.2324 -0.7792 -0.4337
 4265SOL    HW224429   0.727   1.231   5.833 -1.6271  1.1379 -2.7305
 4266SOL     OW24430   3.307   2.880   8.959 -0.1008  0.0550 -0.0347
 4266SOL    HW124431   3.223   2.838   8.978 -2.0386  2.4801 -3.3001
 4266SOL    HW224432   3.334   2.911   9.046 -1.6256  0.3603  0.3428
 4267SOL     OW24433   1.096   2.493   2.240 -0.3242  0.3179  0.3231
 4267SOL    HW124434   1.027   2.475   2.177 -0.0357 -1.5445  0.5561
 4267SOL    HW224435   1.052   2.534   2.315 -1.8377  0.7408 -0.8050
 4268SOL     OW24436   3.955   3.828   5.781 -0.2487  0.2557 -0.5084
 4268SOL    HW124437   3.926   3.909   5.823 -2.5895 -0.8280 -0.0642
 4268SOL    HW224438   3.989   3.857   5.696  0.2828  3.5951  0.8407
 4269SOL     OW24439   0.241   0.048   6.915  0.6321 -0.1562 -0.3573
 4269SOL    HW124440   0.332   0.027   6.891  0.0247 -2.3483 -0.8092
 4269SOL    HW224441   0.257   0.053   7.009  0.4039 -1.6532 -0.2306
 4270SOL     OW24442   4.469   3.753   6.698 -0.0151 -0.1756 -0.4851
 4270SOL    HW124443   4.423   3.833   6.722 -1.1371 -0.5941 -1.2688
 4270SOL    HW224444   4.403   3.686   6.717  1.3985 -1.7369 -1.0149
 4271SOL     OW24445   0.409   4.140  13.425  0.2821  0.1706  0.1955
 4271SOL    HW124446   0.503   4.129  13.433  0.1072 -1.4329 -0.1189
 4271SOL    HW224447   0.379   4.050  13.415  0.0009  0.2410  0.4050
 4272SOL     OW24448   0.798   2.592  14.820 -0.4558 -0.1881 -0.5640
 4272SOL    HW124449   0.703   2.601  14.831 -0.4067  1.2393 -1.2540
 4272SOL    HW224450   0.806   2.617  14.728 -0.9765  0.1214 -0.5276
 4273SOL     OW24451   2.228   0.850   4.869  0.2608 -0.3432  0.2271
 4273SOL    HW124452   2.249   0.930   4.820 -0.1343 -0.5393 -0.2610
 4273SOL    HW224453   2.185   0.801   4.799  0.1531 -1.7818  1.3042
 4274SOL     OW24454   1.302   3.636   9.564  0.3017  0.1940  0.2431
 4274SOL    HW124455   1.386   3.592   9.545 -0.7489 -0.9950 -1.6206
 4274SOL    HW224456   1.237   3.572   9.537 -1.4260  1.5835  1.1543
 4275SOL     OW24457   2.781   2.730   3.165 -0.1401  0.5686 -0.0682
 4275SOL    HW124458   2.741   2.814   3.142  0.2084  1.2179  1.6903
 4275SOL    HW224459   2.820   2.711   3.080  2.1519 -0.1992  1.1549
 4276SOL     OW24460   3.325   3.961   3.353 -0.3969 -0.4519 -0.2550
 4276SOL    HW124461   3.338   3.927   3.264 -1.1034  1.3743 -1.0577
 4276SOL    HW224462   3.244   4.009   3.337  0.2987  0.5973 -0.6050
 4277SOL     OW24463   0.599   2.041  15.485 -0.1213  0.4243 -0.4401
 4277SOL    HW124464   0.569   2.086  15.406  0.7063  2.7137  0.5438
 4277SOL    HW224465   0.552   1.958  15.476 -0.0016  0.2777  0.2963
 4278SOL     OW24466   0.390   3.346  10.986 -0.1030  0.8035 -1.0179
 4278SOL    HW124467   0.485   3.347  10.989 -0.1198  0.6300 -0.3457
 4278SOL    HW224468   0.366   3.402  11.060 -1.4649 -1.9710  0.6559
 4279SOL     OW24469   1.853   0.455   3.010 -0.2054 -0.2776 -0.3326
 4279SOL    HW124470   1.946   0.448   3.033 -0.5441  2.1184  1.7417
 4279SOL    HW224471   1.831   0.530   3.066  0.1103  0.7926 -1.6237
 4280SOL     OW24472   4.386   2.242   6.600  0.1642 -0.0846  0.2274
 4280SOL    HW124473   4.375   2.217   6.692 -0.9086 -1.3782 -0.2606
 4280SOL    HW224474   4.292   2.240   6.584 -0.0729  0.8238  1.4985
 4281SOL     OW24475   1.516   4.026   8.295  0.2683  0.2279  0.1044
 4281SOL    HW124476   1.513   4.062   8.207 -0.3514 -0.7148 -0.2588
 4281SOL    HW224477   1.611   4.012   8.300 -0.0211 -1.7565 -0.0959
 4282SOL     OW24478   4.072   4.177   1.118  0.3368 -0.3356  0.3278
 4282SOL    HW124479   4.162   4.178   1.087 -0.7185  0.7124 -2.6566
 4282SOL    HW224480   4.022   4.188   1.038 -0.7064 -2.5312  0.6696
 4283SOL     OW24481   2.692   1.546   8.256  0.2929  0.1734 -0.2301
 4283SOL    HW124482   2.623   1.599   8.296 -1.6196 -2.9575  0.5405
 4283SOL    HW224483   2.751   1.613   8.221  0.2305  1.0446  1.3199
 4284SOL     OW24484   3.417   1.079   9.384  0.0622 -0.3409 -0.0911
 4284SOL    HW124485   3.351   1.024   9.427 -0.7604  1.0533  0.4357
 4284SOL    HW224486   3.353   1.149   9.369  0.3606  0.1192  0.7769
 4285SOL     OW24487   3.987   4.456   7.837 -0.1798 -0.0404  0.2810
 4285SOL    HW124488   3.896   4.445   7.808  0.2325 -0.3489 -0.9147
 4285SOL    HW224489   3.973   4.434   7.929 -1.3367 -1.1358 -0.1556
 4286SOL     OW24490   3.775   4.173   7.797 -0.3171 -0.5470 -0.3769
 4286SOL    HW124491   3.715   4.240   7.832 -0.2991 -0.1478 -1.1230
 4286SOL    HW224492   3.731   4.132   7.723 -1.9052 -0.6768  0.6241
 4287SOL     OW24493   4.306   0.635   5.370 -0.4888  0.2360 -0.4498
 4287SOL    HW124494   4.273   0.546   5.361  1.7844 -0.9077  2.6678
 4287SOL    HW224495   4.389   0.636   5.324  0.3015  3.9836  1.0086
 4288SOL     OW24496   4.069   3.894  16.015  0.0503 -0.3333 -0.0943
 4288SOL    HW124497   4.122   3.971  16.033 -1.3204  0.2964  1.1458
 4288SOL    HW224498   4.004   3.916  15.949 -1.4458  2.0703  2.2060
 4289SOL     OW24499   1.561   2.035   2.222 -0.0077 -0.1234  0.1894
 4289SOL    HW124500   1.556   1.973   2.295 -1.2298 -0.1212  0.1098
 4289SOL    HW224501   1.641   2.002   2.181 -1.8493 -3.2162 -0.9674
 4290SOL     OW24502   0.220   0.825   4.240 -0.2066 -0.4046 -0.5230
 4290SOL    HW124503   0.208   0.865   4.154  1.7978  0.5811 -0.3322
 4290SOL    HW224504   0.210   0.887   4.312 -1.5680  1.6646 -2.5132
 4291SOL     OW24505   1.438   3.476   8.604 -0.3053 -0.1253 -0.7002
 4291SOL    HW124506   1.489   3.550   8.637  0.0260  0.2161 -1.9733
 4291SOL    HW224507   1.508   3.424   8.562 -1.4677 -0.4128 -2.2877
 4292SOL     OW24508   2.157   0.458   4.119  0.3244 -0.3700  0.3768
 4292SOL    HW124509   2.121   0.375   4.152  0.2579 -1.3028 -2.0400
 4292SOL    HW224510   2.080   0.498   4.079 -0.1736 -1.7652 -0.0547
 4293SOL     OW24511   3.771   0.940   8.630  0.3789  0.2548  0.6468
 4293SOL    HW124512   3.763   0.915   8.538 -1.9508 -0.1502  0.9746
 4293SOL    HW224513   3.750   1.033   8.621  0.7671  0.1598 -1.3889
 4294SOL     OW24514   1.345   4.557  13.869  0.1710  0.8767  0.4965
 4294SOL    HW124515   1.314   4.630  13.816  0.1180  0.1321 -0.5050
 4294SOL    HW224516   1.304   4.482  13.826  1.2626  0.4510  0.1912
 4295SOL     OW24517   2.381   1.730  14.615 -0.4901 -0.7087 -0.2334
 4295SOL    HW124518   2.476   1.723  14.600 -0.3640 -1.0329  0.6786
 4295SOL    HW224519   2.354   1.778  14.537  2.6936  1.6061  0.0624
 4296SOL     OW24520   2.381   2.364   3.072 -0.0060  0.2034  0.0135
 4296SOL    HW124521   2.466   2.399   3.048 -0.7171  2.1445  0.2996
 4296SOL    HW224522   2.403   2.278   3.108 -0.0081  0.1302 -0.1627
 4297SOL     OW24523   2.820   4.449   3.430  0.1939  0.1271  0.0519
 4297SOL    HW124524   2.799   4.355   3.436  4.3238 -0.7965 -0.1197
 4297SOL    HW224525   2.738   4.484   3.467  0.3192  1.2600 -0.7572
 4298SOL     OW24526   2.368   1.369   6.216 -0.3539 -0.3957 -0.3021
 4298SOL    HW124527   2.355   1.280   6.248 -1.3680 -0.9354 -2.2129
 4298SOL    HW224528   2.278   1.401   6.207  0.2056  1.5687  1.0278
 4299SOL     OW24529   1.171   4.112  15.972 -0.0261  0.1639  0.0943
 4299SOL    HW124530   1.084   4.098  15.934  0.4178  0.2750 -0.9759
 4299SOL    HW224531   1.136   4.165  16.043 -0.7532 -3.5772  2.4880
 4300SOL     OW24532   0.872   1.883   4.190 -0.6236  0.6012  0.4421
 4300SOL    HW124533   0.891   1.843   4.275 -1.1290  0.3118  0.4194
 4300SOL    HW224534   0.916   1.825   4.128  1.2362 -0.4072  2.7005
 4301SOL     OW24535   3.190   1.172  10.341  0.2869 -0.9161  0.0507
 4301SOL    HW124536   3.284   1.175  10.356  0.7007  0.3153 -2.9111
 4301SOL    HW224537   3.183   1.109  10.270  2.4502 -0.7474 -0.2914
 4302SOL     OW24538   2.335   0.880   8.752 -0.4402 -0.0373 -0.0150
 4302SOL    HW124539   2.358   0.860   8.842 -2.4689 -1.0051  0.2872
 4302SOL    HW224540   2.407   0.831   8.714  0.5492  1.9615 -0.7311
 4303SOL     OW24541   4.006   0.885   0.821  0.2174  0.2246  0.3474
 4303SOL    HW124542   3.914   0.887   0.796  0.2033 -0.1063  0.3748
 4303SOL    HW224543   4.006   0.979   0.837 -0.9425  0.6483 -2.1333
 4304SOL     OW24544   4.697   0.292   4.815  0.2794 -0.0166  0.5413
 4304SOL    HW124545   4.637   0.280   4.889 -3.5688  1.0322 -2.4194
 4304SOL    HW224546   4.683   0.212   4.763 -2.5813  0.6473  0.2839
 4305SOL     OW24547   2.160   4.104   8.636  0.2796 -0.2779 -0.3593
 4305SOL    HW124548   2.073   4.142   8.648  0.5941  1.0499 -2.2215
 4305SOL    HW224549   2.136   4.030   8.580 -0.8687 -2.0515  2.5063
 4306SOL     OW24550   4.043   4.632   8.063 -0.0198  0.2570 -0.2212
 4306SOL    HW124551   3.977   4.658   7.999  1.3139  0.3516 -1.5749
 4306SOL    HW224552   4.086   4.715   8.085  0.9136 -0.6666  1.4425
 4307SOL     OW24553   1.423   1.273   4.039  0.1719 -0.7486 -0.0375
 4307SOL    HW124554   1.509   1.312   4.024  0.0179 -0.3728  0.0608
 4307SOL    HW224555   1.388   1.278   3.950 -0.6978  0.7883  0.3824
 4308SOL     OW24556   2.295   3.751  16.404  0.0663  0.1848 -0.2930
 4308SOL    HW124557   2.277   3.663  16.371 -0.2778  0.0436  0.2773
 4308SOL    HW224558   2.340   3.726  16.485 -1.8669 -0.5840  0.5501
 4309SOL     OW24559   2.347   0.672   5.300 -0.1536 -0.2602  0.0539
 4309SOL    HW124560   2.382   0.595   5.255 -0.4762  1.0504 -2.4737
 4309SOL    HW224561   2.348   0.642   5.391 -0.0811 -2.9166 -0.8437
 4310SOL     OW24562   1.016   2.142   9.553 -0.4821 -0.4041  0.4134
 4310SOL    HW124563   1.109   2.147   9.532  0.0042 -1.1999  2.3630
 4310SOL    HW224564   1.015   2.119   9.646  0.7259  0.1825  0.5779
 4311SOL     OW24565   0.593   3.695   1.093  0.1228 -0.2273  0.1813
 4311SOL    HW124566   0.580   3.758   1.164  3.1249  0.4047  0.1508
 4311SOL    HW224567   0.682   3.711   1.064 -0.4318  1.2734 -0.6759
 4312SOL     OW24568   0.583   0.634   7.240  0.0484  0.4116  0.0929
 4312SOL    HW124569   0.639   0.618   7.164  0.5111 -0.6449  0.6493
 4312SOL    HW224570   0.502   0.594   7.207 -0.5024  1.9166 -0.3891
 4313SOL     OW24571   4.567   2.179   4.801  0.1579  0.1974 -0.6608
 4313SOL    HW124572   4.658   2.169   4.773  0.4874 -1.3843  0.9354
 4313SOL    HW224573   4.582   2.254   4.858  0.0099  0.1311 -0.5356
 4314SOL     OW24574   2.121   3.154  16.068  0.5065 -0.0552 -0.1897
 4314SOL    HW124575   2.199   3.142  16.121  0.0266 -2.0190  0.0759
 4314SOL    HW224576   2.099   3.066  16.039  0.9169  0.1035 -0.9775
 4315SOL     OW24577   3.849   2.982   5.266  0.5112 -0.2945 -0.4073
 4315SOL    HW124578   3.836   2.931   5.346  0.6979  0.2570 -0.0312
 4315SOL    HW224579   3.766   2.988   5.219  0.3675  0.9798  0.0265
 4316SOL     OW24580   0.721   4.386   2.109 -0.5212  0.6727  0.0027
 4316SOL    HW124581   0.681   4.325   2.172  1.5288 -0.1068  0.5419
 4316SOL    HW224582   0.722   4.339   2.026  3.1032  0.1023  0.3722
 4317SOL     OW24583   3.271   0.174   8.419  0.2605  0.2598 -0.1043
 4317SOL    HW124584   3.183   0.203   8.396 -0.2006  0.4902  1.9659
 4317SOL    HW224585   3.301   0.263   8.438  0.9556 -0.2163  1.0053
 4318SOL     OW24586   3.083   2.603   7.421 -0.1465  0.1569 -0.0912
 4318SOL    HW124587   3.103   2.652   7.501  0.1826 -1.1396  0.6287
 4318SOL    HW224588   3.064   2.667   7.353  0.3545  0.2804 -0.1154
 4319SOL     OW24589   0.929   2.330   5.145 -0.6443 -0.0285 -0.1218
 4319SOL    HW124590   0.936   2.426   5.139 -0.1129 -0.1640 -1.7304
 4319SOL    HW224591   0.841   2.315   5.111 -0.4716 -1.1502 -0.0713
 4320SOL     OW24592   3.821   1.729   4.895  0.4607  0.0709  0.8111
 4320SOL    HW124593   3.743   1.675   4.911 -1.8072  3.1050  0.0131
 4320SOL    HW224594   3.771   1.807   4.873 -2.5721 -2.7347 -2.2790
 4321SOL     OW24595   3.783   4.580  12.701  0.3703  0.3959  0.4811
 4321SOL    HW124596   3.721   4.622  12.640  2.6627  0.6737 -1.6443
 4321SOL    HW224597   3.834   4.656  12.727  0.8793 -0.1468  1.0506
 4322SOL     OW24598   3.284   4.027   6.967 -0.3887  0.7127  0.1752
 4322SOL    HW124599   3.197   3.992   6.949  0.4012 -0.0682 -2.1155
 4322SOL    HW224600   3.263   4.107   7.016 -0.5370  0.9250 -0.2377
 4323SOL     OW24601   2.902   4.717   5.705  0.4409  0.1880 -0.0098
 4323SOL    HW124602   2.997   4.707   5.703  0.3733 -0.4868  0.1556
 4323SOL    HW224603   2.860   4.632   5.693  1.0053 -0.5093  3.0744
 4324SOL     OW24604   1.219   1.468  15.230 -0.5476  0.7317 -0.5398
 4324SOL    HW124605   1.223   1.451  15.136  1.1667 -0.3659 -0.2612
 4324SOL    HW224606   1.126   1.452  15.248 -0.4927  2.0802  0.8889
 4325SOL     OW24607   1.031   1.236   4.898 -0.1998  0.9127  0.0862
 4325SOL    HW124608   0.966   1.305   4.886 -1.4848 -0.8602 -2.9519
 4325SOL    HW224609   0.995   1.156   4.859  1.6364 -0.5109  1.2723
 4326SOL     OW24610   2.209   2.458  10.618  0.1991 -0.6271  0.0434
 4326SOL    HW124611   2.220   2.544  10.577 -1.2494 -1.0747 -1.2825
 4326SOL    HW224612   2.207   2.400  10.542 -0.4555 -1.6037  0.8284
 4327SOL     OW24613   2.981   1.409   6.364 -0.1282  0.2573 -0.1126
 4327SOL    HW124614   3.028   1.387   6.283  0.1184  0.5256 -0.0420
 4327SOL    HW224615   3.019   1.495   6.378  2.7243 -0.8890 -0.8475
 4328SOL     OW24616   1.261   2.880   9.743  0.6109 -0.0430  0.4121
 4328SOL    HW124617   1.326   2.810   9.746  0.5670  0.0180  2.7350
 4328SOL    HW224618   1.222   2.886   9.831  1.0033 -0.5045  0.6126
 4329SOL     OW24619   3.141   1.208  12.870 -0.0574 -0.2513 -0.3248
 4329SOL    HW124620   3.085   1.252  12.806  0.0196 -0.2292 -0.3766
 4329SOL    HW224621   3.216   1.259  12.840  0.5334 -0.2303  1.1820
 4330SOL     OW24622   4.227   2.184   4.722 -0.1675 -0.1363  0.1495
 4330SOL    HW124623   4.231   2.187   4.626 -1.3488  0.2741  0.1074
 4330SOL    HW224624   4.295   2.250   4.733 -0.5068  0.6077 -2.3109
 4331SOL     OW24625   1.202   3.734   6.391  0.5717  0.2402  0.1808
 4331SOL    HW124626   1.115   3.765   6.365  0.6864 -0.5625 -1.1647
 4331SOL    HW224627   1.258   3.812   6.390  0.6587  0.1944  2.5683
 4332SOL     OW24628   1.243   4.014   3.151  0.1222 -0.3357  0.7208
 4332SOL    HW124629   1.163   3.962   3.155 -0.4992  0.5952  0.4025
 4332SOL    HW224630   1.261   4.019   3.245  0.5785  2.1547  0.5106
 4333SOL     OW24631   0.333   1.865  17.316 -0.3570  0.0591  0.2562
 4333SOL    HW124632   0.269   1.803  17.281  0.7443 -0.2191 -1.2669
 4333SOL    HW224633   0.279   1.931  17.359 -0.2828  1.1548 -1.3464
 4334SOL     OW24634   1.342   3.423   4.675 -0.3580  0.6339 -0.0858
 4334SOL    HW124635   1.281   3.360   4.635 -0.0390 -0.8874  1.8311
 4334SOL    HW224636   1.395   3.452   4.601 -0.4433 -2.3865 -1.3221
 4335SOL     OW24637   1.276   2.350  10.072  0.4183 -0.5232 -0.0800
 4335SOL    HW124638   1.217   2.276  10.058 -1.3224  1.2948 -2.2916
 4335SOL    HW224639   1.226   2.401  10.136 -1.0993 -1.2260 -0.7142
 4336SOL     OW24640   1.557   1.977   6.866 -0.0573  0.3584 -0.7095
 4336SOL    HW124641   1.483   2.036   6.877  0.5033  1.0818 -0.7783
 4336SOL    HW224642   1.608   2.030   6.805  0.2253  0.5076 -0.3443
 4337SOL     OW24643   0.184   3.607   3.984 -0.3044 -0.6444 -0.3762
 4337SOL    HW124644   0.263   3.651   4.015 -1.0193  1.6669 -1.7857
 4337SOL    HW224645   0.200   3.517   4.011  0.8637 -0.4522 -0.4485
 4338SOL     OW24646   3.651   3.773   4.391 -1.0191 -0.3622  0.3683
 4338SOL    HW124647   3.595   3.838   4.433  1.0092  0.1435  2.3292
 4338SOL    HW224648   3.650   3.797   4.299 -1.9944  1.0068  0.7417
 4339SOL     OW24649   3.788   0.874   7.467 -0.6760  0.2783 -0.6336
 4339SOL    HW124650   3.756   0.830   7.389  1.2569 -1.4317 -0.4873
 4339SOL    HW224651   3.875   0.907   7.443 -0.6391 -0.0785 -0.9862
 4340SOL     OW24652   3.678   4.227   4.340 -0.0978 -0.0693  0.6675
 4340SOL    HW124653   3.667   4.316   4.373 -1.3646  0.8115 -2.0363
 4340SOL    HW224654   3.687   4.243   4.246  1.8076  0.8976  1.0189
 4341SOL     OW24655   2.297   1.788   6.377  0.3810 -0.1312  0.7542
 4341SOL    HW124656   2.265   1.870   6.414  1.0719  0.6627 -0.3999
 4341SOL    HW224657   2.251   1.795   6.294  2.1527 -1.6467 -0.3707
 4342SOL     OW24658   4.711   0.381   1.546 -0.5182  0.0048 -0.2124
 4342SOL    HW124659   0.053   0.436   1.520  0.5187 -0.3399  2.0063
 4342SOL    HW224660   0.020   0.298   1.521  1.8486 -0.0176  3.7989
 4343SOL     OW24661   0.587   0.322   7.204  0.3169 -0.4453 -0.1077
 4343SOL    HW124662   0.665   0.342   7.256 -0.8216 -0.5206  1.5835
 4343SOL    HW224663   0.639   0.278   7.137 -0.1275  1.1546 -1.5189
 4344SOL     OW24664   3.951   1.708   5.522  0.2654 -0.5609 -0.1024
 4344SOL    HW124665   3.943   1.761   5.443  1.9189 -2.1301 -1.3317
 4344SOL    HW224666   3.885   1.640   5.514  0.9899 -1.1476 -1.1329
 4345SOL     OW24667   4.045   0.322  12.502 -0.5780 -0.0717  0.1030
 4345SOL    HW124668   4.097   0.276  12.436 -0.3955 -0.1857  0.3268
 4345SOL    HW224669   4.109   0.361  12.561 -0.3862 -1.5015  0.8328
 4346SOL     OW24670   3.186   0.438   9.415 -0.3772  0.2239  0.4509
 4346SOL    HW124671   3.100   0.476   9.399 -0.7579 -1.2490 -0.9549
 4346SOL    HW224672   3.241   0.513   9.392 -1.0346  0.0015 -1.8360
 4347SOL     OW24673   4.299   1.371  11.206 -0.5056 -0.2406  0.1047
 4347SOL    HW124674   4.302   1.315  11.129  0.4318 -1.0222  0.7213
 4347SOL    HW224675   4.393   1.380  11.221 -0.4247 -1.1099  0.0990
 4348SOL     OW24676   2.440   3.882   8.480 -0.4077  0.4217 -0.0893
 4348SOL    HW124677   2.512   3.900   8.419 -0.3235  0.2285 -0.0463
 4348SOL    HW224678   2.397   3.967   8.481 -1.3902 -0.0687 -0.0253
 4349SOL     OW24679   0.555   2.973   7.022 -0.3268  0.0508 -0.2273
 4349SOL    HW124680   0.603   3.048   7.059 -0.6080 -0.3971  1.0525
 4349SOL    HW224681   0.474   3.010   6.987 -0.2526  0.1650 -0.2789
 4350SOL     OW24682   1.534   2.329   8.063  0.0771 -0.0607  0.1807
 4350SOL    HW124683   1.517   2.344   8.156  1.3864 -1.0162  0.5843
 4350SOL    HW224684   1.502   2.239   8.059  0.4906 -0.3043  2.3862
 4351SOL     OW24685   0.250   2.969   5.444 -0.2737 -0.4806 -0.2112
 4351SOL    HW124686   0.275   2.977   5.536  2.1949  1.4554 -1.0201
 4351SOL    HW224687   0.295   2.888   5.419 -1.7301 -1.0621 -0.9461
 4352SOL     OW24688   2.141   1.627   5.334 -0.1990  0.4092 -0.0025
 4352SOL    HW124689   2.046   1.617   5.332 -0.1612 -0.1985  1.4310
 4352SOL    HW224690   2.139   1.714   5.294 -2.6645 -0.1299 -1.0709
 4353SOL     OW24691   3.782   0.115  14.070 -0.4098  0.4342 -0.4621
 4353SOL    HW124692   3.827   0.176  14.128 -0.1162 -0.6687  0.4722
 4353SOL    HW224693   3.847   0.045  14.064 -1.1728 -0.3977  1.0068
 4354SOL     OW24694   1.409   0.046  11.453  0.0529 -0.5947 -0.4999
 4354SOL    HW124695   1.425   0.045  11.548  0.7343 -2.2266 -0.6279
 4354SOL    HW224696   1.320   0.011  11.445 -1.8477  3.6050  2.0222
 4355SOL     OW24697   2.742   3.246  15.770  0.2984  0.2262 -0.5357
 4355SOL    HW124698   2.654   3.280  15.755  0.0134 -1.0352 -1.7821
 4355SOL    HW224699   2.793   3.322  15.741 -0.6496  0.6035 -1.2155
 4356SOL     OW24700   1.380   1.812  15.882  0.1410 -1.0966 -0.2835
 4356SOL    HW124701   1.470   1.781  15.867  0.4971 -0.4592  0.4806
 4356SOL    HW224702   1.353   1.857  15.802 -1.9317 -1.4876  0.2151
 4357SOL     OW24703   0.786   3.083   9.484 -0.1454 -0.6351 -0.4009
 4357SOL    HW124704   0.853   3.072   9.417 -1.9298 -2.8449 -1.8328
 4357SOL    HW224705   0.816   3.020   9.550  0.0784 -0.0690  0.0332
 4358SOL     OW24706   1.130   1.642   1.095 -0.0922 -0.1825 -0.0017
 4358SOL    HW124707   1.223   1.621   1.092 -0.0142  0.1757 -0.1171
 4358SOL    HW224708   1.130   1.701   1.020  1.1092 -0.3477 -0.1367
 4359SOL     OW24709   0.026   1.126   4.675  0.5970  0.1507 -0.1961
 4359SOL    HW124710   4.664   1.134   4.672  0.4052 -1.8400  0.2533
 4359SOL    HW224711   0.041   1.166   4.761 -2.1553  0.8387 -0.0538
 4360SOL     OW24712   0.842   2.020   7.568  0.1166 -0.0480  0.4215
 4360SOL    HW124713   0.836   1.942   7.513  0.0536  1.7924 -2.2045
 4360SOL    HW224714   0.862   1.980   7.652 -1.8073 -1.5829  0.1280
 4361SOL     OW24715   3.771   3.715   2.306 -0.2981  0.3124  0.6754
 4361SOL    HW124716   3.821   3.645   2.348 -0.1435 -0.5827 -1.0000
 4361SOL    HW224717   3.766   3.782   2.374  0.8115  0.0952  0.9598
 4362SOL     OW24718   1.219   3.136  16.311  0.6286 -0.1509 -0.3733
 4362SOL    HW124719   1.178   3.171  16.231  1.5723 -0.5005 -1.0062
 4362SOL    HW224720   1.140   3.109  16.359  0.0882 -0.5757 -1.4783
 4363SOL     OW24721   4.702   3.768   7.365 -0.6722 -0.1615  0.1791
 4363SOL    HW124722   0.054   3.723   7.357  0.8209  2.6863 -0.3618
 4363SOL    HW224723   4.726   3.854   7.330  0.5252 -1.1266 -1.3943
 4364SOL     OW24724   0.563   0.938   2.300 -0.5659  0.3505  0.4647
 4364SOL    HW124725   0.625   0.924   2.371  0.9485  0.5423 -0.8298
 4364SOL    HW224726   0.613   0.976   2.228 -0.0469 -0.7898  0.2218
 4365SOL     OW24727   1.734   0.297   3.795 -0.1412 -0.0606 -0.2612
 4365SOL    HW124728   1.669   0.340   3.851  2.7361  1.2069  2.1748
 4365SOL    HW224729   1.719   0.203   3.805 -0.2875  0.1113  1.1295
 4366SOL     OW24730   4.724   2.204   3.556 -0.3522 -0.2994  0.1471
 4366SOL    HW124731   0.043   2.233   3.481  1.9120 -0.2849  1.6880
 4366SOL    HW224732   0.007   2.281   3.610 -0.5746 -1.1696  1.4485
 4367SOL     OW24733   2.408   0.394   9.071  0.4087  0.4407  0.0166
 4367SOL    HW124734   2.364   0.465   9.117  0.3918 -0.7531  1.8486
 4367SOL    HW224735   2.371   0.405   8.984  0.8327  0.1165 -0.2039
 4368SOL     OW24736   1.835   2.695   6.122 -0.1019 -0.4172 -0.4686
 4368SOL    HW124737   1.918   2.735   6.098  0.3047 -0.1614  1.3377
 4368SOL    HW224738   1.790   2.706   6.039 -2.2497  1.6516  0.9609
 4369SOL     OW24739   0.230   1.957   8.792  0.4042  0.2324  0.1387
 4369SOL    HW124740   0.205   2.047   8.814  0.4020  0.0057  1.0619
 4369SOL    HW224741   0.301   1.947   8.856 -2.0600 -0.7297  2.7144
 4370SOL     OW24742   2.535   4.532   5.870  0.1255  0.6049 -0.5439
 4370SOL    HW124743   2.529   4.438   5.853 -2.7069  0.2879  2.2703
 4370SOL    HW224744   2.597   4.555   5.800 -0.0804  1.8347 -0.3252
 4371SOL     OW24745   1.395   0.901   5.830 -0.3591 -0.2039 -0.2768
 4371SOL    HW124746   1.456   0.851   5.885  1.7872 -0.0628 -2.5466
 4371SOL    HW224747   1.323   0.914   5.892  1.5468 -0.7958  2.0690
 4372SOL     OW24748   2.726   0.117   5.869 -0.5756  0.3253 -0.1287
 4372SOL    HW124749   2.788   0.117   5.796  1.2056 -2.7816  1.3951
 4372SOL    HW224750   2.782   0.082   5.938  0.4577 -1.0287 -1.6503
 4373SOL     OW24751   0.786   3.782  15.545  0.1270  0.0784 -0.2395
 4373SOL    HW124752   0.776   3.732  15.626 -0.9799  0.3423 -0.2170
 4373SOL    HW224753   0.875   3.817  15.548  0.2386 -0.0574 -1.8940
 4374SOL     OW24754   3.787   3.742   3.234 -0.9505  0.5301 -0.6294
 4374SOL    HW124755   3.747   3.718   3.150 -1.6593  0.7048 -0.3383
 4374SOL    HW224756   3.711   3.746   3.292  0.7685 -4.6400  2.0537
 4375SOL     OW24757   1.636   2.579   1.365 -0.6606  0.8737  0.7451
 4375SOL    HW124758   1.600   2.528   1.438 -0.3468 -0.0948  0.2198
 4375SOL    HW224759   1.597   2.542   1.286  1.1732  1.3985 -0.4009
 4376SOL     OW24760   0.006   2.971   3.485  0.0795 -0.3194  0.6069
 4376SOL    HW124761   0.040   2.990   3.397 -1.7171  0.6814  0.1297
 4376SOL    HW224762   4.647   2.951   3.467 -0.0326  0.1668  0.6373
 4377SOL     OW24763   2.465   1.564  11.881  0.2952 -0.5329  0.1109
 4377SOL    HW124764   2.506   1.496  11.934  1.0860 -0.6538 -0.6463
 4377SOL    HW224765   2.540   1.616  11.852  0.6191 -0.2975  1.3687
 4378SOL     OW24766   3.418   3.202   6.812  0.2267 -0.1527  0.2656
 4378SOL    HW124767   3.378   3.130   6.763  0.8486  0.5261 -1.2272
 4378SOL    HW224768   3.509   3.198   6.782  0.5396  2.1273  0.9290
 4379SOL     OW24769   0.557   4.383   4.629  0.1176 -0.1355 -0.3800
 4379SOL    HW124770   0.521   4.465   4.664 -0.1838 -0.5939  0.3779
 4379SOL    HW224771   0.606   4.428   4.560 -1.6158  1.3475 -0.6664
 4380SOL     OW24772   4.670   1.655   3.112  0.2219  0.2643  0.0949
 4380SOL    HW124773   4.596   1.644   3.052 -0.4783 -0.9928  1.1860
 4380SOL    HW224774   0.013   1.648   3.053  0.1142  0.0915 -0.0242
 4381SOL     OW24775   2.727   3.778   0.807 -0.6144  0.2839  0.4262
 4381SOL    HW124776   2.703   3.781   0.900  0.5248 -1.6373  0.7759
 4381SOL    HW224777   2.651   3.725   0.781 -0.5305  0.2887  0.1768
 4382SOL     OW24778   0.310   2.810   7.561  0.0471 -0.3286 -0.5473
 4382SOL    HW124779   0.399   2.816   7.526  0.3760  0.3794  0.4277
 4382SOL    HW224780   0.335   2.745   7.627  0.6947 -1.0959 -1.5293
 4383SOL     OW24781   2.201   4.357   9.483  0.2175 -0.0097 -0.0061
 4383SOL    HW124782   2.252   4.397   9.412  0.2182 -2.0003 -1.1171
 4383SOL    HW224783   2.154   4.438   9.503 -0.5492 -1.0756  2.5048
 4384SOL     OW24784   3.386   3.453   6.026  0.0741  0.5006  0.7587
 4384SOL    HW124785   3.398   3.424   5.936 -0.5322 -2.0384  1.4807
 4384SOL    HW224786   3.382   3.365   6.065  0.8413  0.5320  0.9219
 4385SOL     OW24787   4.316   2.837  15.206 -0.1259 -0.1939 -0.0949
 4385SOL    HW124788   4.297   2.744  15.218  1.3365 -0.5717 -0.7224
 4385SOL    HW224789   4.305   2.850  15.111 -2.5983  2.4959  0.5651
 4386SOL     OW24790   3.927   1.174   0.857 -0.0528  0.0694 -0.3070
 4386SOL    HW124791   4.017   1.195   0.831  0.6317 -0.6687  1.4430
 4386SOL    HW224792   3.914   1.242   0.922  0.6768  1.0965 -1.2429
 4387SOL     OW24793   2.105   1.181   6.601 -0.1165 -0.5950  0.6019
 4387SOL    HW124794   2.169   1.111   6.608 -1.8344 -2.2450 -0.2276
 4387SOL    HW224795   2.057   1.171   6.684  1.3901 -1.0294  1.4302
 4388SOL     OW24796   1.683   1.767   9.463 -0.2440 -0.0878  0.2679
 4388SOL    HW124797   1.685   1.695   9.400 -0.2800  0.1308  0.0136
 4388SOL    HW224798   1.729   1.728   9.537 -0.0812  0.0118  0.2180
 4389SOL     OW24799   3.527   3.622   7.539  0.5480 -0.1954  0.0084
 4389SOL    HW124800   3.586   3.556   7.503 -0.7187  0.2369 -2.8566
 4389SOL    HW224801   3.588   3.663   7.600  1.0949  1.9514 -1.9803
 4390SOL     OW24802   1.007   0.203   3.245  0.4161  0.8891 -0.1911
 4390SOL    HW124803   0.986   0.294   3.223 -1.9523  0.3364 -0.1545
 4390SOL    HW224804   0.926   0.160   3.271  1.1847 -1.0637 -1.0141
 4391SOL     OW24805   4.452   1.180   4.596  0.0706 -0.3158  0.7637
 4391SOL    HW124806   4.423   1.090   4.582 -1.5823  0.2474  0.5266
 4391SOL    HW224807   4.373   1.219   4.634 -2.0173 -3.3707 -0.4535
 4392SOL     OW24808   0.910   3.167   3.676  0.1934 -0.3966 -0.2497
 4392SOL    HW124809   0.833   3.112   3.666  0.5105 -1.1283  1.3936
 4392SOL    HW224810   0.956   3.143   3.595  0.5019 -0.5208 -0.0363
 4393SOL     OW24811   1.013   4.660   5.688 -0.1178  0.4060 -0.2517
 4393SOL    HW124812   1.049   0.009   5.724 -0.9988 -0.0060  1.5187
 4393SOL    HW224813   1.067   4.601   5.740  0.3211 -0.7249 -2.0146
 4394SOL     OW24814   1.664   3.779   5.929  0.5409  0.0285  0.1445
 4394SOL    HW124815   1.600   3.713   5.954  1.5224 -0.7266  0.6831
 4394SOL    HW224816   1.606   3.839   5.883  0.1806 -0.4411 -0.0169
 4395SOL     OW24817   4.611   4.523   0.248  0.0086 -0.7550 -0.2369
 4395SOL    HW124818   4.559   4.585   0.301 -0.0717 -0.2539 -0.9026
 4395SOL    HW224819   4.607   4.439   0.294  1.7741 -0.6999  0.0084
 4396SOL     OW24820   4.427   4.434  10.112 -0.2859  0.4843  0.0325
 4396SOL    HW124821   4.506   4.393  10.147 -0.1866  0.9505  0.3530
 4396SOL    HW224822   4.440   4.441  10.018 -0.4058 -1.4818 -0.1224
 4397SOL     OW24823   1.875   1.258   0.311  1.0798  0.4776 -0.0769
 4397SOL    HW124824   1.924   1.257   0.229 -1.4295 -2.0655 -1.5247
 4397SOL    HW224825   1.910   1.176   0.346 -0.7447 -1.2649 -2.3131
 4398SOL     OW24826   1.721   1.502   5.308 -0.4611  0.0998  0.1537
 4398SOL    HW124827   1.771   1.578   5.278 -0.3525 -0.1059 -0.1836
 4398SOL    HW224828   1.793   1.447   5.336  0.3843  1.3919  0.5160
 4399SOL     OW24829   4.561   0.967  10.248  0.5914  0.1088 -0.6734
 4399SOL    HW124830   4.481   0.959  10.196 -2.3194 -0.6043  3.9263
 4399SOL    HW224831   4.613   0.899  10.205  1.0625 -0.4980  0.8618
 4400SOL     OW24832   1.218   3.758  13.401  0.0339 -0.0494  0.1188
 4400SOL    HW124833   1.234   3.829  13.339  0.7987 -1.2342 -1.0619
 4400SOL    HW224834   1.305   3.719  13.393 -0.2391 -1.0288  1.8704
 4401SOL     OW24835   3.039   1.824   5.784 -0.2750  0.4900  0.0892
 4401SOL    HW124836   2.946   1.809   5.771 -0.5571  1.9594  0.3915
 4401SOL    HW224837   3.041   1.918   5.801  0.4566  0.6020 -0.6043
 4402SOL     OW24838   1.842   3.418   8.169  0.7500  0.0480 -0.2738
 4402SOL    HW124839   1.845   3.325   8.147 -0.3655 -1.1582  4.7221
 4402SOL    HW224840   1.830   3.452   8.081 -0.9260  0.2161  0.0275
 4403SOL     OW24841   1.475   0.982  11.684  0.1711 -0.1939  0.4071
 4403SOL    HW124842   1.454   0.949  11.597 -2.2522 -0.6355  1.1759
 4403SOL    HW224843   1.409   1.050  11.694 -0.4775 -0.3580 -2.8434
 4404SOL     OW24844   1.485   3.474   9.190 -0.4003  0.5408  0.6078
 4404SOL    HW124845   1.512   3.537   9.257  0.5151 -0.1065  0.8363
 4404SOL    HW224846   1.550   3.494   9.122 -0.5173 -0.2189  0.2724
 4405SOL     OW24847   2.651   0.616   8.087  0.0526  0.3989  0.3647
 4405SOL    HW124848   2.687   0.625   7.999 -1.5215 -2.0545 -0.4995
 4405SOL    HW224849   2.729   0.584   8.132 -1.1174 -2.3182  0.4094
 4406SOL     OW24850   2.919   4.386  17.105 -0.7921  0.3734  0.7083
 4406SOL    HW124851   2.947   4.448  17.038 -0.8737  0.7966  1.0689
 4406SOL    HW224852   2.996   4.376  17.161  0.1939 -1.2282 -0.9024
 4407SOL     OW24853   0.373   3.785   3.056  0.4723 -0.3361 -0.3662
 4407SOL    HW124854   0.386   3.872   3.092  1.9966 -1.0050  0.7222
 4407SOL    HW224855   0.290   3.762   3.098  0.9248 -2.2620 -0.5019
 4408SOL     OW24856   2.416   0.185   2.173  0.2418 -0.1123  0.0414
 4408SOL    HW124857   2.487   0.186   2.109 -0.9177 -0.8323 -1.2500
 4408SOL    HW224858   2.364   0.119   2.129 -0.3656 -0.0093  0.6015
 4409SOL     OW24859   0.212   1.521  15.925  0.5753 -0.5578  0.2386
 4409SOL    HW124860   0.173   1.550  16.007 -1.9247  1.4362 -1.6767
 4409SOL    HW224861   0.256   1.598  15.891 -1.3072 -0.9223 -2.9871
 4410SOL     OW24862   4.595   2.111  10.281 -0.2221 -0.5617  0.1830
 4410SOL    HW124863   4.559   2.046  10.341  1.5252 -3.0886 -1.4912
 4410SOL    HW224864   4.635   2.165  10.349  0.8851 -0.8009 -0.2735
 4411SOL     OW24865   3.951   2.250   7.457 -0.5029  0.4300  0.0786
 4411SOL    HW124866   3.865   2.208   7.445 -0.7708  0.8183  0.6535
 4411SOL    HW224867   3.922   2.325   7.508 -1.6776  1.0349 -1.4742
 4412SOL     OW24868   2.159   3.830   8.589  0.1468  0.8534 -0.1457
 4412SOL    HW124869   2.228   3.828   8.523  0.4804 -1.8642  0.2578
 4412SOL    HW224870   2.149   3.739   8.617 -0.2432  0.6674 -0.8910
 4413SOL     OW24871   0.569   4.575   7.154 -0.0457 -0.4630  0.6178
 4413SOL    HW124872   0.663   4.561   7.165 -0.1774 -1.9953 -0.1797
 4413SOL    HW224873   0.550   4.638   7.224  0.5288 -0.8638  1.1356
 4414SOL     OW24874   2.580   0.971   4.117  0.6685 -0.1631  0.4660
 4414SOL    HW124875   2.525   0.960   4.195  1.0065  0.2357  0.7590
 4414SOL    HW224876   2.577   1.067   4.116 -2.7958 -0.2583  0.3844
 4415SOL     OW24877   1.686   3.207   0.067  0.3607 -0.0522 -0.6723
 4415SOL    HW124878   1.629   3.263   0.014 -1.3889 -1.7869 -0.6397
 4415SOL    HW224879   1.767   3.254   0.049 -0.1149  0.4110 -1.6146
 4416SOL     OW24880   1.921   3.435  12.767  0.2544 -0.3686  0.3654
 4416SOL    HW124881   2.014   3.433  12.743 -0.1701  0.4593 -1.3626
 4416SOL    HW224882   1.873   3.430  12.684 -0.5185  3.8671  0.5436
 4417SOL     OW24883   2.451   4.513   4.930 -0.0104 -0.7190 -0.2642
 4417SOL    HW124884   2.384   4.581   4.937 -0.5427 -1.3999  1.3009
 4417SOL    HW224885   2.386   4.444   4.943  0.2498 -0.8884  0.1439
 4418SOL     OW24886   4.228   1.065   4.393  0.0118 -0.5744  0.8495
 4418SOL    HW124887   4.191   1.005   4.458  0.1216 -0.3388  1.1271
 4418SOL    HW224888   4.155   1.127   4.385 -0.4059 -0.9847  1.4257
 4419SOL     OW24889   2.984   3.784   2.450  0.6210 -0.1596 -0.3186
 4419SOL    HW124890   3.043   3.803   2.377  0.6826  1.1650  0.0881
 4419SOL    HW224891   2.928   3.861   2.441 -0.6735 -1.1881 -1.0239
 4420SOL     OW24892   4.047   0.908  17.579 -0.1256 -0.8767 -0.0490
 4420SOL    HW124893   4.032   0.813  17.577  1.0644 -1.0847  1.3374
 4420SOL    HW224894   4.113   0.922  17.511  0.7737 -2.3262  0.5253
 4421SOL     OW24895   0.564   2.578   3.167  0.4262 -0.1311 -0.4739
 4421SOL    HW124896   0.506   2.581   3.091 -0.7499  0.4944  0.4607
 4421SOL    HW224897   0.591   2.486   3.174 -0.1065 -0.2765 -0.3585
 4422SOL     OW24898   1.600   4.045   6.767 -0.0420 -0.0622  0.2237
 4422SOL    HW124899   1.552   4.096   6.701 -2.2551 -1.6174  0.6271
 4422SOL    HW224900   1.688   4.050   6.731  1.0007 -1.2070  2.6291
 4423SOL     OW24901   0.497   1.285  12.873  0.0445 -0.1199  0.0739
 4423SOL    HW124902   0.435   1.328  12.814 -0.6543 -0.0122  0.8977
 4423SOL    HW224903   0.576   1.320  12.832  1.5245 -0.9911  2.1509
 4424SOL     OW24904   3.855   1.528   0.783 -0.4933  0.1178 -0.5066
 4424SOL    HW124905   3.803   1.608   0.778 -1.5747 -0.5281  0.2830
 4424SOL    HW224906   3.817   1.485   0.860 -1.1901  0.3142 -0.7394
 4425SOL     OW24907   2.098   3.485   2.264  0.5882  0.1486  0.4274
 4425SOL    HW124908   2.089   3.431   2.186 -0.9227 -0.4573  1.0345
 4425SOL    HW224909   2.026   3.440   2.307  0.4578 -0.7026 -0.6965
 4426SOL     OW24910   1.660   0.774   2.881  0.7956 -0.1080  0.1420
 4426SOL    HW124911   1.716   0.700   2.902  0.9945  0.1663  0.5747
 4426SOL    HW224912   1.594   0.782   2.950  0.5207  1.4560 -0.2934
 4427SOL     OW24913   3.924   4.666   3.966  0.5420  0.1421  0.4446
 4427SOL    HW124914   3.939   0.028   3.957 -0.4684  0.3242  0.7255
 4427SOL    HW224915   3.841   4.660   3.919 -0.3562  0.3696  2.0216
 4428SOL     OW24916   3.290   1.560   9.828 -0.2892 -0.1467  0.5652
 4428SOL    HW124917   3.262   1.557   9.919 -1.0379 -0.6901  0.3132
 4428SOL    HW224918   3.208   1.541   9.782  0.1731  0.8113 -0.6669
 4429SOL     OW24919   2.975   2.481   3.888 -0.1224  0.1224 -0.6579
 4429SOL    HW124920   2.966   2.571   3.920  1.1682 -0.7227  2.0783
 4429SOL    HW224921   3.057   2.482   3.840  0.8098 -1.2475  0.9110
 4430SOL     OW24922   0.828   1.613  10.503  0.4196  0.5004 -0.4170
 4430SOL    HW124923   0.846   1.525  10.534 -0.2783  0.7059  0.5928
 4430SOL    HW224924   0.736   1.599  10.478  0.7933 -0.0639 -1.4638
 4431SOL     OW24925   2.790   4.339   1.860  0.8515  0.4019 -0.1036
 4431SOL    HW124926   2.790   4.326   1.955  0.7144 -1.5348 -0.3684
 4431SOL    HW224927   2.871   4.384   1.837  0.3505  0.1353 -2.4483
 4432SOL     OW24928   2.421   0.653   2.115 -0.4758  0.6039  0.1585
 4432SOL    HW124929   2.374   0.721   2.163 -0.0195  0.9658  0.0977
 4432SOL    HW224930   2.433   0.692   2.028 -0.8649  0.2688 -0.0440
 4433SOL     OW24931   1.744   3.154   5.495  0.4204  0.3477 -0.1435
 4433SOL    HW124932   1.651   3.138   5.481  0.2912 -0.0571  1.1704
 4433SOL    HW224933   1.784   3.067   5.487  1.3023  0.6511  0.9741
 4434SOL     OW24934   0.914   3.735   3.933 -0.0246  0.4397 -0.4302
 4434SOL    HW124935   0.828   3.694   3.940  0.0640  0.0312 -1.6752
 4434SOL    HW224936   0.893   3.815   3.885  2.6092  1.1128 -0.4892
 4435SOL     OW24937   3.447   2.413   4.152 -0.2525  0.8412 -0.1785
 4435SOL    HW124938   3.354   2.402   4.134  0.1382 -1.4438 -0.7164
 4435SOL    HW224939   3.458   2.481   4.086 -0.1773  0.5693 -0.4407
 4436SOL     OW24940   2.455   3.719   7.661 -0.3328 -0.3592  0.1153
 4436SOL    HW124941   2.490   3.631   7.679 -0.9750 -1.0543 -2.0088
 4436SOL    HW224942   2.528   3.779   7.676 -1.5511  1.3627 -0.8264
 4437SOL     OW24943   0.806   0.532   5.230 -0.3310 -0.3551  0.1605
 4437SOL    HW124944   0.840   0.444   5.247  2.7632  0.9440  0.6930
 4437SOL    HW224945   0.834   0.543   5.139 -0.6448 -1.1540 -0.0330
 4438SOL     OW24946   0.109   0.724   2.172 -0.3057 -0.5891 -0.0769
 4438SOL    HW124947   0.018   0.725   2.201 -0.2402  0.1143  0.1055
 4438SOL    HW224948   0.147   0.638   2.194  0.0633  0.3075  2.7879
 4439SOL     OW24949   0.588   3.306  17.544  0.0886 -0.0183 -0.2398
 4439SOL    HW124950   0.605   3.225  17.497 -0.5906  0.0549 -0.6169
 4439SOL    HW224951   0.541   3.347  17.471  0.7966 -0.3869 -0.8984
 4440SOL     OW24952   0.043   0.369   6.226  0.0192  0.0907 -0.2239
 4440SOL    HW124953   4.718   0.310   6.177 -0.4821  1.2192 -0.9920
 4440SOL    HW224954   0.109   0.312   6.266 -1.2284  0.5604  2.5514
 4441SOL     OW24955   0.586   2.507   9.057 -0.0887  0.0466  0.2420
 4441SOL    HW124956   0.616   2.542   8.973 -3.0040  1.1123 -0.3563
 4441SOL    HW224957   0.661   2.451   9.080  0.9406  0.6522 -1.6341
 4442SOL     OW24958   2.302   0.980   6.648 -0.0558 -0.5368  0.2902
 4442SOL    HW124959   2.225   0.930   6.673  1.0081 -1.2775  2.0877
 4442SOL    HW224960   2.362   0.906   6.647  1.8312  0.9851 -0.0562
 4443SOL     OW24961   3.842   1.897   3.823 -0.5508 -0.4573  0.3592
 4443SOL    HW124962   3.900   1.973   3.817 -1.2022  0.1133  1.2019
 4443SOL    HW224963   3.766   1.934   3.869 -1.5233 -0.8087 -0.9446
 4444SOL     OW24964   2.311   0.143   3.802 -0.8267 -0.5852  0.0456
 4444SOL    HW124965   2.317   0.202   3.877  2.3043  2.1010 -2.3145
 4444SOL    HW224966   2.220   0.154   3.774 -0.2039  2.7816 -0.6340
 4445SOL     OW24967   3.369   4.650   2.812 -0.3366 -0.2407  0.1110
 4445SOL    HW124968   3.362   0.005   2.850  0.1906  0.0707 -0.5285
 4445SOL    HW224969   3.404   4.660   2.724 -1.5821 -0.3287 -0.4012
 4446SOL     OW24970   2.642   0.480  10.230  0.4357 -0.3801 -0.0129
 4446SOL    HW124971   2.649   0.450  10.321 -1.2308  0.6937  0.4613
 4446SOL    HW224972   2.549   0.500  10.216  0.9287  1.4006 -0.6323
 4447SOL     OW24973   2.691   2.518   8.062  0.5464  0.2909  0.0239
 4447SOL    HW124974   2.709   2.497   8.154 -1.6335 -0.2384  0.3440
 4447SOL    HW224975   2.600   2.547   8.068  0.5666  0.5894 -1.1008
 4448SOL     OW24976   2.144   3.599  12.955 -0.1300  0.2919 -0.5967
 4448SOL    HW124977   2.101   3.678  12.988 -0.3244 -0.9452  2.1603
 4448SOL    HW224978   2.194   3.639  12.884 -1.8787 -0.8396 -2.4861
 4449SOL     OW24979   1.129   4.055  10.337  0.2172  0.2137 -0.3241
 4449SOL    HW124980   1.179   4.068  10.256 -2.5292  1.6516 -1.7959
 4449SOL    HW224981   1.088   4.139  10.355 -2.7832 -1.2712 -0.2060
 4450SOL     OW24982   3.158   1.568  13.211  0.0842 -0.2037  0.6989
 4450SOL    HW124983   3.190   1.514  13.284  0.6462  1.1051  1.4222
 4450SOL    HW224984   3.120   1.494  13.164  1.7881 -0.0224 -0.9312
 4451SOL     OW24985   0.943   3.778   1.978 -0.1227  0.3069  0.1846
 4451SOL    HW124986   0.950   3.737   2.064  2.0249  3.5185  1.5183
 4451SOL    HW224987   1.021   3.833   1.976 -1.1555  1.6834 -2.2741
 4452SOL     OW24988   4.295   4.052   0.741  0.1867 -0.1300  0.5580
 4452SOL    HW124989   4.340   4.020   0.663 -0.8179 -0.2804  0.0453
 4452SOL    HW224990   4.284   3.979   0.803  1.2485 -0.4183  0.4078
 4453SOL     OW24991   1.875   3.730   7.079  0.2796 -0.2064 -0.4087
 4453SOL    HW124992   1.936   3.733   7.006 -0.2973  0.3770 -0.8676
 4453SOL    HW224993   1.932   3.700   7.151  0.0838  0.0154 -0.1595
 4454SOL     OW24994   3.954   3.974  15.781  0.7813 -0.0273  0.3264
 4454SOL    HW124995   3.865   3.974  15.745  1.1879  1.1057 -0.6535
 4454SOL    HW224996   3.993   3.952  15.697 -2.8100 -2.2619 -0.7603
 4455SOL     OW24997   3.998   1.969   9.817 -0.7180 -0.8656  0.3940
 4455SOL    HW124998   3.937   1.973   9.744 -0.0672 -0.1895 -0.1054
 4455SOL    HW224999   4.019   2.062   9.814 -0.0754 -0.9635  1.7786
 4456SOL     OW25000   2.099   2.392   2.070  0.1549 -0.3098 -0.4806
 4456SOL    HW125001   2.186   2.354   2.056  0.5466  0.8485 -1.2348
 4456SOL    HW225002   2.121   2.482   2.046 -3.8598  0.5582 -0.8506
 4457SOL     OW25003   2.031   3.043   7.174 -0.0824 -0.0167 -0.4621
 4457SOL    HW125004   2.088   2.971   7.203  1.7135  1.8687  0.6917
 4457SOL    HW225005   1.962   2.989   7.136 -0.4179  0.4614 -0.5246
 4458SOL     OW25006   0.862   0.855   9.587 -0.4734  0.6256 -0.0264
 4458SOL    HW125007   0.848   0.818   9.675  1.6037 -0.8193 -0.3220
 4458SOL    HW225008   0.783   0.909   9.600 -1.5293 -0.0597 -3.6935
 4459SOL     OW25009   1.875   3.839   5.262  0.4710 -0.5030  0.3351
 4459SOL    HW125010   1.806   3.808   5.204  1.6669 -2.6345  0.0586
 4459SOL    HW225011   1.885   3.928   5.228 -0.9863 -0.1914  0.7098
 4460SOL     OW25012   2.593   1.420   8.771 -0.5763  0.6315  0.1485
 4460SOL    HW125013   2.609   1.400   8.679  0.0369 -0.2851  0.4662
 4460SOL    HW225014   2.558   1.509   8.765  0.3464  0.9263 -0.7310
 4461SOL     OW25015   0.558   0.992   5.441 -0.4764  0.3301  0.6008
 4461SOL    HW125016   0.573   1.084   5.419 -1.4656  0.2956 -0.2118
 4461SOL    HW225017   0.649   0.961   5.440 -0.4838  0.3751 -0.6405
 4462SOL     OW25018   3.991   3.670   1.461  0.7274 -0.2704  0.0312
 4462SOL    HW125019   4.047   3.671   1.384 -0.5254  1.4522 -0.8270
 4462SOL    HW225020   3.967   3.762   1.471  1.0496  0.0497 -2.2391
 4463SOL     OW25021   2.679   0.369   9.590 -0.0415 -0.0520 -0.2256
 4463SOL    HW125022   2.773   0.389   9.590  0.1204 -0.8131 -1.9772
 4463SOL    HW225023   2.690   0.304   9.660 -1.3578 -1.1048 -0.9985
 4464SOL     OW25024   3.028   4.608  11.663 -0.4738 -0.0629  0.3333
 4464SOL    HW125025   2.990   4.544  11.724  1.1304 -0.6122  0.7455
 4464SOL    HW225026   2.951   4.626  11.608 -0.4388 -0.9828 -0.0287
 4465SOL     OW25027   2.201   1.965   5.723  0.7696  0.6314  0.3528
 4465SOL    HW125028   2.209   1.872   5.700 -2.5664  0.1194  1.2102
 4465SOL    HW225029   2.281   1.979   5.773  0.3452 -1.2660  1.5696
 4466SOL     OW25030   2.897   4.311   4.203  0.0125 -0.4114  0.1393
 4466SOL    HW125031   2.848   4.243   4.249 -1.3534  0.4051 -0.0994
 4466SOL    HW225032   2.970   4.327   4.263  0.8640  2.0751 -1.5594
 4467SOL     OW25033   3.847   3.458   1.991 -0.7912  0.1151  0.0380
 4467SOL    HW125034   3.754   3.452   2.014 -0.6572  1.2237  0.8900
 4467SOL    HW225035   3.849   3.553   1.981  0.0066 -0.0266 -1.2636
 4468SOL     OW25036   2.085   0.770   3.908 -0.1362  0.7755  0.0556
 4468SOL    HW125037   2.153   0.775   3.842  0.2323  0.0876  0.3753
 4468SOL    HW225038   2.141   0.786   3.984 -1.5454  0.1556  1.2479
 4469SOL     OW25039   1.350   2.433   5.741  0.1650  0.4806 -0.0374
 4469SOL    HW125040   1.303   2.388   5.671 -0.3892  0.6215  0.2386
 4469SOL    HW225041   1.332   2.378   5.818 -1.3966  0.2729 -0.5417
 4470SOL     OW25042   3.351   0.401   4.222 -0.2370  0.1965  0.3122
 4470SOL    HW125043   3.371   0.449   4.303 -1.2284 -0.1891  0.7852
 4470SOL    HW225044   3.411   0.449   4.165 -0.8912  0.8052  0.1355
 4471SOL     OW25045   2.270   2.946   1.749 -0.1096  0.7970 -0.1053
 4471SOL    HW125046   2.307   2.993   1.823 -0.7284 -0.1893  0.8277
 4471SOL    HW225047   2.278   2.858   1.787 -0.0543  0.5152 -0.7564
 4472SOL     OW25048   2.680   1.099  14.651 -0.5502  0.1043 -0.4474
 4472SOL    HW125049   2.757   1.133  14.605 -1.2384  2.3391  0.0474
 4472SOL    HW225050   2.657   1.173  14.708  1.9813  0.9268 -0.4994
 4473SOL     OW25051   0.267   0.626  15.138  0.3232 -0.0659  0.7036
 4473SOL    HW125052   0.200   0.693  15.148 -0.3608 -0.5744 -0.4165
 4473SOL    HW225053   0.262   0.588  15.226  0.9927  1.5323  1.4238
 4474SOL     OW25054   1.703   0.121   4.068  0.1549 -0.5204 -0.4629
 4474SOL    HW125055   1.635   0.186   4.050  2.7885  1.2468 -3.8585
 4474SOL    HW225056   1.678   0.067   3.993 -1.2482 -1.5247  0.7151
 4475SOL     OW25057   0.627   0.970   1.727 -0.0244 -0.3385 -0.3670
 4475SOL    HW125058   0.645   0.900   1.790 -0.6700 -1.7878 -1.7842
 4475SOL    HW225059   0.707   1.022   1.727 -0.9186  1.0307 -0.8082
 4476SOL     OW25060   2.828   0.907   4.752  0.3762 -0.3927  0.3063
 4476SOL    HW125061   2.912   0.903   4.707 -0.3938 -0.8915 -1.0782
 4476SOL    HW225062   2.777   0.959   4.691  1.9406  0.9285  0.1305
 4477SOL     OW25063   0.964   1.953   8.398 -0.2034  0.2000 -0.1190
 4477SOL    HW125064   0.961   2.027   8.459  1.9896  0.1866 -0.0066
 4477SOL    HW225065   0.904   1.889   8.437  3.2824 -2.4438  0.8346
 4478SOL     OW25066   3.173   2.028   6.154 -0.5746 -0.2272  0.2065
 4478SOL    HW125067   3.213   2.020   6.067 -1.0962 -0.7302  0.0157
 4478SOL    HW225068   3.094   2.075   6.128 -0.4784 -0.7788 -1.0694
 4479SOL     OW25069   4.549   2.906   3.940  0.4713  0.4432  0.2246
 4479SOL    HW125070   4.608   2.833   3.961  0.6711  0.7657  0.7660
 4479SOL    HW225071   4.478   2.897   4.003  0.7598 -3.0679  0.0554
 4480SOL     OW25072   0.352   2.360   9.852  0.3966 -0.7787 -0.4656
 4480SOL    HW125073   0.292   2.286   9.841 -0.3392 -0.6835  2.8565
 4480SOL    HW225074   0.300   2.425   9.807  1.1363  1.4899  1.9267
 4481SOL     OW25075   3.910   1.538  14.583 -0.5964  0.7512  0.5012
 4481SOL    HW125076   3.990   1.586  14.604  0.2735  0.3900 -1.9662
 4481SOL    HW225077   3.882   1.507  14.669  1.4953 -2.3697  0.0312
 4482SOL     OW25078   0.663   4.056  16.392 -0.0138  0.0024 -0.3026
 4482SOL    HW125079   0.616   4.137  16.415 -0.6620 -0.3423 -0.4231
 4482SOL    HW225080   0.756   4.076  16.400 -0.4147  1.0744  1.6450
 4483SOL     OW25081   0.473   0.087   9.157  0.6540 -0.5206  0.0555
 4483SOL    HW125082   0.409   0.157   9.162  0.4229 -0.6553 -0.9673
 4483SOL    HW225083   0.420   0.018   9.117 -0.1325  0.9545 -1.4578
 4484SOL     OW25084   0.975   0.496   6.649  0.2916 -0.0943  0.3096
 4484SOL    HW125085   1.021   0.541   6.719  2.0202  0.7698 -1.3889
 4484SOL    HW225086   1.001   0.552   6.576  0.1243  0.2378  0.5075
 4485SOL     OW25087   3.490   3.344   8.217  0.1862  0.0648 -0.0998
 4485SOL    HW125088   3.456   3.264   8.176  2.0230 -0.8762  0.2492
 4485SOL    HW225089   3.476   3.329   8.310  1.2249  1.7479  0.3330
 4486SOL     OW25090   0.562   1.554  12.030 -0.8103  0.2223  0.0079
 4486SOL    HW125091   0.651   1.520  12.016 -0.8442  1.1051 -2.3757
 4486SOL    HW225092   0.548   1.583  11.940  0.6468  1.1107  0.0567
 4487SOL     OW25093   0.146   1.158   3.538 -0.1485 -0.1458  0.4912
 4487SOL    HW125094   0.141   1.145   3.443 -1.1048 -0.8841  0.6424
 4487SOL    HW225095   0.061   1.125   3.565 -1.5837  0.9355 -2.6826
 4488SOL     OW25096   1.858   2.838   3.561  0.7924 -0.1512  0.7222
 4488SOL    HW125097   1.884   2.746   3.558 -0.3063 -0.5255  2.8257
 4488SOL    HW225098   1.785   2.819   3.502  0.0392  0.3370  1.5061
 4489SOL     OW25099   0.631   4.709   5.927 -0.0099  0.3509  0.4385
 4489SOL    HW125100   0.645   0.025   5.846 -1.5131  1.2215  0.7019
 4489SOL    HW225101   0.645   0.045   5.992  0.5357  0.7053 -0.0461
 4490SOL     OW25102   3.504   3.285   3.389  0.3873  0.2193 -0.6283
 4490SOL    HW125103   3.568   3.241   3.333  0.6080  0.1058 -0.2876
 4490SOL    HW225104   3.553   3.315   3.466  0.8986 -1.4917 -0.2798
 4491SOL     OW25105   1.934   0.537   3.881 -0.2423 -0.1864  0.3751
 4491SOL    HW125106   1.866   0.535   3.814  2.0690 -2.6482 -1.9331
 4491SOL    HW225107   1.973   0.622   3.864  3.8904 -2.3317 -1.0507
 4492SOL     OW25108   3.949   2.148   7.091 -0.3520 -0.1418  0.0944
 4492SOL    HW125109   3.922   2.233   7.125  1.3582  0.5576 -0.2887
 4492SOL    HW225110   3.871   2.097   7.114  0.6751 -2.2428 -1.0210
 4493SOL     OW25111   0.655   4.723   2.801  0.4366 -0.2510 -0.1482
 4493SOL    HW125112   0.742   0.006   2.766  1.1739 -1.0874  1.2954
 4493SOL    HW225113   0.680   4.668   2.876 -0.2445  0.3468  0.5161
 4494SOL     OW25114   1.215   4.662  11.914 -0.3034  0.4570 -0.0340
 4494SOL    HW125115   1.226   4.618  11.998 -0.7625  1.3463  0.4887
 4494SOL    HW225116   1.130   4.706  11.922 -0.8418 -0.9555  2.0340
 4495SOL     OW25117   4.297   4.554   8.050  0.0435  0.2213  0.1051
 4495SOL    HW125118   4.294   4.530   8.143  0.4598 -0.4176 -0.0448
 4495SOL    HW225119   4.206   4.576   8.031  0.4929  1.4286 -0.6447
 4496SOL     OW25120   3.329   2.054  14.146  0.6312  0.3159 -0.0303
 4496SOL    HW125121   3.411   2.029  14.104 -1.4323 -3.3396 -1.8134
 4496SOL    HW225122   3.357   2.081  14.234  0.0680  1.1394 -0.1083
 4497SOL     OW25123   1.571   0.688   0.337  0.3460  0.0368  0.5082
 4497SOL    HW125124   1.478   0.707   0.326  0.1743 -0.0935  1.7566
 4497SOL    HW225125   1.572   0.606   0.288 -1.1243  0.8674 -0.9496
 4498SOL     OW25126   0.645   0.996   6.697  0.4457  0.0728  0.0315
 4498SOL    HW125127   0.655   0.928   6.763  1.7531  0.9406  0.7211
 4498SOL    HW225128   0.718   1.049   6.729 -0.9426  2.3385 -0.6350
 4499SOL     OW25129   2.879   4.557  11.396  0.2337  0.0610 -0.2360
 4499SOL    HW125130   2.817   4.603  11.452  2.3770  2.1770  0.4051
 4499SOL    HW225131   2.823   4.490  11.356  0.2359 -0.0016 -0.1336
 4500SOL     OW25132   4.654   3.945   5.581 -0.2635 -0.7949  0.5525
 4500SOL    HW125133   4.730   3.888   5.573 -2.0182 -3.1507  0.5768
 4500SOL    HW225134   4.575   3.890   5.577 -0.7415 -0.3298  3.3041
 4501SOL     OW25135   4.707   4.056  12.485  0.4257  0.8647 -0.0062
 4501SOL    HW125136   0.066   4.049  12.510  1.2499  2.3045 -2.6028
 4501SOL    HW225137   4.719   4.126  12.421  0.0338  0.3282 -0.6581
 4502SOL     OW25138   1.807   2.431   1.177 -0.4909  0.0137 -0.0403
 4502SOL    HW125139   1.846   2.379   1.247 -0.4129 -0.9129 -0.7843
 4502SOL    HW225140   1.769   2.501   1.230 -2.6180 -0.8064 -0.4785
 4503SOL     OW25141   0.228   4.040   2.472  0.3367  0.2678 -0.0153
 4503SOL    HW125142   0.226   4.029   2.377 -0.1956  1.7562 -0.1787
 4503SOL    HW225143   0.184   3.965   2.512  2.3125 -0.4035  0.8725
 4504SOL     OW25144   3.658   2.719  13.625 -0.3441 -0.4471  0.6937
 4504SOL    HW125145   3.652   2.652  13.557 -0.5402 -0.3795  0.6445
 4504SOL    HW225146   3.632   2.670  13.703  1.0620 -1.9811  0.1705
 4505SOL     OW25147   3.916   1.601   6.290  0.3022 -0.2529  0.3028
 4505SOL    HW125148   3.862   1.575   6.364 -1.5801 -0.7836 -1.2589
 4505SOL    HW225149   3.999   1.557   6.308  0.2627 -0.1913  0.6347
 4506SOL     OW25150   3.151   1.470   7.372 -0.6262  0.6987 -0.2670
 4506SOL    HW125151   3.156   1.377   7.348  1.4389  0.8396 -0.3944
 4506SOL    HW225152   3.195   1.518   7.302 -0.3823 -2.1031 -2.0134
 4507SOL     OW25153   2.283   2.461   2.347  0.6430  0.5310  0.2027
 4507SOL    HW125154   2.196   2.427   2.370  0.5461 -0.0180 -1.0206
 4507SOL    HW225155   2.331   2.382   2.324 -2.2121 -1.1409 -0.0210
 4508SOL     OW25156   4.406   0.517  16.299 -0.0555  0.3004  0.3283
 4508SOL    HW125157   4.494   0.511  16.260  0.2983 -2.1525  1.5224
 4508SOL    HW225158   4.359   0.572  16.237  0.3032 -1.1773 -1.2544
 4509SOL     OW25159   2.072   1.035   1.287 -0.4982 -0.0412  0.2327
 4509SOL    HW125160   1.997   1.022   1.229  0.7703 -0.6935 -1.2622
 4509SOL    HW225161   2.146   0.986   1.253 -0.5790  2.4865 -3.6366
 4510SOL     OW25162   4.171   3.647  15.165  0.1016 -0.0386  0.0184
 4510SOL    HW125163   4.258   3.610  15.181  0.1443  0.3735  0.7633
 4510SOL    HW225164   4.150   3.596  15.087  1.2437 -1.9788  0.9941
 4511SOL     OW25165   0.104   3.390   8.545 -0.2104 -0.3340 -0.3189
 4511SOL    HW125166   0.104   3.465   8.605 -0.3838 -1.9078  1.6320
 4511SOL    HW225167   0.011   3.370   8.532 -0.6173  1.8247 -0.8503
 4512SOL     OW25168   3.859   3.798   9.433  0.1355 -0.1276 -0.0231
 4512SOL    HW125169   3.803   3.803   9.511  2.1475 -1.3616  1.4727
 4512SOL    HW225170   3.947   3.801   9.470  0.0155  0.5793  0.2143
 4513SOL     OW25171   0.304   0.683   7.677  0.0548  0.0655 -0.4201
 4513SOL    HW125172   0.220   0.665   7.718 -0.5918  0.2524 -1.6756
 4513SOL    HW225173   0.279   0.660   7.588  1.8072 -2.1839 -0.3413
 4514SOL     OW25174   1.788   0.353   7.336  0.0818  0.6848  0.0534
 4514SOL    HW125175   1.809   0.431   7.284  0.6879 -0.1622 -0.9783
 4514SOL    HW225176   1.731   0.390   7.403  2.1879 -1.1393  2.8573
 4515SOL     OW25177   3.863   0.094  12.411 -0.0148 -0.2915 -0.5183
 4515SOL    HW125178   3.806   0.017  12.405  1.9111 -1.6106 -2.0739
 4515SOL    HW225179   3.867   0.100  12.506  1.6071  2.1501 -0.7543
 4516SOL     OW25180   0.970   3.000   4.995  0.1519  0.4849  0.0449
 4516SOL    HW125181   0.970   3.080   4.941  1.1271  0.9115  0.6583
 4516SOL    HW225182   0.881   2.968   4.992  0.2184  0.4003 -1.0722
 4517SOL     OW25183   2.436   4.281   5.561  0.0450 -0.1354 -0.2876
 4517SOL    HW125184   2.476   4.194   5.555  0.1450 -0.3276  3.3819
 4517SOL    HW225185   2.447   4.297   5.655 -0.2136 -0.6702 -0.1599
 4518SOL     OW25186   4.683   2.967   8.654  0.4528  0.4416  0.4121
 4518SOL    HW125187   0.019   2.917   8.610  0.0458  0.3809 -0.1552
 4518SOL    HW225188   4.642   3.000   8.574  0.0384  0.9128  0.8244
 4519SOL     OW25189   3.468   1.908   9.348 -0.2990 -0.6598 -0.2579
 4519SOL    HW125190   3.503   1.820   9.334  1.2083  0.1829 -1.7562
 4519SOL    HW225191   3.375   1.896   9.330  0.1309  0.6977 -3.3558
 4520SOL     OW25192   0.660   4.282   7.012  0.8106  0.0089 -0.3346
 4520SOL    HW125193   0.580   4.325   7.041  0.2125 -1.3497  0.0341
 4520SOL    HW225194   0.691   4.359   6.964  0.9045 -2.1159 -3.6357
 4521SOL     OW25195   4.136   2.829   8.612  0.1058 -0.0541 -0.0747
 4521SOL    HW125196   4.100   2.760   8.556  0.5641 -0.8457  0.6139
 4521SOL    HW225197   4.218   2.794   8.646  0.0703 -0.1834 -0.1221
 4522SOL     OW25198   1.751   3.095   5.850 -0.4836  0.2351  0.1329
 4522SOL    HW125199   1.661   3.114   5.824 -0.2463 -0.7991 -1.4394
 4522SOL    HW225200   1.729   3.085   5.942 -0.1693 -3.3855 -0.2114
 4523SOL     OW25201   1.709   0.173  10.061 -0.2358  0.1801  0.0159
 4523SOL    HW125202   1.622   0.132  10.055 -0.7425  1.1721  0.7544
 4523SOL    HW225203   1.767   0.115  10.011 -1.1730 -1.4370  0.7993
 4524SOL     OW25204   3.942   4.234   1.393 -0.0953 -0.7230 -0.0937
 4524SOL    HW125205   3.993   4.204   1.317  1.2512  0.3642  0.3804
 4524SOL    HW225206   3.869   4.275   1.346 -0.4435 -1.0386  0.1697
 4525SOL     OW25207   3.453   4.303   2.374 -0.6057  0.3484  0.1866
 4525SOL    HW125208   3.535   4.350   2.384  0.0368 -0.5442 -0.8775
 4525SOL    HW225209   3.398   4.372   2.336  0.3147  2.0078  1.8888
 4526SOL     OW25210   4.225   4.700   9.102 -0.2919 -0.6845 -0.3649
 4526SOL    HW125211   4.318   4.708   9.084 -0.2869 -0.6625 -0.3300
 4526SOL    HW225212   4.216   0.047   9.155 -1.0989 -1.6531  0.9423
 4527SOL     OW25213   4.047   0.774   2.586 -0.0933  0.5903  0.1742
 4527SOL    HW125214   4.064   0.865   2.612 -0.1740  0.9842 -1.1525
 4527SOL    HW225215   4.134   0.748   2.555 -0.1436 -0.5341  0.9695
 4528SOL     OW25216   4.537   1.628   9.095 -0.2189  0.4212  1.0534
 4528SOL    HW125217   4.444   1.614   9.113  0.2676 -0.1482  3.0621
 4528SOL    HW225218   4.532   1.720   9.070  1.1157 -0.0926 -1.0827
 4529SOL     OW25219   2.421   2.307   7.691 -0.4983 -0.0029 -0.5754
 4529SOL    HW125220   2.477   2.234   7.719  0.6282  0.2679 -2.1290
 4529SOL    HW225221   2.483   2.379   7.681 -1.0632  0.6702  0.7276
 4530SOL     OW25222   0.041   0.757   5.870  0.2151 -0.0273 -0.4866
 4530SOL    HW125223   0.080   0.693   5.930  0.7638  0.4554 -0.3244
 4530SOL    HW225224   4.721   0.713   5.804 -0.4655  0.2844 -0.1529
 4531SOL     OW25225   1.303   4.261   9.610  0.1045 -0.5923  0.6216
 4531SOL    HW125226   1.235   4.194   9.612 -2.2275  1.6303 -2.1311
 4531SOL    HW225227   1.346   4.246   9.525 -1.9837 -0.4263 -0.4716
 4532SOL     OW25228   1.761   0.611  17.106 -0.4006  0.4462  0.1916
 4532SOL    HW125229   1.768   0.604  17.010 -1.8511  2.8685 -0.1015
 4532SOL    HW225230   1.752   0.517  17.121 -1.0801  0.6688  1.1807
 4533SOL     OW25231   4.645   2.133   9.276  0.4018 -0.6159 -0.0345
 4533SOL    HW125232   4.638   2.148   9.181 -1.7679 -1.1468  0.0324
 4533SOL    HW225233   4.661   2.221   9.311 -1.5755 -0.5833  0.8041
 4534SOL     OW25234   3.417   0.822  17.413  0.5720  0.5977 -0.3418
 4534SOL    HW125235   3.331   0.857  17.438  1.7514  2.4565  1.0332
 4534SOL    HW225236   3.427   0.839  17.320 -3.1640  1.2009 -0.6384
 4535SOL     OW25237   2.881   3.057   5.551 -0.1744  0.0351  0.3035
 4535SOL    HW125238   2.803   3.050   5.496 -0.1499  0.8863  0.1542
 4535SOL    HW225239   2.947   3.060   5.482 -0.8111  0.0087 -0.3088
 4536SOL     OW25240   4.460   2.574   1.762 -1.2097  0.2476  0.2259
 4536SOL    HW125241   4.533   2.556   1.820 -1.0931  1.3412  0.4100
 4536SOL    HW225242   4.379   2.543   1.803 -0.9621  0.1182  0.6149
 4537SOL     OW25243   0.501   1.688  10.530  0.0116 -0.0399 -0.1089
 4537SOL    HW125244   0.472   1.634  10.603 -2.5868 -1.4332 -2.1875
 4537SOL    HW225245   0.568   1.738  10.578 -1.4967  2.1544 -0.2746
 4538SOL     OW25246   4.598   4.116   6.927 -0.5410  0.1449 -0.0813
 4538SOL    HW125247   4.624   4.144   6.839 -1.5299  1.0070 -0.0957
 4538SOL    HW225248   4.615   4.023   6.914  0.2423  0.2264  0.3605
 4539SOL     OW25249   0.497   4.013   3.137 -0.3327  0.2426  0.0462
 4539SOL    HW125250   0.539   4.016   3.223  0.7579  0.8348 -0.5195
 4539SOL    HW225251   0.528   4.090   3.090  0.9880 -1.0230 -1.1685
 4540SOL     OW25252   2.188   2.215  17.484  0.1935 -0.0550  0.4017
 4540SOL    HW125253   2.143   2.135  17.511 -2.7836  0.9882 -1.4723
 4540SOL    HW225254   2.115   2.269  17.453  1.0537  1.9407  1.8972
 4541SOL     OW25255   3.247   1.318  14.119 -0.1488  0.1391 -0.1701
 4541SOL    HW125256   3.248   1.234  14.165  0.8556  2.2245  3.6360
 4541SOL    HW225257   3.158   1.348  14.136  0.7446  1.4413  2.2337
 4542SOL     OW25258   2.177   1.320   9.109  0.1803  0.1865  0.0133
 4542SOL    HW125259   2.099   1.273   9.079 -0.8676  2.5427 -0.9937
 4542SOL    HW225260   2.149   1.335   9.200 -3.4022 -0.4657 -0.9786
 4543SOL     OW25261   0.317   0.035   5.094  0.5288 -0.0942  0.1253
 4543SOL    HW125262   0.375   0.046   5.169  1.5231 -0.2817 -0.6204
 4543SOL    HW225263   0.301   4.673   5.089 -0.8563  0.0195  2.5053
 4544SOL     OW25264   2.698   1.034   8.627  1.1844  0.1841  0.3523
 4544SOL    HW125265   2.624   1.094   8.621  1.7295  0.9531  1.2259
 4544SOL    HW225266   2.756   1.077   8.564  0.6587  1.6250  0.8657
 4545SOL     OW25267   3.329   0.263  11.932  0.3988 -0.4012  0.3063
 4545SOL    HW125268   3.350   0.216  12.012 -0.8242  2.2302  2.1472
 4545SOL    HW225269   3.282   0.201  11.876 -0.7259  0.7115  0.0373
 4546SOL     OW25270   3.344   0.209  13.758  0.0420  0.1420 -0.1250
 4546SOL    HW125271   3.369   0.183  13.669 -0.0674  2.4156 -0.8122
 4546SOL    HW225272   3.428   0.224  13.799 -0.8997  1.6812  1.2183
 4547SOL     OW25273   2.066   1.723   1.208 -0.3280  0.4426 -0.4314
 4547SOL    HW125274   2.002   1.789   1.181 -0.5677  0.3803 -0.0158
 4547SOL    HW225275   2.045   1.714   1.301 -1.7758  1.4957 -0.6596
 4548SOL     OW25276   1.320   1.519  16.741  1.1184 -0.3465  0.3622
 4548SOL    HW125277   1.392   1.581  16.748  0.7675 -0.0706  1.5455
 4548SOL    HW225278   1.267   1.551  16.814 -0.3268 -0.4529 -0.6356
 4549SOL     OW25279   4.006   3.070   6.266 -0.2141  0.1447 -0.0508
 4549SOL    HW125280   3.995   3.030   6.352 -0.3416  0.4085  0.0565
 4549SOL    HW225281   3.915   3.091   6.243  0.3577  2.5489 -0.1395
 4550SOL     OW25282   0.583   1.616  13.140  0.1158 -0.1877  0.0840
 4550SOL    HW125283   0.635   1.545  13.102 -0.0964 -1.0341  1.3525
 4550SOL    HW225284   0.499   1.599  13.097 -0.1188  2.4293 -0.4534
 4551SOL     OW25285   1.251   4.538  16.357  0.3719 -0.1542 -0.6030
 4551SOL    HW125286   1.203   4.466  16.398 -1.0644  0.6898 -0.8070
 4551SOL    HW225287   1.305   4.479  16.304 -0.5396 -0.7593 -0.8570
 4552SOL     OW25288   0.254   0.014   7.711 -0.3662  0.4704  0.6486
 4552SOL    HW125289   0.223   0.085   7.655  1.1966  0.3839 -0.3338
 4552SOL    HW225290   0.178   4.720   7.763 -0.9269  2.7804  1.0169
 4553SOL     OW25291   2.945   2.784   3.546 -0.5081  0.0122 -0.0015
 4553SOL    HW125292   2.999   2.715   3.509 -1.5935 -1.4070  1.0658
 4553SOL    HW225293   2.991   2.795   3.629  0.4208  3.2156 -0.9142
 4554SOL     OW25294   0.688   1.473   0.107 -0.5668 -0.2085 -0.1053
 4554SOL    HW125295   0.660   1.510   0.191 -0.2156  1.2176 -0.6211
 4554SOL    HW225296   0.607   1.429   0.080 -1.8350  0.8752  1.9230
 4555SOL     OW25297   0.492   1.176   8.089  0.2167 -0.0803  0.0278
 4555SOL    HW125298   0.557   1.152   8.155  0.0378  0.8881  0.5461
 4555SOL    HW225299   0.465   1.088   8.062  0.9411 -0.6054  1.0368
 4556SOL     OW25300   3.395   0.315   2.319  0.0758  0.1397 -0.2430
 4556SOL    HW125301   3.330   0.302   2.388  1.8049 -2.9657  0.7804
 4556SOL    HW225302   3.343   0.310   2.239 -0.7652 -0.1727  0.3276
 4557SOL     OW25303   4.046   4.469  10.355  0.3201  0.0582 -0.3395
 4557SOL    HW125304   3.993   4.391  10.373 -0.2696  0.5219 -0.0404
 4557SOL    HW225305   3.977   4.533  10.337  1.2738  1.3398  0.5671
 4558SOL     OW25306   3.548   0.340  11.239 -0.1241  0.4088  0.2695
 4558SOL    HW125307   3.570   0.395  11.314  3.3434  1.4129 -1.5198
 4558SOL    HW225308   3.600   0.262  11.255 -0.1302  0.9368  2.7940
 4559SOL     OW25309   0.244   4.205   3.325 -0.3719 -0.2757 -0.3243
 4559SOL    HW125310   0.251   4.114   3.352  0.0630  0.0457  0.6451
 4559SOL    HW225311   0.164   4.229   3.372  0.3560  1.6380 -0.0405
 4560SOL     OW25312   0.777   1.358  11.668  0.6036  0.0944  0.1519
 4560SOL    HW125313   0.759   1.269  11.696  0.0134  0.4568  0.9235
 4560SOL    HW225314   0.787   1.335  11.575 -1.5841  1.3080 -0.3860
 4561SOL     OW25315   2.225   0.510  10.421  0.2349  0.2807 -1.0729
 4561SOL    HW125316   2.141   0.535  10.383  0.5066  0.0740 -1.8150
 4561SOL    HW225317   2.208   0.521  10.514 -1.2767  0.5236 -1.3884
 4562SOL     OW25318   2.046   4.051  11.522  0.3133  0.2364 -0.3105
 4562SOL    HW125319   2.063   4.138  11.558  0.9160  0.0694 -0.1814
 4562SOL    HW225320   2.009   4.001  11.595  1.6223  0.3024  0.4082
 4563SOL     OW25321   2.277   1.138   9.454  0.2150  0.0407  0.2960
 4563SOL    HW125322   2.243   1.223   9.483 -2.6629 -0.7642 -0.7761
 4563SOL    HW225323   2.371   1.154   9.443  0.0569  1.0179  0.3192
 4564SOL     OW25324   0.980   4.003   8.205 -0.2420 -0.1638  0.4669
 4564SOL    HW125325   1.068   4.033   8.185  0.0584 -1.4613 -0.1643
 4564SOL    HW225326   0.989   3.989   8.300 -1.6365  0.1791  0.6512
 4565SOL     OW25327   2.551   1.752   8.025  0.0110  0.3728 -0.5474
 4565SOL    HW125328   2.499   1.751   8.105  0.7912 -0.2154 -0.0472
 4565SOL    HW225329   2.536   1.667   7.983  0.8660 -0.2370  0.3889
 4566SOL     OW25330   1.679   0.567   2.301 -0.6497 -0.3323 -0.1803
 4566SOL    HW125331   1.653   0.494   2.356 -0.8813 -0.1046  0.0159
 4566SOL    HW225332   1.589   0.600   2.298 -0.3633  0.4893  0.2423
 4567SOL     OW25333   0.713   2.483  13.749 -0.1718  0.6983 -0.0476
 4567SOL    HW125334   0.690   2.458  13.838 -2.3180  0.9085 -0.5494
 4567SOL    HW225335   0.774   2.556  13.759  0.0729  0.7443 -1.8076
 4568SOL     OW25336   1.511   4.197   4.551  0.2446 -0.2148 -0.2626
 4568SOL    HW125337   1.416   4.203   4.560  0.1988 -0.3869 -0.5942
 4568SOL    HW225338   1.512   4.127   4.485  2.4223 -0.3151 -0.1185
 4569SOL     OW25339   1.336   2.890   3.902 -0.1849 -0.3275  0.0925
 4569SOL    HW125340   1.270   2.939   3.852  0.9350 -2.7720 -3.7746
 4569SOL    HW225341   1.325   2.911   3.994 -4.1868  3.2998 -1.1938
 4570SOL     OW25342   3.696   4.098   6.641  0.7004  0.0226  0.4741
 4570SOL    HW125343   3.602   4.086   6.625  0.7041 -1.7882  1.8847
 4570SOL    HW225344   3.723   4.051   6.562 -1.1431 -1.0231  0.4512
 4571SOL     OW25345   1.604   4.458   4.247  0.3527  1.2208  0.0385
 4571SOL    HW125346   1.611   4.542   4.293  1.3014  0.3255  1.5358
 4571SOL    HW225347   1.514   4.439   4.273 -0.0630  0.0853 -2.2515
 4572SOL     OW25348   3.789   2.537   3.981 -0.7116 -0.5932  0.0148
 4572SOL    HW125349   3.744   2.452   3.979 -1.4788 -0.1848 -0.3823
 4572SOL    HW225350   3.777   2.561   3.889  0.6477 -2.1062 -0.5654
 4573SOL     OW25351   3.657   0.657  15.946  0.1508  0.0365  0.0177
 4573SOL    HW125352   3.594   0.721  15.912 -1.4475 -1.1333  0.7891
 4573SOL    HW225353   3.734   0.712  15.959  0.1141  0.3614 -1.1059
 4574SOL     OW25354   2.844   0.493   6.477  0.3706 -0.0767  0.5056
 4574SOL    HW125355   2.901   0.416   6.485 -0.3419 -0.6382  0.2098
 4574SOL    HW225356   2.758   0.455   6.494 -0.2045  0.6498 -0.7723
 4575SOL     OW25357   1.297   3.427   5.979 -0.5320 -0.4342  0.2099
 4575SOL    HW125358   1.261   3.515   5.967  0.7478 -0.0486 -0.8645
 4575SOL    HW225359   1.389   3.441   5.957  0.2449 -1.5424  2.7413
 4576SOL     OW25360   3.124   1.361   0.954 -0.6634 -0.2811 -0.2037
 4576SOL    HW125361   3.089   1.372   0.866  0.5151  2.8928 -0.2881
 4576SOL    HW225362   3.172   1.278   0.950  1.2961  0.8195  0.5699
 4577SOL     OW25363   2.408   0.618   4.300 -0.2406  0.2499 -0.3196
 4577SOL    HW125364   2.354   0.556   4.351  0.1774  0.7860  0.7571
 4577SOL    HW225365   2.339   0.682   4.280  0.1571  0.6281 -0.4700
 4578SOL     OW25366   3.078   2.075   7.289  0.4295 -0.2701  0.3363
 4578SOL    HW125367   3.156   2.114   7.330 -0.5498  1.2004  0.8044
 4578SOL    HW225368   3.000   2.115   7.328  0.0901  1.4147 -2.0589
 4579SOL     OW25369   3.345   2.048  13.136  0.2471 -0.3840  0.2366
 4579SOL    HW125370   3.282   2.097  13.189  0.3902 -0.2559  0.2898
 4579SOL    HW225371   3.285   1.981  13.104  0.5105 -0.1154 -0.8325
 4580SOL     OW25372   3.590   0.539   9.796  0.3633 -0.4126 -0.0620
 4580SOL    HW125373   3.602   0.598   9.871 -1.1135 -1.6127  1.1234
 4580SOL    HW225374   3.665   0.481   9.811 -0.5926 -1.4497  0.6538
 4581SOL     OW25375   3.306   4.732  12.377  0.1534  0.5903  0.2819
 4581SOL    HW125376   3.313   0.025  12.469  3.3707  2.1004 -0.3930
 4581SOL    HW225377   3.391   0.021  12.338 -0.4223 -0.2478 -1.4405
 4582SOL     OW25378   4.148   0.038  12.419  0.2990  0.5276 -0.3328
 4582SOL    HW125379   4.068   4.727  12.448  1.3297  1.5145  3.9994
 4582SOL    HW225380   4.141   0.019  12.326  0.4933  0.2847 -0.2989
 4583SOL     OW25381   4.598   2.108  16.949  0.1184 -0.0219 -0.1519
 4583SOL    HW125382   4.520   2.054  16.938 -0.5860  1.0870 -0.5889
 4583SOL    HW225383   4.549   2.186  16.923  1.0414  1.2828  1.9653
 4584SOL     OW25384   4.020   3.122  13.841  0.0429  0.1243 -0.1921
 4584SOL    HW125385   4.001   3.204  13.795 -0.7485  0.0023 -0.0676
 4584SOL    HW225386   3.984   3.060  13.778 -0.2639 -0.4995  0.6018
 4585SOL     OW25387   3.521   4.601   3.364 -0.1872  0.2510 -0.0054
 4585SOL    HW125388   3.523   4.621   3.270  2.2194 -0.9692 -0.2049
 4585SOL    HW225389   3.571   4.520   3.357 -0.6396  0.0380 -0.8878
 4586SOL     OW25390   4.655   2.452  15.701  0.1919 -0.5873 -1.1475
 4586SOL    HW125391   4.631   2.439  15.609 -1.8506 -0.5158 -0.6238
 4586SOL    HW225392   4.677   2.361  15.720 -0.3470 -0.2485  1.0853
 4587SOL     OW25393   0.339   0.698  13.918 -0.0713 -0.0729 -0.1071
 4587SOL    HW125394   0.249   0.716  13.892  0.1836  0.9277 -0.2786
 4587SOL    HW225395   0.340   0.758  13.992 -1.5337 -0.7466  0.4520
 4588SOL     OW25396   1.442   4.333  15.755  0.2553  0.0061 -0.0836
 4588SOL    HW125397   1.352   4.358  15.774 -0.2371  0.0529 -2.4840
 4588SOL    HW225398   1.438   4.329  15.659 -0.6063  1.8179 -0.1284
 4589SOL     OW25399   2.873   1.812   7.666 -0.6488  0.0611 -0.1235
 4589SOL    HW125400   2.805   1.795   7.731 -1.8250  2.8891 -0.6309
 4589SOL    HW225401   2.868   1.727   7.622  1.3776 -1.7027  3.0403
 4590SOL     OW25402   4.204   0.530   1.657  0.0386  0.3891  0.0987
 4590SOL    HW125403   4.231   0.591   1.726  0.7980  0.1158  0.0331
 4590SOL    HW225404   4.279   0.535   1.598 -0.0070  0.7260  0.0707
 4591SOL     OW25405   0.167   1.547   8.608 -0.3769  0.6457 -0.4972
 4591SOL    HW125406   0.098   1.487   8.635  1.7673 -1.0867  1.0720
 4591SOL    HW225407   0.200   1.574   8.693 -0.3004  0.3397 -0.4314
 4592SOL     OW25408   1.684   4.507  12.437 -0.4256  0.4662  0.5483
 4592SOL    HW125409   1.592   4.515  12.462 -0.3003  1.3924  0.7387
 4592SOL    HW225410   1.676   4.443  12.367 -2.6593  0.7438  0.5614
 4593SOL     OW25411   2.978   1.864   0.626 -0.6931  0.0204 -0.3190
 4593SOL    HW125412   3.048   1.822   0.676  0.9489  2.3191 -0.6607
 4593SOL    HW225413   3.027   1.883   0.547 -0.9357 -0.3244 -0.5521
 4594SOL     OW25414   4.097   3.515   7.496  0.1395  0.6301  0.4463
 4594SOL    HW125415   4.118   3.603   7.465 -0.7894 -0.0970 -2.2640
 4594SOL    HW225416   4.099   3.534   7.590  0.1645 -0.0005  0.5737
 4595SOL     OW25417   3.810   3.495   7.221 -0.2510  0.1141  0.4205
 4595SOL    HW125418   3.826   3.585   7.249 -1.4077 -0.0329  1.5553
 4595SOL    HW225419   3.804   3.446   7.303  1.9364 -2.8385 -1.1561
 4596SOL     OW25420   4.489   0.940   8.000 -0.2566  0.5759  0.1909
 4596SOL    HW125421   4.558   0.985   7.952  0.3882  0.6421  1.1641
 4596SOL    HW225422   4.418   0.955   7.937  0.1508  2.1156  0.0868
 4597SOL     OW25423   0.243   1.170   9.975 -0.9844  0.0092  0.3151
 4597SOL    HW125424   0.318   1.222  10.002  1.1913 -2.7216 -0.4246
 4597SOL    HW225425   0.169   1.229   9.964 -0.7279  0.0045 -1.4674
 4598SOL     OW25426   3.794   1.158   5.178  0.3274  0.6200  0.0391
 4598SOL    HW125427   3.733   1.153   5.252 -1.0023 -1.2496 -1.1954
 4598SOL    HW225428   3.865   1.116   5.226 -0.6090 -0.2571  0.6574
 4599SOL     OW25429   0.481   1.822   5.962 -0.2258  0.1846  0.6894
 4599SOL    HW125430   0.438   1.834   6.046  1.6722 -2.0509  1.9742
 4599SOL    HW225431   0.489   1.726   5.956 -0.6637  0.2060 -0.3498
 4600SOL     OW25432   4.342   2.932  10.798  0.6026 -0.5440  0.3740
 4600SOL    HW125433   4.268   2.914  10.740 -0.0054 -0.5292  1.1429
 4600SOL    HW225434   4.293   2.955  10.877 -0.2717  1.8414 -0.8825
 4601SOL     OW25435   4.353   3.057  11.498 -0.9834  0.5660  0.0478
 4601SOL    HW125436   4.389   2.979  11.454  1.2679  0.9310  1.2757
 4601SOL    HW225437   4.385   3.041  11.586  0.5264  1.2627 -0.3726
 4602SOL     OW25438   2.928   3.493   2.509  0.0389 -0.3034 -0.4232
 4602SOL    HW125439   2.853   3.499   2.450 -0.8060  0.2797  0.7092
 4602SOL    HW225440   2.956   3.585   2.503  1.4214 -0.8666 -2.3982
 4603SOL     OW25441   0.404   4.067   6.218 -0.3768  0.5162  0.4248
 4603SOL    HW125442   0.452   4.128   6.274 -0.6853  1.7467 -0.6474
 4603SOL    HW225443   0.478   4.010   6.197  1.0159  3.0205 -1.5099
 4604SOL     OW25444   0.652   1.522   1.287  0.6201  0.1788  0.5685
 4604SOL    HW125445   0.746   1.526   1.266 -0.0211 -0.5632 -2.5224
 4604SOL    HW225446   0.622   1.437   1.255 -0.8284 -0.0915  2.6510
 4605SOL     OW25447   2.359   1.733  10.892  0.4267  0.2257  0.4168
 4605SOL    HW125448   2.407   1.650  10.890 -1.9695 -1.1015 -2.4767
 4605SOL    HW225449   2.425   1.781  10.842 -1.0630  0.4224 -1.3705
 4606SOL     OW25450   2.849   4.519   7.628  0.0264  0.6752 -0.1675
 4606SOL    HW125451   2.790   4.551   7.560 -0.2335  1.1429  0.2785
 4606SOL    HW225452   2.810   4.568   7.700 -1.2518 -0.0324 -0.3721
 4607SOL     OW25453   1.102   4.406  13.868  0.3993 -0.0035 -0.1880
 4607SOL    HW125454   1.090   4.320  13.828  1.7066 -1.2691  2.1706
 4607SOL    HW225455   1.140   4.381  13.952 -0.7630  1.1208  0.6938
 4608SOL     OW25456   4.632   2.342  12.178  0.2103  0.0730 -0.0137
 4608SOL    HW125457   4.545   2.338  12.139  0.3496  1.7842 -0.4949
 4608SOL    HW225458   4.646   2.257  12.220  0.0437 -0.5229 -1.1593
 4609SOL     OW25459   4.337   4.071   3.410 -0.0812 -0.4437  0.0296
 4609SOL    HW125460   4.427   4.092   3.435  0.1506 -1.0955 -0.2415
 4609SOL    HW225461   4.287   4.106   3.484  0.2812 -0.6660  0.3787
 4610SOL     OW25462   2.073   4.504   5.855 -0.3333  0.3789 -0.7120
 4610SOL    HW125463   2.148   4.509   5.796  0.5407  1.0173  0.4740
 4610SOL    HW225464   2.108   4.465   5.935 -2.2353 -1.1492 -0.6183
 4611SOL     OW25465   3.081   4.519   2.772  0.5466  0.3121 -0.1463
 4611SOL    HW125466   3.142   4.592   2.762  0.9776  0.1981  1.6789
 4611SOL    HW225467   3.038   4.542   2.854  0.5742  0.3226 -0.1350
 4612SOL     OW25468   1.365   2.686  12.073 -0.5119 -0.2703  0.2448
 4612SOL    HW125469   1.318   2.756  12.029  0.5372  0.1991 -0.1064
 4612SOL    HW225470   1.452   2.725  12.075 -1.4060  1.6435  1.3806
 4613SOL     OW25471   1.304   2.105  10.528 -0.2219  0.4429  0.6933
 4613SOL    HW125472   1.340   2.140  10.447  0.7126  1.2788  1.4662
 4613SOL    HW225473   1.347   2.164  10.590  1.3585  1.0157 -0.9549
 4614SOL     OW25474   3.334   2.052   3.084  0.0904  0.0499  0.0907
 4614SOL    HW125475   3.290   2.113   3.143  0.0173 -1.5485  1.6770
 4614SOL    HW225476   3.418   2.039   3.128 -1.8016 -0.6986  3.4317
 4615SOL     OW25477   0.275   2.183  16.778 -0.2929  0.1635  0.4260
 4615SOL    HW125478   0.314   2.262  16.816 -0.1013  0.9087 -1.3509
 4615SOL    HW225479   0.182   2.206  16.790 -0.6251 -0.9169 -0.1324
 4616SOL     OW25480   2.553   3.190   0.912 -0.3874 -0.1724  0.1512
 4616SOL    HW125481   2.543   3.115   0.853  0.4026  1.2784 -1.8234
 4616SOL    HW225482   2.463   3.222   0.918 -0.0607  0.8583 -0.3982
 4617SOL     OW25483   0.033   4.081   1.751 -0.0523  0.2588 -0.6074
 4617SOL    HW125484   4.682   4.061   1.708 -0.4003 -0.6650  0.4704
 4617SOL    HW225485   0.038   4.173   1.725 -1.0261  1.1271  2.1710
 4618SOL     OW25486   3.580   3.733   3.439  0.4906 -0.1799  0.1973
 4618SOL    HW125487   3.524   3.679   3.384 -0.2224  1.3450 -0.5671
 4618SOL    HW225488   3.516   3.777   3.495 -0.3112 -0.3211 -0.6159
 4619SOL     OW25489   3.957   3.817   4.309 -0.5176  0.4579  0.8419
 4619SOL    HW125490   3.868   3.788   4.329 -0.8510  0.4914 -0.5657
 4619SOL    HW225491   3.929   3.862   4.229 -0.8840  0.2042  0.8308
 4620SOL     OW25492   3.279   4.120   8.747  0.2959 -0.0999 -0.4072
 4620SOL    HW125493   3.264   4.032   8.712 -0.0457 -0.6397  1.0968
 4620SOL    HW225494   3.300   4.102   8.839  1.4589  1.9457 -0.2814
 4621SOL     OW25495   4.202   1.310   3.614  0.5625 -0.1124 -0.1262
 4621SOL    HW125496   4.265   1.375   3.648  1.3617 -0.5277 -0.8142
 4621SOL    HW225497   4.119   1.337   3.653  0.3045 -1.9515  0.5965
 4622SOL     OW25498   0.217   2.663  14.319 -0.3050  0.1730  0.2028
 4622SOL    HW125499   0.127   2.657  14.287 -1.2499  0.8495  2.7515
 4622SOL    HW225500   0.203   2.642  14.412 -0.0269  1.5564  0.5516
 4623SOL     OW25501   1.663   2.494  12.452 -0.1180  0.1564  0.7125
 4623SOL    HW125502   1.606   2.558  12.410 -0.8069 -1.9038 -1.4526
 4623SOL    HW225503   1.648   2.507  12.546  0.6925 -1.8271  1.1090
 4624SOL     OW25504   0.784   4.337   3.703  0.5066 -0.1384  0.1328
 4624SOL    HW125505   0.727   4.301   3.771 -0.6130 -1.0451 -1.2787
 4624SOL    HW225506   0.773   4.428   3.731 -0.8332 -0.2920  0.1278
 4625SOL     OW25507   2.309   4.719   6.030  0.1225 -0.5815  0.0439
 4625SOL    HW125508   2.404   4.725   6.036  0.1208 -1.3352  0.7827
 4625SOL    HW225509   2.305   4.626   6.053 -0.7218 -0.2861  1.0940
 4626SOL     OW25510   0.284   4.535   6.354 -0.4701  0.1177 -0.2893
 4626SOL    HW125511   0.336   4.597   6.405  2.1458 -0.3518 -2.3952
 4626SOL    HW225512   0.352   4.509   6.292 -0.2815 -0.1173  0.0219
 4627SOL     OW25513   4.003   2.391   2.815  0.3263 -0.9733 -0.3540
 4627SOL    HW125514   3.954   2.434   2.885  0.1776 -1.0250 -0.4265
 4627SOL    HW225515   4.008   2.471   2.762 -0.0103 -1.7847 -1.5964
 4628SOL     OW25516   3.172   3.217  12.590  0.0157  0.2264  0.0238
 4628SOL    HW125517   3.088   3.239  12.631  0.7162 -0.8850  2.0072
 4628SOL    HW225518   3.237   3.231  12.658  0.9306  0.5011 -0.8990
 4629SOL     OW25519   0.973   4.269   4.257  0.4848  0.1629  0.1271
 4629SOL    HW125520   0.888   4.255   4.215 -0.8663  0.2783  2.7991
 4629SOL    HW225521   1.027   4.206   4.210  0.6877  0.5970 -0.2229
 4630SOL     OW25522   0.028   4.239   7.694 -0.2999 -0.1285 -0.1705
 4630SOL    HW125523   0.086   4.207   7.626 -1.3100 -0.9590 -0.6360
 4630SOL    HW225524   0.023   4.329   7.662 -1.3584 -0.7975 -1.8926
 4631SOL     OW25525   4.196   2.800   2.434 -0.1869  0.8294 -0.1064
 4631SOL    HW125526   4.190   2.895   2.424  2.4655  1.1827  1.7542
 4631SOL    HW225527   4.225   2.794   2.525  1.9265  0.8869 -0.7710
 4632SOL     OW25528   0.221   1.412   5.200 -0.5096 -0.8289  0.4974
 4632SOL    HW125529   0.199   1.466   5.276  2.5279  0.7897  0.2282
 4632SOL    HW225530   0.270   1.343   5.245  1.8610  1.2465  1.1339
 4633SOL     OW25531   4.429   2.549   3.366  0.0483  0.3135 -0.6650
 4633SOL    HW125532   4.496   2.515   3.307 -0.8581 -2.5350 -0.0564
 4633SOL    HW225533   4.412   2.637   3.333  0.2176  0.3045 -0.7761
 4634SOL     OW25534   0.248   3.598   0.787  0.2392  0.1449  0.2797
 4634SOL    HW125535   0.162   3.579   0.751  0.8574  0.4730 -1.3772
 4634SOL    HW225536   0.235   3.552   0.870  0.2816 -1.7060 -0.7424
 4635SOL     OW25537   3.384   4.221   9.315  0.7035 -0.5271  0.3756
 4635SOL    HW125538   3.294   4.223   9.281  0.1968 -0.9155  1.7050
 4635SOL    HW225539   3.421   4.145   9.269  1.6743 -0.8378  1.6600
 4636SOL     OW25540   0.961   4.315  15.494 -0.1209 -0.1055 -0.3130
 4636SOL    HW125541   0.967   4.242  15.433  1.4272 -1.5646  1.6070
 4636SOL    HW225542   0.941   4.388  15.435  1.4222 -0.4383 -1.2298
 4637SOL     OW25543   3.393   2.994   9.187  0.2187  0.0484  0.3216
 4637SOL    HW125544   3.408   2.993   9.282 -0.0756  2.5139  0.3922
 4637SOL    HW225545   3.413   3.086   9.172 -0.7482  0.2514  0.2877
 4638SOL     OW25546   2.155   3.508   5.932  0.4124  0.2030  0.0987
 4638SOL    HW125547   2.181   3.416   5.934  0.1955  0.1799  1.9276
 4638SOL    HW225548   2.138   3.521   5.839 -0.1370 -0.2528  0.1330
 4639SOL     OW25549   3.139   2.773   5.308  0.3410 -0.4836 -0.3117
 4639SOL    HW125550   3.114   2.695   5.259 -1.1363 -0.0977 -0.1797
 4639SOL    HW225551   3.067   2.773   5.371  0.9664  1.3982  0.4141
 4640SOL     OW25552   2.622   0.599   6.020  0.3700 -0.2344 -0.2389
 4640SOL    HW125553   2.700   0.598   6.076  0.1019 -1.1630  0.1026
 4640SOL    HW225554   2.656   0.563   5.938 -1.8972 -1.3084 -0.7007
 4641SOL     OW25555   3.244   1.115   6.436 -0.6160  0.2395  0.5221
 4641SOL    HW125556   3.280   1.176   6.500 -1.4354  0.7822  0.4634
 4641SOL    HW225557   3.311   1.106   6.368  0.6136  0.1310  1.7577
 4642SOL     OW25558   0.016   0.325   2.897  0.5423  0.1854 -0.0064
 4642SOL    HW125559   0.085   0.259   2.896 -0.4303 -0.8251 -0.3297
 4642SOL    HW225560   4.683   0.285   2.954  1.1186 -1.2683 -0.3772
 4643SOL     OW25561   1.101   2.827   4.796 -0.2236  0.2936 -0.3158
 4643SOL    HW125562   1.033   2.876   4.843 -2.4313 -1.1400 -2.0033
 4643SOL    HW225563   1.057   2.813   4.713  0.7054  0.0279 -0.7611
 4644SOL     OW25564   0.935   0.400  15.385 -0.2600  0.0472 -0.3782
 4644SOL    HW125565   0.886   0.482  15.380  0.0195  0.3113  1.1938
 4644SOL    HW225566   1.024   0.420  15.411  0.1135 -1.5895 -0.3642
 4645SOL     OW25567   2.648   2.539  10.191 -0.0409 -0.2785  0.0905
 4645SOL    HW125568   2.731   2.494  10.210 -0.1197  0.6777  2.7603
 4645SOL    HW225569   2.577   2.480  10.217 -0.4517  0.4282  0.5692
 4646SOL     OW25570   4.561   3.340   4.886 -0.6746 -0.7002 -0.1434
 4646SOL    HW125571   4.565   3.336   4.790 -0.9674  1.6489 -0.2489
 4646SOL    HW225572   4.469   3.362   4.899 -0.7522  0.3392 -2.4755
 4647SOL     OW25573   3.148   0.049   4.667 -0.1602 -0.1484  0.1890
 4647SOL    HW125574   3.202   4.711   4.703  0.2982  0.3832  0.5571
 4647SOL    HW225575   3.065   0.006   4.686  0.4562 -1.7370 -0.7331
 4648SOL     OW25576   1.829   0.837  11.490 -0.1136  0.2717  0.0760
 4648SOL    HW125577   1.903   0.860  11.433  0.5342 -1.7469  0.0661
 4648SOL    HW225578   1.785   0.914  11.523  2.0642  1.2557  0.6834
 4649SOL     OW25579   4.330   1.104   6.518 -0.0637 -0.4549  0.4343
 4649SOL    HW125580   4.416   1.097   6.477 -0.3452 -0.9285 -0.0700
 4649SOL    HW225581   4.315   1.198   6.528  2.4515  0.1429 -1.3778
 4650SOL     OW25582   4.078   4.091   2.065 -0.3953 -0.3447 -0.4356
 4650SOL    HW125583   4.066   4.011   2.115  1.3320  0.0144  0.5439
 4650SOL    HW225584   4.101   4.146   2.140  2.5619 -0.8198 -0.9801
 4651SOL     OW25585   2.222   2.260   5.162 -0.1921  0.1080 -0.0397
 4651SOL    HW125586   2.307   2.219   5.179  1.1682  1.7446 -2.8018
 4651SOL    HW225587   2.216   2.323   5.234 -0.6202 -2.8277  2.4987
 4652SOL     OW25588   3.686   0.032   3.796 -0.1477 -0.5082 -0.0715
 4652SOL    HW125589   3.661   4.700   3.730 -0.3754 -0.9136  0.4073
 4652SOL    HW225590   3.596   0.044   3.825 -0.3589  0.6431 -1.1851
 4653SOL     OW25591   3.072   1.338  13.101  0.6265  0.6205 -0.0174
 4653SOL    HW125592   2.979   1.333  13.077  1.1947 -0.3426 -2.0451
 4653SOL    HW225593   3.107   1.295  13.022  2.2778 -1.1816  1.7000
 4654SOL     OW25594   4.042   1.070   9.763 -0.3223  0.2849  0.2912
 4654SOL    HW125595   4.070   0.986   9.801 -1.0919  0.3928  1.1114
 4654SOL    HW225596   4.056   1.134   9.833  1.7263  1.2015 -0.9591
 4655SOL     OW25597   0.983   0.342  17.548 -0.0977 -0.6221  0.2436
 4655SOL    HW125598   0.973   0.397  17.470  0.1588  0.1024  0.7360
 4655SOL    HW225599   0.907   0.371  17.598  1.1081  0.7326  1.2398
 4656SOL     OW25600   2.028   1.683   7.068 -0.7252 -0.4609 -0.2138
 4656SOL    HW125601   2.039   1.757   7.128 -0.2221 -0.1380 -0.7098
 4656SOL    HW225602   2.058   1.719   6.985 -0.7748  1.5507  0.6242
 4657SOL     OW25603   1.121   3.034   3.809 -0.1686 -0.2160 -0.1818
 4657SOL    HW125604   1.071   3.080   3.742 -1.7168 -4.2649 -1.7998
 4657SOL    HW225605   1.125   3.098   3.881  1.1296 -2.7532  2.0100
 4658SOL     OW25606   1.663   4.675   2.027  0.3243 -0.2481 -0.1761
 4658SOL    HW125607   1.590   4.661   2.088 -0.8258  1.7674 -1.1110
 4658SOL    HW225608   1.627   4.651   1.942  0.8793 -2.4215  0.1765
 4659SOL     OW25609   2.324   2.830   6.222  0.0077 -0.1947 -0.0707
 4659SOL    HW125610   2.351   2.806   6.134  0.9612 -4.1272  1.2776
 4659SOL    HW225611   2.267   2.755   6.240  1.7404 -1.7460 -1.0205
 4660SOL     OW25612   4.205   0.236   3.158 -0.5344  0.2946 -0.0892
 4660SOL    HW125613   4.248   0.303   3.210  0.4997 -0.9774  0.6799
 4660SOL    HW225614   4.177   0.279   3.077 -0.6820 -0.6455 -0.5370
 4661SOL     OW25615   4.138   3.440   2.177 -0.0740 -0.0454 -0.0419
 4661SOL    HW125616   4.055   3.395   2.161  1.1869 -2.4019 -0.0374
 4661SOL    HW225617   4.160   3.465   2.087 -0.6830 -0.3199 -0.2678
 4662SOL     OW25618   4.033   3.501   1.040 -0.2244 -0.0597 -0.0283
 4662SOL    HW125619   4.107   3.455   1.080 -0.0185  0.4492  0.1768
 4662SOL    HW225620   4.081   3.549   0.972 -0.9653 -0.3361 -0.7392
 4663SOL     OW25621   1.789   3.503   9.374 -0.2271 -0.6846  0.3640
 4663SOL    HW125622   1.829   3.589   9.356 -1.0463 -0.3954 -0.0343
 4663SOL    HW225623   1.854   3.438   9.347 -0.3386 -0.9613  0.7602
 4664SOL     OW25624   3.728   0.836   8.367 -0.2676  0.2908  0.2765
 4664SOL    HW125625   3.789   0.762   8.358 -1.3953 -0.5836 -0.2492
 4664SOL    HW225626   3.666   0.829   8.295 -0.1666 -2.1460  0.4127
 4665SOL     OW25627   3.135   0.862   3.321  0.3940 -0.3231  0.1308
 4665SOL    HW125628   3.226   0.878   3.295 -0.7073 -0.9437 -3.9692
 4665SOL    HW225629   3.092   0.945   3.299 -0.6222 -0.7800  0.4117
 4666SOL     OW25630   2.908   0.304   2.834  0.4310  0.0472 -0.1145
 4666SOL    HW125631   2.814   0.289   2.829  0.3289  0.7329 -0.2835
 4666SOL    HW225632   2.921   0.381   2.890  0.5489  1.0622 -1.5383
 4667SOL     OW25633   3.558   2.705   5.263  0.2501 -0.5147 -0.2084
 4667SOL    HW125634   3.484   2.764   5.275 -1.5150 -2.9299  0.6549
 4667SOL    HW225635   3.525   2.633   5.209 -0.4892  0.1780 -0.6792
 4668SOL     OW25636   3.477   4.701   2.554 -0.3652  0.2963  0.0744
 4668SOL    HW125637   3.385   4.686   2.530  0.0884  1.7215 -2.5012
 4668SOL    HW225638   3.508   0.007   2.472 -1.8722 -1.4905 -1.3526
 4669SOL     OW25639   4.674   0.304   2.620 -0.0313  0.2856  0.5908
 4669SOL    HW125640   4.719   0.327   2.701  0.2891  2.3426 -0.1619
 4669SOL    HW225641   4.645   0.221   2.658 -0.4046  0.3233  0.3904
 4670SOL     OW25642   4.573   1.763   2.697 -0.1736 -0.5526  0.1675
 4670SOL    HW125643   4.584   1.839   2.640  1.1845 -0.4601  0.5525
 4670SOL    HW225644   4.488   1.789   2.734 -1.0416 -3.7410  0.4495
 4671SOL     OW25645   3.090   0.623   3.150  0.1490 -0.4380  0.4204
 4671SOL    HW125646   3.093   0.706   3.199  1.8714 -0.9086  1.1176
 4671SOL    HW225647   3.180   0.598   3.170  0.1735  0.3326  1.2853
 4672SOL     OW25648   1.719   0.604   3.704  0.1442 -0.4787  0.6901
 4672SOL    HW125649   1.670   0.683   3.683  2.3847  0.5259 -0.6987
 4672SOL    HW225650   1.712   0.545   3.629 -0.5894 -0.9960  1.1693
 4673SOL     OW25651   1.333   0.653   8.225  0.2034 -0.3518 -0.7347
 4673SOL    HW125652   1.410   0.711   8.228  0.2732 -0.3674 -2.5140
 4673SOL    HW225653   1.259   0.712   8.215  2.0087  2.1376  0.4491
 4674SOL     OW25654   0.291   0.567   9.279 -0.4827 -0.2080 -0.1715
 4674SOL    HW125655   0.340   0.648   9.292 -0.4075 -0.2914  0.0629
 4674SOL    HW225656   0.288   0.567   9.183 -2.7538 -1.3879 -0.1019
 4675SOL     OW25657   1.353   2.678   5.592 -0.1641  0.6476 -0.6055
 4675SOL    HW125658   1.281   2.679   5.529  2.3201 -1.5352 -3.4851
 4675SOL    HW225659   1.323   2.613   5.656 -1.3450  1.2081 -0.5994
 4676SOL     OW25660   4.441   4.594   4.616  0.0468 -0.5038 -0.0465
 4676SOL    HW125661   4.394   4.675   4.596  0.2015 -0.6412 -0.9542
 4676SOL    HW225662   4.379   4.562   4.682 -0.1295 -0.0863 -0.0080
 4677SOL     OW25663   1.974   0.295   7.973 -0.5055  0.0697  0.6966
 4677SOL    HW125664   2.040   0.357   7.941 -0.3448  0.3133  1.4881
 4677SOL    HW225665   1.948   0.257   7.889 -2.3254  0.9114  0.8692
 4678SOL     OW25666   0.393   4.207   8.891  0.5680  0.1329  0.2757
 4678SOL    HW125667   0.395   4.229   8.984  3.5694 -2.6215  0.8572
 4678SOL    HW225668   0.479   4.164   8.894  0.0608 -1.0406 -1.6936
 4679SOL     OW25669   0.314   3.183   1.173  0.7919  0.3029 -0.2395
 4679SOL    HW125670   0.305   3.261   1.226  1.6695 -2.0415  3.3726
 4679SOL    HW225671   0.403   3.156   1.195  0.7002 -1.1066 -1.5559
 4680SOL     OW25672   1.277   1.940   4.425  0.1403  0.1174 -0.5068
 4680SOL    HW125673   1.187   1.930   4.457 -0.0703 -0.2106 -1.2064
 4680SOL    HW225674   1.272   1.911   4.334 -0.3618  2.2799 -1.1874
 4681SOL     OW25675   0.910   0.550   7.251 -0.8173  0.2690  0.1092
 4681SOL    HW125676   0.859   0.479   7.290 -0.9043  0.6527  0.6856
 4681SOL    HW225677   0.862   0.565   7.169 -1.0786 -2.0637 -0.1650
 4682SOL     OW25678   3.418   1.161   4.120  0.2754  0.1405 -0.0667
 4682SOL    HW125679   3.504   1.194   4.094  0.3706 -0.0798 -0.0284
 4682SOL    HW225680   3.351   1.192   4.059  0.7709  0.1728 -0.5841
 4683SOL     OW25681   0.574   2.371   0.718 -0.2376 -0.3732 -0.5894
 4683SOL    HW125682   0.607   2.288   0.754 -0.0439 -0.1973 -0.3629
 4683SOL    HW225683   0.480   2.367   0.736 -0.1021 -1.6896 -0.1299
 4684SOL     OW25684   2.641   2.396   6.560  0.7021  0.2457 -0.2188
 4684SOL    HW125685   2.576   2.422   6.495  0.0357 -3.0580 -0.8898
 4684SOL    HW225686   2.689   2.330   6.511 -0.7061 -0.9616  0.0049
 4685SOL     OW25687   0.632   0.683   5.358 -0.3515  0.8284 -0.5890
 4685SOL    HW125688   0.669   0.608   5.312  0.9204  1.0408  0.0896
 4685SOL    HW225689   0.705   0.721   5.407  0.2631 -0.5232 -0.4646
 4686SOL     OW25690   3.567   4.346   3.720 -0.3848 -0.0493  0.3849
 4686SOL    HW125691   3.555   4.379   3.809 -0.6985 -1.0872  0.7293
 4686SOL    HW225692   3.607   4.424   3.680 -0.2026 -0.3307  0.0208
 4687SOL     OW25693   1.246   3.218  17.673 -0.2428 -0.2142  0.1217
 4687SOL    HW125694   1.322   3.160  17.668  0.2637  0.4035  0.5897
 4687SOL    HW225695   1.178   3.170  17.719 -0.9308 -2.8086 -3.5815
 4688SOL     OW25696   3.573   1.681  14.841 -0.4067 -0.5610  0.4466
 4688SOL    HW125697   3.532   1.687  14.754  1.4803  0.6426 -0.3485
 4688SOL    HW225698   3.496   1.668  14.897 -0.4906 -1.6692  0.0868
 4689SOL     OW25699   0.841   1.386   5.439  0.0650 -0.3848  0.5525
 4689SOL    HW125700   0.909   1.319   5.429  0.7194  0.1632  1.2765
 4689SOL    HW225701   0.889   1.454   5.488  1.9163 -1.7487  0.6251
 4690SOL     OW25702   4.382   2.115   0.518 -0.0113 -0.1614  0.2042
 4690SOL    HW125703   4.453   2.151   0.465 -0.5735  1.8671  0.8485
 4690SOL    HW225704   4.312   2.179   0.509 -0.1986 -0.1010  2.0797
 4691SOL     OW25705   0.622   2.337   7.155  0.7584 -0.4394  0.0064
 4691SOL    HW125706   0.699   2.338   7.212 -0.2870  3.1925  1.3322
 4691SOL    HW225707   0.645   2.402   7.089 -1.3273  0.9129  0.5978
 4692SOL     OW25708   3.529   1.933  11.225 -0.3141  0.5732  0.6090
 4692SOL    HW125709   3.442   1.897  11.208 -0.4168  0.3868  1.5550
 4692SOL    HW225710   3.538   1.899  11.314 -0.7212  0.9957  0.8106
 4693SOL     OW25711   2.401   2.666   4.439  0.5645 -0.4030  0.0851
 4693SOL    HW125712   2.316   2.626   4.419  0.1248 -0.5360  2.2954
 4693SOL    HW225713   2.462   2.599   4.408  0.0138 -0.6994 -0.3905
 4694SOL     OW25714   3.902   2.034   0.676 -0.0658 -0.5166  0.4496
 4694SOL    HW125715   3.968   1.965   0.677 -0.0031 -0.5256 -2.7086
 4694SOL    HW225716   3.881   2.019   0.768 -0.3915  2.1729  0.8174
 4695SOL     OW25717   3.774   2.095   1.364  0.3901 -0.4933 -0.8638
 4695SOL    HW125718   3.782   2.159   1.293  0.1919 -0.2118 -0.6341
 4695SOL    HW225719   3.693   2.121   1.407 -1.3345 -1.3510 -3.5802
 4696SOL     OW25720   3.790   0.774   4.157  0.3857  0.5386 -0.8475
 4696SOL    HW125721   3.799   0.802   4.248  2.3395  2.0870 -1.5154
 4696SOL    HW225722   3.711   0.820   4.129  0.2230 -0.2010 -1.5871
 4697SOL     OW25723   1.135   4.495   8.897  0.1543  0.0491  0.5500
 4697SOL    HW125724   1.161   4.571   8.844  1.4755 -0.4273  0.5231
 4697SOL    HW225725   1.213   4.443   8.879  0.0754 -0.1700  0.8368
 4698SOL     OW25726   0.925   3.256  17.512  0.0909  0.1449  0.5737
 4698SOL    HW125727   0.930   3.350  17.496 -2.8059  0.1356 -0.5180
 4698SOL    HW225728   0.852   3.229  17.456 -0.2353  1.6259  0.2929
 4699SOL     OW25729   0.290   1.331  16.870  0.9558  0.2801 -0.2627
 4699SOL    HW125730   0.344   1.403  16.903 -0.2795  0.9741  0.2539
 4699SOL    HW225731   0.209   1.368  16.835 -0.0323 -1.6449 -0.0104
 4700SOL     OW25732   0.892   0.261  15.615  0.1607  0.1176 -0.1798
 4700SOL    HW125733   0.863   0.340  15.660 -1.9098  1.1892 -3.3988
 4700SOL    HW225734   0.913   0.297  15.529 -0.0063  1.0387  0.1676
 4701SOL     OW25735   1.444   1.743   2.067 -0.4081 -0.3103  0.0884
 4701SOL    HW125736   1.485   1.820   2.029  1.1003  0.0420  2.4469
 4701SOL    HW225737   1.394   1.780   2.140  0.9510  0.9510  0.3761
 4702SOL     OW25738   1.709   0.925   3.182 -0.5128 -0.5209 -0.4390
 4702SOL    HW125739   1.794   0.909   3.141 -1.4799 -0.3351 -2.5204
 4702SOL    HW225740   1.655   0.952   3.108  1.0293 -0.6720 -1.6354
 4703SOL     OW25741   2.813   1.421   5.098  0.2928  0.1838  0.2089
 4703SOL    HW125742   2.768   1.420   5.013 -1.5981 -0.1635  1.2098
 4703SOL    HW225743   2.756   1.378   5.161  2.3556  0.3014  2.1337
 4704SOL     OW25744   1.815   0.841  17.238  0.2822 -0.1620  0.1522
 4704SOL    HW125745   1.743   0.838  17.301 -1.0232  1.1811 -1.2440
 4704SOL    HW225746   1.791   0.769  17.181  0.8483  1.4127 -2.0968
 4705SOL     OW25747   2.074   0.947  12.829  0.4820  0.2090  0.0334
 4705SOL    HW125748   2.127   1.017  12.792  1.1760 -0.5881 -0.4859
 4705SOL    HW225749   2.136   0.873  12.838 -0.1650 -0.1328  1.6177
 4706SOL     OW25750   3.405   4.514   7.090  0.1303 -0.2017 -0.0611
 4706SOL    HW125751   3.364   4.504   7.004 -1.9968  0.9741  0.8229
 4706SOL    HW225752   3.344   4.570   7.137 -0.5521  1.3212 -2.7236
 4707SOL     OW25753   1.133   2.614   4.125 -0.3010  0.3010 -0.4730
 4707SOL    HW125754   1.179   2.563   4.059  1.4072 -0.8681  1.6202
 4707SOL    HW225755   1.096   2.542   4.177  1.3858  0.2529  0.6641
 4708SOL     OW25756   2.138   0.080   9.133 -0.2976 -0.8279 -0.2229
 4708SOL    HW125757   2.194   0.099   9.208 -0.0883  2.8857 -1.2890
 4708SOL    HW225758   2.055   0.106   9.173  1.0743  3.4175 -0.1819
 4709SOL     OW25759   1.531   0.469  13.037 -0.1887 -0.2224  0.2148
 4709SOL    HW125760   1.546   0.505  13.124 -0.2040 -2.9253  1.3408
 4709SOL    HW225761   1.533   0.373  13.034  1.0492 -0.2054  0.6484
 4710SOL     OW25762   0.721   4.575  15.692 -0.2651 -0.1465  0.4421
 4710SOL    HW125763   0.799   4.529  15.724 -0.7748 -1.9994 -0.9560
 4710SOL    HW225764   0.769   4.652  15.661 -1.2767 -0.6118 -2.2688
 4711SOL     OW25765   3.160   2.230   8.424 -0.1128  0.1875  0.0112
 4711SOL    HW125766   3.156   2.293   8.496  1.5729 -0.4891  0.6901
 4711SOL    HW225767   3.125   2.283   8.353 -0.6772 -0.6896 -0.3659
 4712SOL     OW25768   1.225   2.626   3.355 -0.2960 -0.1151 -0.0001
 4712SOL    HW125769   1.274   2.674   3.288  0.9014 -0.9989  0.2490
 4712SOL    HW225770   1.199   2.703   3.405 -0.5141 -1.1427  1.4786
 4713SOL     OW25771   4.248   2.605   2.067 -0.7146  0.0686 -0.2561
 4713SOL    HW125772   4.309   2.678   2.057 -0.6991  0.1226  0.2540
 4713SOL    HW225773   4.309   2.533   2.083 -0.5722  0.2149 -0.1418
 4714SOL     OW25774   2.361   0.038   8.330 -0.0845 -0.0073 -0.1943
 4714SOL    HW125775   2.285   0.071   8.282  1.7281  0.4905 -2.7082
 4714SOL    HW225776   2.430   0.097   8.302  0.1238  0.9813  2.4171
 4715SOL     OW25777   2.652   2.213   9.436 -0.1449 -0.1713 -0.5555
 4715SOL    HW125778   2.623   2.123   9.451 -0.5022 -0.1183 -0.9414
 4715SOL    HW225779   2.698   2.209   9.353 -1.0044  0.0030 -1.0412
 4716SOL     OW25780   3.221   3.347  16.509  0.2430  0.4869  0.2162
 4716SOL    HW125781   3.254   3.414  16.568 -0.0368  2.0507 -1.4058
 4716SOL    HW225782   3.276   3.347  16.431  0.1655  1.4327  0.1643
 4717SOL     OW25783   4.576   1.829   2.326 -0.5332  0.7949  0.3872
 4717SOL    HW125784   4.570   1.920   2.357 -1.9927 -0.9859  5.4216
 4717SOL    HW225785   4.669   1.818   2.345  0.0029  1.3886 -1.8820
 4718SOL     OW25786   1.526   2.452   4.107  0.5006 -0.0233 -0.3674
 4718SOL    HW125787   1.544   2.359   4.097  1.2829 -0.0401  1.1399
 4718SOL    HW225788   1.614   2.480   4.131 -0.2340  0.7180  1.4329
 4719SOL     OW25789   3.196   3.672   4.297  0.0536  0.0575  0.1573
 4719SOL    HW125790   3.121   3.720   4.262 -0.2220  0.1875  0.9121
 4719SOL    HW225791   3.221   3.729   4.370  1.7993  0.3381 -0.6699
 4720SOL     OW25792   4.632   1.840   7.868  0.0422  0.3290 -0.1796
 4720SOL    HW125793   4.635   1.758   7.819  0.9272 -0.3337  0.9762
 4720SOL    HW225794   4.670   1.801   7.946  1.8244  0.5669 -0.9193
 4721SOL     OW25795   2.450   1.187   9.168  0.2919  0.5095 -0.4020
 4721SOL    HW125796   2.506   1.139   9.107  1.2718  0.4588  0.5352
 4721SOL    HW225797   2.367   1.181   9.121  0.7370 -1.2311 -0.9655
 4722SOL     OW25798   4.204   4.154   2.937  0.1290 -0.1059  0.5455
 4722SOL    HW125799   4.292   4.168   2.901 -0.4897  0.8201 -0.6058
 4722SOL    HW225800   4.210   4.220   3.006  5.6931 -0.5301  0.4527
 4723SOL     OW25801   2.656   1.176  10.619 -0.2801  0.2281 -0.1056
 4723SOL    HW125802   2.602   1.107  10.583 -1.5411  0.8604  0.5818
 4723SOL    HW225803   2.667   1.247  10.555  0.3264 -0.8182 -1.1543
 4724SOL     OW25804   1.363   1.816   0.772 -0.3779 -0.1503  0.3149
 4724SOL    HW125805   1.449   1.858   0.775 -0.0447 -0.7892 -0.5976
 4724SOL    HW225806   1.352   1.818   0.677  0.6944  0.1883  0.1993
 4725SOL     OW25807   3.004   1.026   6.360  0.0599  0.0396  0.4577
 4725SOL    HW125808   3.077   1.080   6.391  0.6946 -1.1380  0.9960
 4725SOL    HW225809   3.034   0.939   6.385  1.3140  0.6315  1.0358
 4726SOL     OW25810   4.599   1.166   5.441 -0.4130 -0.3671  0.0734
 4726SOL    HW125811   4.628   1.147   5.352 -0.3121 -3.3843  0.7406
 4726SOL    HW225812   4.637   1.088   5.482  1.0788 -0.0771 -0.7806
 4727SOL     OW25813   0.462   4.249  14.773  0.6819  0.4154 -0.4729
 4727SOL    HW125814   0.380   4.294  14.752 -0.3014  0.4405  3.5660
 4727SOL    HW225815   0.528   4.318  14.773  1.6353 -0.5113 -0.1277
 4728SOL     OW25816   4.442   1.304   1.355  0.2791 -0.2946 -0.3168
 4728SOL    HW125817   4.393   1.223   1.372 -0.7688  0.2894 -0.5547
 4728SOL    HW225818   4.432   1.346   1.440 -1.1490 -1.6663  0.1939
 4729SOL     OW25819   3.159   2.076   7.845  0.2892 -0.2879  0.4981
 4729SOL    HW125820   3.074   2.102   7.811  0.0839  1.7225  2.5789
 4729SOL    HW225821   3.227   2.120   7.793  0.0208 -0.5618 -0.0885
 4730SOL     OW25822   3.909   1.754   9.364  0.0257 -0.0000  0.3735
 4730SOL    HW125823   3.999   1.787   9.371 -0.0860 -0.1616  2.6118
 4730SOL    HW225824   3.860   1.831   9.389 -1.9767 -2.3951  3.7932
 4731SOL     OW25825   0.637   0.275   5.465  0.2208  0.1450 -0.1196
 4731SOL    HW125826   0.647   0.291   5.559 -0.5247 -2.0683  0.3223
 4731SOL    HW225827   0.727   0.289   5.435  0.3125 -2.7338 -1.1333
 4732SOL     OW25828   2.155   2.992   3.544  0.1276  0.2423 -0.0015
 4732SOL    HW125829   2.241   3.011   3.580  0.3547 -0.1878 -0.3274
 4732SOL    HW225830   2.146   2.899   3.526  0.3051 -0.1773  2.0870
 4733SOL     OW25831   3.806   3.821   8.252 -0.5056  0.1671 -0.0748
 4733SOL    HW125832   3.863   3.746   8.237 -1.0423 -0.3404  0.4312
 4733SOL    HW225833   3.820   3.873   8.173  1.5516  1.1260  0.9437
 4734SOL     OW25834   1.754   3.894   0.974  0.6073  0.0227 -0.2731
 4734SOL    HW125835   1.675   3.881   1.025 -0.2181  2.0224 -1.0229
 4734SOL    HW225836   1.809   3.821   1.003  0.4608 -0.1154 -0.3467
 4735SOL     OW25837   0.344   2.493   4.162 -0.2939 -0.1558  0.0935
 4735SOL    HW125838   0.257   2.456   4.156  0.1007 -1.0655  0.0608
 4735SOL    HW225839   0.357   2.518   4.070 -0.6635 -0.7454 -0.1136
 4736SOL     OW25840   0.022   0.016   7.851  0.0441  0.3434  0.4224
 4736SOL    HW125841   0.049   4.690   7.923 -1.5260 -1.4481 -0.4600
 4736SOL    HW225842   4.675   4.706   7.820 -1.1430  0.2486  3.6138
 4737SOL     OW25843   0.705   4.095   1.640 -0.9083  1.0424  0.2038
 4737SOL    HW125844   0.794   4.129   1.643  0.3158 -2.1883  0.9685
 4737SOL    HW225845   0.710   4.034   1.713  0.8893  0.8127 -0.1177
 4738SOL     OW25846   4.433   2.090   5.069  0.1317 -0.2026 -0.0548
 4738SOL    HW125847   4.504   2.025   5.069 -0.0200 -0.3590 -2.2755
 4738SOL    HW225848   4.474   2.159   5.017  0.9842 -0.4756  0.2426
 4739SOL     OW25849   2.515   0.073  16.229  0.1826 -0.4704  0.2578
 4739SOL    HW125850   2.428   0.034  16.226  0.5923 -1.3544 -0.0077
 4739SOL    HW225851   2.566   0.012  16.282  1.1813 -1.4911 -1.9061
 4740SOL     OW25852   3.213   1.737   5.607  0.0739  0.2639 -0.3989
 4740SOL    HW125853   3.148   1.765   5.672 -2.1448 -1.6485 -1.7577
 4740SOL    HW225854   3.294   1.763   5.650  0.8405  1.1184 -2.3456
 4741SOL     OW25855   2.324   3.423   4.514 -0.5100  0.0254 -0.1021
 4741SOL    HW125856   2.230   3.426   4.497 -0.2245 -0.0888 -1.6407
 4741SOL    HW225857   2.352   3.361   4.447  0.0191  0.9867 -0.7802
 4742SOL     OW25858   3.484   4.108  17.291 -0.1191 -0.1433 -0.5707
 4742SOL    HW125859   3.513   4.106  17.200 -0.6905  0.2067 -0.7648
 4742SOL    HW225860   3.570   4.114  17.332 -1.1494 -2.8979  1.9470
 4743SOL     OW25861   2.581   4.301   3.720 -1.0456  0.1601  0.6337
 4743SOL    HW125862   2.496   4.284   3.680  0.1334  0.1814 -1.8212
 4743SOL    HW225863   2.642   4.265   3.655 -1.6387  0.0855  0.1277
 4744SOL     OW25864   1.509   1.027   5.041 -0.1196 -0.2624  0.0515
 4744SOL    HW125865   1.493   1.055   5.131  1.1696  1.5557 -0.2889
 4744SOL    HW225866   1.496   0.932   5.044  2.4133 -0.6470 -0.9173
 4745SOL     OW25867   2.550   4.613   9.004  0.0602 -0.1802 -0.0806
 4745SOL    HW125868   2.496   4.543   9.041  0.2122 -0.3557 -0.1954
 4745SOL    HW225869   2.489   4.678   8.968  0.7278  3.2186  4.8693
 4746SOL     OW25870   0.105   1.347   9.106 -0.8548  0.1761  0.0057
 4746SOL    HW125871   0.166   1.407   9.063  0.7130 -1.0364  0.5449
 4746SOL    HW225872   0.069   1.293   9.035  1.3572 -2.1422  0.6160
 4747SOL     OW25873   2.028   4.382   7.227 -0.2073  0.4666  0.4740
 4747SOL    HW125874   2.008   4.387   7.133  2.2962 -0.9515 -0.1244
 4747SOL    HW225875   2.122   4.367   7.222 -0.2859  0.6372 -1.9679
 4748SOL     OW25876   0.779   0.355   7.402  0.6577 -0.5733 -0.1538
 4748SOL    HW125877   0.701   0.395   7.442  1.0270 -1.6774  1.6786
 4748SOL    HW225878   0.823   0.325   7.482 -0.4951 -0.2882  0.5941
 4749SOL     OW25879   1.660   1.613   8.924 -0.1262 -0.1230  0.3999
 4749SOL    HW125880   1.660   1.549   8.995  0.1385 -0.2840  0.2538
 4749SOL    HW225881   1.630   1.689   8.974 -1.7159 -0.0601 -0.6361
 4750SOL     OW25882   0.180   3.361   3.136  0.1304  0.6149 -0.7136
 4750SOL    HW125883   0.097   3.315   3.124  0.3112  0.0382  0.2595
 4750SOL    HW225884   0.169   3.443   3.184  2.7254  0.2176  0.5674
 4751SOL     OW25885   4.500   4.361   7.688  0.6228 -0.2736  0.1812
 4751SOL    HW125886   4.456   4.298   7.632 -0.3279  0.9471 -0.4417
 4751SOL    HW225887   4.581   4.316   7.714 -0.6566 -3.0455 -0.6989
 4752SOL     OW25888   4.244   0.812  16.403  0.3335  0.1364 -0.0352
 4752SOL    HW125889   4.329   0.855  16.405 -0.5788  1.9907 -1.2027
 4752SOL    HW225890   4.241   0.777  16.314 -0.7094  0.1222  0.0002
 4753SOL     OW25891   1.571   1.573   8.328 -0.0079  0.1493 -0.4907
 4753SOL    HW125892   1.628   1.639   8.368 -1.7725  1.2019  0.2835
 4753SOL    HW225893   1.533   1.629   8.261 -1.6438 -1.2173 -0.7051
 4754SOL     OW25894   2.945   0.533   9.214  0.0188  0.3666  0.3083
 4754SOL    HW125895   2.875   0.598   9.220 -1.7747 -1.4543 -0.8436
 4754SOL    HW225896   2.892   0.459   9.243  1.3377  0.3764  2.7169
 4755SOL     OW25897   0.136   1.498   3.231 -0.1164  0.1907  0.0272
 4755SOL    HW125898   0.052   1.530   3.263  0.8449  1.3918  1.3256
 4755SOL    HW225899   0.143   1.554   3.153  0.5935 -1.0666 -0.8230
 4756SOL     OW25900   4.016   1.435   7.838  0.1875  0.2296  0.0590
 4756SOL    HW125901   4.068   1.471   7.766  0.8695 -1.1888 -0.1634
 4756SOL    HW225902   3.971   1.516   7.862 -1.9470 -1.3602  1.3635
 4757SOL     OW25903   0.913   4.672   4.213  0.2173  0.2349  0.1529
 4757SOL    HW125904   0.919   4.614   4.137  1.9244  0.9647 -0.2551
 4757SOL    HW225905   0.976   0.005   4.184 -1.9080  0.5354 -3.7955
 4758SOL     OW25906   3.109   2.720   2.213 -0.1304 -0.3316 -0.5168
 4758SOL    HW125907   3.115   2.643   2.156  0.0458 -2.3090  2.1739
 4758SOL    HW225908   3.030   2.706   2.265  0.8634  1.9281  1.6035
 4759SOL     OW25909   3.179   4.235  15.982  0.2741  0.2428  0.1521
 4759SOL    HW125910   3.162   4.219  15.889  2.1644 -0.7531 -0.0360
 4759SOL    HW225911   3.246   4.303  15.977  1.3174 -0.8493 -0.8688
 4760SOL     OW25912   3.942   1.730   8.248  0.2723  0.0380 -0.1327
 4760SOL    HW125913   3.862   1.749   8.199 -0.7296  0.2744  1.6108
 4760SOL    HW225914   4.002   1.741   8.173 -1.7065  0.0923 -1.6984
 4761SOL     OW25915   1.030   2.344   5.963  0.1308 -0.1917  0.1024
 4761SOL    HW125916   1.123   2.361   5.978 -0.4426  1.5450  1.6273
 4761SOL    HW225917   1.008   2.408   5.895  1.6975 -0.9095 -1.0837
 4762SOL     OW25918   0.157   4.356   0.715  0.1232  0.2949 -0.2453
 4762SOL    HW125919   0.064   4.367   0.696  0.5428  1.1530 -1.7318
 4762SOL    HW225920   0.175   4.440   0.758 -1.2725  0.1217  0.6818
 4763SOL     OW25921   0.903   3.517  16.149  0.8261 -0.1777  0.1835
 4763SOL    HW125922   0.973   3.582  16.153  1.2592 -0.6647  0.4825
 4763SOL    HW225923   0.842   3.568  16.095  1.4123  0.0970 -0.2091
 4764SOL     OW25924   2.730   0.460   9.975  0.2830  0.0292  0.5460
 4764SOL    HW125925   2.732   0.480  10.069 -0.0967  0.3161  0.4912
 4764SOL    HW225926   2.640   0.432   9.962  1.0843 -1.3310 -2.1492
 4765SOL     OW25927   0.983   2.415   8.385 -0.7359  0.0942  1.0667
 4765SOL    HW125928   0.933   2.496   8.395 -0.7101  0.2923 -0.4876
 4765SOL    HW225929   0.945   2.375   8.307 -0.1777  0.0168  0.8350
 4766SOL     OW25930   0.229   2.378   3.084 -0.3084  0.2038 -0.1122
 4766SOL    HW125931   0.247   2.472   3.088 -0.5460  0.3065 -1.4726
 4766SOL    HW225932   0.160   2.373   3.018 -1.5564  0.6326  1.1779
 4767SOL     OW25933   3.721   4.547   3.059  0.2304 -0.2294 -0.0869
 4767SOL    HW125934   3.660   4.511   2.994  0.9644  1.1920 -1.5502
 4767SOL    HW225935   3.694   4.486   3.127 -0.8576  1.8491  1.3472
 4768SOL     OW25936   0.368   2.149   5.559 -0.4413 -0.0997 -0.1916
 4768SOL    HW125937   0.441   2.106   5.602  0.5097  0.4490 -1.2654
 4768SOL    HW225938   0.402   2.164   5.470  0.8361  0.2644  0.3655
 4769SOL     OW25939   0.224   3.725  12.467  0.4926 -0.0020  0.6229
 4769SOL    HW125940   0.138   3.753  12.437 -0.6701 -1.4029  2.6208
 4769SOL    HW225941   0.214   3.634  12.495 -1.5052 -0.1004 -0.4037
 4770SOL     OW25942   4.070   0.900   7.534  0.5263  0.1502 -0.5198
 4770SOL    HW125943   4.047   0.952   7.611  1.2667 -1.4135  0.7471
 4770SOL    HW225944   4.057   0.809   7.563  0.4705  1.2125  2.7115
 4771SOL     OW25945   0.736   4.113  15.652 -0.0300 -0.2271 -0.3432
 4771SOL    HW125946   0.791   4.088  15.578 -0.4129 -0.8410 -0.4252
 4771SOL    HW225947   0.657   4.059  15.640 -1.5265  1.5282  1.6460
 4772SOL     OW25948   1.713   3.023  16.183  0.0367  0.4325 -0.5433
 4772SOL    HW125949   1.674   2.942  16.151 -0.7754  0.4826  0.3211
 4772SOL    HW225950   1.655   3.093  16.153  0.7917  1.4502  0.3903
 4773SOL     OW25951   2.719   3.451  12.403  0.2388  0.3390  0.1569
 4773SOL    HW125952   2.743   3.512  12.473 -2.1637  1.5123 -0.0488
 4773SOL    HW225953   2.736   3.512  12.331 -0.4549  0.5544  0.1775
 4774SOL     OW25954   3.766   1.412   8.211 -0.0008  0.1098  0.5063
 4774SOL    HW125955   3.704   1.435   8.142  1.3397  2.0940 -0.0354
 4774SOL    HW225956   3.718   1.352   8.268  0.7834 -0.5955  0.4361
 4775SOL     OW25957   3.326   3.374   1.237 -0.6674 -0.1803  0.3782
 4775SOL    HW125958   3.264   3.443   1.216  1.3201  1.8128  1.0576
 4775SOL    HW225959   3.392   3.390   1.169  0.6076 -0.4339  1.5484
 4776SOL     OW25960   0.720   3.980  14.672 -0.0700  0.1384 -0.2269
 4776SOL    HW125961   0.689   3.963  14.583  0.1959 -2.5241  0.1951
 4776SOL    HW225962   0.800   4.029  14.652  0.4242 -0.2213  0.8870
 4777SOL     OW25963   4.503   0.921   5.736  0.2733 -0.0242  0.2613
 4777SOL    HW125964   4.419   0.895   5.773  0.2211 -1.3905 -0.8422
 4777SOL    HW225965   4.499   0.890   5.646  1.9617 -1.6658  0.7542
 4778SOL     OW25966   2.714   3.391   7.607 -0.1562 -0.9760 -0.6541
 4778SOL    HW125967   2.777   3.462   7.597 -1.7738  0.4233 -0.8729
 4778SOL    HW225968   2.670   3.385   7.522 -0.2060  0.1184 -0.7067
 4779SOL     OW25969   3.794   2.481  15.443  0.5669  0.3671 -0.4752
 4779SOL    HW125970   3.708   2.450  15.472  0.7534 -0.4827 -0.8228
 4779SOL    HW225971   3.859   2.443  15.502 -1.2097  0.6301  1.6304
 4780SOL     OW25972   0.261   1.369   6.979  0.0923  0.0167 -0.0404
 4780SOL    HW125973   0.323   1.321   6.924  0.7566  2.0369 -1.0586
 4780SOL    HW225974   0.248   1.307   7.051  1.1084 -0.4761 -0.2775
 4781SOL     OW25975   3.036   4.210  15.275 -0.8655  0.9048  0.6363
 4781SOL    HW125976   3.121   4.244  15.246 -0.2718 -0.2841  0.9777
 4781SOL    HW225977   3.040   4.115  15.261 -2.8661  0.5285  2.6582
 4782SOL     OW25978   3.217   0.837   5.986 -0.0830 -0.1217 -0.3264
 4782SOL    HW125979   3.222   0.787   5.905 -0.9141 -1.1741  0.2662
 4782SOL    HW225980   3.123   0.830   6.003 -0.2363  1.6344 -0.4505
 4783SOL     OW25981   3.547   1.924   6.397 -0.4172 -0.8655 -0.3275
 4783SOL    HW125982   3.629   1.893   6.359  0.0794 -0.6716  0.5803
 4783SOL    HW225983   3.533   1.998   6.338  0.1396 -1.0332 -0.6623
 4784SOL     OW25984   4.076   1.168   2.820  0.8785  0.7500  0.3675
 4784SOL    HW125985   4.069   1.240   2.882  0.8752  0.5526  0.5941
 4784SOL    HW225986   4.065   1.097   2.883  0.1817 -0.6110 -1.3003
 4785SOL     OW25987   0.932   1.863   6.342 -0.0073 -0.0366  0.0226
 4785SOL    HW125988   1.023   1.893   6.337  0.8499 -2.5051  0.5755
 4785SOL    HW225989   0.885   1.880   6.260  0.2929 -1.0168 -0.3612
 4786SOL     OW25990   3.379   3.644  15.353 -0.3277 -0.5568 -0.2166
 4786SOL    HW125991   3.456   3.602  15.391  0.2688  3.0814  2.5993
 4786SOL    HW225992   3.418   3.717  15.305 -0.4570 -0.1917  0.2384
 4787SOL     OW25993   0.242   1.387   4.585 -0.4332  0.1414  0.7957
 4787SOL    HW125994   0.183   1.403   4.658 -2.5869  0.4667 -1.0213
 4787SOL    HW225995   0.242   1.469   4.537 -0.9378  0.2463  0.9777
 4788SOL     OW25996   0.743   1.920   3.103  0.1435  0.0918  0.1059
 4788SOL    HW125997   0.802   1.960   3.039 -1.5004  1.5996 -0.4476
 4788SOL    HW225998   0.771   1.957   3.186 -0.5663 -0.0346  0.4004
 4789SOL     OW25999   0.082   2.272   3.295 -0.0047 -0.3768  0.0369
 4789SOL    HW126000   0.130   2.189   3.288  0.8016  0.2507 -1.7383
 4789SOL    HW226001   0.139   2.316   3.233  1.4465  1.4308  2.6398
 4790SOL     OW26002   3.183   4.407   6.256  0.5610  0.3704 -0.1361
 4790SOL    HW126003   3.134   4.466   6.312  1.7404  0.9582  0.2627
 4790SOL    HW226004   3.222   4.354   6.326  0.5406  1.1487  0.4587
 4791SOL     OW26005   2.874   1.876   4.325  0.2720  0.1655  0.1330
 4791SOL    HW126006   2.817   1.928   4.382 -0.1004  0.6213 -0.6582
 4791SOL    HW226007   2.841   1.871   4.235  0.4125 -0.9972  0.1357
 4792SOL     OW26008   3.210   1.754   3.816 -0.5602  0.7474  0.1324
 4792SOL    HW126009   3.170   1.675   3.781 -1.1826  0.5932  1.2090
 4792SOL    HW226010   3.145   1.819   3.789 -0.4990  0.3571 -0.9367
 4793SOL     OW26011   2.114   3.824   7.725  0.2177 -0.3021  0.4140
 4793SOL    HW126012   2.133   3.747   7.779 -0.9850 -1.1939 -0.4173
 4793SOL    HW226013   2.019   3.823   7.712  0.3303 -0.8734 -0.4105
 4794SOL     OW26014   1.508   1.143   4.777  0.1979  0.3154  0.4923
 4794SOL    HW126015   1.516   1.097   4.861  0.6882  0.2037  0.3875
 4794SOL    HW226016   1.471   1.067   4.733  2.6296 -0.5723 -0.0489
 4795SOL     OW26017   0.922   2.394  12.179  0.3377 -0.0384  0.3154
 4795SOL    HW126018   0.955   2.332  12.114 -1.5774 -3.4588  2.5866
 4795SOL    HW226019   0.989   2.462  12.181  1.0118 -0.6844 -0.4785
 4796SOL     OW26020   1.786   0.129   3.532 -0.1233  0.4578 -0.1155
 4796SOL    HW126021   1.775   0.209   3.584  1.1976 -0.6131  1.8075
 4796SOL    HW226022   1.825   0.164   3.452  1.1843 -0.8533 -0.0314
 4797SOL     OW26023   2.576   2.225   7.307 -0.4157 -0.5567  0.0595
 4797SOL    HW126024   2.528   2.159   7.256  0.4406  0.4714 -2.0932
 4797SOL    HW226025   2.602   2.273   7.229  1.0237  0.5155  1.2076
 4798SOL     OW26026   0.070   3.992   7.203  0.3717  0.4316  0.2971
 4798SOL    HW126027   0.103   3.953   7.122  3.8624 -0.2887  2.0800
 4798SOL    HW226028   0.058   4.078   7.163 -0.6758  1.5589  3.0210
 4799SOL     OW26029   2.642   1.020  13.250 -0.0170  0.3100 -0.1997
 4799SOL    HW126030   2.576   1.088  13.265 -2.3039 -2.2451  1.5333
 4799SOL    HW226031   2.668   1.034  13.159  0.2875  0.0398 -0.1554
 4800SOL     OW26032   2.002   1.731  14.990 -0.1713  0.6201 -0.2560
 4800SOL    HW126033   1.963   1.809  14.950 -0.0695  0.6078 -0.3793
 4800SOL    HW226034   2.088   1.726  14.948  0.0272 -1.2162  0.3743
 4801SOL     OW26035   0.014   3.916   6.645 -0.0042  0.1737 -0.0849
 4801SOL    HW126036   0.014   4.005   6.682  2.5096 -0.3268  1.1815
 4801SOL    HW226037   4.697   3.932   6.565 -0.3296 -3.8658 -0.6620
 4802SOL     OW26038   0.029   1.338  15.893  0.3715 -0.1857 -0.0535
 4802SOL    HW126039   0.104   1.397  15.904 -1.1172  1.0735  3.5074
 4802SOL    HW226040   0.072   1.255  15.915 -1.8105 -0.7444  2.1166
 4803SOL     OW26041   0.882   4.538   9.061 -0.1195  0.1936  0.4652
 4803SOL    HW126042   0.963   4.527   9.012 -0.5401 -0.8999  0.0029
 4803SOL    HW226043   0.889   4.627   9.094  0.9918 -1.0158  3.5355
 4804SOL     OW26044   4.661   0.798   4.669  0.1341  0.0696  0.0863
 4804SOL    HW126045   4.637   0.706   4.656  0.8257 -0.0023 -0.7495
 4804SOL    HW226046   4.729   0.782   4.735 -2.3104 -4.3231  1.5550
 4805SOL     OW26047   3.505   3.966   7.716  0.2906  0.6458 -0.5375
 4805SOL    HW126048   3.415   3.966   7.747  0.9553  0.5192  1.4290
 4805SOL    HW226049   3.539   3.877   7.726 -0.7655  0.3375  0.3259
 4806SOL     OW26050   2.764   2.755   2.723 -0.8503 -0.1060  0.4767
 4806SOL    HW126051   2.681   2.797   2.747 -1.4079 -2.1161  2.0853
 4806SOL    HW226052   2.748   2.744   2.630  0.3174  0.3622  0.2259
 4807SOL     OW26053   4.509   0.046  16.817 -0.5427 -0.3995  0.0925
 4807SOL    HW126054   4.583   0.016  16.764  0.1769  1.5350  0.0059
 4807SOL    HW226055   4.513   4.708  16.882 -0.8865  0.4807  1.0614
 4808SOL     OW26056   2.872   4.113  14.120  0.8394  0.5082  0.3948
 4808SOL    HW126057   2.938   4.083  14.058  1.6352 -2.1612  2.5406
 4808SOL    HW226058   2.801   4.150  14.067  0.3443 -1.9279 -0.6260
 4809SOL     OW26059   0.606   3.611  14.098 -0.8134 -0.0151 -0.1741
 4809SOL    HW126060   0.598   3.696  14.141 -1.1513 -0.5536  0.8310
 4809SOL    HW226061   0.565   3.555  14.165  0.1985 -1.0570 -0.4304
 4810SOL     OW26062   0.862   4.498   6.633  0.2172  0.4383  0.2874
 4810SOL    HW126063   0.888   4.406   6.624 -2.7940 -0.2602 -1.5119
 4810SOL    HW226064   0.853   4.525   6.542  0.0292 -2.0025 -0.4279
 4811SOL     OW26065   1.594   0.262  12.014  0.3425  0.4555  0.2536
 4811SOL    HW126066   1.513   0.299  12.050  0.1850 -0.0695  0.4333
 4811SOL    HW226067   1.563   0.247  11.925  2.2549  1.5140 -0.5839
 4812SOL     OW26068   2.757   0.900   5.542 -0.2230  0.0722  0.1669
 4812SOL    HW126069   2.664   0.891   5.561 -0.1522  0.4452  0.6855
 4812SOL    HW226070   2.756   0.918   5.448 -0.2981 -0.0018  0.1533
 4813SOL     OW26071   2.167   1.274   2.157  0.3224  0.0736  0.5459
 4813SOL    HW126072   2.250   1.228   2.170 -0.0994 -0.3727  1.6743
 4813SOL    HW226073   2.190   1.364   2.179 -2.2750  0.7887  0.3138
 4814SOL     OW26074   0.849   2.218   9.369  0.8646  0.3454 -0.4357
 4814SOL    HW126075   0.807   2.135   9.345 -1.5704  1.2294  0.7099
 4814SOL    HW226076   0.916   2.199   9.434  0.6606 -1.2647 -0.6931
 4815SOL     OW26077   3.188   3.504   7.188 -0.0057 -0.0234 -0.5375
 4815SOL    HW126078   3.271   3.548   7.206  1.1308 -2.0337 -0.8586
 4815SOL    HW226079   3.224   3.456   7.114  0.8126 -1.8898  1.0769
 4816SOL     OW26080   4.278   1.844   2.306  0.0396 -0.0527  0.2014
 4816SOL    HW126081   4.361   1.846   2.352  0.7950  0.3834 -1.1951
 4816SOL    HW226082   4.296   1.892   2.226  0.5081 -0.5390  0.0170
 4817SOL     OW26083   2.838   2.264   2.823  0.7510 -0.5131 -0.1010
 4817SOL    HW126084   2.931   2.284   2.811  0.7097  0.7638  1.5680
 4817SOL    HW226085   2.853   2.169   2.821  1.0858 -0.4073 -2.0107
 4818SOL     OW26086   2.405   2.290   8.226  0.2632 -0.5658  0.4920
 4818SOL    HW126087   2.329   2.268   8.172  0.2274  1.4350 -0.2399
 4818SOL    HW226088   2.477   2.255   8.173  0.8003 -2.5141  2.5041
 4819SOL     OW26089   3.973   3.296   7.356  0.0866 -0.2250 -0.3631
 4819SOL    HW126090   3.939   3.232   7.418 -3.1738 -0.8816 -2.8367
 4819SOL    HW226091   4.012   3.356   7.420 -1.2447  0.5502 -0.2838
 4820SOL     OW26092   4.294   3.528   3.553  0.4602 -0.1192  0.0887
 4820SOL    HW126093   4.368   3.542   3.493  0.7023 -1.3792  0.0911
 4820SOL    HW226094   4.338   3.533   3.638 -0.1624  2.1180  0.2845
 4821SOL     OW26095   1.619   3.404   5.673 -0.4177  0.1592 -0.2193
 4821SOL    HW126096   1.700   3.355   5.667 -0.9222 -0.5291 -1.4431
 4821SOL    HW226097   1.564   3.370   5.603 -0.2268  0.5479 -0.5566
 4822SOL     OW26098   2.760   0.092   9.372  0.4275  0.5671 -0.0783
 4822SOL    HW126099   2.691   0.027   9.360 -0.7916  2.0788 -1.2219
 4822SOL    HW226100   2.817   0.075   9.297 -0.5059 -0.6091 -0.5094
 4823SOL     OW26101   1.437   0.902   6.589  0.0186  0.3683 -0.4781
 4823SOL    HW126102   1.483   0.901   6.505  0.6010  2.1658 -0.1904
 4823SOL    HW226103   1.418   0.809   6.602  0.1000  0.3776 -0.2975
 4824SOL     OW26104   0.914   1.364   1.827 -0.1616 -0.1993 -0.2235
 4824SOL    HW126105   0.914   1.447   1.779  0.1923  0.0582  0.2145
 4824SOL    HW226106   0.999   1.330   1.800 -0.0759 -0.9325  0.9848
 4825SOL     OW26107   2.827   3.520   9.069 -0.4062 -0.2384 -0.0328
 4825SOL    HW126108   2.748   3.545   9.116  0.6683 -0.2877  1.7905
 4825SOL    HW226109   2.796   3.443   9.020 -0.1964 -0.6716  0.5146
 4826SOL     OW26110   0.486   4.670   4.699  0.2665  0.5612  0.2218
 4826SOL    HW126111   0.551   0.008   4.700 -1.5225  2.2114  0.1190
 4826SOL    HW226112   0.410   4.715   4.662  0.1573 -1.1321 -1.5751
 4827SOL     OW26113   4.699   2.525   7.525  0.2647  0.2222  0.1533
 4827SOL    HW126114   0.049   2.480   7.540  1.4294  1.6251 -2.0980
 4827SOL    HW226115   4.667   2.459   7.463  0.8765 -0.8449  0.9713
 4828SOL     OW26116   3.625   1.475  17.334 -0.1353 -0.5020  0.2796
 4828SOL    HW126117   3.556   1.519  17.385 -0.1687 -1.2210  0.8455
 4828SOL    HW226118   3.580   1.396  17.304  1.4047 -1.0344 -0.5933
 4829SOL     OW26119   4.215   4.071   6.313  0.3539 -0.2142  0.4613
 4829SOL    HW126120   4.298   4.025   6.324  0.2685 -0.7184 -1.0798
 4829SOL    HW226121   4.193   4.108   6.399  1.2188  2.7665 -0.5991
 4830SOL     OW26122   1.105   1.832   7.497 -0.1904 -0.0931 -0.0905
 4830SOL    HW126123   1.175   1.866   7.552 -0.2915 -1.0999  0.6548
 4830SOL    HW226124   1.087   1.753   7.549 -0.4716 -0.0683 -0.1504
 4831SOL     OW26125   0.416   0.600   4.167 -0.3568  0.3294  0.6464
 4831SOL    HW126126   0.435   0.682   4.213 -0.9153  0.8977 -0.1262
 4831SOL    HW226127   0.455   0.543   4.233  0.9806  1.4127  0.8050
 4832SOL     OW26128   0.514   3.208   7.861 -0.3166 -0.1112 -0.3274
 4832SOL    HW126129   0.457   3.179   7.933 -1.0292  0.9142 -0.4877
 4832SOL    HW226130   0.499   3.302   7.858  1.4402  0.3038  3.3046
 4833SOL     OW26131   1.279   1.641   8.107  0.4991  0.0635 -0.3109
 4833SOL    HW126132   1.215   1.703   8.141  0.1806 -1.4267  1.8259
 4833SOL    HW226133   1.256   1.559   8.151  2.3554 -0.1514  0.2666
 4834SOL     OW26134   4.358   0.863   0.244 -0.1849 -0.0595 -0.4095
 4834SOL    HW126135   4.407   0.802   0.190 -0.0299 -0.8688  0.6383
 4834SOL    HW226136   4.287   0.879   0.181  1.1062  3.1980 -1.0429
 4835SOL     OW26137   4.407   2.286  10.210  0.1043  0.5569 -0.0918
 4835SOL    HW126138   4.347   2.232  10.262 -0.7143 -0.4069 -2.0591
 4835SOL    HW226139   4.486   2.233  10.218  1.0333  1.6431 -2.1777
 4836SOL     OW26140   2.352   1.063   2.819 -0.1141 -0.1534  0.0628
 4836SOL    HW126141   2.418   1.112   2.769  1.1245 -2.3578 -0.4417
 4836SOL    HW226142   2.379   0.976   2.791  0.3517  0.4131 -1.2621
 4837SOL     OW26143   0.436   4.158   9.950  0.0012  0.2851 -0.2195
 4837SOL    HW126144   0.472   4.212   9.880 -0.3399  1.7650  0.7442
 4837SOL    HW226145   0.494   4.182  10.023  1.0910  0.3266 -1.1014
 4838SOL     OW26146   1.632   3.460  13.775 -0.0726  0.1488  0.0936
 4838SOL    HW126147   1.645   3.393  13.842  3.7593 -0.4230 -1.2220
 4838SOL    HW226148   1.707   3.433  13.721 -1.2364  0.1999 -1.5335
 4839SOL     OW26149   0.539   3.741   8.472 -0.6817 -0.0305  0.1055
 4839SOL    HW126150   0.512   3.817   8.525  1.3618  1.5073 -1.0374
 4839SOL    HW226151   0.619   3.711   8.516 -1.9723 -2.3108  0.8692
 4840SOL     OW26152   0.369   0.428   7.584 -0.0768 -0.6447  0.1886
 4840SOL    HW126153   0.282   0.389   7.595  0.5434 -1.5798  1.7584
 4840SOL    HW226154   0.357   0.500   7.522 -1.0262 -1.5086 -0.6244
 4841SOL     OW26155   3.762   4.700   5.330  0.4945 -0.1240 -0.1381
 4841SOL    HW126156   3.694   4.662   5.385  1.0626 -0.0470  0.6206
 4841SOL    HW226157   3.820   4.625   5.312  0.9211  0.4545 -1.2103
 4842SOL     OW26158   0.122   3.757   5.597 -0.0146 -0.1618  0.1092
 4842SOL    HW126159   0.060   3.738   5.667 -0.9913  0.4517 -0.5922
 4842SOL    HW226160   0.198   3.724   5.645  1.7441  2.4920 -0.8482
 4843SOL     OW26161   0.734   4.144  17.440  0.2098 -0.2117  0.0717
 4843SOL    HW126162   0.810   4.193  17.470 -0.8395 -1.0713  4.1390
 4843SOL    HW226163   0.766   4.108  17.358  1.6781 -1.3649  1.1520
 4844SOL     OW26164   3.021   2.575   3.224  0.2457 -0.4082 -0.1092
 4844SOL    HW126165   3.020   2.512   3.151  0.4766  0.6687 -1.0533
 4844SOL    HW226166   2.940   2.621   3.203  0.0757 -0.8701 -0.4781
 4845SOL     OW26167   1.340   2.463   7.352 -0.2213  0.2990  0.0833
 4845SOL    HW126168   1.269   2.487   7.412 -0.6102  2.6761 -1.3242
 4845SOL    HW226169   1.290   2.416   7.286  1.8500  0.9282 -1.9174
 4846SOL     OW26170   1.121   3.335   9.239  0.4114 -0.2718 -0.3990
 4846SOL    HW126171   1.211   3.363   9.223  0.2585  0.7404  0.4920
 4846SOL    HW226172   1.075   3.409   9.200 -0.5391 -0.0583  1.1252
 4847SOL     OW26173   3.158   3.907   4.902  0.4810  1.2130  0.5120
 4847SOL    HW126174   3.182   3.883   4.991 -0.8643  1.1675  0.8618
 4847SOL    HW226175   3.084   3.850   4.883  1.6066  0.0701 -0.4337
 4848SOL     OW26176   1.130   2.825   7.161 -0.0429 -0.1223 -0.3116
 4848SOL    HW126177   1.213   2.810   7.115  0.6752 -0.4373  1.1002
 4848SOL    HW226178   1.139   2.916   7.188 -2.3467 -0.7109  2.3918
 4849SOL     OW26179   4.643   2.480   3.201  0.5441 -0.3424  0.6109
 4849SOL    HW126180   4.696   2.426   3.258  1.7352  0.3940  0.1954
 4849SOL    HW226181   4.608   2.410   3.146  0.1855  0.8990 -0.7573
 4850SOL     OW26182   0.302   0.684  15.784  0.8333 -0.3160 -0.4486
 4850SOL    HW126183   0.331   0.595  15.765  1.0611 -0.4824  0.7247
 4850SOL    HW226184   0.302   0.710  15.692 -0.3017 -0.6948 -0.5559
 4851SOL     OW26185   0.054   3.491   2.469  0.3105  0.4507  0.1610
 4851SOL    HW126186   4.699   3.471   2.502 -0.0364 -0.4345 -1.2975
 4851SOL    HW226187   0.114   3.466   2.539  0.7931  0.1894 -0.3430
 4852SOL     OW26188   1.411   4.421   1.920  0.0587 -0.1577  0.1218
 4852SOL    HW126189   1.392   4.473   1.998  2.7793  1.7335 -0.4824
 4852SOL    HW226190   1.463   4.481   1.866 -0.4241 -0.0761 -0.2459
 4853SOL     OW26191   2.123   1.986   8.685 -0.0754  0.2991 -0.1355
 4853SOL    HW126192   2.193   2.019   8.741 -0.0603 -0.2561  0.1638
 4853SOL    HW226193   2.083   1.927   8.749  0.9718  0.2422  0.4598
 4854SOL     OW26194   4.530   3.851   3.235  0.5252 -0.3562 -0.3577
 4854SOL    HW126195   4.580   3.855   3.153  1.0732  1.1287  0.0589
 4854SOL    HW226196   4.596   3.879   3.298  0.5544 -0.0653 -0.5205
 4855SOL     OW26197   0.512   3.220   8.347 -0.5084 -1.1669  0.0023
 4855SOL    HW126198   0.522   3.311   8.320 -0.6737 -0.4994  2.2020
 4855SOL    HW226199   0.523   3.231   8.442 -0.2512  0.0980 -0.1854
 4856SOL     OW26200   0.455   2.546  17.086 -0.1628 -0.3980 -0.2519
 4856SOL    HW126201   0.447   2.486  17.159 -0.2889  1.7587  1.5047
 4856SOL    HW226202   0.438   2.496  17.006  0.2808 -0.9191 -0.0153
 4857SOL     OW26203   0.532   0.799  14.613  0.0389 -0.6822  0.0913
 4857SOL    HW126204   0.448   0.772  14.575 -0.9294 -1.3353  2.7078
 4857SOL    HW226205   0.600   0.767  14.554  0.5844  1.3860 -0.4032
 4858SOL     OW26206   3.625   2.959   4.817  0.1656  0.1906  0.5864
 4858SOL    HW126207   3.665   3.039   4.853  0.3603 -0.3043  1.4886
 4858SOL    HW226208   3.697   2.926   4.763  0.7723  1.8705  0.3583
 4859SOL     OW26209   4.462   4.561  17.039  0.2649  0.4668 -0.0590
 4859SOL    HW126210   4.555   4.568  17.022  0.9399 -1.0136  3.0358
 4859SOL    HW226211   4.475   4.551  17.133 -2.4234 -0.2485  0.2409
 4860SOL     OW26212   1.406   3.942   6.125 -0.2233 -0.2441  0.0230
 4860SOL    HW126213   1.485   3.968   6.173 -0.5016 -0.8806  0.8272
 4860SOL    HW226214   1.369   4.025   6.096  0.8659  0.4057  0.4984
 4861SOL     OW26215   2.381   3.624   8.462  0.2027 -0.1745  0.3810
 4861SOL    HW126216   2.422   3.575   8.391  0.3638  1.8690 -0.9497
 4861SOL    HW226217   2.425   3.710   8.463  0.9022 -0.5332  0.5529
 4862SOL     OW26218   2.792   3.825   8.738  1.0518 -0.6948 -0.2552
 4862SOL    HW126219   2.833   3.742   8.713  0.2994 -1.4795  1.1144
 4862SOL    HW226220   2.789   3.875   8.657  0.0729  0.6937  0.6517
 4863SOL     OW26221   1.152   3.696   1.380  0.3349  0.4148  0.7098
 4863SOL    HW126222   1.192   3.616   1.347  0.1420  0.1781  1.0535
 4863SOL    HW226223   1.059   3.673   1.376  0.6744 -0.3398 -3.0163
 4864SOL     OW26224   2.637   3.552  10.287  0.3434  0.2125  0.2650
 4864SOL    HW126225   2.678   3.466  10.275  1.6309  0.6282  1.7441
 4864SOL    HW226226   2.548   3.527  10.264  0.0739  1.9767 -0.5923
 4865SOL     OW26227   4.012   0.013  11.534 -0.4371 -0.2791  0.0142
 4865SOL    HW126228   3.951   0.073  11.577 -0.1378  0.4439 -0.5881
 4865SOL    HW226229   4.074   4.732  11.605 -1.8622  0.6107  1.4276
 4866SOL     OW26230   2.415   3.968   3.674 -0.1005  0.1172 -0.2919
 4866SOL    HW126231   2.370   3.926   3.601  0.0693  0.7477 -0.7607
 4866SOL    HW226232   2.358   3.938   3.745 -0.8483 -0.0359 -0.9591
 4867SOL     OW26233   2.719   2.928   3.633  0.4028  0.1973  0.5102
 4867SOL    HW126234   2.724   2.887   3.719  0.4378 -2.3723 -0.7050
 4867SOL    HW226235   2.780   2.872   3.585 -0.5098 -0.8760  0.6148
 4868SOL     OW26236   0.208   1.642   6.899 -0.4237 -0.0604 -0.2457
 4868SOL    HW126237   0.214   1.551   6.927  0.3787  1.1191  3.4114
 4868SOL    HW226238   0.133   1.633   6.841 -0.7403  1.1083 -0.0272
 4869SOL     OW26239   3.231   0.434   1.937  0.4421 -0.0625  0.1448
 4869SOL    HW126240   3.253   0.370   2.005  2.6119  0.6099  0.0754
 4869SOL    HW226241   3.303   0.496   1.947  3.1205 -3.1762  0.3905
 4870SOL     OW26242   1.200   4.052   3.672 -0.8024  0.1656  0.0034
 4870SOL    HW126243   1.199   4.065   3.577 -0.3194  1.9575  0.2478
 4870SOL    HW226244   1.182   4.146   3.683 -1.2465 -0.1362  1.9087
 4871SOL     OW26245   1.878   4.102  12.928  0.0354 -0.0747  0.5020
 4871SOL    HW126246   1.923   4.141  12.853  0.6496 -1.9937 -0.1168
 4871SOL    HW226247   1.800   4.158  12.927  0.3051  0.2732 -1.5678
 4872SOL     OW26248   4.393   1.853   5.836 -0.4244  0.2748 -0.1740
 4872SOL    HW126249   4.462   1.792   5.861 -2.3008 -1.9268 -0.3976
 4872SOL    HW226250   4.430   1.888   5.755  0.4919  1.2712  0.6669
 4873SOL     OW26251   4.653   3.652   6.532  0.0099 -0.5270  0.6244
 4873SOL    HW126252   4.598   3.578   6.509 -1.8206  0.9103  0.3484
 4873SOL    HW226253   4.594   3.703   6.587 -0.3067  1.0787 -1.2223
 4874SOL     OW26254   3.709   1.961  10.032 -0.1184 -0.0821  0.1668
 4874SOL    HW126255   3.653   2.019  10.083 -0.3914 -1.7121  1.7421
 4874SOL    HW226256   3.653   1.943   9.956 -0.0147  1.8983 -0.3751
 4875SOL     OW26257   3.368   1.600   2.148 -0.2043 -0.3022 -0.1131
 4875SOL    HW126258   3.452   1.605   2.102  0.4109  1.5076  1.2275
 4875SOL    HW226259   3.381   1.518   2.195 -0.3091 -1.1582 -1.5865
 4876SOL     OW26260   4.386   3.365   0.589  0.4927  0.1984  0.3772
 4876SOL    HW126261   4.318   3.298   0.596 -0.3047  1.0036  0.4628
 4876SOL    HW226262   4.457   3.322   0.636  1.2291  0.4725 -0.4898
 4877SOL     OW26263   3.776   3.983   7.219  0.2866  0.1045  0.1922
 4877SOL    HW126264   3.743   3.974   7.129 -2.9633 -1.1398  1.5188
 4877SOL    HW226265   3.697   4.010   7.266  1.0243  1.6918  0.5189
 4878SOL     OW26266   2.780   4.546   6.515 -0.0449 -0.5439  0.0474
 4878SOL    HW126267   2.700   4.512   6.476  1.1175 -1.2171 -1.7304
 4878SOL    HW226268   2.772   4.526   6.608  2.2317  0.2733  0.4118
 4879SOL     OW26269   0.659   0.512   6.399  0.3188 -0.7650 -0.3292
 4879SOL    HW126270   0.710   0.592   6.411 -1.1518  0.4074 -1.8940
 4879SOL    HW226271   0.721   0.461   6.451 -0.1936  0.5627  1.5804
 4880SOL     OW26272   1.641   3.918  16.928 -0.4254  0.0707 -0.4414
 4880SOL    HW126273   1.668   3.968  17.005  1.2701 -2.6598  0.7319
 4880SOL    HW226274   1.583   3.985  16.892 -0.3589  1.1656  1.4753
 4881SOL     OW26275   3.305   4.607  10.885  0.4236  0.0608 -0.0945
 4881SOL    HW126276   3.380   4.649  10.926 -0.0948  1.5159 -0.6702
 4881SOL    HW226277   3.241   4.623  10.955  1.8324 -1.1315  1.4897
 4882SOL     OW26278   0.358   3.819  12.162 -0.0573  0.7701  0.5152
 4882SOL    HW126279   0.414   3.827  12.239  1.3478  0.9592 -0.5333
 4882SOL    HW226280   0.304   3.898  12.173 -1.5772 -0.1098 -0.5761
 4883SOL     OW26281   0.884   0.279   2.367 -0.1648  0.1480  0.2180
 4883SOL    HW126282   0.841   0.364   2.373 -0.5006 -0.0010 -0.1252
 4883SOL    HW226283   0.850   0.256   2.281  0.6056 -1.6487  0.3938
 4884SOL     OW26284   1.059   4.310   3.645  0.2630 -0.1259 -0.5305
 4884SOL    HW126285   1.080   4.371   3.575 -0.1309 -0.6832 -1.1293
 4884SOL    HW226286   0.965   4.327   3.649  0.2923  0.1198 -0.9507
 4885SOL     OW26287   3.013   4.500  17.609 -0.0126 -0.3460 -0.0260
 4885SOL    HW126288   3.106   4.475  17.603  0.4332  0.9816  1.1691
 4885SOL    HW226289   3.020   4.563  17.681 -0.7740  0.3307 -0.5557
 4886SOL     OW26290   1.788   2.838   5.401  0.1790  0.2782 -0.3816
 4886SOL    HW126291   1.745   2.809   5.481  0.2394  1.2300 -0.0021
 4886SOL    HW226292   1.730   2.811   5.330 -0.8419  0.9055  0.2116
 4887SOL     OW26293   0.242   4.592  11.509 -0.4132  0.2628 -0.0468
 4887SOL    HW126294   0.153   4.572  11.482  0.3214 -1.2001 -1.4081
 4887SOL    HW226295   0.284   4.590  11.423  1.4650 -3.2321  0.9395
 4888SOL     OW26296   2.828   1.204  10.141  0.0752 -0.0591  0.1412
 4888SOL    HW126297   2.833   1.109  10.153 -0.2518 -0.1023 -0.0754
 4888SOL    HW226298   2.911   1.221  10.098  0.1374 -1.0355 -0.1133
 4889SOL     OW26299   0.942   4.239   2.541  0.0325  0.6485  0.3102
 4889SOL    HW126300   0.955   4.328   2.509  2.8190  0.3232  0.5741
 4889SOL    HW226301   0.857   4.245   2.585 -0.9567 -1.8074 -1.2613
 4890SOL     OW26302   0.974   2.357   6.835 -0.2725 -0.3349 -0.0742
 4890SOL    HW126303   0.937   2.390   6.917 -1.7487 -1.2902 -0.3581
 4890SOL    HW226304   0.906   2.377   6.771  1.0204 -0.0451 -1.3680
 4891SOL     OW26305   0.302   3.334  14.417  0.3592 -0.0595  0.1626
 4891SOL    HW126306   0.360   3.371  14.350 -1.5449  2.5149 -0.0470
 4891SOL    HW226307   0.333   3.243  14.425  2.0644  0.2252 -3.3821
 4892SOL     OW26308   3.874   1.998   3.403  0.1978 -0.3013 -0.2380
 4892SOL    HW126309   3.817   1.963   3.472 -1.0984 -0.2374 -1.2805
 4892SOL    HW226310   3.963   1.972   3.427  0.3263 -0.4560 -0.9018
 4893SOL     OW26311   1.663   4.126   5.951  0.3438 -0.0156  0.5426
 4893SOL    HW126312   1.579   4.172   5.959  0.4351 -0.0558  1.7622
 4893SOL    HW226313   1.653   4.083   5.866  0.1380 -1.1255  1.1247
 4894SOL     OW26314   3.000   3.233   6.384  0.6445 -0.3106 -0.0456
 4894SOL    HW126315   3.095   3.246   6.381  0.3877  2.1237  1.7325
 4894SOL    HW226316   2.976   3.280   6.464  0.3825 -1.0405  0.2955
 4895SOL     OW26317   2.764   2.794   0.700 -0.1337  0.3975  0.0864
 4895SOL    HW126318   2.791   2.784   0.791  0.2837 -0.4435 -0.1278
 4895SOL    HW226319   2.846   2.762   0.662  0.9827  2.1933  0.9907
 4896SOL     OW26320   2.332   0.090   3.150  0.2981  0.3954 -0.0305
 4896SOL    HW126321   2.400   0.144   3.190  2.6635 -0.6950 -2.6034
 4896SOL    HW226322   2.308   0.136   3.070  0.2562  1.2548  0.4721
 4897SOL     OW26323   2.995   0.908   5.182  0.1009  0.3250  0.1177
 4897SOL    HW126324   2.989   0.945   5.270  0.2768 -1.0201  0.7035
 4897SOL    HW226325   3.073   0.955   5.153 -0.6150  1.3573 -0.1367
 4898SOL     OW26326   0.621   2.532   3.603 -0.8924  0.5078  0.8245
 4898SOL    HW126327   0.699   2.586   3.613  0.8624 -2.2255  1.8297
 4898SOL    HW226328   0.642   2.463   3.666 -0.3549  1.1584  1.3588
 4899SOL     OW26329   3.949   4.625   8.386 -0.8097  0.0883 -0.6115
 4899SOL    HW126330   4.021   4.633   8.448 -1.7666 -0.8713  0.6232
 4899SOL    HW226331   3.954   4.529   8.377 -1.4113  0.0956 -0.9874
 4900SOL     OW26332   0.910   0.276  10.189 -0.2967  0.2496 -0.2502
 4900SOL    HW126333   0.945   0.208  10.246  1.8461  0.7198 -1.0065
 4900SOL    HW226334   0.835   0.313  10.237 -0.9869 -2.2033  0.5396
 4901SOL     OW26335   3.021   0.110   3.327  0.1444  0.1243 -0.1352
 4901SOL    HW126336   2.948   0.055   3.298 -1.0370  0.6197  1.8323
 4901SOL    HW226337   2.996   0.189   3.278 -2.7205  0.0942  1.2515
 4902SOL     OW26338   1.253   0.120   2.998 -0.1237  0.7985  0.3573
 4902SOL    HW126339   1.205   0.038   3.008  1.0804  0.1051  0.4345
 4902SOL    HW226340   1.271   0.126   3.092 -2.1044  0.1855  0.7779
 4903SOL     OW26341   3.265   3.316   0.871 -0.2260 -0.0260  0.1995
 4903SOL    HW126342   3.183   3.345   0.832 -0.2088  1.0208  0.9797
 4903SOL    HW226343   3.235   3.319   0.961 -1.1814  1.9257 -0.2007
 4904SOL     OW26344   2.767   2.437   5.220  0.2459  0.2114  0.1042
 4904SOL    HW126345   2.828   2.386   5.167 -0.4023 -1.1146  0.6464
 4904SOL    HW226346   2.798   2.407   5.306 -1.4908  0.8723  0.9574
 4905SOL     OW26347   3.867   0.865   4.945  0.0753  0.3788 -0.1890
 4905SOL    HW126348   3.958   0.836   4.944 -0.9772 -3.0984  2.8060
 4905SOL    HW226349   3.872   0.934   5.011 -1.0960 -0.2802  0.6083
 4906SOL     OW26350   0.584   4.137  11.546 -0.7095 -0.0390 -0.1342
 4906SOL    HW126351   0.536   4.111  11.625 -2.3605  0.6036 -0.9148
 4906SOL    HW226352   0.546   4.224  11.533  2.1126  1.3342  0.8170
 4907SOL     OW26353   0.491   2.586  13.421 -0.2482  0.2353 -0.2501
 4907SOL    HW126354   0.574   2.539  13.408 -0.7200 -0.7660  0.4239
 4907SOL    HW226355   0.496   2.613  13.513 -2.3116  1.4180 -0.4892
 4908SOL     OW26356   4.433   1.926   8.585  0.0453  0.1000  0.0359
 4908SOL    HW126357   4.395   1.982   8.517  0.8890 -0.0326 -0.5407
 4908SOL    HW226358   4.353   1.907   8.634 -0.3184  0.0264 -0.5798
 4909SOL     OW26359   1.190   1.980   6.378  0.2338  0.6935  0.2764
 4909SOL    HW126360   1.153   2.056   6.332 -0.5796  1.3474  1.9837
 4909SOL    HW226361   1.163   1.993   6.469 -0.6037  3.2332 -0.3239
 4910SOL     OW26362   2.295   2.912  11.221  0.6439  0.4580  0.1074
 4910SOL    HW126363   2.305   2.992  11.169 -1.2116  1.1590  0.8005
 4910SOL    HW226364   2.376   2.903  11.272  0.1454 -0.9914  0.6490
 4911SOL     OW26365   1.738   3.148   2.032 -0.1898 -0.3700 -0.2507
 4911SOL    HW126366   1.745   3.097   2.112 -2.0782  1.8532  1.3557
 4911SOL    HW226367   1.767   3.081   1.971  1.7744 -1.0862  1.4972
 4912SOL     OW26368   3.143   0.580   7.737 -0.1633 -0.2641 -0.3276
 4912SOL    HW126369   3.219   0.587   7.678  1.6174 -1.2370  1.8544
 4912SOL    HW226370   3.070   0.583   7.675  0.9189 -3.7262 -1.7697
 4913SOL     OW26371   1.030   4.002   2.643  0.0774  0.0836 -0.3755
 4913SOL    HW126372   1.047   4.089   2.607 -0.6989  0.1626 -0.5730
 4913SOL    HW226373   0.955   3.979   2.587 -0.8240  0.4520  0.6847
 4914SOL     OW26374   4.420   2.053   7.189 -0.0635 -0.3571  0.1844
 4914SOL    HW126375   4.479   2.109   7.138  0.4528  0.0414  1.2270
 4914SOL    HW226376   4.336   2.055   7.144 -1.5840  3.5859  3.2218
 4915SOL     OW26377   4.373   0.332   4.617 -0.0600 -0.2978 -0.2303
 4915SOL    HW126378   4.445   0.273   4.594  1.1606  0.9632  0.3289
 4915SOL    HW226379   4.413   0.389   4.683  0.9828  0.0137 -1.1349
 4916SOL     OW26380   0.283   3.998   4.999 -0.5231 -0.3316  0.0478
 4916SOL    HW126381   0.199   4.041   5.012 -1.1810 -1.6128  0.0713
 4916SOL    HW226382   0.257   3.908   5.020  1.5072 -0.8007  0.5932
 4917SOL     OW26383   3.140   3.000   2.212 -0.1668  0.1432 -0.0244
 4917SOL    HW126384   3.168   3.038   2.128  0.0984  0.5772  0.2588
 4917SOL    HW226385   3.133   2.908   2.190  0.5102  0.6261 -2.2597
 4918SOL     OW26386   1.822   4.498  10.710  0.3946 -0.2825  0.2205
 4918SOL    HW126387   1.747   4.556  10.697  0.1659 -0.2832  1.4593
 4918SOL    HW226388   1.867   4.557  10.771  2.8697 -0.9328 -0.9853
 4919SOL     OW26389   3.919   3.756  12.732  0.1412  0.4639 -0.3024
 4919SOL    HW126390   3.846   3.701  12.760  1.1722 -0.4448  0.6176
 4919SOL    HW226391   3.865   3.830  12.704 -1.4238 -1.0409 -1.2431
 4920SOL     OW26392   3.791   2.368   1.682  0.0374 -0.4615  0.1059
 4920SOL    HW126393   3.754   2.281   1.671  1.0888 -0.7899 -0.8274
 4920SOL    HW226394   3.735   2.415   1.619  0.5432  0.0699  0.0543
 4921SOL     OW26395   2.752   4.114   5.893 -0.1341 -0.3633 -0.4406
 4921SOL    HW126396   2.707   4.039   5.932  0.5889 -0.7710 -0.3825
 4921SOL    HW226397   2.813   4.070   5.833 -0.8537  0.9009 -2.0856
 4922SOL     OW26398   3.140   2.574   2.778  0.8277  0.3937  0.0037
 4922SOL    HW126399   3.187   2.602   2.700 -1.1874  1.1174 -0.9608
 4922SOL    HW226400   3.106   2.488   2.755  1.6828 -0.5902  2.4271
 4923SOL     OW26401   0.801   2.510  11.339 -0.2933 -0.4003  0.5256
 4923SOL    HW126402   0.759   2.579  11.289  2.4065  0.6971 -0.1812
 4923SOL    HW226403   0.731   2.482  11.398 -1.5134 -0.7812 -1.1023
 4924SOL     OW26404   2.413   2.071   7.150  0.0884 -0.1981 -0.3681
 4924SOL    HW126405   2.365   1.995   7.119  0.4785 -0.5088 -0.2053
 4924SOL    HW226406   2.431   2.109   7.063  0.9877 -1.4835 -0.7394
 4925SOL     OW26407   2.275   3.927   7.227  0.6105  0.5262 -0.2571
 4925SOL    HW126408   2.335   3.917   7.302  0.5305 -0.8681 -0.3732
 4925SOL    HW226409   2.302   4.009   7.185 -0.3566  0.5200 -0.8853
 4926SOL     OW26410   4.013   0.147   5.217  0.2045  0.0106  0.1845
 4926SOL    HW126411   3.929   0.191   5.220  0.9461  1.4808 -0.6803
 4926SOL    HW226412   4.020   0.115   5.127 -1.4777 -0.5202  0.2456
 4927SOL     OW26413   1.678   0.695   8.978 -0.6035  0.1825 -0.1562
 4927SOL    HW126414   1.701   0.744   8.898 -1.0183  2.8065  1.3387
 4927SOL    HW226415   1.751   0.709   9.038  1.3691  1.4978 -2.8191
 4928SOL     OW26416   3.436   2.913   9.764  0.5936  0.7364 -0.0417
 4928SOL    HW126417   3.465   2.939   9.852  0.2030  0.8056  0.0709
 4928SOL    HW226418   3.341   2.927   9.766  0.6053  0.6896  1.3591
 4929SOL     OW26419   3.023   1.032  16.243  0.0700  0.2278 -0.3756
 4929SOL    HW126420   3.094   1.053  16.304  0.9374  0.8381 -1.5926
 4929SOL    HW226421   3.042   1.089  16.168  0.5048 -1.4292 -1.5194
 4930SOL     OW26422   1.092   1.486   5.050 -0.1851  0.0006 -0.2159
 4930SOL    HW126423   1.086   1.399   5.012 -1.2094 -1.4373  3.2450
 4930SOL    HW226424   1.000   1.511   5.044 -0.5464 -1.8306 -2.3243
 4931SOL     OW26425   1.989   1.874   2.212  0.1002  0.1888 -0.0244
 4931SOL    HW126426   1.902   1.839   2.230  0.5071  0.6552  2.7698
 4931SOL    HW226427   2.029   1.830   2.287  0.6226  2.0992  0.8122
 4932SOL     OW26428   4.406   3.174   6.563 -0.1403  0.2740  0.4565
 4932SOL    HW126429   4.415   3.110   6.493  1.2658  1.1116 -0.1396
 4932SOL    HW226430   4.494   3.192   6.598 -0.7668  1.5787  1.3638
 4933SOL     OW26431   1.305   0.523   4.102 -0.1646 -0.0320 -0.5652
 4933SOL    HW126432   1.286   0.587   4.033 -0.4549 -0.2246 -0.6638
 4933SOL    HW226433   1.400   0.511   4.105 -0.1248  0.6600  0.7888
 4934SOL     OW26434   0.841   4.449  16.350  0.1403  0.0046 -0.7530
 4934SOL    HW126435   0.808   4.479  16.265  0.1266  1.6506 -0.1477
 4934SOL    HW226436   0.844   4.355  16.328  0.3260 -0.5482  1.6707
 4935SOL     OW26437   2.765   1.279   3.926 -0.3934 -0.2898  0.4050
 4935SOL    HW126438   2.784   1.284   3.833 -1.2462 -0.7651  0.2092
 4935SOL    HW226439   2.854   1.271   3.959 -0.3811 -0.0945  0.4236
 4936SOL     OW26440   3.195   0.446   8.543  0.3429  0.0403  0.5155
 4936SOL    HW126441   3.210   0.383   8.614 -1.2801 -1.3659 -0.4049
 4936SOL    HW226442   3.135   0.510   8.582 -1.5198  0.2506 -2.7488
 4937SOL     OW26443   3.101   0.990  17.199 -0.1708  0.2740  0.1624
 4937SOL    HW126444   3.151   0.934  17.139 -0.1556  0.3526  0.1006
 4937SOL    HW226445   3.107   1.080  17.165  0.4164  0.5662  1.0326
 4938SOL     OW26446   4.046   0.789   6.948  0.2007  0.2622  0.1814
 4938SOL    HW126447   4.072   0.838   6.870  1.2112  0.2408  0.5081
 4938SOL    HW226448   4.018   0.856   7.010  3.4842  1.5329  0.3072
 4939SOL     OW26449   3.409   0.346   9.904  0.3227 -0.7484 -0.2451
 4939SOL    HW126450   3.498   0.358   9.871 -0.3156  1.2161 -1.2403
 4939SOL    HW226451   3.362   0.339   9.821  1.7257  2.0052 -1.2734
 4940SOL     OW26452   4.230   4.224   6.569 -0.0043  0.2935  0.3772
 4940SOL    HW126453   4.203   4.191   6.654 -0.7217  0.3117  0.1525
 4940SOL    HW226454   4.217   4.317   6.589  1.2831  0.7571 -0.9533
 4941SOL     OW26455   1.639   0.509   0.161 -0.0778  1.0035  0.4854
 4941SOL    HW126456   1.729   0.495   0.130  0.3723 -0.5045  2.4615
 4941SOL    HW226457   1.592   0.507   0.078  0.7402  0.1903  0.0272
 4942SOL     OW26458   4.490   3.497   5.492 -0.3934  0.3461  0.2072
 4942SOL    HW126459   4.482   3.589   5.464  1.4043  0.4999  0.1914
 4942SOL    HW226460   4.430   3.486   5.566 -0.9623 -0.1231 -0.3293
 4943SOL     OW26461   2.445   2.952   3.013 -0.3331 -0.0925  0.1415
 4943SOL    HW126462   2.512   2.891   3.043 -0.4007  0.8847  2.3003
 4943SOL    HW226463   2.364   2.927   3.056  0.5672  0.8739  2.3929
 4944SOL     OW26464   3.266   4.458   3.699  1.3737  0.3459 -0.0869
 4944SOL    HW126465   3.246   4.374   3.657 -1.0569 -0.0700  1.9564
 4944SOL    HW226466   3.348   4.483   3.657  0.2995  0.5998 -2.0642
 4945SOL     OW26467   3.295   0.355   9.002 -0.0788 -0.2049 -0.1799
 4945SOL    HW126468   3.240   0.432   9.013 -0.8784 -0.8703  0.5163
 4945SOL    HW226469   3.277   0.307   9.083 -0.0713  1.3259  0.7345
 4946SOL     OW26470   4.559   3.674   7.139  0.0676  0.6982 -0.3290
 4946SOL    HW126471   4.615   3.686   7.217  0.2703 -0.4379 -0.2937
 4946SOL    HW226472   4.492   3.739   7.160  2.1463  2.0796  2.0972
 4947SOL     OW26473   2.962   1.511   7.006 -0.6066 -0.4559 -0.1970
 4947SOL    HW126474   2.999   1.486   6.922 -0.8851 -1.7638  0.0650
 4947SOL    HW226475   3.042   1.533   7.055 -0.4313  1.2290 -1.2630
 4948SOL     OW26476   4.271   0.070   5.277 -0.0680  0.6676 -0.5645
 4948SOL    HW126477   4.193   0.106   5.234 -0.3250  0.7636 -0.0178
 4948SOL    HW226478   4.306   0.004   5.218 -0.9898 -0.5363  0.2176
 4949SOL     OW26479   2.666   4.095   2.948 -0.0714  0.0231 -0.4004
 4949SOL    HW126480   2.707   4.009   2.952 -2.7539 -1.2466 -0.5468
 4949SOL    HW226481   2.579   4.075   2.983 -0.1639  3.5391  1.4323
 4950SOL     OW26482   3.611   3.167   2.161  0.3793  0.0709  0.4199
 4950SOL    HW126483   3.543   3.101   2.151 -0.4818  1.0471 -0.2904
 4950SOL    HW226484   3.619   3.173   2.065  3.0383  1.1738  0.7062
 4951SOL     OW26485   3.832   4.299   3.722  0.2016 -0.0035 -0.7617
 4951SOL    HW126486   3.864   4.356   3.652  0.6982 -1.1366 -1.4574
 4951SOL    HW226487   3.737   4.310   3.717  0.4580  1.9668 -1.0556
 4952SOL     OW26488   2.149   1.189   2.551  0.1947 -0.0046 -0.3799
 4952SOL    HW126489   2.137   1.218   2.641  0.1473 -0.7840 -0.1345
 4952SOL    HW226490   2.108   1.268   2.515 -0.9634 -0.8189 -0.8491
 4953SOL     OW26491   4.726   0.152  16.486  0.1761  0.7227 -0.8038
 4953SOL    HW126492   0.005   0.244  16.464 -1.8111  1.8717  3.0416
 4953SOL    HW226493   4.703   0.105  16.406  1.5244  0.0986 -0.8399
 4954SOL     OW26494   2.616   3.989   7.173  0.4886 -0.0367 -0.7361
 4954SOL    HW126495   2.575   3.931   7.238  2.3450  0.8539  1.2436
 4954SOL    HW226496   2.580   3.949   7.094 -2.7922 -1.6279  1.5633
 4955SOL     OW26497   4.481   4.000   4.128  0.2308  0.2517  0.5378
 4955SOL    HW126498   4.511   4.064   4.192  0.8232  1.7564 -1.2791
 4955SOL    HW226499   4.422   4.057   4.080 -0.9521 -0.9676  0.5236
 4956SOL     OW26500   2.655   0.531  10.814  0.7093 -0.4192  0.0640
 4956SOL    HW126501   2.673   0.618  10.850  2.9268 -0.4080 -1.0706
 4956SOL    HW226502   2.562   0.539  10.794  0.5428 -0.6695  0.7153
 4957SOL     OW26503   2.526   1.830   3.409 -0.2613 -0.2412 -0.4235
 4957SOL    HW126504   2.448   1.878   3.437  0.8204  1.8180 -0.9386
 4957SOL    HW226505   2.483   1.754   3.369 -2.9971  0.3059  1.5161
 4958SOL     OW26506   2.961   1.423  17.176 -0.4727 -0.1066  0.1330
 4958SOL    HW126507   2.906   1.404  17.252 -0.9199  1.6466  0.2456
 4958SOL    HW226508   2.901   1.414  17.103 -0.5977 -0.2224  0.2504
 4959SOL     OW26509   2.266   0.579  14.745 -0.3057 -0.1212 -0.1464
 4959SOL    HW126510   2.177   0.604  14.717 -0.6172 -1.2286 -0.1282
 4959SOL    HW226511   2.291   0.662  14.786  1.6475 -0.6396 -0.3056
 4960SOL     OW26512   4.414   1.090   9.476 -0.4609  0.5491 -0.2197
 4960SOL    HW126513   4.421   1.159   9.542 -1.3115  1.0322 -0.6307
 4960SOL    HW226514   4.470   1.116   9.402  1.0111  1.0249  1.0722
 4961SOL     OW26515   2.623   1.799   1.856  0.2397 -0.4998 -0.0002
 4961SOL    HW126516   2.665   1.780   1.772 -0.5273 -1.6622 -0.1311
 4961SOL    HW226517   2.687   1.757   1.913  1.6100  2.0436  0.3276
 4962SOL     OW26518   3.416   3.627   6.823  0.0832  0.0015  0.0561
 4962SOL    HW126519   3.421   3.582   6.908  3.6516  0.5893  0.1750
 4962SOL    HW226520   3.508   3.652   6.816 -0.1077  0.6026 -0.2693
 4963SOL     OW26521   4.463   2.105   0.814  0.1737  0.5562 -0.4152
 4963SOL    HW126522   4.402   2.156   0.760 -1.1205 -2.4544 -1.7563
 4963SOL    HW226523   4.534   2.097   0.751 -0.4387  0.1415 -1.0543
 4964SOL     OW26524   2.214   0.589   7.051  0.3797 -0.3283  0.1674
 4964SOL    HW126525   2.181   0.549   6.971 -0.7731  1.1422 -0.0864
 4964SOL    HW226526   2.130   0.625   7.079  2.4876  4.0202  0.9815
 4965SOL     OW26527   4.625   4.640   6.985  0.1449  0.2613  0.2634
 4965SOL    HW126528   4.586   4.561   7.023 -1.2033  0.7956  0.0084
 4965SOL    HW226529   4.554   4.642   6.921  0.5435 -1.3872 -0.2351
 4966SOL     OW26530   2.499   3.078  13.976  0.0420 -0.7719 -0.2926
 4966SOL    HW126531   2.508   3.035  14.061 -0.8740  0.1880  0.2875
 4966SOL    HW226532   2.519   3.170  13.996  2.7645 -1.3867 -0.1919
 4967SOL     OW26533   1.423   0.857   3.939  0.4088 -0.1149 -0.0145
 4967SOL    HW126534   1.448   0.914   3.865 -0.9788  2.7464  1.7074
 4967SOL    HW226535   1.352   0.810   3.898  0.0325  1.5441 -1.2812
 4968SOL     OW26536   3.839   1.108   3.034 -0.1750  0.2768  0.3886
 4968SOL    HW126537   3.812   1.058   2.956 -1.4396  0.1784  0.8824
 4968SOL    HW226538   3.927   1.072   3.040  0.0788  0.7114 -0.5841
 4969SOL     OW26539   1.780   0.184   4.696 -0.5745 -0.0600  0.6736
 4969SOL    HW126540   1.685   0.179   4.698 -0.5925 -0.5842 -1.5535
 4969SOL    HW226541   1.805   0.142   4.779 -1.6599 -2.1233 -0.0386
 4970SOL     OW26542   3.137   1.037   2.715 -1.1865 -0.6527  0.2260
 4970SOL    HW126543   3.156   0.962   2.658 -1.8016 -1.5496  1.1921
 4970SOL    HW226544   3.172   1.004   2.798 -0.8825 -0.3390  0.2204
 4971SOL     OW26545   0.409   4.282   1.758  0.5310 -0.2845 -0.0950
 4971SOL    HW126546   0.366   4.200   1.736  0.5847 -0.8516  1.9485
 4971SOL    HW226547   0.340   4.336   1.795  2.3426  0.2475  2.4728
 4972SOL     OW26548   1.138   1.938  10.656  0.2092 -0.3514 -0.2022
 4972SOL    HW126549   1.127   1.986  10.738 -0.8321 -0.1784 -0.4317
 4972SOL    HW226550   1.201   2.000  10.618 -2.4354  0.3527 -3.4531
 4973SOL     OW26551   4.671   4.659   4.867  0.3559  0.4514 -0.2836
 4973SOL    HW126552   0.027   4.651   4.831 -0.3155  2.4250 -2.3571
 4973SOL    HW226553   4.688   4.611   4.948 -2.0790 -0.9115 -0.5709
 4974SOL     OW26554   3.298   4.150   2.592  0.0383  0.0501 -0.0369
 4974SOL    HW126555   3.239   4.225   2.585 -1.4525 -0.9636  1.4292
 4974SOL    HW226556   3.374   4.175   2.540  0.3763 -0.6158  0.1336
 4975SOL     OW26557   4.655   0.669   4.049  0.3993 -0.3110  0.2646
 4975SOL    HW126558   4.591   0.677   4.120  0.5908 -0.7232  0.4815
 4975SOL    HW226559   4.730   0.633   4.097  2.0032  1.3265 -1.0083
 4976SOL     OW26560   2.404   0.311   4.048  0.6658 -0.0623 -0.7305
 4976SOL    HW126561   2.359   0.395   4.048 -0.3665 -0.6259  1.4432
 4976SOL    HW226562   2.385   0.294   4.140  1.2771  2.5507 -0.1508
 4977SOL     OW26563   3.105   2.962   1.331  0.2764  0.1665 -0.1875
 4977SOL    HW126564   3.093   3.046   1.287  1.4019  0.8497  0.8186
 4977SOL    HW226565   3.014   2.940   1.352  0.1942  1.1700  0.5155
 4978SOL     OW26566   4.430   1.700  11.521  0.1666 -0.3517  0.5402
 4978SOL    HW126567   4.497   1.634  11.537 -0.2858 -0.6507  1.1861
 4978SOL    HW226568   4.474   1.774  11.562  2.5928 -1.3546 -0.2772
 4979SOL     OW26569   1.745   0.689   5.825  0.1034 -0.4298 -0.2160
 4979SOL    HW126570   1.804   0.627   5.868  3.7971  2.6502 -0.8382
 4979SOL    HW226571   1.671   0.692   5.886 -0.7006 -0.9481 -1.1627
 4980SOL     OW26572   2.646   2.445   3.005  0.6694  0.6709  0.4078
 4980SOL    HW126573   2.676   2.412   3.090  1.9921 -1.9260 -1.0743
 4980SOL    HW226574   2.728   2.491   2.986 -0.0009  1.8936  0.4735
 4981SOL     OW26575   2.596   1.782   1.550  0.0169 -0.2494  0.1253
 4981SOL    HW126576   2.603   1.688   1.566  1.5118 -0.2973 -0.8288
 4981SOL    HW226577   2.603   1.785   1.455  2.1111  0.3158  0.2958
 4982SOL     OW26578   1.874   2.907   6.634  0.3605  0.1687 -0.1743
 4982SOL    HW126579   1.927   2.838   6.596  0.1840  0.8414 -1.6238
 4982SOL    HW226580   1.805   2.867   6.687  0.7248  1.1157  1.0311
 4983SOL     OW26581   3.136   1.231  17.067  0.2333  0.1267 -0.2312
 4983SOL    HW126582   3.098   1.215  16.981 -0.5859  1.2183 -0.0684
 4983SOL    HW226583   3.099   1.314  17.096 -0.4350  0.0497 -0.8656
 4984SOL     OW26584   3.336   1.169   6.721  0.1304 -0.0314  0.4217
 4984SOL    HW126585   3.269   1.101   6.721  0.6799 -0.5681  0.6971
 4984SOL    HW226586   3.313   1.204   6.808 -2.8149  1.0001 -0.7603
 4985SOL     OW26587   0.823   1.413   7.661 -0.0113 -0.0130 -0.5550
 4985SOL    HW126588   0.761   1.485   7.668 -0.3937 -0.6461  2.4099
 4985SOL    HW226589   0.900   1.464   7.689 -0.4870  0.8095 -0.7498
 4986SOL     OW26590   1.807   2.276  10.283  0.1405 -0.3094 -0.4517
 4986SOL    HW126591   1.834   2.356  10.239  2.0959 -0.8148 -0.1589
 4986SOL    HW226592   1.711   2.283  10.284  0.2705  1.2797  1.2522
 4987SOL     OW26593   1.909   2.468   8.931  0.8235  0.1702  0.0302
 4987SOL    HW126594   1.850   2.446   9.003 -0.0653  0.3882 -0.6309
 4987SOL    HW226595   1.984   2.410   8.941  0.4280 -0.4341 -0.4895
 4988SOL     OW26596   1.799   2.628   7.763 -0.3884 -0.0233 -0.2155
 4988SOL    HW126597   1.889   2.662   7.764 -0.8399  1.1678 -0.3783
 4988SOL    HW226598   1.815   2.544   7.805 -0.3509 -0.3609 -0.9193
 4989SOL     OW26599   1.792   3.042  14.753 -0.8969 -0.1804  0.1230
 4989SOL    HW126600   1.808   2.977  14.821 -1.9061  0.5493  1.0619
 4989SOL    HW226601   1.704   3.071  14.777 -0.6291  1.0266 -0.3527
 4990SOL     OW26602   3.922   0.203   4.118 -0.4080 -0.3353 -0.2344
 4990SOL    HW126603   3.991   0.232   4.178 -1.3311 -0.6609  0.9862
 4990SOL    HW226604   3.952   0.249   4.039  1.0410 -0.3299  0.3243
 4991SOL     OW26605   3.552   1.565   6.306  0.1105  0.3297  0.0423
 4991SOL    HW126606   3.557   1.605   6.392 -0.8705 -1.2942  0.8461
 4991SOL    HW226607   3.494   1.496   6.338  0.3529 -0.2558 -0.7687
 4992SOL     OW26608   3.714   2.821  13.164 -0.2246  0.3742 -0.1833
 4992SOL    HW126609   3.794   2.779  13.198 -1.7584 -1.2878  1.3600
 4992SOL    HW226610   3.715   2.774  13.081  0.4814  1.7550 -0.9627
 4993SOL     OW26611   2.472   2.430  15.535 -1.2172 -0.5008 -0.5367
 4993SOL    HW126612   2.470   2.342  15.573 -0.5368  0.9522  2.8790
 4993SOL    HW226613   2.562   2.445  15.507 -1.5880  0.8130 -1.0146
 4994SOL     OW26614   2.792   3.885   8.438 -0.3311 -0.2895 -0.2872
 4994SOL    HW126615   2.784   3.933   8.356 -1.2023 -0.2217 -0.1591
 4994SOL    HW226616   2.872   3.834   8.427 -0.8170 -1.4662  1.5649
 4995SOL     OW26617   4.335   2.068  13.400  0.6908 -0.6211  0.9531
 4995SOL    HW126618   4.400   2.136  13.415 -0.3724  0.4691  0.5923
 4995SOL    HW226619   4.253   2.115  13.413  0.3323 -0.3095 -2.5725
 4996SOL     OW26620   1.691   1.829   2.712 -0.3007  0.0446  0.2558
 4996SOL    HW126621   1.694   1.921   2.739  0.9922  0.4381 -1.2169
 4996SOL    HW226622   1.634   1.793   2.780  2.1153 -1.1317  1.6271
 4997SOL     OW26623   2.873   1.767   6.893  0.4381 -1.0601  0.2176
 4997SOL    HW126624   2.920   1.748   6.974 -0.1017 -0.1806  0.7362
 4997SOL    HW226625   2.794   1.806   6.929  0.5808  0.0333 -0.6672
 4998SOL     OW26626   1.081   3.445  16.821 -0.0150  0.2684 -0.1842
 4998SOL    HW126627   1.012   3.425  16.758 -0.5292  0.0346  0.4539
 4998SOL    HW226628   1.049   3.418  16.907 -0.7969 -3.7159 -1.7357
 4999SOL     OW26629   0.639   4.064   8.934  0.2178 -0.0420 -0.5088
 4999SOL    HW126630   0.726   4.087   8.900 -0.1143  1.5924 -0.2423
 4999SOL    HW226631   0.652   3.974   8.963 -0.6952  0.3548  1.1522
 5000SOL     OW26632   2.974   0.529  16.734  0.4900  0.3807 -0.5807
 5000SOL    HW126633   2.959   0.566  16.821 -1.4911  3.9367 -2.4447
 5000SOL    HW226634   2.911   0.456  16.740  0.4168  0.5658  1.0723
 5001SOL     OW26635   0.362   1.822  10.342  0.2527 -0.0887  0.0582
 5001SOL    HW126636   0.308   1.757  10.297  1.4902 -1.7575  0.9961
 5001SOL    HW226637   0.406   1.770  10.409  0.5205 -2.7887 -2.2105
 5002SOL     OW26638   0.552   0.193   3.087 -0.2022 -0.2686  0.4009
 5002SOL    HW126639   0.476   0.136   3.093  0.2164 -0.8288  0.4071
 5002SOL    HW226640   0.539   0.196   2.992 -1.9734 -0.4772  0.6507
 5003SOL     OW26641   2.121   0.448   3.122  0.1885  0.3822 -0.1430
 5003SOL    HW126642   2.155   0.433   3.210  2.4583  2.3880 -0.6486
 5003SOL    HW226643   2.195   0.415   3.070  0.3993  0.1880  0.2836
 5004SOL     OW26644   3.897   3.837   7.828  0.2499 -0.5844 -0.0957
 5004SOL    HW126645   3.989   3.856   7.849  0.6783 -0.1392 -2.2971
 5004SOL    HW226646   3.849   3.850   7.910  1.5914  0.0774  0.5991
 5005SOL     OW26647   0.830   1.712   4.417  0.1652  0.0212 -0.0096
 5005SOL    HW126648   0.902   1.745   4.471  0.2566  0.2208 -0.2574
 5005SOL    HW226649   0.842   1.617   4.429  2.2615  0.1301 -1.3189
 5006SOL     OW26650   2.577   2.081  14.845  0.0790 -0.3942 -0.5892
 5006SOL    HW126651   2.602   2.173  14.839  0.0373 -0.3495 -0.0485
 5006SOL    HW226652   2.593   2.064  14.752 -0.1528  0.2441 -0.7422
 5007SOL     OW26653   1.174   0.842  12.813 -0.0821  0.0716  0.0188
 5007SOL    HW126654   1.216   0.758  12.830 -0.0676 -0.0228 -0.5002
 5007SOL    HW226655   1.147   0.821  12.724  1.2728 -0.5052 -0.2543
 5008SOL     OW26656   1.215   2.387   1.864 -0.0555 -0.7343  0.0517
 5008SOL    HW126657   1.208   2.476   1.831  1.6239 -0.3366  0.7964
 5008SOL    HW226658   1.309   2.378   1.851  0.1108 -3.3671  3.1594
 5009SOL     OW26659   3.166   1.829  13.090  0.0956  0.3895 -0.1635
 5009SOL    HW126660   3.191   1.753  13.142  1.9019 -0.0018 -1.6280
 5009SOL    HW226661   3.098   1.788  13.035  0.3200 -2.0660  1.4032
 5010SOL     OW26662   2.340   1.295   1.547  0.2785  0.1697  0.3884
 5010SOL    HW126663   2.414   1.262   1.598  0.0589  0.0004  0.6017
 5010SOL    HW226664   2.282   1.220   1.537  3.5751 -2.2082 -0.7686
 5011SOL     OW26665   2.380   0.637  10.014 -0.2766 -0.7618 -0.2554
 5011SOL    HW126666   2.368   0.725  10.048  0.7709 -2.3905  4.3105
 5011SOL    HW226667   2.336   0.652   9.930 -1.0440 -0.0432  0.2809
 5012SOL     OW26668   4.149   0.943   6.767  0.2484  0.0278 -0.1984
 5012SOL    HW126669   4.133   1.035   6.789 -0.8233 -0.6245  1.6713
 5012SOL    HW226670   4.140   0.947   6.672  3.2422 -2.3837 -0.5881
 5013SOL     OW26671   0.086   0.979   7.221 -0.6815 -0.2055  0.1895
 5013SOL    HW126672   0.057   1.021   7.302 -0.5106  1.0191 -0.3884
 5013SOL    HW226673   0.179   1.000   7.212 -0.8370  0.1909 -0.4435
 5014SOL     OW26674   0.155   2.314  13.477 -0.2015  0.2657  0.1467
 5014SOL    HW126675   0.156   2.387  13.415  0.7244 -2.2581 -2.8184
 5014SOL    HW226676   0.246   2.285  13.481 -0.4226 -0.2137  1.6585
 5015SOL     OW26677   3.832   0.002   7.554 -0.2082  0.3501  0.3823
 5015SOL    HW126678   3.834   0.097   7.555 -0.5147  0.3678 -0.8067
 5015SOL    HW226679   3.923   4.707   7.567 -0.8289 -2.2666 -0.7059
 5016SOL     OW26680   4.176   0.735  10.766 -0.0107 -0.1275  0.5099
 5016SOL    HW126681   4.260   0.710  10.727  0.3584  0.7378  0.7391
 5016SOL    HW226682   4.186   0.730  10.861 -1.1470 -0.3542  0.6124
 5017SOL     OW26683   1.867   0.762  10.699  0.6156  0.1386  0.0297
 5017SOL    HW126684   1.865   0.667  10.706 -1.0686  0.1395 -0.4464
 5017SOL    HW226685   1.814   0.785  10.775  1.2203 -2.3967  1.2039
 5018SOL     OW26686   3.814   0.580   5.459  0.5060  0.3026  0.2382
 5018SOL    HW126687   3.817   0.616   5.547 -0.2422 -0.7079  0.6845
 5018SOL    HW226688   3.882   0.634   5.417 -0.4883  0.7428 -0.7916
 5019SOL     OW26689   3.735   3.975   6.398 -0.3894  0.0468 -0.3193
 5019SOL    HW126690   3.698   4.057   6.366  0.4702  0.1739 -0.9782
 5019SOL    HW226691   3.772   3.930   6.322 -1.1417 -1.1112 -0.0004
 5020SOL     OW26692   3.242   2.452   2.115 -0.1605  0.1326 -0.4990
 5020SOL    HW126693   3.222   2.367   2.076  0.5512 -0.9323  1.4395
 5020SOL    HW226694   3.328   2.435   2.153 -0.8751 -1.5398  0.3794
 5021SOL     OW26695   1.031   0.708   8.599  0.2511  0.9257 -0.5303
 5021SOL    HW126696   0.992   0.728   8.513 -0.9961 -2.7193 -0.8514
 5021SOL    HW226697   0.970   0.761   8.650  0.2194  0.8198 -0.4582
 5022SOL     OW26698   2.646   4.407  12.757  0.1209 -0.2865 -0.0535
 5022SOL    HW126699   2.723   4.459  12.735  0.1562  0.1503  1.0910
 5022SOL    HW226700   2.676   4.366  12.838 -1.2926  0.0334  0.6296
 5023SOL     OW26701   1.512   0.631   9.176 -0.7263  0.2291 -0.1927
 5023SOL    HW126702   1.562   0.683   9.113  0.7617 -0.6664  0.2426
 5023SOL    HW226703   1.424   0.667   9.161  0.4519  2.3659 -1.9984
 5024SOL     OW26704   3.290   0.177  12.929  0.3052 -1.0490 -0.0062
 5024SOL    HW126705   3.215   0.231  12.907 -0.3114 -1.6141  0.7192
 5024SOL    HW226706   3.275   0.094  12.884 -3.0280  0.4091 -1.4909
 5025SOL     OW26707   2.299   1.544   1.490 -0.0550 -0.0503 -0.1527
 5025SOL    HW126708   2.273   1.543   1.398  0.2881  0.4193 -0.2557
 5025SOL    HW226709   2.328   1.457   1.515  1.2580  0.5403  0.3981
 5026SOL     OW26710   1.604   3.508   7.697 -1.0813  0.0678  0.0542
 5026SOL    HW126711   1.599   3.421   7.658 -0.9361  0.4110 -0.7487
 5026SOL    HW226712   1.586   3.571   7.626 -1.7785 -0.8455 -0.5813
 5027SOL     OW26713   2.412   3.428  10.259  0.1492  0.7533 -0.4231
 5027SOL    HW126714   2.419   3.333  10.268  0.4762  0.7314 -0.9192
 5027SOL    HW226715   2.354   3.462  10.328 -1.7955 -0.1213 -1.6253
 5028SOL     OW26716   1.833   1.481   5.817  0.0897 -0.2161  0.3262
 5028SOL    HW126717   1.806   1.390   5.800 -1.2489  0.2704 -0.2077
 5028SOL    HW226718   1.773   1.525   5.756  0.4114  0.9340  0.8583
 5029SOL     OW26719   0.596   1.051   8.313  0.1886  0.0307 -0.0707
 5029SOL    HW126720   0.670   0.996   8.338 -0.0283 -1.9195 -3.6900
 5029SOL    HW226721   0.651   1.124   8.339  0.0948 -0.0932  0.4697
 5030SOL     OW26722   2.759   2.694  15.716 -0.7863  0.3259 -0.1979
 5030SOL    HW126723   2.694   2.755  15.750 -2.7053 -1.1714 -1.1163
 5030SOL    HW226724   2.826   2.756  15.689  0.8294 -0.3907  2.1894
 5031SOL     OW26725   3.667   3.785   5.662  0.3813  0.5703  0.3275
 5031SOL    HW126726   3.660   3.820   5.573 -1.5922 -1.3078 -0.2381
 5031SOL    HW226727   3.754   3.818   5.683  0.6553  0.7645 -1.0934
 5032SOL     OW26728   2.921   1.870   7.222 -0.3255  1.1811 -0.1640
 5032SOL    HW126729   2.839   1.867   7.271 -0.4230  2.6614 -0.2421
 5032SOL    HW226730   2.969   1.941   7.265  0.0351 -0.6321  2.4562
 5033SOL     OW26731   4.474   0.680   1.494  0.8008  0.0526  0.1011
 5033SOL    HW126732   4.488   0.738   1.420  1.3150  2.2089  1.8788
 5033SOL    HW226733   4.430   0.732   1.562  2.0494  1.5273 -0.2408
 5034SOL     OW26734   2.022   0.232   4.221  0.6388  0.7136  0.4511
 5034SOL    HW126735   2.024   0.158   4.160  0.2457 -0.2904  1.6518
 5034SOL    HW226736   1.963   0.293   4.176  0.2450 -0.0424 -0.0561
 5035SOL     OW26737   3.948   0.459  15.372  0.0650 -0.1249 -0.1988
 5035SOL    HW126738   3.929   0.503  15.455 -0.6511 -1.3202  0.2682
 5035SOL    HW226739   3.892   0.491  15.301 -0.5391  0.4873  0.5601
 5036SOL     OW26740   0.374   3.997  14.675  0.2821 -0.2300  0.1599
 5036SOL    HW126741   0.371   4.082  14.720 -0.6323 -1.0485  1.6304
 5036SOL    HW226742   0.411   4.030  14.593  0.4916 -0.9100 -0.0145
 5037SOL     OW26743   0.893   3.934   7.544  0.2959 -0.6170 -0.2107
 5037SOL    HW126744   0.959   4.002   7.533  3.0971 -3.3524 -0.5073
 5037SOL    HW226745   0.846   3.939   7.461 -1.0119 -2.4098  0.4026
 5038SOL     OW26746   3.250   4.329   8.151  0.3467 -0.1441 -0.0177
 5038SOL    HW126747   3.330   4.277   8.142  1.7551  1.5635  2.5299
 5038SOL    HW226748   3.269   4.385   8.227  3.4586 -1.6412  0.3441
 5039SOL     OW26749   1.248   3.286   7.701  0.4307  0.0823  0.6440
 5039SOL    HW126750   1.209   3.369   7.730 -1.7282  0.0918 -2.2922
 5039SOL    HW226751   1.231   3.234   7.779 -0.4335  0.7055  0.8706
 5040SOL     OW26752   3.755   3.242   3.259 -0.4038 -0.0050 -0.2194
 5040SOL    HW126753   3.821   3.273   3.322  2.0706  0.0373 -2.8224
 5040SOL    HW226754   3.760   3.307   3.188 -0.5518  0.5335  0.2639
 5041SOL     OW26755   1.687   2.797   7.991  0.6553  0.0793 -0.3234
 5041SOL    HW126756   1.735   2.764   7.915 -0.9435  0.2827 -1.4086
 5041SOL    HW226757   1.642   2.872   7.954 -1.3296 -1.0406 -0.1660
 5042SOL     OW26758   0.394   2.575   2.934  0.2485  0.1335 -0.0723
 5042SOL    HW126759   0.372   2.572   2.841  2.1948  2.3481 -0.6024
 5042SOL    HW226760   0.344   2.651   2.962 -1.1341 -0.5765 -0.5976
 5043SOL     OW26761   0.459   1.470   2.831 -0.0035 -0.2740  0.1116
 5043SOL    HW126762   0.551   1.482   2.806 -0.3999 -0.3124 -1.3349
 5043SOL    HW226763   0.446   1.376   2.819  0.4998 -0.1639 -1.3199
 5044SOL     OW26764   0.111   0.622   3.425 -1.1036 -0.4919 -0.2907
 5044SOL    HW126765   0.097   0.543   3.373  1.5952 -0.0909 -1.6298
 5044SOL    HW226766   0.074   0.697   3.377 -1.2265 -1.6010 -1.9446
 5045SOL     OW26767   0.080   4.646   3.724 -0.1118  0.2727  0.2761
 5045SOL    HW126768   0.127   4.715   3.770 -0.1524  1.3944 -1.3603
 5045SOL    HW226769   4.727   4.654   3.767 -0.6388  2.4181 -1.1663
 5046SOL     OW26770   3.357   0.406   5.400  0.2507  0.0368 -0.3628
 5046SOL    HW126771   3.400   0.460   5.467 -0.4756 -1.4628  1.3379
 5046SOL    HW226772   3.405   0.434   5.323 -2.1850  3.4488 -0.6351
 5047SOL     OW26773   3.839   1.017   5.933 -0.4121  0.2708 -0.2640
 5047SOL    HW126774   3.920   1.020   5.882 -0.3633  0.4174 -0.1770
 5047SOL    HW226775   3.863   0.981   6.018 -1.6549 -1.9113 -0.8525
 5048SOL     OW26776   2.140   2.130  15.014  0.2907  0.0414  0.5616
 5048SOL    HW126777   2.072   2.074  14.976 -1.1726  1.7037  0.7334
 5048SOL    HW226778   2.213   2.107  14.957 -1.4077 -2.7310 -0.5401
 5049SOL     OW26779   3.124   1.683   2.245 -0.1310  0.2635 -0.0885
 5049SOL    HW126780   3.108   1.590   2.231 -1.3980  0.5753 -0.7140
 5049SOL    HW226781   3.215   1.685   2.218  0.1123  1.1550  0.7858
 5050SOL     OW26782   4.639   2.128   5.271 -0.0859 -0.5848  0.8025
 5050SOL    HW126783   4.548   2.102   5.261 -0.9235  1.8124  2.0341
 5050SOL    HW226784   4.676   2.041   5.284  0.3062 -0.1914  2.4511
 5051SOL     OW26785   3.775   2.762  14.791  0.2064  0.2304  0.2998
 5051SOL    HW126786   3.773   2.709  14.870 -1.4701 -0.3184 -0.1135
 5051SOL    HW226787   3.715   2.714  14.734 -0.2222 -2.2224  2.8756
 5052SOL     OW26788   3.183   1.205   7.323  0.5237  0.2159  0.4825
 5052SOL    HW126789   3.197   1.127   7.377 -2.5372  0.5055  1.7041
 5052SOL    HW226790   3.169   1.162   7.239  0.4040  0.2233  0.4984
 5053SOL     OW26791   1.616   1.603   2.226  0.1841 -0.3267 -0.6201
 5053SOL    HW126792   1.553   1.648   2.169  0.6895 -1.8832 -2.4197
 5053SOL    HW226793   1.621   1.518   2.183 -1.8827 -0.5652 -0.3617
 5054SOL     OW26794   1.765   0.528  11.857 -0.3012 -0.4929  0.3321
 5054SOL    HW126795   1.703   0.584  11.810  0.0075  0.5173  1.1371
 5054SOL    HW226796   1.718   0.531  11.940 -1.5103  2.7109 -0.4767
 5055SOL     OW26797   2.292   1.799   2.807 -0.1324  0.0672  0.1335
 5055SOL    HW126798   2.316   1.771   2.895 -1.2394  0.2762  0.5052
 5055SOL    HW226799   2.340   1.739   2.751  0.4766  0.7670 -0.0957
 5056SOL     OW26800   0.987   3.248  13.822  0.5080 -0.4739 -0.1646
 5056SOL    HW126801   1.080   3.237  13.803  0.7328  0.6044  0.3062
 5056SOL    HW226802   0.973   3.303  13.745  0.7017  0.9429  0.8094
 5057SOL     OW26803   1.547   1.654  16.741  0.7666 -0.4414  0.9994
 5057SOL    HW126804   1.581   1.691  16.660 -0.0332  0.8567  1.2540
 5057SOL    HW226805   1.582   1.708  16.812 -0.4476  0.8968  0.5938
 5058SOL     OW26806   3.480   0.636   7.279  0.5181 -0.0889  0.0305
 5058SOL    HW126807   3.389   0.656   7.299  0.3121 -0.2537 -0.7480
 5058SOL    HW226808   3.508   0.727   7.291 -1.4264  0.7339 -1.6983
 5059SOL     OW26809   4.293   0.647   4.562 -0.4827 -0.0812 -0.1509
 5059SOL    HW126810   4.254   0.563   4.537 -1.7343  0.4151  0.0897
 5059SOL    HW226811   4.335   0.670   4.479 -0.7784 -1.9506 -0.8243
 5060SOL     OW26812   1.512   0.689   5.972  0.1909  0.2355 -0.3445
 5060SOL    HW126813   1.476   0.607   5.937 -0.9070  1.1364 -1.3459
 5060SOL    HW226814   1.486   0.683   6.064  0.1884 -0.3411 -0.3826
 5061SOL     OW26815   1.321   4.089  16.646  0.4617  0.1022  0.2219
 5061SOL    HW126816   1.370   4.131  16.575  0.3592 -2.9293 -1.6192
 5061SOL    HW226817   1.382   4.109  16.717  0.6485  2.8166 -0.6909
 5062SOL     OW26818   2.884   1.172   7.156 -0.4767  0.0812  0.0759
 5062SOL    HW126819   2.847   1.114   7.091 -0.6086 -0.9763  1.0953
 5062SOL    HW226820   2.832   1.252   7.156 -0.3782  0.1441 -0.5546
 5063SOL     OW26821   3.534   0.228   8.709 -0.2872  0.1881  0.1197
 5063SOL    HW126822   3.626   0.220   8.735 -0.5221 -1.0338  0.5678
 5063SOL    HW226823   3.551   0.305   8.654 -1.0842 -0.9197 -1.6750
 5064SOL     OW26824   1.680   3.096   1.630 -0.0298 -0.4229 -0.0911
 5064SOL    HW126825   1.595   3.092   1.587 -0.6324  2.2513  0.8282
 5064SOL    HW226826   1.715   3.178   1.596 -2.4992  0.1088 -1.3412
 5065SOL     OW26827   3.519   0.558  14.859 -0.1291 -0.2713 -0.1171
 5065SOL    HW126828   3.520   0.557  14.955 -2.4141  1.3037 -0.0750
 5065SOL    HW226829   3.454   0.627  14.845 -1.4457 -1.4826  0.0149
 5066SOL     OW26830   1.832   1.155   7.086  0.0756  0.3972  0.1429
 5066SOL    HW126831   1.789   1.203   7.156 -0.5527 -4.4355  3.0556
 5066SOL    HW226832   1.890   1.096   7.133 -0.7684  0.1308  0.8627
 5067SOL     OW26833   1.997   4.244  13.132  0.0107  0.0310 -0.8358
 5067SOL    HW126834   1.928   4.302  13.101 -1.6748 -1.4727  0.0782
 5067SOL    HW226835   1.983   4.182  13.060  0.2052 -1.7461  0.6519
 5068SOL     OW26836   0.296   3.542   7.060 -0.3320 -0.4905 -0.5285
 5068SOL    HW126837   0.205   3.520   7.040 -1.1869  1.4472  1.1496
 5068SOL    HW226838   0.300   3.631   7.024 -1.8798  0.7395  2.2818
 5069SOL     OW26839   2.698   2.925   5.895  0.4176  0.0196  0.0255
 5069SOL    HW126840   2.682   2.957   5.984  2.2843 -0.2023  0.4380
 5069SOL    HW226841   2.752   2.992   5.851 -0.7108  0.0374 -1.3305
 5070SOL     OW26842   0.821   4.603   2.215  0.1337  0.3835 -0.0982
 5070SOL    HW126843   0.804   4.521   2.169 -1.9125 -0.0410  1.3736
 5070SOL    HW226844   0.749   4.597   2.278  0.6898  1.2473  0.6079
 5071SOL     OW26845   3.748   3.105   6.170 -0.0445 -0.3566 -0.0030
 5071SOL    HW126846   3.773   3.012   6.171 -0.1214 -0.3850 -0.6235
 5071SOL    HW226847   3.705   3.111   6.085  0.7211  3.0221 -0.1468
 5072SOL     OW26848   1.088   1.559  10.980  0.1566 -0.3765 -0.3630
 5072SOL    HW126849   1.052   1.602  10.902  0.9675 -0.3349 -0.7152
 5072SOL    HW226850   1.152   1.498  10.942  1.4317 -0.0630  1.2649
 5073SOL     OW26851   3.236   3.874   7.736  0.3326 -0.0166 -0.1909
 5073SOL    HW126852   3.252   3.878   7.831  0.4441 -2.3334 -0.1171
 5073SOL    HW226853   3.200   3.786   7.731 -1.7348  0.8651 -0.6375
 5074SOL     OW26854   2.766   3.846   4.239  0.1990  0.1037  0.4610
 5074SOL    HW126855   2.792   3.791   4.313 -1.7238 -1.6397 -0.1556
 5074SOL    HW226856   2.787   3.932   4.275  2.1235 -1.0634  2.1015
 5075SOL     OW26857   2.247   4.356   3.106  1.2287 -0.3935 -0.0291
 5075SOL    HW126858   2.185   4.427   3.127 -1.8077 -3.1601  0.3493
 5075SOL    HW226859   2.275   4.333   3.195  0.2023 -0.9295  0.1554
 5076SOL     OW26860   0.214   0.979   4.959 -0.2675 -0.3530  0.4661
 5076SOL    HW126861   0.215   1.070   4.931 -2.2100 -0.3805  0.3436
 5076SOL    HW226862   0.268   0.989   5.037  2.3779 -2.4410 -1.0726
 5077SOL     OW26863   0.505   0.973   2.676  0.3345  0.8167 -0.6155
 5077SOL    HW126864   0.594   0.948   2.651  0.4056 -0.7927  1.2701
 5077SOL    HW226865   0.479   1.051   2.628  0.0517  0.6188 -0.7864
 5078SOL     OW26866   0.758   2.938   3.906 -0.0214  0.4637 -0.0893
 5078SOL    HW126867   0.788   2.847   3.903  0.3566  0.5553  1.3422
 5078SOL    HW226868   0.694   2.952   3.836  0.8140  0.8788 -0.7844
 5079SOL     OW26869   3.330   4.050  13.285 -0.0606  0.6447  0.1058
 5079SOL    HW126870   3.414   4.081  13.320 -0.6414  2.7166 -0.3278
 5079SOL    HW226871   3.368   4.028  13.200 -0.7749  0.2367 -0.1077
 5080SOL     OW26872   1.305   0.703   7.344  0.1248 -0.1704  0.7972
 5080SOL    HW126873   1.214   0.722   7.366  0.5104 -0.3026  2.5376
 5080SOL    HW226874   1.359   0.739   7.414  0.2637  0.7930  0.1954
 5081SOL     OW26875   4.238   1.034   0.605  0.5591 -0.1727 -0.2644
 5081SOL    HW126876   4.197   0.964   0.657  2.0994  0.9781  2.4753
 5081SOL    HW226877   4.207   1.002   0.519  2.6100  1.0940 -1.4658
 5082SOL     OW26878   3.598   1.402   5.130  0.2058 -0.4350  0.1136
 5082SOL    HW126879   3.595   1.307   5.137  3.3776 -0.4796  0.8596
 5082SOL    HW226880   3.525   1.438   5.180 -0.9134 -2.1004 -0.3333
 5083SOL     OW26881   2.032   2.153  13.157 -0.2554  0.3258  0.3972
 5083SOL    HW126882   2.088   2.144  13.235  0.0636  0.3383  0.1708
 5083SOL    HW226883   2.083   2.225  13.120  0.4032  0.0228  0.7067
 5084SOL     OW26884   3.092   1.231  10.011  0.9073 -0.3457 -0.0388
 5084SOL    HW126885   3.128   1.293   9.948 -2.1339  0.5038 -0.9296
 5084SOL    HW226886   3.168   1.185  10.045  2.5579  3.2635  1.0904
 5085SOL     OW26887   0.441   2.668  15.125 -0.1498 -0.3158  0.4727
 5085SOL    HW126888   0.492   2.602  15.172  0.8792 -0.0424 -0.2528
 5085SOL    HW226889   0.493   2.665  15.045 -0.7639 -3.6147  0.1919
 5086SOL     OW26890   4.573   0.880   5.249 -0.0521  0.3883  0.6658
 5086SOL    HW126891   4.561   0.786   5.236  2.0407  0.2294 -0.0807
 5086SOL    HW226892   4.632   0.893   5.175 -2.7982  0.0003 -1.5795
 5087SOL     OW26893   2.266   2.703  12.798 -0.0096  0.0282 -0.1233
 5087SOL    HW126894   2.213   2.753  12.736 -1.7404 -0.8967  0.5983
 5087SOL    HW226895   2.331   2.677  12.733  1.0788 -0.5345  1.1942
 5088SOL     OW26896   4.574   4.335  15.067  0.2982  0.3643  0.2101
 5088SOL    HW126897   4.649   4.388  15.038  0.7636 -0.0585  0.6328
 5088SOL    HW226898   4.611   4.250  15.042  0.7958  0.4421  0.6814
 5089SOL     OW26899   3.341   2.498  16.465  0.3048  0.1500 -0.4646
 5089SOL    HW126900   3.248   2.483  16.446  0.6081  0.1471 -1.9387
 5089SOL    HW226901   3.394   2.476  16.389 -0.2199  1.1917 -1.1302
 5090SOL     OW26902   3.097   4.518   3.434 -0.3264  0.5023  0.3888
 5090SOL    HW126903   3.115   4.454   3.503 -1.0115  2.6749  2.5888
 5090SOL    HW226904   3.002   4.503   3.439 -0.4679  0.8567 -1.1947
 5091SOL     OW26905   0.870   2.894  12.565  0.0401 -0.3584 -0.2275
 5091SOL    HW126906   0.779   2.920  12.578 -0.0022 -0.9178  0.5853
 5091SOL    HW226907   0.878   2.911  12.471  0.8368  0.6620  0.0263
 5092SOL     OW26908   3.977   1.678   6.933 -0.2472  0.2767 -0.1131
 5092SOL    HW126909   4.024   1.625   6.998 -1.0840 -0.0948  0.1934
 5092SOL    HW226910   4.051   1.725   6.895 -1.2834  0.3729 -2.0190
 5093SOL     OW26911   0.530   3.411   2.415 -0.5126  0.1715 -0.3156
 5093SOL    HW126912   0.533   3.496   2.458  0.4632 -0.5450  1.0544
 5093SOL    HW226913   0.510   3.358   2.492 -0.7480 -1.0476 -1.2070
 5094SOL     OW26914   3.022   0.544  10.059  0.5315 -0.2526 -0.4742
 5094SOL    HW126915   3.091   0.540  10.125 -0.5352  0.6600  0.6954
 5094SOL    HW226916   2.973   0.462  10.069 -0.1113  0.0592 -1.0585
 5095SOL     OW26917   3.744   3.804   6.167 -0.8743 -0.1884  0.1462
 5095SOL    HW126918   3.688   3.790   6.091  1.7538 -3.0804 -1.3019
 5095SOL    HW226919   3.731   3.723   6.216 -1.3368  0.4440  1.0559
 5096SOL     OW26920   3.819   2.180   5.681  0.0492 -0.6252 -0.2420
 5096SOL    HW126921   3.819   2.234   5.603 -0.5212  1.4739  1.2235
 5096SOL    HW226922   3.768   2.102   5.657 -1.2282 -0.6489  2.4593
 5097SOL     OW26923   2.306   1.705   5.580  0.1533  0.4273 -0.1562
 5097SOL    HW126924   2.358   1.650   5.638 -0.0285 -0.8786 -1.2347
 5097SOL    HW226925   2.265   1.641   5.521 -1.4498  0.4012  0.9927
 5098SOL     OW26926   2.487   0.628   4.005  0.4826  0.1395 -0.1389
 5098SOL    HW126927   2.558   0.575   3.968  0.9835  2.0567 -1.9993
 5098SOL    HW226928   2.502   0.637   4.099 -0.7353 -0.6026  0.1219
 5099SOL     OW26929   0.267   0.072   4.497 -0.3667 -0.0170 -0.1090
 5099SOL    HW126930   0.317   0.149   4.524  2.2756 -0.5985 -3.2703
 5099SOL    HW226931   0.315   0.040   4.420  1.1380 -0.5849  1.0690
 5100SOL     OW26932   0.054   1.839   7.509  0.2600  0.6179  0.1879
 5100SOL    HW126933   0.086   1.843   7.419 -0.8397  0.6620 -0.2077
 5100SOL    HW226934   0.106   1.772   7.552 -1.8172 -0.4861  0.9799
 5101SOL     OW26935   2.815   2.809   8.331  0.5822 -0.0718  0.6566
 5101SOL    HW126936   2.895   2.846   8.370 -0.5332  0.7909  2.1193
 5101SOL    HW226937   2.810   2.849   8.245 -0.0726  0.0620  0.7548
 5102SOL     OW26938   3.931   3.077   3.076  0.0187  0.0839  0.1068
 5102SOL    HW126939   3.954   3.009   3.139 -1.6807 -1.4397 -0.9187
 5102SOL    HW226940   3.837   3.088   3.088  0.0370  0.0700  0.2674
 5103SOL     OW26941   1.049   0.362   6.980 -0.3641  0.3532 -0.0815
 5103SOL    HW126942   1.136   0.326   6.962 -1.2589 -1.2884 -1.1842
 5103SOL    HW226943   1.008   0.349   6.894  0.3108 -1.1796 -0.1741
 5104SOL     OW26944   3.526   3.787  11.971  0.1301 -0.4571  0.1900
 5104SOL    HW126945   3.529   3.811  11.878 -1.5730  0.6516  0.4188
 5104SOL    HW226946   3.621   3.784  11.981  0.1228 -2.9744 -0.4657
 5105SOL     OW26947   2.726   3.677   4.783  0.3800 -0.4107  0.3761
 5105SOL    HW126948   2.688   3.607   4.837 -2.2305  1.1468  0.5254
 5105SOL    HW226949   2.641   3.714   4.759 -0.7337 -3.2369 -0.0596
 5106SOL     OW26950   1.654   2.882   8.747 -0.9069  0.4147  0.1983
 5106SOL    HW126951   1.610   2.799   8.726  1.6349 -0.6811 -0.7723
 5106SOL    HW226952   1.684   2.912   8.661  1.6506  0.4157  1.1195
 5107SOL     OW26953   3.727   1.679   4.531 -0.3153 -0.5959 -0.0410
 5107SOL    HW126954   3.789   1.649   4.597  3.4235  1.7396 -2.4885
 5107SOL    HW226955   3.727   1.608   4.466  1.0613 -1.8417  1.3190
 5108SOL     OW26956   2.665   0.352   3.085  0.4130  0.1623  0.1198
 5108SOL    HW126957   2.602   0.290   3.123 -0.0865  0.8177  0.3740
 5108SOL    HW226958   2.662   0.329   2.992  1.4342  1.1083 -0.1387
 5109SOL     OW26959   2.299   3.139   7.374  0.0863  0.1204 -0.1685
 5109SOL    HW126960   2.246   3.187   7.310 -0.8398  0.8678  1.1582
 5109SOL    HW226961   2.251   3.166   7.453  1.3320  0.7055  0.3908
 5110SOL     OW26962   0.171   2.110  17.346 -0.1443  0.3908 -0.5334
 5110SOL    HW126963   0.126   2.145  17.423 -2.0794 -0.8708 -1.0727
 5110SOL    HW226964   0.246   2.168  17.344  0.8373 -0.8569  0.0963
 5111SOL     OW26965   0.645   1.761   2.471 -0.2119 -0.0517 -0.3964
 5111SOL    HW126966   0.687   1.676   2.479  0.6596  0.1289 -2.8645
 5111SOL    HW226967   0.718   1.813   2.436 -0.6108  0.9375  0.2391
 5112SOL     OW26968   2.431   3.905   9.430  0.2914 -0.1780 -0.0015
 5112SOL    HW126969   2.369   3.957   9.481  1.0186  0.5254  0.1676
 5112SOL    HW226970   2.437   3.967   9.358 -3.1421 -0.4218 -0.4893
 5113SOL     OW26971   3.055   3.970   6.780  0.0349  0.2111  0.0685
 5113SOL    HW126972   3.042   4.050   6.831  1.4676  0.3351  0.2348
 5113SOL    HW226973   2.966   3.963   6.745  0.7455 -1.9526 -1.2750
 5114SOL     OW26974   0.965   3.153   2.351  0.2568  0.0877  0.0421
 5114SOL    HW126975   1.006   3.211   2.415  2.0599  0.2370 -1.2767
 5114SOL    HW226976   0.947   3.207   2.274  0.4257 -0.0805 -0.1162
 5115SOL     OW26977   1.240   0.718  16.290 -0.3384 -0.1095  0.1237
 5115SOL    HW126978   1.151   0.751  16.275  0.8131  2.4265 -1.2198
 5115SOL    HW226979   1.272   0.799  16.330  1.0160  0.0450 -1.2693
 5116SOL     OW26980   0.613   2.767   7.175  1.0831  0.1846  0.5601
 5116SOL    HW126981   0.696   2.753   7.129  0.4652 -0.3049 -0.4066
 5116SOL    HW226982   0.577   2.835   7.119  1.0066 -1.1961 -1.0517
 5117SOL     OW26983   0.700   0.834   3.243  0.3744 -0.2572  0.3009
 5117SOL    HW126984   0.690   0.753   3.293 -0.6364 -0.1186  0.3100
 5117SOL    HW226985   0.611   0.867   3.248  0.7812  0.8079  0.3710
 5118SOL     OW26986   1.148   1.021   4.252  0.3486 -0.1103 -0.4410
 5118SOL    HW126987   1.174   1.016   4.344 -0.6622 -1.7653 -0.2531
 5118SOL    HW226988   1.229   0.996   4.210  0.7378  0.8405 -0.2515
 5119SOL     OW26989   1.753   0.871   8.469 -0.2742 -0.1479  0.3635
 5119SOL    HW126990   1.715   0.958   8.465  1.4030  0.6417  1.8099
 5119SOL    HW226991   1.816   0.882   8.398  0.6230 -1.3797  0.9592
 5120SOL     OW26992   4.303   3.132   4.182 -0.2564  0.4887  0.8967
 5120SOL    HW126993   4.273   3.223   4.173 -0.9901  0.3185  1.5778
 5120SOL    HW226994   4.396   3.146   4.199 -0.4386 -0.4269  2.6668
 5121SOL     OW26995   1.618   2.902   3.940 -0.7140  0.0833  0.3548
 5121SOL    HW126996   1.549   2.883   3.876  0.2427 -1.3310 -0.2581
 5121SOL    HW226997   1.617   2.997   3.932 -0.4895  0.1973  1.6202
 5122SOL     OW26998   2.652   1.404  12.482  0.3941  0.8145 -0.0497
 5122SOL    HW126999   2.613   1.405  12.395  2.1979  0.1752 -0.8595
 5122SOL    HW227000   2.734   1.358  12.463  0.0143  1.0339 -2.2233
 5123SOL     OW27001   4.272   0.991  17.451 -0.1889  1.2631  0.2110
 5123SOL    HW127002   4.298   1.082  17.462  1.2897  0.4608  3.3308
 5123SOL    HW227003   4.303   0.980  17.361 -1.3133  1.7582 -0.2322
 5124SOL     OW27004   3.279   1.344   5.932  0.0263  0.1930 -0.1682
 5124SOL    HW127005   3.355   1.398   5.953 -0.6537  1.0303  0.1543
 5124SOL    HW227006   3.319   1.258   5.921  0.3271  0.4043 -0.7669
 5125SOL     OW27007   3.596   3.514   3.799  0.1274  0.3109  0.6436
 5125SOL    HW127008   3.644   3.506   3.881 -0.0665 -0.8023  0.6488
 5125SOL    HW227009   3.600   3.609   3.790  1.5527  0.3546  1.6649
 5126SOL     OW27010   2.411   1.833   9.567  0.1238  0.5736 -0.0845
 5126SOL    HW127011   2.359   1.913   9.560 -1.4539 -0.4112  0.5091
 5126SOL    HW227012   2.354   1.773   9.615 -0.8869  1.6284  0.0279
 5127SOL     OW27013   1.427   2.705   0.922 -0.6199  0.2063 -0.0889
 5127SOL    HW127014   1.517   2.677   0.909 -0.9187  0.1811 -2.0111
 5127SOL    HW227015   1.378   2.645   0.866  1.2370 -1.3198 -0.0555
 5128SOL     OW27016   0.272   4.409   4.825 -0.9391  0.3310  0.2749
 5128SOL    HW127017   0.226   4.388   4.906  0.8879  0.0540  1.2276
 5128SOL    HW227018   0.269   4.323   4.783 -0.6116  0.4252  0.0522
 5129SOL     OW27019   2.691   1.006   0.883 -0.1220 -0.6352 -0.0001
 5129SOL    HW127020   2.680   1.101   0.884 -0.8750 -0.7158 -0.7748
 5129SOL    HW227021   2.757   0.988   0.815 -0.2590  0.7405 -0.5044
 5130SOL     OW27022   3.352   0.678   9.275  0.2080  0.0326 -0.6357
 5130SOL    HW127023   3.421   0.672   9.340  0.4787  2.0675 -0.7406
 5130SOL    HW227024   3.317   0.761   9.308  2.1081  0.6038 -0.1132
 5131SOL     OW27025   2.681   2.379   2.165  0.2004  0.3422 -0.6138
 5131SOL    HW127026   2.772   2.401   2.148  1.0765 -1.5361  1.5603
 5131SOL    HW227027   2.656   2.469   2.185 -0.5545 -0.0242  0.1026
 5132SOL     OW27028   1.314   0.101   8.103  0.1679  0.2230  0.0189
 5132SOL    HW127029   1.401   0.104   8.142 -0.4158  0.6163  1.2837
 5132SOL    HW227030   1.266   0.073   8.181  1.9398 -0.3212  0.9145
 5133SOL     OW27031   4.602   3.737   2.705  0.1535  0.1102  0.1112
 5133SOL    HW127032   4.531   3.801   2.697 -0.1096  0.0648  2.1335
 5133SOL    HW227033   4.564   3.666   2.654  1.7390 -0.1590 -0.6931
 5134SOL     OW27034   4.241   4.313   6.904  0.4250 -0.1817 -0.0820
 5134SOL    HW127035   4.173   4.368   6.867 -1.1259  0.3591  3.6166
 5134SOL    HW227036   4.219   4.236   6.851 -0.9652  0.3547 -0.2729
 5135SOL     OW27037   2.180   4.513   2.293  0.0508 -0.3628  0.4351
 5135SOL    HW127038   2.127   4.515   2.373 -0.0225 -1.1018  0.4034
 5135SOL    HW227039   2.208   4.422   2.297  0.4106 -0.2254  1.1070
 5136SOL     OW27040   1.156   1.892   3.606  0.0494  0.1199 -0.2658
 5136SOL    HW127041   1.217   1.857   3.542  3.5048  1.0329  2.5464
 5136SOL    HW227042   1.080   1.912   3.551 -0.2222 -0.6901 -0.1744
 5137SOL     OW27043   3.338   2.969   6.698 -0.6842  0.1796  0.0716
 5137SOL    HW127044   3.400   2.942   6.631  0.0326  2.1365 -0.0649
 5137SOL    HW227045   3.378   2.910   6.762 -1.6710 -0.4568  0.0977
 5138SOL     OW27046   0.718   3.279   9.705 -0.2783  0.8786  0.3599
 5138SOL    HW127047   0.650   3.336   9.669 -2.1583 -0.4110  1.8768
 5138SOL    HW227048   0.738   3.228   9.627  0.6545  1.4624  0.2189
 5139SOL     OW27049   4.093   0.594   8.950 -0.2538  0.4059  0.3649
 5139SOL    HW127050   4.001   0.581   8.975  0.0796  0.4264  1.6150
 5139SOL    HW227051   4.091   0.540   8.872 -0.1667  0.3675  0.3891
 5140SOL     OW27052   4.202   4.576  10.162 -0.1805  0.1841 -0.6475
 5140SOL    HW127053   4.168   4.538  10.243  0.5492  1.5455  0.3040
 5140SOL    HW227054   4.268   4.510  10.140  0.9967 -0.7634  5.6171
 5141SOL     OW27055   4.619   2.827   1.552 -0.1517 -0.0999 -0.0478
 5141SOL    HW127056   4.616   2.733   1.535  1.4484 -0.5236  2.0178
 5141SOL    HW227057   4.668   2.829   1.634 -3.4688 -1.1082  1.9412
 5142SOL     OW27058   1.554   1.147  13.050  1.0668 -0.1014 -0.2544
 5142SOL    HW127059   1.596   1.083  13.107  0.9784  1.7032  1.8027
 5142SOL    HW227060   1.580   1.103  12.968  0.9563  1.6819 -1.2363
 5143SOL     OW27061   2.868   3.543   1.035 -0.3437 -0.0570  0.2334
 5143SOL    HW127062   2.820   3.624   1.049  1.1836  1.3556 -2.6991
 5143SOL    HW227063   2.815   3.497   0.968  0.4866 -0.8173  0.0995
 5144SOL     OW27064   1.321   2.829   0.301 -0.0478 -1.1882 -0.3391
 5144SOL    HW127065   1.275   2.795   0.224  1.0570 -1.7786 -0.7379
 5144SOL    HW227066   1.383   2.886   0.256 -1.0579  0.8478  0.8456
 5145SOL     OW27067   0.171   1.000  13.880  0.0962 -0.6427  0.4194
 5145SOL    HW127068   0.087   1.005  13.835  1.7345  0.7058 -2.5573
 5145SOL    HW227069   0.157   1.068  13.945  0.8529  0.5497 -0.6539
 5146SOL     OW27070   3.329   2.353   1.462  0.3742  0.1928 -0.1632
 5146SOL    HW127071   3.299   2.277   1.412 -0.4615 -1.4531  2.8302
 5146SOL    HW227072   3.295   2.344   1.551  1.0705 -0.6327  0.0118
 5147SOL     OW27073   2.380   3.461   8.977  0.4978  0.4798  0.5588
 5147SOL    HW127074   2.372   3.435   9.068  0.1894 -0.1290  0.3541
 5147SOL    HW227075   2.315   3.415   8.925  0.8951  0.4710  0.0679
 5148SOL     OW27076   0.803   3.516   4.929 -0.1607 -0.1934 -0.1622
 5148SOL    HW127077   0.861   3.494   4.856 -0.2125  2.2434 -0.9274
 5148SOL    HW227078   0.776   3.426   4.948 -2.3950 -0.1374 -2.9957
 5149SOL     OW27079   1.261   3.164  14.265 -0.0223 -0.3178  0.0538
 5149SOL    HW127080   1.171   3.164  14.232  0.0059 -1.2862 -0.0300
 5149SOL    HW227081   1.283   3.246  14.221  2.4475  0.0535  1.9818
 5150SOL     OW27082   2.462   0.080   6.666  0.0001 -1.0497 -0.5095
 5150SOL    HW127083   2.388   0.113   6.717 -0.4941 -1.6570 -0.8276
 5150SOL    HW227084   2.428   0.078   6.577 -3.2846  0.2537  0.7107
 5151SOL     OW27085   0.363   4.148   6.911 -0.4236  0.4965 -0.1770
 5151SOL    HW127086   0.455   4.135   6.887 -0.0739 -0.6071  1.7290
 5151SOL    HW227087   0.317   4.190   6.839  3.8277  3.5950 -1.1153
 5152SOL     OW27088   0.225   4.178   5.434  0.1968 -0.2081  0.6936
 5152SOL    HW127089   0.218   4.094   5.389 -0.2890  1.1726 -1.8191
 5152SOL    HW227090   0.208   4.170   5.528  0.2183 -0.2746  0.6922
 5153SOL     OW27091   0.225   1.826   7.286  0.0834 -0.1280 -0.2941
 5153SOL    HW127092   0.317   1.836   7.309 -0.7886  3.7258  1.4743
 5153SOL    HW227093   0.228   1.864   7.198  0.1820 -0.8498 -0.6029
 5154SOL     OW27094   1.569   0.539   5.491  0.5117 -0.3019 -0.3783
 5154SOL    HW127095   1.643   0.586   5.452 -1.9870  1.6049 -2.7915
 5154SOL    HW227096   1.605   0.473   5.550 -1.1086 -1.1791 -0.3831
 5155SOL     OW27097   0.729   4.013  12.455  0.0395 -0.0113 -0.1369
 5155SOL    HW127098   0.804   3.964  12.489  0.3191  1.9453  1.9920
 5155SOL    HW227099   0.691   4.016  12.543 -1.0542  0.8939 -0.6405
 5156SOL     OW27100   2.494   1.101  14.976  0.1328  0.2543 -0.0685
 5156SOL    HW127101   2.501   1.006  14.969  2.6193  0.4091  0.4761
 5156SOL    HW227102   2.584   1.130  14.987 -0.2949  0.2460  3.5597
 5157SOL     OW27103   0.809   0.378   1.901 -0.2478  0.5354  0.1467
 5157SOL    HW127104   0.777   0.312   1.963 -0.8415 -0.7979 -1.5622
 5157SOL    HW227105   0.730   0.428   1.881  0.4301  1.6282  0.1936
 5158SOL     OW27106   1.080   3.533   8.905 -0.2160 -0.6301 -0.0066
 5158SOL    HW127107   0.999   3.487   8.883 -0.6214  1.0111 -2.0131
 5158SOL    HW227108   1.062   3.561   8.995  1.4533  1.0348 -0.1973
 5159SOL     OW27109   2.992   3.028   3.930 -0.6300 -0.2975  0.1608
 5159SOL    HW127110   2.903   3.065   3.931 -0.3113  0.5120 -0.8341
 5159SOL    HW227111   3.030   3.075   3.855  1.9104 -0.4082  1.3905
 5160SOL     OW27112   0.995   1.945  12.300  0.6934 -0.1021 -0.3213
 5160SOL    HW127113   1.020   2.012  12.236 -1.7595  0.3395 -0.8192
 5160SOL    HW227114   1.046   1.972  12.376 -0.8932  0.2335  0.6045
 5161SOL     OW27115   1.837   2.599   4.473 -0.0051 -0.5511  0.2485
 5161SOL    HW127116   1.802   2.688   4.480  1.0255 -0.1328  0.0154
 5161SOL    HW227117   1.795   2.557   4.548  0.2754  1.8446  1.7228
 5162SOL     OW27118   0.710   1.397   3.483 -0.2568  0.3138 -0.2943
 5162SOL    HW127119   0.723   1.476   3.430 -3.3871  0.2113 -1.1941
 5162SOL    HW227120   0.704   1.439   3.569  0.0338 -1.1220  0.4118
 5163SOL     OW27121   3.935   1.178   8.835 -0.0278  0.2670 -0.2201
 5163SOL    HW127122   4.002   1.119   8.868 -1.2770  0.4564  2.5927
 5163SOL    HW227123   3.858   1.122   8.844 -0.5502  1.0216  0.0826
 5164SOL     OW27124   2.469   1.428   7.009 -0.4480 -0.2872 -0.2638
 5164SOL    HW127125   2.552   1.394   7.042 -0.1351 -0.5146 -1.2860
 5164SOL    HW227126   2.490   1.449   6.918  2.2734  1.4582  0.7845
 5165SOL     OW27127   3.584   1.519   7.099  0.6263 -0.3331 -0.2060
 5165SOL    HW127128   3.556   1.555   7.183 -0.5114  1.2914 -1.3038
 5165SOL    HW227129   3.576   1.424   7.112  0.6437 -0.3230 -0.1195
 5166SOL     OW27130   2.158   0.602  15.736 -0.6237 -0.3813  0.1599
 5166SOL    HW127131   2.195   0.513  15.736 -0.7853 -0.4435  0.9745
 5166SOL    HW227132   2.234   0.649  15.701 -1.0168  1.1647  1.3871
 5167SOL     OW27133   1.368   3.430   4.364  0.1113  0.6729 -0.7294
 5167SOL    HW127134   1.335   3.351   4.321  1.3147 -0.7338  0.9482
 5167SOL    HW227135   1.310   3.502   4.340 -0.4195  1.5205  3.0659
 5168SOL     OW27136   1.709   2.356   8.729  0.0778 -0.0572  0.5745
 5168SOL    HW127137   1.801   2.381   8.738  0.1382 -0.3491  0.7370
 5168SOL    HW227138   1.696   2.284   8.791  0.9679  1.8118  2.9531
 5169SOL     OW27139   0.031   3.828   7.719 -0.0355 -0.6033 -0.2154
 5169SOL    HW127140   0.039   3.733   7.728  0.8721 -0.7993 -3.1897
 5169SOL    HW227141   0.083   3.848   7.641  0.1501 -1.6744 -0.3622
 5170SOL     OW27142   2.882   3.255   8.164 -0.0674 -0.8736 -0.5894
 5170SOL    HW127143   2.794   3.217   8.156  0.5605 -2.3110 -0.7302
 5170SOL    HW227144   2.880   3.289   8.253  1.8438 -1.3481 -0.3809
 5171SOL     OW27145   3.562   0.041  13.284  0.0110 -0.3446  0.4759
 5171SOL    HW127146   3.628   0.091  13.331  1.8780 -0.9523 -1.4935
 5171SOL    HW227147   3.504   0.106  13.244 -0.6994  0.1046  2.2216
 5172SOL     OW27148   2.836   2.707  12.606  0.6203  0.2832  0.3152
 5172SOL    HW127149   2.831   2.791  12.560  2.0159 -0.0330 -0.3932
 5172SOL    HW227150   2.894   2.659  12.547 -0.7108  0.3047 -1.0127
 5173SOL     OW27151   4.667   0.999  13.717 -0.1765 -0.2105 -0.0002
 5173SOL    HW127152   4.650   1.015  13.624  0.8362 -0.6516 -0.2634
 5173SOL    HW227153   4.581   0.980  13.755  0.2449  0.9139  1.5094
 5174SOL     OW27154   4.492   3.436   6.428  0.2227 -0.4520 -0.5048
 5174SOL    HW127155   4.523   3.361   6.480  1.3329  0.5246  0.2495
 5174SOL    HW227156   4.399   3.416   6.423 -0.1393  0.7942  1.0777
 5175SOL     OW27157   2.904   1.351   9.414 -0.6301 -0.2234  0.2952
 5175SOL    HW127158   2.911   1.440   9.380  1.2719 -0.3848  0.2491
 5175SOL    HW227159   2.815   1.364   9.448 -0.4110  2.0474 -0.0063
 5176SOL     OW27160   2.193   3.513  16.355 -0.8830 -0.4406  0.2706
 5176SOL    HW127161   2.203   3.418  16.348 -1.4987 -0.4153 -1.0871
 5176SOL    HW227162   2.108   3.511  16.398 -0.1551 -0.2960  1.6914
 5177SOL     OW27163   3.217   0.796   2.084  0.3168 -0.1206  0.0555
 5177SOL    HW127164   3.295   0.792   2.029 -1.0345 -0.0402 -1.8709
 5177SOL    HW227165   3.216   0.712   2.129  2.2115  1.3590  2.8618
 5178SOL     OW27166   3.924   0.616   8.302  0.6772 -0.1269  0.0847
 5178SOL    HW127167   3.993   0.682   8.296  0.8836 -0.0789  3.0738
 5178SOL    HW227168   3.889   0.610   8.213  0.3416 -2.5050  0.3776
 5179SOL     OW27169   4.627   4.385   0.638  0.3981  0.2380  0.4903
 5179SOL    HW127170   4.604   4.474   0.664 -0.7290  0.3177 -0.7810
 5179SOL    HW227171   4.612   4.343   0.722 -1.1407 -0.6497 -0.2105
 5180SOL     OW27172   1.845   1.818   9.104 -0.6771 -0.1305 -0.2425
 5180SOL    HW127173   1.845   1.723   9.095 -0.2277 -0.0598 -1.0453
 5180SOL    HW227174   1.766   1.840   9.153 -0.0277 -0.3563  0.9210
 5181SOL     OW27175   2.211   4.304   8.187 -0.0066 -0.4765 -0.6896
 5181SOL    HW127176   2.229   4.383   8.136 -0.2584 -0.6088 -0.9866
 5181SOL    HW227177   2.136   4.275   8.134 -0.7813  1.9786 -0.9356
 5182SOL     OW27178   0.225   1.297   8.226  0.2530 -0.3872  0.2366
 5182SOL    HW127179   0.296   1.269   8.170 -1.4441 -2.5002 -0.8532
 5182SOL    HW227180   0.151   1.253   8.183  0.2982  0.2094 -0.4637
 5183SOL     OW27181   3.719   3.200   4.832 -0.0560 -0.4078 -0.1356
 5183SOL    HW127182   3.645   3.239   4.785  0.6044  0.0895 -0.7665
 5183SOL    HW227183   3.799   3.240   4.799  0.1315  0.2913  1.1414
 5184SOL     OW27184   3.718   3.558   2.788 -0.0046 -1.0176  0.5947
 5184SOL    HW127185   3.731   3.464   2.803  0.6777 -1.0043  0.1191
 5184SOL    HW227186   3.710   3.561   2.692 -0.6447 -1.1020  0.6461
 5185SOL     OW27187   4.494   0.320  11.118  0.2282 -0.2217  0.4449
 5185SOL    HW127188   4.481   0.377  11.194  0.0025  0.2354  0.0627
 5185SOL    HW227189   4.429   0.354  11.056  0.8301  1.4990  0.7612
 5186SOL     OW27190   0.239   2.811   9.836  0.4146  0.6346 -0.4352
 5186SOL    HW127191   0.335   2.817   9.838  0.3837  1.1845 -0.6339
 5186SOL    HW227192   0.213   2.903   9.824 -0.1231  0.6908  1.1042
 5187SOL     OW27193   2.290   0.633   0.708  0.2981  0.4560  0.5478
 5187SOL    HW127194   2.355   0.566   0.688 -0.3534  0.2004 -0.7501
 5187SOL    HW227195   2.346   0.697   0.751  0.7927  0.8012 -0.6173
 5188SOL     OW27196   2.271   2.651   8.490 -0.0449  0.0231 -0.0449
 5188SOL    HW127197   2.336   2.611   8.432  0.3840 -0.6826  0.9167
 5188SOL    HW227198   2.299   2.742   8.495 -1.1131  0.3279  0.4062
 5189SOL     OW27199   2.054   4.545   3.780  0.3152 -0.0152  0.4045
 5189SOL    HW127200   2.097   4.585   3.705 -0.1761 -0.5031 -0.1357
 5189SOL    HW227201   2.042   4.451   3.766  3.3938 -0.2105 -0.8690
 5190SOL     OW27202   2.942   1.484   8.384  0.4198  0.1454  0.8228
 5190SOL    HW127203   2.955   1.407   8.329  0.7883 -0.0368  1.1639
 5190SOL    HW227204   2.879   1.521   8.322  1.3629 -1.0650 -0.8429
 5191SOL     OW27205   0.426   1.035   8.532 -0.9603 -0.0530  0.7372
 5191SOL    HW127206   0.466   1.029   8.445 -1.5082 -0.1771  0.4871
 5191SOL    HW227207   0.350   0.978   8.514 -0.2911 -0.5543 -0.5360
 5192SOL     OW27208   3.628   2.961   5.750 -0.3322 -0.9992 -0.8881
 5192SOL    HW127209   3.544   2.916   5.743  1.4035 -4.2199 -1.0436
 5192SOL    HW227210   3.684   2.904   5.803  0.4448 -0.6805 -1.3567
 5193SOL     OW27211   1.607   1.276   2.858  0.3994 -0.5668  0.8365
 5193SOL    HW127212   1.622   1.370   2.846 -0.3959 -0.8390 -2.3407
 5193SOL    HW227213   1.684   1.244   2.904  2.2212  3.4311  0.6518
 5194SOL     OW27214   1.708   4.038   2.054  0.1216  0.4347  0.0441
 5194SOL    HW127215   1.631   4.055   2.108  1.6663 -0.6189  2.5759
 5194SOL    HW227216   1.670   4.005   1.972  0.0016  1.6658 -0.4046
 5195SOL     OW27217   2.779   3.390   6.912  0.0201 -0.1008 -0.0451
 5195SOL    HW127218   2.800   3.471   6.866  0.7650  1.0517  2.3311
 5195SOL    HW227219   2.866   3.353   6.926  0.8030  0.2066 -4.0209
 5196SOL     OW27220   2.201   3.996   2.657 -0.0599  0.1517  0.8456
 5196SOL    HW127221   2.155   3.939   2.597 -0.9296  1.7565 -0.0099
 5196SOL    HW227222   2.290   3.986   2.622 -1.3520  1.0061 -2.6244
 5197SOL     OW27223   3.844   3.452   6.465  0.3258  0.2300  0.1079
 5197SOL    HW127224   3.897   3.409   6.532 -0.5798 -3.3394 -1.4361
 5197SOL    HW227225   3.855   3.541   6.498 -1.0679  0.3210  0.3355
 5198SOL     OW27226   0.967   0.598  12.191 -0.0157 -0.0586 -0.6878
 5198SOL    HW127227   1.036   0.550  12.145  1.4667  1.8677 -0.4588
 5198SOL    HW227228   0.939   0.532  12.255  0.5660  0.1013 -0.2774
 5199SOL     OW27229   2.119   1.675  13.493  0.1154 -0.2580  0.3075
 5199SOL    HW127230   2.054   1.698  13.427  0.8045  0.2427 -0.1972
 5199SOL    HW227231   2.140   1.767  13.512 -1.1777  0.4290 -1.6372
 5200SOL     OW27232   2.725   0.064   7.672  0.0300 -0.2904  0.0797
 5200SOL    HW127233   2.632   0.048   7.688  0.0535 -0.3352  0.1758
 5200SOL    HW227234   2.741   0.014   7.592 -0.9179  0.6899 -0.7147
 5201SOL     OW27235   1.905   3.334   2.493  0.1726  0.0906  0.3099
 5201SOL    HW127236   1.964   3.259   2.498 -0.8837 -0.7695 -0.1894
 5201SOL    HW227237   1.856   3.335   2.411  0.7555 -1.3956 -0.0574
 5202SOL     OW27238   1.286   3.250   2.292 -0.0053  0.5032 -0.5771
 5202SOL    HW127239   1.261   3.158   2.293 -0.1563  0.5551  0.8293
 5202SOL    HW227240   1.310   3.271   2.382 -0.8242  1.4322 -0.5831
 5203SOL     OW27241   4.680   3.364   8.951  0.5677  0.5487 -0.1563
 5203SOL    HW127242   4.629   3.291   8.916 -0.4413  1.1597  0.0392
 5203SOL    HW227243   4.652   3.360   9.042 -2.2114 -0.7843 -1.0617
 5204SOL     OW27244   4.446   1.858   3.830 -0.2921 -0.0478  0.2702
 5204SOL    HW127245   4.506   1.884   3.760 -0.2643 -0.6013  0.0907
 5204SOL    HW227246   4.489   1.777   3.858 -2.5447 -1.3672 -0.1659
 5205SOL     OW27247   3.463   1.265   2.997 -0.5229  0.2592  0.5033
 5205SOL    HW127248   3.451   1.184   3.047 -2.8769  0.2075 -0.1753
 5205SOL    HW227249   3.527   1.312   3.050 -1.2722  1.4821  0.3238
 5206SOL     OW27250   1.253   4.343   6.234  0.0338 -0.0367  0.5621
 5206SOL    HW127251   1.319   4.411   6.232  0.5015 -0.5091 -0.2553
 5206SOL    HW227252   1.253   4.319   6.326  3.5741 -0.9038  0.3423
 5207SOL     OW27253   4.689   4.054   6.389 -0.0629 -0.8415 -0.2443
 5207SOL    HW127254   4.595   4.040   6.378 -0.7037  2.5402  0.7479
 5207SOL    HW227255   4.680   4.146   6.414 -0.4847 -0.6433 -1.1223
 5208SOL     OW27256   0.352   3.542  11.918 -0.8321  0.3130  0.0316
 5208SOL    HW127257   0.447   3.539  11.912 -0.7082 -0.4959  2.6742
 5208SOL    HW227258   0.330   3.466  11.862  4.6891 -0.6158 -0.8703
 5209SOL     OW27259   2.166   0.491  10.682 -0.7039  0.2505 -0.0515
 5209SOL    HW127260   2.244   0.513  10.732  0.2686 -0.9881 -1.0437
 5209SOL    HW227261   2.098   0.475  10.748 -1.2086  1.2573 -0.3301
 5210SOL     OW27262   0.746   2.316   8.839 -0.5584  0.1652  0.9751
 5210SOL    HW127263   0.742   2.409   8.816 -3.7179  0.4505  2.6198
 5210SOL    HW227264   0.779   2.316   8.928 -1.3520 -0.1322  1.2754
 5211SOL     OW27265   4.600   1.405   5.333 -0.0126  0.5728  0.2036
 5211SOL    HW127266   4.600   1.440   5.422 -0.3286  0.3904  0.2749
 5211SOL    HW227267   4.593   1.314   5.362 -0.8868  0.3079 -0.8320
 5212SOL     OW27268   0.550   2.156  16.597  0.4405 -0.4120  0.4796
 5212SOL    HW127269   0.636   2.155  16.640  0.3138  0.2162  0.7328
 5212SOL    HW227270   0.497   2.134  16.673  0.3971 -0.6384  0.3860
 5213SOL     OW27271   3.856   1.466   2.132 -0.4078 -0.2828 -0.1983
 5213SOL    HW127272   3.807   1.420   2.063 -0.8887  1.5611 -1.0899
 5213SOL    HW227273   3.936   1.489   2.086 -0.8277 -0.2534 -0.9240
 5214SOL     OW27274   1.106   4.248  13.453  0.4441  0.0321  0.1095
 5214SOL    HW127275   1.126   4.319  13.514 -1.3514 -0.1814  0.9450
 5214SOL    HW227276   1.046   4.203  13.512  0.3921  0.9597  0.7685
 5215SOL     OW27277   2.130   4.182   5.351  0.4329  0.3273 -0.6275
 5215SOL    HW127278   2.214   4.202   5.310  0.3788  3.2551  0.6933
 5215SOL    HW227279   2.155   4.210   5.439  0.4404  0.3129 -0.6250
 5216SOL     OW27280   2.462   0.488   7.094  0.6279  0.7514 -0.6117
 5216SOL    HW127281   2.378   0.509   7.055  0.8482 -0.2282 -1.6098
 5216SOL    HW227282   2.464   0.547   7.169  1.4107 -0.3526  0.2367
 5217SOL     OW27283   2.286   0.851   2.225 -0.6644 -0.0707  0.5430
 5217SOL    HW127284   2.223   0.915   2.193  2.1856  1.5095 -1.8247
 5217SOL    HW227285   2.267   0.863   2.318 -1.5817  0.0707  0.3362
 5218SOL     OW27286   3.924   1.549   9.656 -0.3081 -0.1506 -0.0237
 5218SOL    HW127287   3.917   1.472   9.600 -0.6274  0.4917 -0.8689
 5218SOL    HW227288   4.014   1.536   9.687 -0.1089  0.3149 -0.4129
 5219SOL     OW27289   1.548   2.859   3.577 -0.1503 -0.3272 -0.2878
 5219SOL    HW127290   1.639   2.875   3.602  0.9055 -1.4227 -3.5181
 5219SOL    HW227291   1.567   2.810   3.497 -0.1686  0.7000 -0.9185
 5220SOL     OW27292   3.995   3.662   9.156  0.0096 -0.6007  0.1256
 5220SOL    HW127293   4.035   3.600   9.094 -0.4076 -0.7390 -0.0139
 5220SOL    HW227294   3.912   3.616   9.172  0.2139 -0.6148  1.0887
 5221SOL     OW27295   1.927   2.368  14.972  0.5959 -0.2550  0.4044
 5221SOL    HW127296   1.970   2.362  15.057 -2.0336  0.1860  1.7778
 5221SOL    HW227297   1.853   2.427  14.991  0.7419  0.3751 -0.9556
 5222SOL     OW27298   2.552   3.365   9.320  0.3775 -0.4257  0.2628
 5222SOL    HW127299   2.559   3.408   9.405 -1.2027 -0.5053  0.4369
 5222SOL    HW227300   2.603   3.285   9.337 -3.1126 -2.8430 -0.6269
 5223SOL     OW27301   4.502   3.864   6.316  0.5145 -0.2615 -0.0462
 5223SOL    HW127302   4.509   3.853   6.221 -4.2201  1.1016 -0.5586
 5223SOL    HW227303   4.571   3.805   6.346  1.7898  1.2964  0.0934
 5224SOL     OW27304   2.431   3.928  17.690 -0.4460  0.3444  0.3980
 5224SOL    HW127305   2.441   4.002   0.021 -0.1108 -0.8115  1.7546
 5224SOL    HW227306   2.358   3.877  17.726 -1.3528  2.3413  1.4095
 5225SOL     OW27307   3.797   1.368   1.037  0.1513 -0.3229  0.9407
 5225SOL    HW127308   3.834   1.426   1.104 -0.0942  2.0190 -0.9452
 5225SOL    HW227309   3.714   1.346   1.079  0.8123 -2.7986  0.9598
 5226SOL     OW27310   0.553   3.573   6.298  0.2931 -0.1859  0.2337
 5226SOL    HW127311   0.493   3.615   6.237  0.0270  0.2250  0.7706
 5226SOL    HW227312   0.551   3.482   6.270  0.5844 -0.1380  0.0575
 5227SOL     OW27313   0.573   0.357  10.764  0.1842  0.7962 -0.0771
 5227SOL    HW127314   0.522   0.407  10.701  1.9780  1.6144 -0.8924
 5227SOL    HW227315   0.548   0.397  10.846 -0.6329  2.2020 -1.0294
 5228SOL     OW27316   3.538   0.886  11.742 -0.1722 -0.3847 -0.2078
 5228SOL    HW127317   3.553   0.907  11.834  0.8726 -0.0065 -0.4697
 5228SOL    HW227318   3.608   0.941  11.708  0.2953 -0.0776  1.2406
 5229SOL     OW27319   1.987   2.179   6.548 -0.5208  0.0576 -0.2305
 5229SOL    HW127320   2.043   2.146   6.619  0.6182 -0.0353 -1.1850
 5229SOL    HW227321   1.998   2.273   6.566  0.4067  0.2303 -1.7406
 5230SOL     OW27322   0.494   1.245   4.738  0.1259  0.0617  0.5877
 5230SOL    HW127323   0.577   1.247   4.690 -1.5759 -1.1197 -2.3718
 5230SOL    HW227324   0.484   1.151   4.748  1.5308 -0.2815 -1.1244
 5231SOL     OW27325   3.622   3.922   8.434 -0.1387 -0.1371 -0.2289
 5231SOL    HW127326   3.698   3.882   8.392 -1.0727 -2.2733  0.1356
 5231SOL    HW227327   3.657   3.961   8.514  0.4504 -3.6635  1.2605
 5232SOL     OW27328   3.272   1.212  12.176  0.0515 -0.1338  0.5773
 5232SOL    HW127329   3.259   1.181  12.087  3.2201 -1.3378  0.5327
 5232SOL    HW227330   3.323   1.139  12.211 -1.2965 -0.3977  1.9499
 5233SOL     OW27331   0.479   3.409   4.265 -0.2199 -0.4477  0.5049
 5233SOL    HW127332   0.430   3.328   4.250  0.1802 -0.6707  0.4051
 5233SOL    HW227333   0.565   3.376   4.292  0.1998  0.4473  0.2600
 5234SOL     OW27334   0.911   0.365   4.987  0.7147 -0.1624 -0.0699
 5234SOL    HW127335   0.983   0.322   4.940  1.0640  0.4519 -0.1011
 5234SOL    HW227336   0.905   0.309   5.064 -0.4563  0.2191  0.1083
 5235SOL     OW27337   0.924   2.811  16.345 -0.1897  0.5094  0.0694
 5235SOL    HW127338   0.938   2.906  16.346  2.0955  0.1941 -1.3987
 5235SOL    HW227339   0.898   2.799  16.254 -2.6529 -2.9100  1.2407
 5236SOL     OW27340   1.185   0.400   7.261  0.2043 -0.2150  0.3295
 5236SOL    HW127341   1.232   0.480   7.280  1.6740 -1.2227  0.9477
 5236SOL    HW227342   1.098   0.434   7.240  0.0871 -0.7220 -0.0236
 5237SOL     OW27343   0.932   1.993   2.044  0.3395  0.0371 -0.4908
 5237SOL    HW127344   0.987   2.071   2.042 -1.8974  1.5856 -1.9384
 5237SOL    HW227345   0.903   1.994   1.953 -0.2949 -0.6032 -0.3016
 5238SOL     OW27346   3.613   0.056   6.197 -0.1512  0.4710 -0.0217
 5238SOL    HW127347   3.520   0.049   6.221  0.0103  0.8418  0.7432
 5238SOL    HW227348   3.602   0.150   6.179 -0.2375  0.0040 -2.3878
 5239SOL     OW27349   4.592   2.636  15.305 -0.0231 -0.4810 -0.4436
 5239SOL    HW127350   4.534   2.706  15.336  1.8225  0.0351  1.8374
 5239SOL    HW227351   4.667   2.689  15.276  0.2382  0.0932  1.2746
 5240SOL     OW27352   2.954   0.775   6.006 -0.3458  0.5186 -0.6147
 5240SOL    HW127353   2.927   0.719   6.078  0.4123  0.5865 -0.2757
 5240SOL    HW227354   2.898   0.740   5.937 -0.9747  2.8523 -1.3198
 5241SOL     OW27355   0.322   3.359   5.596  0.1989  0.3864  0.3986
 5241SOL    HW127356   0.257   3.385   5.531  0.8623  2.4066  0.5428
 5241SOL    HW227357   0.376   3.436   5.578 -0.0683  0.9749  2.1994
 5242SOL     OW27358   3.335   2.690   2.359 -0.4037 -0.2384  0.0127
 5242SOL    HW127359   3.304   2.711   2.447  0.0751 -0.5448  0.2546
 5242SOL    HW227360   3.261   2.691   2.299 -0.7958 -0.7385  0.4877
 5243SOL     OW27361   0.027   3.189   1.279 -0.2149 -0.3549 -0.0754
 5243SOL    HW127362   0.111   3.229   1.255 -0.2065 -1.0402 -1.1889
 5243SOL    HW227363   0.061   3.113   1.326  0.0054  1.1411  2.1576
 5244SOL     OW27364   4.548   3.557   4.304 -0.0899  0.0087 -0.2506
 5244SOL    HW127365   4.559   3.652   4.299  1.1767 -0.1285 -0.0237
 5244SOL    HW227366   4.584   3.538   4.217 -1.0002  0.2580 -0.6863
 5245SOL     OW27367   2.266   0.081  10.397 -0.2310 -0.0997  0.3268
 5245SOL    HW127368   2.208   0.129  10.456  0.4078  1.3557 -0.2261
 5245SOL    HW227369   2.341   0.140  10.384 -0.4673  0.3723  1.0932
 5246SOL     OW27370   2.558   3.945   8.229 -0.4096 -0.1055  0.0295
 5246SOL    HW127371   2.563   3.895   8.147  1.2927 -1.4024  0.9455
 5246SOL    HW227372   2.635   4.002   8.221 -0.9107  1.0249  3.0887
 5247SOL     OW27373   2.744   2.385   3.286  0.3052 -0.6155 -0.3941
 5247SOL    HW127374   2.812   2.387   3.353  0.5075  1.0523 -0.6397
 5247SOL    HW227375   2.670   2.415   3.338  0.4453  1.7385 -1.5324
 5248SOL     OW27376   3.223   4.001   5.580 -1.0181 -0.0988  0.1485
 5248SOL    HW127377   3.213   3.918   5.626 -1.1867 -0.8522 -1.2239
 5248SOL    HW227378   3.263   3.966   5.500 -0.1547 -0.4487  0.7392
 5249SOL     OW27379   3.206   2.078   6.432 -0.3515 -0.3485  0.8073
 5249SOL    HW127380   3.197   2.172   6.417 -3.0453 -0.2290  3.0134
 5249SOL    HW227381   3.213   2.048   6.341 -1.2557 -0.4529  0.7643
 5250SOL     OW27382   2.338   2.837   6.997 -0.0509  0.1990  0.0571
 5250SOL    HW127383   2.347   2.749   7.032  2.2576 -0.1717 -1.4163
 5250SOL    HW227384   2.254   2.825   6.953 -1.3409  1.1253  2.3150
 5251SOL     OW27385   3.401   3.685   4.040 -0.1576 -0.5271  0.0017
 5251SOL    HW127386   3.323   3.650   3.996 -1.6649  3.5742 -0.5869
 5251SOL    HW227387   3.376   3.777   4.044 -0.8714 -0.7274  0.1606
 5252SOL     OW27388   4.131   1.187   9.111  0.0254  0.1155  0.3183
 5252SOL    HW127389   4.166   1.142   9.188  4.0069  1.6289 -0.6629
 5252SOL    HW227390   4.038   1.161   9.109 -0.1103  0.7536 -1.1420
 5253SOL     OW27391   3.589   3.779   3.768  0.3093  0.0935 -0.0888
 5253SOL    HW127392   3.590   3.850   3.833 -0.5967 -0.2682  0.3072
 5253SOL    HW227393   3.514   3.808   3.716  0.8085  1.1887 -0.2031
 5254SOL     OW27394   0.010   0.695   6.905  0.4351  0.0779  0.0198
 5254SOL    HW127395   4.670   0.646   6.944 -1.2880  1.1911 -1.7528
 5254SOL    HW227396   0.018   0.638   6.828 -0.2422  0.6586 -0.4850
 5255SOL     OW27397   2.621   4.564   4.340  0.3472  0.3221 -0.1523
 5255SOL    HW127398   2.659   4.478   4.358 -1.3889 -0.5823 -0.7897
 5255SOL    HW227399   2.599   4.590   4.430 -1.0654 -0.4519 -0.2650
 5256SOL     OW27400   3.201   1.930   5.141  0.7898 -0.2262 -0.0573
 5256SOL    HW127401   3.189   1.862   5.208  1.6987  1.0845  1.4480
 5256SOL    HW227402   3.149   1.999   5.182 -0.6211 -2.4887  2.0094
 5257SOL     OW27403   2.493   3.248   7.915 -0.1728 -0.1638  0.1309
 5257SOL    HW127404   2.407   3.234   7.955  1.0761  0.2022  2.9414
 5257SOL    HW227405   2.493   3.165   7.866 -0.5460 -0.3582  0.4653
 5258SOL     OW27406   0.273   2.786   6.599  0.3601  0.1967  0.5430
 5258SOL    HW127407   0.346   2.812   6.656  1.8150 -1.1739 -0.7054
 5258SOL    HW227408   0.195   2.814   6.647  0.1367  3.2504 -1.6464
 5259SOL     OW27409   4.430   2.569   3.834  0.2152  0.2468  0.3205
 5259SOL    HW127410   4.341   2.566   3.799 -0.4832 -1.1451  2.2101
 5259SOL    HW227411   4.470   2.614   3.760 -0.9612  1.9784  0.7213
 5260SOL     OW27412   3.733   0.944   5.454  0.7176 -0.2947  0.1641
 5260SOL    HW127413   3.802   1.010   5.456  0.3948  0.0905 -1.0057
 5260SOL    HW227414   3.733   0.922   5.547 -3.3969  0.4335  0.3396
 5261SOL     OW27415   1.864   1.823  16.739 -0.3240 -0.3416 -0.2376
 5261SOL    HW127416   1.855   1.784  16.652  0.2678  0.1199 -0.5053
 5261SOL    HW227417   1.949   1.785  16.762  0.5895  1.7618 -0.1288
 5262SOL     OW27418   4.540   0.018   5.813 -0.2282  0.5673 -0.0845
 5262SOL    HW127419   4.610   4.688   5.793 -0.9440 -0.4194  0.5075
 5262SOL    HW227420   4.487   4.704   5.878 -0.8987 -0.2871 -1.2396
 5263SOL     OW27421   0.356   0.719   6.075  0.3752  0.2594  0.0557
 5263SOL    HW127422   0.301   0.797   6.075  0.8589  0.5982 -0.2843
 5263SOL    HW227423   0.302   0.645   6.105 -0.3658  0.3323 -1.1335
 5264SOL     OW27424   0.413   3.289   0.635  0.0969 -0.7958  0.1079
 5264SOL    HW127425   0.356   3.234   0.581  0.8222  0.2707 -1.7150
 5264SOL    HW227426   0.384   3.268   0.724  0.1403 -0.9426  0.0865
 5265SOL     OW27427   2.206   2.622   2.801 -0.3522 -0.1413  0.0485
 5265SOL    HW127428   2.256   2.575   2.734 -0.4292 -1.8528  1.2131
 5265SOL    HW227429   2.198   2.549   2.862  1.5167  0.8722  1.5135
 5266SOL     OW27430   3.157   2.372   2.492 -0.2458  0.0585 -0.3742
 5266SOL    HW127431   3.241   2.327   2.496  0.0484  0.5194 -1.1897
 5266SOL    HW227432   3.140   2.369   2.398 -1.6951  1.7741 -0.1763
 5267SOL     OW27433   1.293   1.098   6.687  0.0967 -0.8432  0.3485
 5267SOL    HW127434   1.353   1.024   6.673 -0.0439 -1.5891  3.7248
 5267SOL    HW227435   1.351   1.167   6.720 -0.2137 -0.0585 -0.7426
 5268SOL     OW27436   0.393   0.718   1.090  0.2923 -0.3509  0.2324
 5268SOL    HW127437   0.481   0.680   1.085 -0.2296 -1.4035 -0.7850
 5268SOL    HW227438   0.370   0.704   1.182 -0.4071 -0.4256  0.0464
 5269SOL     OW27439   1.934   4.225   3.032 -0.4020  0.8692  0.0231
 5269SOL    HW127440   1.893   4.308   3.008 -0.1644 -0.1684 -3.9315
 5269SOL    HW227441   1.902   4.165   2.965  0.2630 -0.0718  0.5410
 5270SOL     OW27442   3.621   2.577   5.856  0.1327 -0.4402  0.3221
 5270SOL    HW127443   3.569   2.543   5.929  1.8790 -2.1651  0.7569
 5270SOL    HW227444   3.669   2.648   5.898 -1.7958  0.5366  0.8714
 5271SOL     OW27445   3.335   4.499   8.350 -0.0129  0.2289 -0.2890
 5271SOL    HW127446   3.429   4.509   8.336  0.3157 -0.5677  1.3110
 5271SOL    HW227447   3.331   4.523   8.443 -0.5064 -0.8149 -0.0368
 5272SOL     OW27448   2.580   3.569   4.483 -0.1373  0.1130 -0.0798
 5272SOL    HW127449   2.567   3.493   4.540  1.2278 -0.0450  0.0245
 5272SOL    HW227450   2.494   3.609   4.494  0.1611  0.5774  0.5649
 5273SOL     OW27451   3.437   0.770  15.267  0.1245 -0.3082  0.3377
 5273SOL    HW127452   3.447   0.713  15.191  1.3552 -0.7542  0.8331
 5273SOL    HW227453   3.526   0.797  15.287 -0.6924  3.4031 -1.1552
 5274SOL     OW27454   2.225   3.957   4.292  0.1729 -0.5316  0.4234
 5274SOL    HW127455   2.133   3.933   4.310 -0.4531  2.7136  1.4388
 5274SOL    HW227456   2.252   3.983   4.380  2.1345  0.7558 -0.5722
 5275SOL     OW27457   3.756   2.369  15.193  0.3737 -0.2882 -0.7064
 5275SOL    HW127458   3.772   2.418  15.274 -0.0282  0.6600 -1.2068
 5275SOL    HW227459   3.721   2.285  15.222 -2.2173  1.0958  0.1674
 5276SOL     OW27460   0.126   1.619   4.480 -0.4718  0.1250 -0.3283
 5276SOL    HW127461   0.058   1.588   4.541 -0.8993 -0.1869 -0.9648
 5276SOL    HW227462   0.098   1.606   4.390  3.5233 -0.6881 -1.4533
 5277SOL     OW27463   0.730   4.073   9.990 -0.0566 -0.4226 -0.2268
 5277SOL    HW127464   0.668   4.098  10.058  0.4526  1.1609 -0.3612
 5277SOL    HW227465   0.802   4.132  10.011 -1.1184  0.5979  0.5015
 5278SOL     OW27466   2.471   3.387   0.704 -0.3547  0.3732  0.2794
 5278SOL    HW127467   2.385   3.364   0.740 -1.2592  1.2164 -1.3175
 5278SOL    HW227468   2.487   3.309   0.651 -2.6247 -0.7848  1.2849
 5279SOL     OW27469   3.197   4.210   3.906  0.4569 -0.7571 -0.3274
 5279SOL    HW127470   3.173   4.303   3.906  0.9165 -0.6343  0.9119
 5279SOL    HW227471   3.110   4.174   3.893 -0.0909  0.3687  0.2303
 5280SOL     OW27472   4.439   2.725   2.335  0.4661  0.2845  0.2998
 5280SOL    HW127473   4.423   2.763   2.249 -1.5873  0.3249  0.6949
 5280SOL    HW227474   4.352   2.748   2.369  1.1269  2.7464  0.2685
 5281SOL     OW27475   3.044   1.679   6.427 -0.2094  0.3487  0.3651
 5281SOL    HW127476   3.102   1.696   6.501 -0.6701  1.0619  0.5596
 5281SOL    HW227477   3.077   1.724   6.349 -0.6132  1.3020  0.7476
 5282SOL     OW27478   3.791   0.748   7.710 -0.0690  0.1430  0.0284
 5282SOL    HW127479   3.713   0.694   7.717 -0.1648  0.3088  0.2227
 5282SOL    HW227480   3.764   0.804   7.637  1.8049 -0.0253 -0.7907
 5283SOL     OW27481   1.679   3.967  14.537 -0.4333 -0.2666 -0.4522
 5283SOL    HW127482   1.752   3.922  14.496 -1.6276 -3.1864  0.6374
 5283SOL    HW227483   1.704   3.977  14.628  1.4869 -0.0706 -1.0067
 5284SOL     OW27484   0.482   2.643  17.612 -0.1632  0.2442  0.2288
 5284SOL    HW127485   0.465   2.704  17.684  0.1204 -0.6729  1.0691
 5284SOL    HW227486   0.484   2.557  17.654 -0.6340  0.9899  1.7832
 5285SOL     OW27487   0.103   4.593   7.206  0.0537  0.2528  0.0547
 5285SOL    HW127488   0.072   4.652   7.137 -0.1486  0.9136  0.7172
 5285SOL    HW227489   0.195   4.621   7.207 -0.2880  1.2004  2.9643
 5286SOL     OW27490   1.924   4.402  12.534  0.6338 -0.7110  0.6092
 5286SOL    HW127491   2.009   4.425  12.495  0.0276  1.0913  0.3566
 5286SOL    HW227492   1.869   4.461  12.484  2.5436 -0.5494 -1.3237
 5287SOL     OW27493   0.165   2.023   2.584  0.2864  0.3854  0.1409
 5287SOL    HW127494   0.215   2.100   2.559  1.6378  0.2573  2.3883
 5287SOL    HW227495   0.196   2.005   2.673  2.7286 -0.4327 -0.8957
 5288SOL     OW27496   0.283   4.432   2.383 -0.1709 -0.1158  0.1167
 5288SOL    HW127497   0.256   4.415   2.292  1.6940 -0.2693 -0.4065
 5288SOL    HW227498   0.367   4.469   2.357 -1.1401  1.1280 -1.2380
 5289SOL     OW27499   0.502   3.735  12.980  0.4000  0.3480 -0.2382
 5289SOL    HW127500   0.491   3.827  13.004  0.7325  0.3198  0.0275
 5289SOL    HW227501   0.589   3.715  13.015 -0.2654 -0.0891  1.1773
 5290SOL     OW27502   4.002   1.724  15.638  0.3520 -0.3343 -0.4770
 5290SOL    HW127503   4.051   1.806  15.644 -1.4763  0.7227  0.0147
 5290SOL    HW227504   3.947   1.747  15.712  0.9542 -1.2423  0.2512
 5291SOL     OW27505   0.076   2.179   4.717  0.1785  0.7415  0.2477
 5291SOL    HW127506   0.140   2.112   4.693 -0.4554  0.7748 -1.5252
 5291SOL    HW227507   0.044   2.208   4.632 -1.0998  0.3673  0.6100
 5292SOL     OW27508   3.829   0.773   7.207  0.0502 -0.4877 -0.2349
 5292SOL    HW127509   3.917   0.773   7.169 -0.2002  2.0350 -0.8074
 5292SOL    HW227510   3.798   0.689   7.172 -1.4025  0.4623 -1.2146
 5293SOL     OW27511   1.208   0.475   7.638  0.2990  0.9285 -0.4813
 5293SOL    HW127512   1.239   0.384   7.631 -0.7053  0.7561 -2.7096
 5293SOL    HW227513   1.156   0.475   7.718  2.4208 -0.3947  0.9007
 5294SOL     OW27514   2.782   2.607   7.825  0.8075 -0.2512 -0.2905
 5294SOL    HW127515   2.859   2.550   7.822  1.2492  0.4748 -2.9821
 5294SOL    HW227516   2.756   2.584   7.914  0.9834  2.6952  0.5089
 5295SOL     OW27517   3.950   4.669   3.100 -0.2197  0.1584  0.1442
 5295SOL    HW127518   3.864   4.627   3.095 -0.2924  0.4128 -0.8710
 5295SOL    HW227519   3.968   4.648   3.191 -1.8843  0.3553  0.5113
 5296SOL     OW27520   0.440   1.048  14.820 -0.0385 -0.3601  0.1997
 5296SOL    HW127521   0.395   1.070  14.738  0.5883 -1.0687 -0.3317
 5296SOL    HW227522   0.363   1.032  14.876  0.9981 -3.0020  0.8615
 5297SOL     OW27523   0.722   2.081   1.592  0.2399 -0.5616 -0.2136
 5297SOL    HW127524   0.677   2.026   1.528 -1.9622 -0.8731  1.5881
 5297SOL    HW227525   0.699   2.168   1.560  1.6169  0.0002  0.3467
 5298SOL     OW27526   0.015   4.287   8.882 -0.6780  0.1476  0.1605
 5298SOL    HW127527   4.668   4.240   8.858 -1.3744  1.3858  0.0360
 5298SOL    HW227528   0.084   4.224   8.864  0.8647  2.1841 -1.0971
 5299SOL     OW27529   0.934   1.698   3.144 -0.4733 -0.1342  0.4226
 5299SOL    HW127530   0.856   1.650   3.116  0.4361  0.7813 -3.6619
 5299SOL    HW227531   0.940   1.758   3.069 -0.6367 -1.7828 -0.8990
 5300SOL     OW27532   1.792   0.332   7.731 -0.4394  0.4661 -0.6387
 5300SOL    HW127533   1.840   0.249   7.738 -2.6143 -0.8485 -1.6444
 5300SOL    HW227534   1.708   0.306   7.768  0.2683 -4.1204 -2.2050
 5301SOL     OW27535   1.668   2.734  11.211  0.3988 -0.0162  0.8198
 5301SOL    HW127536   1.614   2.657  11.229  0.2352  0.1987  1.2498
 5301SOL    HW227537   1.674   2.714  11.117  0.3374  1.7519  0.4450
 5302SOL     OW27538   1.792   3.724   3.704  0.0958 -0.1016 -0.3212
 5302SOL    HW127539   1.879   3.756   3.727  1.0546 -2.1064 -1.1696
 5302SOL    HW227540   1.815   3.702   3.613 -0.1771  3.5814 -1.2863
 5303SOL     OW27541   2.834   3.362   5.883 -0.6383  0.5293 -0.1344
 5303SOL    HW127542   2.916   3.406   5.907  0.5004 -1.6723 -0.0253
 5303SOL    HW227543   2.819   3.306   5.959 -0.8028  2.3199  1.1536
 5304SOL     OW27544   1.113   4.559   2.753 -0.3052  0.1649 -0.2276
 5304SOL    HW127545   1.023   4.540   2.778  0.0260  0.2340  1.0467
 5304SOL    HW227546   1.135   4.576   2.845  0.1788 -2.2654  0.1229
 5305SOL     OW27547   3.959   1.580   3.120 -0.8765  0.3474  0.0624
 5305SOL    HW127548   3.989   1.539   3.201  1.4967  1.6715 -0.1551
 5305SOL    HW227549   4.011   1.535   3.054  1.1317  0.9092  1.2601
 5306SOL     OW27550   0.814   1.261   7.427 -0.4670  0.0529  0.2205
 5306SOL    HW127551   0.796   1.348   7.463 -0.4881  0.2849 -0.3528
 5306SOL    HW227552   0.804   1.276   7.333  2.1566  0.3805  0.0099
 5307SOL     OW27553   1.484   1.879   8.749  0.3773 -1.1707 -0.1481
 5307SOL    HW127554   1.562   1.843   8.707  1.1318  0.9357 -0.5435
 5307SOL    HW227555   1.531   1.941   8.805 -2.6099  0.8689  0.0815
 5308SOL     OW27556   4.072   0.868   9.073 -0.1825 -0.2366 -0.0865
 5308SOL    HW127557   4.099   0.925   9.001  0.7464 -0.5727 -0.0044
 5308SOL    HW227558   4.071   0.786   9.023 -0.6845  0.2532 -0.8894
 5309SOL     OW27559   3.061   4.028  13.944 -0.2664  0.1956 -0.1856
 5309SOL    HW127560   3.056   4.112  13.897  2.5434  0.8596  0.6823
 5309SOL    HW227561   3.055   3.964  13.874 -0.5397  0.8458 -0.7577
 5310SOL     OW27562   1.789   2.340   3.819 -0.0796  0.1546  0.1871
 5310SOL    HW127563   1.841   2.418   3.838  0.6025 -0.5337  1.1350
 5310SOL    HW227564   1.701   2.376   3.829 -0.0403  0.2936  0.0191
 5311SOL     OW27565   1.336   3.599   4.034 -0.4876  0.0414  0.3652
 5311SOL    HW127566   1.419   3.615   3.990 -0.3657 -1.6597 -0.0225
 5311SOL    HW227567   1.280   3.630   3.963 -0.4645  1.0169  0.7804
 5312SOL     OW27568   0.913   1.252  13.438 -0.0767  0.1878 -0.2778
 5312SOL    HW127569   0.855   1.181  13.408 -0.1565  0.4682 -0.7853
 5312SOL    HW227570   0.910   1.298  13.355  0.7151 -0.5611 -0.7232
 5313SOL     OW27571   2.441   0.799   3.445  0.0112 -1.0934 -0.3996
 5313SOL    HW127572   2.535   0.785   3.461  0.1966 -1.2999 -1.6586
 5313SOL    HW227573   2.437   0.808   3.349  0.3597 -0.3239 -0.3471
 5314SOL     OW27574   3.579   1.627   9.792 -0.0337  0.3349 -0.7230
 5314SOL    HW127575   3.594   1.534   9.811 -0.7309 -0.1398 -2.4718
 5314SOL    HW227576   3.484   1.631   9.780 -0.4100  2.5108  3.0128
 5315SOL     OW27577   3.536   2.137   6.863  0.4889 -0.0547 -0.3098
 5315SOL    HW127578   3.486   2.103   6.789  2.5425  0.6832 -2.0337
 5315SOL    HW227579   3.521   2.058   6.915 -1.0994  0.2300 -0.3317
 5316SOL     OW27580   0.939   4.175  12.998 -0.3819  0.0658  0.1787
 5316SOL    HW127581   1.005   4.225  13.047 -0.0927  0.1863 -0.3385
 5316SOL    HW227582   0.861   4.223  13.026 -0.0237  0.4303  0.5663
 5317SOL     OW27583   3.193   2.854  15.457  0.1871  0.0627  0.0089
 5317SOL    HW127584   3.147   2.884  15.536  0.2027  0.8622 -0.2849
 5317SOL    HW227585   3.279   2.887  15.484  0.7151 -1.5909  0.3316
 5318SOL     OW27586   2.884   1.062   2.610  0.3285  0.5288 -0.0726
 5318SOL    HW127587   2.970   1.082   2.645  0.5416  0.3219 -0.4761
 5318SOL    HW227588   2.903   0.977   2.569 -0.6561  1.2270 -1.9722
 5319SOL     OW27589   0.757   3.087   3.205  0.2960 -0.6402 -0.2327
 5319SOL    HW127590   0.801   3.030   3.143  1.6630  1.3980 -1.1303
 5319SOL    HW227591   0.791   3.176   3.198  1.1361 -1.1002 -1.7475
 5320SOL     OW27592   0.645   3.054   2.776 -0.6427 -0.0422  0.1369
 5320SOL    HW127593   0.563   3.004   2.778 -0.2442 -0.6887  0.2568
 5320SOL    HW227594   0.699   2.988   2.734  0.2363  1.2744 -0.8100
 5321SOL     OW27595   1.956   2.200   2.603 -0.8949  0.4087 -0.1384
 5321SOL    HW127596   1.991   2.155   2.680 -2.7138  0.3405  0.6486
 5321SOL    HW227597   1.876   2.235   2.643 -1.0346  1.0236 -0.9411
 5322SOL     OW27598   1.732   3.381   7.417 -0.6477 -0.0835  0.2033
 5322SOL    HW127599   1.671   3.333   7.473  0.8902 -2.5457 -0.1897
 5322SOL    HW227600   1.761   3.317   7.351 -0.6877  2.1601 -1.9900
 5323SOL     OW27601   4.578   2.350   4.209 -0.0915 -0.8310  0.2463
 5323SOL    HW127602   4.518   2.297   4.157 -1.5359  0.6639  0.3688
 5323SOL    HW227603   4.540   2.325   4.294  1.1632  1.2048  1.3963
 5324SOL     OW27604   1.341   2.158   7.319 -0.3296 -0.2514  0.3415
 5324SOL    HW127605   1.259   2.197   7.290 -0.5158 -0.6946  0.2876
 5324SOL    HW227606   1.399   2.176   7.244  1.3370 -1.4051  1.3413
 5325SOL     OW27607   4.410   4.108   8.176 -0.1227  0.5849 -0.2333
 5325SOL    HW127608   4.491   4.076   8.135  0.2791  0.0510  0.9933
 5325SOL    HW227609   4.382   4.022   8.207 -3.4825  0.9540 -2.2362
 5326SOL     OW27610   0.034   0.956   6.066 -0.1708  0.6079  0.1500
 5326SOL    HW127611   0.035   0.885   6.001  0.8368  1.4892 -0.8011
 5326SOL    HW227612   4.700   1.017   6.035  1.5530  2.6076  0.3461
 5327SOL     OW27613   2.251   2.488  15.112 -0.1505 -0.0980 -0.5842
 5327SOL    HW127614   2.308   2.527  15.177  0.9885 -0.4036 -1.4089
 5327SOL    HW227615   2.182   2.448  15.166 -0.9102 -0.5498 -1.8805
 5328SOL     OW27616   3.869   2.737   1.414  0.0712 -0.5178  0.2153
 5328SOL    HW127617   3.936   2.803   1.397 -0.3730 -0.1807 -0.2277
 5328SOL    HW227618   3.855   2.741   1.508 -0.9743  1.4578 -0.0129
 5329SOL     OW27619   3.535   4.716  11.014 -0.5277 -0.2623  0.5395
 5329SOL    HW127620   3.623   4.715  10.977 -0.6431  1.1341  0.2191
 5329SOL    HW227621   3.552   4.674  11.098 -3.6079 -1.6486  0.4781
 5330SOL     OW27622   4.160   1.277   6.774 -0.0567 -0.0118  0.2612
 5330SOL    HW127623   4.253   1.258   6.766 -0.1671 -0.4158 -0.0859
 5330SOL    HW227624   4.148   1.300   6.866  2.8126 -0.8291  0.8199
 5331SOL     OW27625   2.563   1.920   4.378  0.2137 -0.8835 -0.2513
 5331SOL    HW127626   2.603   1.960   4.455  0.4718  0.5869 -1.1578
 5331SOL    HW227627   2.538   2.000   4.332 -1.2848  0.6369  3.2049
 5332SOL     OW27628   3.456   0.804   3.307 -0.1101  0.6234 -0.6037
 5332SOL    HW127629   3.507   0.878   3.275  0.8301  0.9709  1.6574
 5332SOL    HW227630   3.440   0.750   3.229  2.1229  1.8657 -1.9161
 5333SOL     OW27631   4.103   4.180   5.848  0.2273  0.0265 -0.2504
 5333SOL    HW127632   4.164   4.219   5.910 -0.9828 -0.2414  1.1063
 5333SOL    HW227633   4.156   4.181   5.768  2.2937  0.5594  1.1159
 5334SOL     OW27634   0.014   4.591   5.132  0.0524 -0.1345 -0.0704
 5334SOL    HW127635   0.008   4.519   5.194 -0.1185 -0.5609 -0.5815
 5334SOL    HW227636   0.019   4.668   5.189 -0.1262 -1.5834  1.9022
 5335SOL     OW27637   1.330   3.885   9.670  0.1385 -0.3259 -0.1789
 5335SOL    HW127638   1.303   3.814   9.612 -1.2766 -1.4672  1.8840
 5335SOL    HW227639   1.267   3.955   9.653  0.3462  0.4990  2.3472
 5336SOL     OW27640   3.212   0.912  15.082  0.1795 -0.2597 -0.2941
 5336SOL    HW127641   3.300   0.903  15.120  0.2741 -1.6715 -0.8646
 5336SOL    HW227642   3.198   0.819  15.065 -0.2409 -0.4173  0.9345
 5337SOL     OW27643   2.668   1.509   6.393  0.1914  0.1449  0.1923
 5337SOL    HW127644   2.660   1.414   6.380 -3.9188  0.5498 -0.0606
 5337SOL    HW227645   2.759   1.512   6.423 -0.1502 -0.5690  1.2960
 5338SOL     OW27646   2.540   0.311  11.508  0.2978 -0.4764 -0.5875
 5338SOL    HW127647   2.628   0.275  11.517  1.1421  2.1022  1.7277
 5338SOL    HW227648   2.516   0.290  11.418 -0.9022 -3.3407  0.4276
 5339SOL     OW27649   3.692   2.610   3.723 -0.5736  0.3538 -0.1685
 5339SOL    HW127650   3.621   2.663   3.758 -1.7266 -0.1786 -1.6650
 5339SOL    HW227651   3.741   2.685   3.687  2.7702 -0.6887  2.1601
 5340SOL     OW27652   2.852   3.583  12.626  0.4683 -0.0285 -0.1129
 5340SOL    HW127653   2.874   3.611  12.714 -0.9602  1.5504 -0.2626
 5340SOL    HW227654   2.839   3.670  12.590 -0.3029  0.0571  0.3696
 5341SOL     OW27655   3.488   1.956   4.338  0.4170  0.3615  0.4056
 5341SOL    HW127656   3.497   2.052   4.340  1.0677  0.3116 -0.2135
 5341SOL    HW227657   3.436   1.941   4.260  0.4287  1.5177  0.1636
 5342SOL     OW27658   0.379   3.509   8.729 -0.0015  0.0556 -0.2510
 5342SOL    HW127659   0.313   3.499   8.660  0.1844  1.7981 -0.6916
 5342SOL    HW227660   0.371   3.602   8.754 -0.1736 -0.6485  2.2940
 5343SOL     OW27661   2.082   2.862   6.856  0.3712 -0.0581 -0.1784
 5343SOL    HW127662   2.113   2.953   6.857 -1.2138  0.4678  0.7449
 5343SOL    HW227663   2.028   2.858   6.777  0.9295  3.1467 -0.7279
 5344SOL     OW27664   1.111   0.728   5.291  0.4902  0.6483  0.1921
 5344SOL    HW127665   1.154   0.668   5.230 -1.5859 -0.1269 -0.5159
 5344SOL    HW227666   1.020   0.699   5.282 -0.4846  3.6365  0.4228
 5345SOL     OW27667   0.600   3.989   2.138  0.2454 -0.2469 -0.7795
 5345SOL    HW127668   0.547   3.993   2.058  0.7522 -0.8068 -1.1405
 5345SOL    HW227669   0.688   3.982   2.100  0.6555  1.1478 -0.1070
 5346SOL     OW27670   2.653   1.064   9.800  0.1219 -0.0344  0.2779
 5346SOL    HW127671   2.603   0.984   9.785 -2.9488  1.5369  2.2806
 5346SOL    HW227672   2.735   1.023   9.827  0.7021  1.1911  0.3973
 5347SOL     OW27673   4.430   2.730   6.579  0.6812 -0.4492 -0.0244
 5347SOL    HW127674   4.481   2.668   6.631  1.3560 -1.4062 -1.8316
 5347SOL    HW227675   4.498   2.792   6.552 -1.0918  0.2574 -2.8623
 5348SOL     OW27676   2.634   3.773  12.954 -0.0408 -0.0890  0.3740
 5348SOL    HW127677   2.673   3.847  13.000  1.5301 -0.2739 -0.6681
 5348SOL    HW227678   2.715   3.722  12.945 -0.5009 -1.0885  1.8957
 5349SOL     OW27679   1.645   3.462   2.872 -0.1148  0.2061  0.2013
 5349SOL    HW127680   1.740   3.477   2.866  0.3798 -3.6216 -2.0504
 5349SOL    HW227681   1.631   3.406   2.796  1.4213 -2.1726  1.6425
 5350SOL     OW27682   1.647   1.408   4.009  0.2796  0.1643 -0.3581
 5350SOL    HW127683   1.636   1.494   4.051  0.2450 -0.2008  0.3750
 5350SOL    HW227684   1.741   1.394   4.014  0.2133  0.8579  2.8531
 5351SOL     OW27685   0.148   2.052   5.359 -0.0764 -0.2980 -0.2151
 5351SOL    HW127686   0.120   2.100   5.437 -0.4653 -0.8468 -0.0142
 5351SOL    HW227687   0.129   1.959   5.377 -1.3036  0.3300  1.7968
 5352SOL     OW27688   2.020   4.263   4.353 -0.5631  0.1852  0.6073
 5352SOL    HW127689   2.011   4.353   4.324  0.5592 -0.1477 -0.7670
 5352SOL    HW227690   2.081   4.266   4.427  0.1474 -3.4242  0.1628
 5353SOL     OW27691   0.627   2.465   4.561 -0.5126 -0.1676  0.3476
 5353SOL    HW127692   0.538   2.455   4.596  0.1932 -1.2372  1.8561
 5353SOL    HW227693   0.648   2.548   4.603 -0.2645 -0.1254  0.1364
 5354SOL     OW27694   3.783   3.037   8.894 -0.0496 -0.8034 -0.5664
 5354SOL    HW127695   3.852   3.015   8.831  0.2531 -2.0975  0.2244
 5354SOL    HW227696   3.699   3.028   8.849 -0.1887 -0.6546 -0.3313
 5355SOL     OW27697   0.819   2.543   0.596  0.6475 -0.0115 -0.3237
 5355SOL    HW127698   0.857   2.610   0.540  0.5287  0.2428 -0.0958
 5355SOL    HW227699   0.840   2.461   0.550 -1.7848 -0.7232 -0.1841
 5356SOL     OW27700   2.388   3.159   4.719 -0.1095  0.9971  0.1453
 5356SOL    HW127701   2.391   3.073   4.678  1.0184  0.1445  1.9947
 5356SOL    HW227702   2.293   3.169   4.719 -0.3070 -1.1331 -2.0997
 5357SOL     OW27703   2.971   4.206   2.204  0.2100  0.1840  1.1016
 5357SOL    HW127704   3.013   4.244   2.127 -0.1404 -0.3205  0.6614
 5357SOL    HW227705   3.007   4.117   2.198 -1.5467 -0.5807  1.9725
 5358SOL     OW27706   2.553   3.606   3.699  0.0851  0.4184 -0.2743
 5358SOL    HW127707   2.566   3.511   3.690 -3.0990  0.0200 -0.5487
 5358SOL    HW227708   2.634   3.633   3.744  0.7619 -0.4233 -0.9770
 5359SOL     OW27709   3.402   2.588   6.613 -0.7342  0.1289  0.1590
 5359SOL    HW127710   3.476   2.648   6.612 -0.2693 -0.4892 -2.3982
 5359SOL    HW227711   3.330   2.633   6.569 -0.3400  0.7750  0.1729
 5360SOL     OW27712   0.867   3.360   6.182  0.1431  0.0419  0.4480
 5360SOL    HW127713   0.901   3.276   6.212 -1.0831 -0.6591 -0.1219
 5360SOL    HW227714   0.772   3.361   6.167 -0.0378  0.2665  1.5885
 5361SOL     OW27715   4.433   4.443   4.872  0.4518 -0.0304 -0.1337
 5361SOL    HW127716   4.491   4.512   4.841 -0.9848 -0.0234 -2.8131
 5361SOL    HW227717   4.352   4.462   4.825  1.2989 -0.8781 -1.9328
 5362SOL     OW27718   2.178   2.151   5.528  0.1930  0.4826 -0.0458
 5362SOL    HW127719   2.115   2.119   5.463 -0.6631  0.9429  0.5638
 5362SOL    HW227720   2.154   2.091   5.598  4.2214 -2.3175 -1.0416
 5363SOL     OW27721   2.192   1.907   2.039  0.3502  0.5871  0.0288
 5363SOL    HW127722   2.146   1.970   1.984 -2.7587  0.0993  2.0442
 5363SOL    HW227723   2.121   1.883   2.099  0.2802 -1.4164 -0.8520
 5364SOL     OW27724   3.343   1.040  11.958 -0.3508 -0.3932 -0.2229
 5364SOL    HW127725   3.357   1.101  11.886  0.9983 -0.7718 -0.2771
 5364SOL    HW227726   3.428   0.999  11.972  1.3074  2.0814 -3.1580
 5365SOL     OW27727   1.377   3.729   4.534  0.4706 -0.0041 -0.2160
 5365SOL    HW127728   1.347   3.790   4.602  1.4666 -1.1818  1.2976
 5365SOL    HW227729   1.297   3.700   4.491 -0.9811  0.9718  1.7820
 5366SOL     OW27730   3.985   2.129   6.812 -0.3643 -0.0920  0.6916
 5366SOL    HW127731   3.915   2.067   6.791  0.5744  0.2908 -3.5273
 5366SOL    HW227732   3.985   2.130   6.908  1.1618 -0.6081  0.7070
 5367SOL     OW27733   4.510   2.994   7.131  0.1708  0.0875 -0.3053
 5367SOL    HW127734   4.442   3.035   7.184 -1.6067 -0.9845 -1.7309
 5367SOL    HW227735   4.479   3.005   7.041  1.9262  1.9661 -0.6900
 5368SOL     OW27736   3.491   0.906   9.103 -0.3906  0.2679  0.5899
 5368SOL    HW127737   3.486   0.976   9.168  0.0348  0.2828  0.6017
 5368SOL    HW227738   3.417   0.926   9.045 -1.4055 -2.3976  0.9727
 5369SOL     OW27739   0.862   2.437   7.664 -0.0422  0.3763  0.3082
 5369SOL    HW127740   0.771   2.465   7.651  0.8410  3.3382  0.4511
 5369SOL    HW227741   0.858   2.374   7.736  1.9213  1.2610  1.1879
 5370SOL     OW27742   3.069   2.516   6.436 -0.1022  0.2369 -0.0007
 5370SOL    HW127743   3.031   2.496   6.522 -1.6197 -1.1410 -0.9848
 5370SOL    HW227744   3.084   2.608   6.454 -0.1615  0.1175  0.6922
 5371SOL     OW27745   0.278   3.041   4.658  0.2582  0.2502 -0.3558
 5371SOL    HW127746   0.285   2.985   4.581 -0.6806 -0.7199  0.2651
 5371SOL    HW227747   0.184   3.058   4.669  0.2774  0.6023 -0.7408
 5372SOL     OW27748   1.896   0.592   8.497  0.2855 -0.2923 -0.3716
 5372SOL    HW127749   1.834   0.664   8.485  0.0007 -0.7023 -1.3779
 5372SOL    HW227750   1.979   0.637   8.510 -0.4955  0.6730  1.2237
 5373SOL     OW27751   3.693   0.172   0.825 -0.4536 -0.2906  0.2036
 5373SOL    HW127752   3.721   0.152   0.914  0.7927 -0.6510 -0.2734
 5373SOL    HW227753   3.768   0.130   0.783 -0.3430 -1.3478  1.4837
 5374SOL     OW27754   1.545   3.597   1.938 -0.1477 -0.3018 -0.2084
 5374SOL    HW127755   1.468   3.545   1.962 -0.5045 -0.2290 -1.2041
 5374SOL    HW227756   1.496   3.674   1.909 -1.0198 -0.3848  1.0098
 5375SOL     OW27757   3.341   0.630  15.742  0.4630  0.1302 -0.1076
 5375SOL    HW127758   3.420   0.666  15.701  0.5286 -0.0778 -0.1655
 5375SOL    HW227759   3.274   0.690  15.709  1.4031  1.6644  0.7733
 5376SOL     OW27760   3.019   1.417   2.177  0.5895  0.2049 -0.0375
 5376SOL    HW127761   3.058   1.366   2.248 -1.1208 -1.7630 -0.4982
 5376SOL    HW227762   2.926   1.394   2.184  0.4430  1.2308  1.3966
 5377SOL     OW27763   0.459   4.663   8.505  1.2017  0.7554  0.1863
 5377SOL    HW127764   0.474   4.712   8.424  0.1926  1.4802  0.4281
 5377SOL    HW227765   0.454   4.571   8.480  1.0678  0.8442 -0.1203
 5378SOL     OW27766   1.460   4.511   3.016 -0.2020 -0.1980  0.3280
 5378SOL    HW127767   1.499   4.568   3.082 -3.0046 -0.9947  2.6835
 5378SOL    HW227768   1.507   4.547   2.941 -0.6917 -1.0748 -0.3958
 5379SOL     OW27769   4.586   4.063  16.546  0.0377  0.7630 -0.4205
 5379SOL    HW127770   4.617   4.000  16.611  1.9875  2.7790  0.5823
 5379SOL    HW227771   4.626   4.146  16.573 -0.6325  0.4148  1.5940
 5380SOL     OW27772   1.182   0.716   3.925 -0.1632  0.2793 -0.4487
 5380SOL    HW127773   1.103   0.688   3.970 -2.0874  1.8015 -2.8544
 5380SOL    HW227774   1.141   0.744   3.843  2.7528  0.8418 -1.7326
 5381SOL     OW27775   1.646   1.876   3.007 -0.0387 -0.5052 -0.2433
 5381SOL    HW127776   1.574   1.839   3.057 -2.1889  1.6155 -1.7699
 5381SOL    HW227777   1.716   1.826   3.049 -0.7949 -0.2018  1.3767
 5382SOL     OW27778   0.714   3.264   4.335 -0.6901  0.6932 -0.4346
 5382SOL    HW127779   0.685   3.281   4.425  4.6765 -1.1882  1.6272
 5382SOL    HW227780   0.718   3.168   4.333  1.4645  0.7510  1.5184
 5383SOL     OW27781   2.507   2.338   0.311 -0.3990 -0.2478  0.2636
 5383SOL    HW127782   2.530   2.277   0.381 -2.8920 -2.2011 -0.6416
 5383SOL    HW227783   2.499   2.425   0.350  2.4934 -0.6976  1.8534
 5384SOL     OW27784   2.209   1.933  13.591 -0.1737  0.9924 -0.0018
 5384SOL    HW127785   2.269   1.967  13.658  0.3105 -0.4924  0.3275
 5384SOL    HW227786   2.251   1.966  13.512  0.0861  2.3450  0.6929
 5385SOL     OW27787   0.887   3.976   6.771  0.5960 -0.5966  0.3601
 5385SOL    HW127788   0.897   3.967   6.866 -2.1044 -0.4610  0.6617
 5385SOL    HW227789   0.971   3.948   6.734 -0.3676 -0.5669 -1.8688
 5386SOL     OW27790   4.098   1.950   2.612  0.2015  0.0386  0.5398
 5386SOL    HW127791   4.130   1.995   2.690  0.9401  2.0072 -0.8860
 5386SOL    HW227792   4.106   2.014   2.541  1.9210 -2.4948 -1.5577
 5387SOL     OW27793   2.181   1.100   1.530 -0.4570  0.1136  0.5384
 5387SOL    HW127794   2.131   1.047   1.592 -1.4983  0.9847  0.4371
 5387SOL    HW227795   2.134   1.082   1.449 -1.2199  1.4523  0.6783
 5388SOL     OW27796   1.955   0.926   0.944  0.1322 -0.1634 -0.0879
 5388SOL    HW127797   1.983   0.840   0.911 -0.3556  0.2375 -1.5114
 5388SOL    HW227798   2.012   0.987   0.899  1.4828 -0.7568  0.8137
 5389SOL     OW27799   2.545   1.183   9.424 -0.2100 -0.1907 -0.1558
 5389SOL    HW127800   2.588   1.269   9.430 -0.9908 -0.1536  4.9501
 5389SOL    HW227801   2.524   1.181   9.330 -0.3734  1.0571 -0.1545
 5390SOL     OW27802   2.220   0.376   0.839  0.6472 -0.2786  0.3047
 5390SOL    HW127803   2.177   0.461   0.826  0.7570 -0.2727 -0.0257
 5390SOL    HW227804   2.305   0.392   0.798 -0.9017 -1.9178 -3.6074
 5391SOL     OW27805   2.952   0.490   4.794 -0.1999  0.1317 -0.2724
 5391SOL    HW127806   3.003   0.570   4.782 -0.6005  0.5839  1.0230
 5391SOL    HW227807   2.906   0.489   4.711 -0.2296  0.9016 -0.2651
 5392SOL     OW27808   2.628   0.635   9.327  0.2691  0.3898  0.1558
 5392SOL    HW127809   2.627   0.685   9.245 -0.2652 -0.7449 -0.5394
 5392SOL    HW227810   2.651   0.544   9.307 -0.7029  0.0826  0.4427
 5393SOL     OW27811   1.667   2.701   3.403 -0.1086 -0.2860  0.0132
 5393SOL    HW127812   1.649   2.671   3.314 -2.0365 -1.1296  0.6821
 5393SOL    HW227813   1.653   2.619   3.449  0.7862 -1.0219 -1.0410
 5394SOL     OW27814   0.141   0.557   4.184 -0.1469 -0.0537 -0.5175
 5394SOL    HW127815   0.174   0.647   4.182  1.3781 -0.5818  0.7380
 5394SOL    HW227816   0.224   0.510   4.176  0.0044  0.2892 -0.9768
 5395SOL     OW27817   2.969   1.672   4.830  0.5158 -0.4077 -0.5569
 5395SOL    HW127818   2.955   1.728   4.907  1.4193 -1.6272  0.4884
 5395SOL    HW227819   3.060   1.646   4.846  0.3493 -0.6343  0.0313
 5396SOL     OW27820   4.259   1.546   5.464 -0.1905  0.0359 -0.0290
 5396SOL    HW127821   4.336   1.495   5.488 -0.0335  0.4652  0.3715
 5396SOL    HW227822   4.229   1.579   5.548 -0.1655 -1.7111  0.6504
 5397SOL     OW27823   2.596   2.701   8.522  0.3341 -0.0666 -0.3113
 5397SOL    HW127824   2.675   2.726   8.475 -0.5585  1.8657 -0.7537
 5397SOL    HW227825   2.549   2.666   8.447 -0.5130 -0.9988  0.6409
 5398SOL     OW27826   3.800   3.719   3.924  0.2676  0.2071 -0.2194
 5398SOL    HW127827   3.824   3.773   3.999 -2.0636  0.1273  0.5927
 5398SOL    HW227828   3.814   3.779   3.851 -1.6572  0.8398 -0.0547
 5399SOL     OW27829   1.078   2.317   3.575  0.1707 -0.7487 -0.0612
 5399SOL    HW127830   1.168   2.347   3.592 -0.5883  0.8109  1.2443
 5399SOL    HW227831   1.083   2.289   3.484  0.1310  1.6140 -0.7925
 5400SOL     OW27832   2.338   2.586   2.100  0.5521  0.2522  0.0496
 5400SOL    HW127833   2.300   2.548   2.180 -0.1323  0.8676  0.0165
 5400SOL    HW227834   2.430   2.586   2.128  1.3898  0.2860 -2.7504
 5401SOL     OW27835   3.184   2.174   3.702  0.0436  1.2233  0.1146
 5401SOL    HW127836   3.190   2.266   3.729  3.1765  1.2077 -0.5354
 5401SOL    HW227837   3.199   2.180   3.608 -0.9496 -0.8768 -0.1827
 5402SOL     OW27838   3.723   3.721  12.254  0.0376  0.1905  0.5527
 5402SOL    HW127839   3.807   3.757  12.280  0.0125 -1.0304  2.3483
 5402SOL    HW227840   3.730   3.754  12.164  0.5593  0.5710  0.7321
 5403SOL     OW27841   1.281   3.882   2.566 -0.3171  0.0791  0.4312
 5403SOL    HW127842   1.192   3.911   2.586 -0.2104 -0.0823  1.1709
 5403SOL    HW227843   1.333   3.963   2.562  1.2793 -0.9160  0.8803
 5404SOL     OW27844   4.204   2.884  13.266 -0.2510  0.2552  0.1627
 5404SOL    HW127845   4.244   2.956  13.217  2.0861 -1.3428 -0.2952
 5404SOL    HW227846   4.250   2.887  13.351  0.2382  1.5039 -0.1476
 5405SOL     OW27847   0.572   2.017  13.009 -0.9017  0.2124  0.0346
 5405SOL    HW127848   0.506   1.958  12.973 -0.2879  0.1941 -1.0816
 5405SOL    HW227849   0.572   1.993  13.101  0.5650  0.9833  0.2482
 5406SOL     OW27850   1.542   3.030  14.869  0.3771 -0.6096 -0.2958
 5406SOL    HW127851   1.451   3.016  14.898 -0.0098  1.6130 -0.4473
 5406SOL    HW227852   1.577   2.958  14.921 -2.1399 -0.3360  1.7782
 5407SOL     OW27853   1.945   4.542   7.878  0.5237 -0.3285  0.0946
 5407SOL    HW127854   1.926   4.465   7.932 -0.0322 -1.6249 -1.9824
 5407SOL    HW227855   1.873   4.547   7.816  1.0746  0.9330 -0.4404
 5408SOL     OW27856   1.050   0.437   6.042 -0.0524  0.4619  0.8618
 5408SOL    HW127857   1.069   0.478   5.958 -0.9634  1.0701  0.9559
 5408SOL    HW227858   0.978   0.492   6.074 -0.2712  0.6646  0.0237
 5409SOL     OW27859   3.233   0.340   0.801  0.1141 -0.2055 -0.1604
 5409SOL    HW127860   3.306   0.278   0.796 -0.6363 -1.1108  0.1572
 5409SOL    HW227861   3.233   0.388   0.719  0.3790 -0.8176 -0.5175
 5410SOL     OW27862   0.784   4.241  16.115 -0.1513 -0.0534 -0.4878
 5410SOL    HW127863   0.726   4.166  16.131  0.2376  0.3669  2.8391
 5410SOL    HW227864   0.769   4.257  16.022  2.1397  2.4192 -0.4338
 5411SOL     OW27865   4.104   1.620   9.883 -0.1570  0.5855 -0.1351
 5411SOL    HW127866   4.035   1.669   9.926 -0.9239 -1.3765  0.8641
 5411SOL    HW227867   4.138   1.690   9.827  1.7027 -0.6768 -0.5998
 5412SOL     OW27868   2.070   2.308  15.190 -0.1687  0.0143  0.2552
 5412SOL    HW127869   2.099   2.238  15.132  0.6101  0.4419  0.1309
 5412SOL    HW227870   2.031   2.253  15.258  0.6326 -0.1655  0.5729
 5413SOL     OW27871   4.414   4.626   6.787 -0.3985 -0.1252  0.4393
 5413SOL    HW127872   4.369   4.645   6.705  0.6219 -0.6429 -0.2420
 5413SOL    HW227873   4.352   4.665   6.848 -0.9697 -2.4653  1.3561
 5414SOL     OW27874   0.180   2.416  17.674 -0.3838 -0.1796 -0.0574
 5414SOL    HW127875   0.109   2.455  17.726 -0.5826 -0.3502 -0.2005
 5414SOL    HW227876   0.137   2.342  17.631  0.4303  0.4184 -1.8920
 5415SOL     OW27877   1.720   4.157   5.398 -0.2131 -1.0343 -0.2389
 5415SOL    HW127878   1.745   4.136   5.489  0.3232  0.2112 -0.0969
 5415SOL    HW227879   1.678   4.075   5.372 -0.1170 -1.6797  1.5832
 5416SOL     OW27880   3.137   1.004   9.703  0.3737 -0.5741  0.3507
 5416SOL    HW127881   3.212   0.947   9.721  1.0943 -0.3643 -2.0075
 5416SOL    HW227882   3.071   0.939   9.682  0.2822 -0.4715  0.3198
 5417SOL     OW27883   2.007   0.252   6.014 -0.0350 -0.1876 -0.9054
 5417SOL    HW127884   1.923   0.215   6.044  0.5225 -0.5432  0.1986
 5417SOL    HW227885   2.045   0.170   5.985 -0.8104 -0.5439 -0.9236
 5418SOL     OW27886   2.137   1.035  13.117  0.2144 -0.5950  0.1625
 5418SOL    HW127887   2.140   1.128  13.092 -0.1493 -1.0048 -1.4153
 5418SOL    HW227888   2.063   1.011  13.061  1.6816 -1.3447 -1.4535
 5419SOL     OW27889   1.515   0.404   4.307 -1.3359  0.0242  0.4033
 5419SOL    HW127890   1.597   0.406   4.357 -0.8261 -0.5352 -0.4054
 5419SOL    HW227891   1.501   0.309   4.311  1.1763 -0.3857 -0.0960
 5420SOL     OW27892   1.278   3.579   2.006 -0.6263 -0.2322  0.2521
 5420SOL    HW127893   1.224   3.522   2.061  0.4293 -2.4330 -1.0098
 5420SOL    HW227894   1.295   3.650   2.069  2.3368  0.6120 -1.5117
 5421SOL     OW27895   3.662   0.926  15.226 -0.0623 -0.2236 -0.2277
 5421SOL    HW127896   3.681   0.882  15.143 -0.8444 -0.5496 -0.2287
 5421SOL    HW227897   3.713   0.877  15.292  1.1782  1.1647 -0.1662
 5422SOL     OW27898   2.482   3.976  15.256 -0.1425  0.0735 -0.1146
 5422SOL    HW127899   2.401   3.936  15.225 -0.5531  1.5966 -1.0211
 5422SOL    HW227900   2.449   4.045  15.313 -0.6152  1.6753 -2.3334
 5423SOL     OW27901   4.634   0.092   1.451 -0.1198  0.1720  0.2619
 5423SOL    HW127902   4.569   0.106   1.520  0.9366  0.2652  1.2355
 5423SOL    HW227903   4.573   0.083   1.377 -1.5544 -2.3714  1.7501
 5424SOL     OW27904   4.182   1.781   3.113  0.3415  0.0395 -0.2788
 5424SOL    HW127905   4.251   1.715   3.116  0.9031  0.7264  1.7535
 5424SOL    HW227906   4.100   1.736   3.134  1.0539 -1.9703 -1.8172
 5425SOL     OW27907   0.382   3.497  13.960 -0.1693  0.2795 -0.3125
 5425SOL    HW127908   0.296   3.539  13.957  0.7674  2.3659  2.0665
 5425SOL    HW227909   0.436   3.558  14.010  0.6107  0.9345 -1.9517
 5426SOL     OW27910   0.868   0.776   0.365 -0.7404 -0.1166  0.3809
 5426SOL    HW127911   0.818   0.741   0.439 -1.1991 -3.0783 -1.3043
 5426SOL    HW227912   0.846   0.709   0.300 -0.3704  0.5967 -0.4675
 5427SOL     OW27913   1.327   1.987   8.988  0.4691 -0.8077 -0.1826
 5427SOL    HW127914   1.315   1.927   9.062 -1.0300 -2.0083 -1.3807
 5427SOL    HW227915   1.361   1.929   8.920 -0.2758 -1.0267 -0.3793
 5428SOL     OW27916   2.279   1.022   3.686  0.0251  0.2016 -0.2560
 5428SOL    HW127917   2.367   1.037   3.652 -0.5342  2.9098 -0.5712
 5428SOL    HW227918   2.293   0.958   3.756 -1.0221  1.5704  1.2062
 5429SOL     OW27919   2.359   0.731  12.184  0.6272 -0.3327 -0.3422
 5429SOL    HW127920   2.351   0.686  12.268  1.7942 -0.2823 -0.1979
 5429SOL    HW227921   2.450   0.761  12.188  0.1249  1.1550 -0.1137
 5430SOL     OW27922   0.671   1.878   4.655 -0.0422  0.1909 -0.2867
 5430SOL    HW127923   0.639   1.895   4.567  2.1270 -1.6008 -1.4094
 5430SOL    HW227924   0.729   1.955   4.663  0.1252  0.0896 -0.5430
 5431SOL     OW27925   1.565   3.001   2.925 -0.3208  0.4383  0.5782
 5431SOL    HW127926   1.644   3.052   2.944 -0.2535 -0.5943  3.1080
 5431SOL    HW227927   1.587   2.914   2.892 -4.4265  0.1012 -1.3264
 5432SOL     OW27928   0.294   3.248   2.904 -0.1588 -0.3254  0.4791
 5432SOL    HW127929   0.371   3.302   2.921 -0.0816 -0.1995 -0.2619
 5432SOL    HW227930   0.236   3.272   2.976  2.2107  0.1627  2.2446
 5433SOL     OW27931   2.567   1.123   4.933  0.1089 -0.2102  0.3403
 5433SOL    HW127932   2.617   1.170   4.867 -1.2609  0.7987  0.0226
 5433SOL    HW227933   2.633   1.064   4.969  0.7942  1.0172  1.0881
 5434SOL     OW27934   1.005   0.838  16.255  0.1551  0.2966 -0.5223
 5434SOL    HW127935   0.940   0.822  16.187 -1.2747 -0.8637  1.0924
 5434SOL    HW227936   0.966   0.902  16.315  1.9781  0.6885  0.2538
 5435SOL     OW27937   1.259   4.327  15.534 -0.2696  0.1862 -0.4574
 5435SOL    HW127938   1.164   4.317  15.525 -0.4201  2.4458 -1.4071
 5435SOL    HW227939   1.272   4.411  15.491 -0.7679  1.2609  1.4700
 5436SOL     OW27940   4.105   3.668  12.551  0.1389 -0.2517  0.0724
 5436SOL    HW127941   4.051   3.693  12.627 -1.0288 -0.1942 -0.7749
 5436SOL    HW227942   4.114   3.573  12.563  0.3152 -0.4556 -1.7204
 5437SOL     OW27943   0.783   2.959   2.396 -0.2858 -0.1089 -0.9173
 5437SOL    HW127944   0.697   3.002   2.393  0.3182  1.1471 -0.0532
 5437SOL    HW227945   0.845   3.030   2.380 -0.0642 -0.0151  0.3642
 5438SOL     OW27946   4.377   0.076   1.610 -0.0983 -0.0082 -0.5479
 5438SOL    HW127947   4.334   0.144   1.662  0.0757 -1.0345  0.9286
 5438SOL    HW227948   4.303   0.037   1.563 -0.4492 -0.1951  0.1707
 5439SOL     OW27949   2.777   4.352   6.046 -0.1341 -0.2240 -0.2291
 5439SOL    HW127950   2.859   4.397   6.026 -0.5012  1.1814  1.5683
 5439SOL    HW227951   2.790   4.278   5.986 -0.1746 -1.5809  1.4494
 5440SOL     OW27952   2.118   1.712   9.166  0.1743 -0.0724 -0.2049
 5440SOL    HW127953   2.046   1.650   9.150  0.4386 -0.1658 -1.0481
 5440SOL    HW227954   2.174   1.668   9.230 -1.3329 -5.3047 -2.4691
 5441SOL     OW27955   0.050   0.662   7.197 -0.1700  0.2731 -0.0638
 5441SOL    HW127956   0.040   0.680   7.103 -2.2423 -0.7513 -0.0382
 5441SOL    HW227957   0.085   0.747   7.221  1.0390 -0.1459 -0.3700
 5442SOL     OW27958   3.339   2.019   7.428  0.7022  0.6920 -0.3770
 5442SOL    HW127959   3.383   1.966   7.362  1.5901  0.7023  0.2091
 5442SOL    HW227960   3.289   1.951   7.474  0.2653  1.7782  0.7546
 5443SOL     OW27961   2.605   0.018   9.623 -0.0232  0.1311  0.4661
 5443SOL    HW127962   2.568   4.723   9.539 -0.6443 -0.7563  1.0289
 5443SOL    HW227963   2.543   0.080   9.661  0.6992  0.6946  0.7252
 5444SOL     OW27964   2.276   4.201   7.482 -0.0191 -0.1201 -0.3675
 5444SOL    HW127965   2.274   4.151   7.563 -0.1068  0.6219  0.0940
 5444SOL    HW227966   2.186   4.232   7.483  0.6582  1.8796  0.7302
 5445SOL     OW27967   3.348   1.755   9.080 -0.4369  0.1076  0.0864
 5445SOL    HW127968   3.382   1.716   9.160  1.5955 -0.6420 -1.1462
 5445SOL    HW227969   3.409   1.733   9.009  0.4038  0.4444  0.7117
 5446SOL     OW27970   3.912   3.785   2.079  0.1331 -0.6673 -0.3521
 5446SOL    HW127971   3.841   3.761   2.139 -1.4035 -1.7477 -2.5859
 5446SOL    HW227972   3.978   3.824   2.136 -1.3606 -0.3486  1.2044
 5447SOL     OW27973   3.940   0.090  16.628 -0.1847 -0.6890 -0.5708
 5447SOL    HW127974   4.003   0.109  16.698 -0.5210  0.1656 -0.5024
 5447SOL    HW227975   3.871   0.046  16.677  0.2521  0.1487  0.7917
 5448SOL     OW27976   1.219   1.743  15.372 -0.0423 -0.1078  0.3628
 5448SOL    HW127977   1.275   1.780  15.304  0.0411  1.4884  1.2993
 5448SOL    HW227978   1.189   1.661  15.333 -1.6031  0.2992  0.6919
 5449SOL     OW27979   0.056   2.859   0.361  0.2572 -0.6228 -0.3248
 5449SOL    HW127980   0.033   2.892   0.274  1.5319 -0.1701 -0.4987
 5449SOL    HW227981   0.109   2.787   0.326 -0.0493 -1.6191  1.2706
 5450SOL     OW27982   2.879   4.357   4.774 -0.5918  0.1772  0.3894
 5450SOL    HW127983   2.786   4.338   4.792 -0.9894 -1.4462 -3.4497
 5450SOL    HW227984   2.922   4.282   4.816 -1.7633  0.4317  2.0613
 5451SOL     OW27985   4.181   2.146  15.225 -0.0693 -0.0217  0.5522
 5451SOL    HW127986   4.241   2.109  15.161 -0.1544  0.6661  0.0768
 5451SOL    HW227987   4.236   2.132  15.302  0.4307 -1.0729 -0.0017
 5452SOL     OW27988   2.107   3.366  17.371 -0.4345  0.2342 -0.0058
 5452SOL    HW127989   2.195   3.336  17.346  0.2716 -0.4262  3.2385
 5452SOL    HW227990   2.070   3.390  17.286  1.2400  3.3178  0.1276
 5453SOL     OW27991   1.296   1.442   3.227  0.2922 -0.2624 -0.0568
 5453SOL    HW127992   1.201   1.454   3.237  0.1741 -0.0348 -1.5975
 5453SOL    HW227993   1.297   1.351   3.197  0.3820 -0.0759 -0.6045
 5454SOL     OW27994   3.065   3.187  12.336  0.1355  0.4538  0.1838
 5454SOL    HW127995   3.118   3.210  12.412 -0.8042 -0.2536  1.0564
 5454SOL    HW227996   3.124   3.195  12.261 -0.7638  1.4804 -0.4233
 5455SOL     OW27997   1.399   1.227   0.503  0.4811  0.1288 -0.3318
 5455SOL    HW127998   1.424   1.222   0.410 -0.2843 -0.9823 -0.4691
 5455SOL    HW227999   1.333   1.159   0.493  0.4870 -0.1963  1.8275
 5456SOL     OW28000   3.233   0.657  15.019  0.1308  0.0234 -0.0845
 5456SOL    HW128001   3.295   0.584  15.008  0.8249  0.5141  0.5914
 5456SOL    HW228002   3.176   0.641  14.944 -0.3172 -1.1442  0.5028
 5457SOL     OW28003   1.100   3.086  14.920 -0.6144  0.2627  0.6485
 5457SOL    HW128004   1.067   3.011  14.969  2.7353 -0.9617  1.0406
 5457SOL    HW228005   1.179   3.109  14.968  1.0989 -3.0756 -0.5438
 5458SOL     OW28006   2.172   1.354   9.814  0.1368  0.2157 -0.4546
 5458SOL    HW128007   2.109   1.291   9.779  0.3703  0.3337 -1.0714
 5458SOL    HW228008   2.255   1.309   9.828 -0.5412 -0.4330  1.5647
 5459SOL     OW28009   2.023   2.538   1.814  0.1633 -0.2338 -0.0674
 5459SOL    HW128010   2.059   2.451   1.826  2.5452  0.3900 -2.6233
 5459SOL    HW228011   2.083   2.570   1.747 -1.6989  2.6066 -0.4182
 5460SOL     OW28012   4.074   1.653   4.952  0.1701 -0.0725  0.0595
 5460SOL    HW128013   4.140   1.721   4.962 -0.5860  0.9917 -2.1237
 5460SOL    HW228014   3.997   1.702   4.923  1.2221  1.3564 -0.3221
 5461SOL     OW28015   4.120   4.079   5.369 -0.5582 -0.3101  0.3170
 5461SOL    HW128016   4.042   4.130   5.346 -0.7860  0.6589  3.3668
 5461SOL    HW228017   4.139   4.099   5.460  1.4916  2.1008 -0.6565
 5462SOL     OW28018   0.837   2.235   4.350 -0.4635  0.1112  0.0767
 5462SOL    HW128019   0.898   2.179   4.301 -0.8448 -0.8636  0.7054
 5462SOL    HW228020   0.850   2.318   4.305 -0.7750  1.1803  1.9808
 5463SOL     OW28021   4.406   3.631   0.665 -0.4260  0.8148 -0.3667
 5463SOL    HW128022   4.441   3.683   0.593  3.2090 -0.1122  0.7003
 5463SOL    HW228023   4.414   3.543   0.628 -4.3692  0.3051  0.0156
 5464SOL     OW28024   0.572   4.042   0.288 -0.3017  0.1590 -0.6280
 5464SOL    HW128025   0.603   4.066   0.200 -3.0584 -0.7696 -1.8802
 5464SOL    HW228026   0.560   3.947   0.281 -0.6289  0.3152 -2.1783
 5465SOL     OW28027   2.490   2.017   7.665  0.0718 -0.1541  0.0548
 5465SOL    HW128028   2.476   2.071   7.588 -3.9549 -1.2500  0.0019
 5465SOL    HW228029   2.486   1.928   7.629 -0.0227 -0.3202  0.4634
 5466SOL     OW28030   2.155   0.660  11.001 -0.4147 -0.0715  0.6595
 5466SOL    HW128031   2.209   0.608  11.060 -1.6549 -0.8055  1.1544
 5466SOL    HW228032   2.197   0.746  11.007 -1.3098  0.3866  0.3971
 5467SOL     OW28033   0.892   2.994   2.950 -0.4727 -0.2010  0.1893
 5467SOL    HW128034   0.833   3.039   2.888 -0.1858 -0.4090 -0.2342
 5467SOL    HW228035   0.972   2.994   2.898 -0.4057 -1.1608  0.2979
 5468SOL     OW28036   3.538   3.740  13.531  0.2222  0.8884 -0.1586
 5468SOL    HW128037   3.536   3.676  13.461 -1.1209  0.5482  0.1930
 5468SOL    HW228038   3.603   3.802  13.499  2.1709 -2.0951 -1.9653
 5469SOL     OW28039   0.600   0.283   9.330  0.4431 -0.4770 -0.1459
 5469SOL    HW128040   0.694   0.283   9.315  0.5622 -0.8514  0.6197
 5469SOL    HW228041   0.577   0.197   9.294 -1.8921 -0.0339  0.2699
 5470SOL     OW28042   4.068   0.658   2.939 -0.0835 -0.4703  0.2331
 5470SOL    HW128043   4.145   0.707   2.968 -0.4027  0.9819 -1.3833
 5470SOL    HW228044   4.108   0.572   2.927 -0.5397 -0.7315  0.5852
 5471SOL     OW28045   1.169   4.437   9.764 -0.3040 -0.1960 -0.2716
 5471SOL    HW128046   1.111   4.474   9.698 -0.2912  0.3455  0.0164
 5471SOL    HW228047   1.210   4.369   9.711  3.2211  0.9968  0.9065
 5472SOL     OW28048   0.268   1.793   6.164  0.2527 -0.0201 -0.5961
 5472SOL    HW128049   0.314   1.730   6.221  0.0094  1.4643  1.2160
 5472SOL    HW228050   0.173   1.791   6.176  0.4471  0.1060  1.0091
 5473SOL     OW28051   1.135   1.092   3.426 -0.7975  0.2647  0.5479
 5473SOL    HW128052   1.063   1.145   3.461 -2.2295 -1.0132 -0.4564
 5473SOL    HW228053   1.091   1.032   3.366  1.3945 -1.0660  0.2900
 5474SOL     OW28054   2.467   3.308   3.657  0.1091  0.6032  0.3564
 5474SOL    HW128055   2.506   3.308   3.745  1.0774  1.6782 -0.0707
 5474SOL    HW228056   2.442   3.216   3.656 -0.8543  0.8732 -0.2204
 5475SOL     OW28057   0.596   2.788   5.984 -0.1015 -0.6515  0.3247
 5475SOL    HW128058   0.647   2.868   5.987 -1.6655  0.3495  0.3578
 5475SOL    HW228059   0.586   2.762   6.076 -1.1808  0.9826  0.6627
 5476SOL     OW28060   4.342   1.634   8.432 -0.5707  0.0145  0.5249
 5476SOL    HW128061   4.434   1.641   8.405  0.1564 -1.1415  2.6195
 5476SOL    HW228062   4.322   1.552   8.387  3.0077 -1.0992  0.9765
 5477SOL     OW28063   1.872   1.137   3.022  0.4928 -0.2906 -0.2322
 5477SOL    HW128064   1.942   1.201   3.030  0.0218  0.1134  0.5872
 5477SOL    HW228065   1.922   1.059   3.046  1.1511  0.7201  1.6276
 5478SOL     OW28066   4.400   1.686   6.343  0.4046 -0.0342  0.6126
 5478SOL    HW128067   4.486   1.688   6.301 -0.3828  0.8175 -1.0001
 5478SOL    HW228068   4.381   1.780   6.351  0.8973 -0.0369  1.8535
 5479SOL     OW28069   2.793   3.802   9.361  0.4040 -0.3541 -0.4358
 5479SOL    HW128070   2.761   3.861   9.293  0.9098  1.0946  0.5708
 5479SOL    HW228071   2.887   3.818   9.354  0.5524 -0.5688  1.0534
 5480SOL     OW28072   3.109   2.472  11.025 -0.4563 -0.2959  0.6465
 5480SOL    HW128073   3.042   2.497  10.962 -0.7661 -0.8925  0.7390
 5480SOL    HW228074   3.079   2.503  11.110  2.3189  1.6730  0.9009
 5481SOL     OW28075   4.613   0.525   4.678  0.1965 -0.4387 -0.1481
 5481SOL    HW128076   4.637   0.500   4.589  0.0471  1.1668 -0.6450
 5481SOL    HW228077   4.667   0.472   4.736  1.1369  0.0100 -0.6145
 5482SOL     OW28078   4.571   1.105  12.312 -0.8567 -0.0210 -0.1255
 5482SOL    HW128079   4.533   1.191  12.295 -0.9699 -0.7176 -3.4960
 5482SOL    HW228080   4.629   1.091  12.237 -3.1613 -1.3619 -1.6474
 5483SOL     OW28081   0.904   0.324   7.626  0.4184 -0.3783  0.4077
 5483SOL    HW128082   0.906   0.391   7.695  1.8112 -1.1272  1.1053
 5483SOL    HW228083   0.974   0.262   7.646  1.5732 -0.7252 -4.8152
 5484SOL     OW28084   0.386   0.937   7.988  0.3139  0.1726 -0.8166
 5484SOL    HW128085   0.347   0.866   8.040 -1.6866  1.2495 -0.8415
 5484SOL    HW228086   0.433   0.887   7.921  3.5751  1.5794  0.4333
 5485SOL     OW28087   0.948   4.696   7.487 -0.1109  0.0529  0.1754
 5485SOL    HW128088   0.863   4.701   7.530  1.1428  1.0697  2.5419
 5485SOL    HW228089   1.003   0.010   7.549  0.5581  1.7692 -1.7039
 5486SOL     OW28090   2.939   0.764  13.258 -0.3741  0.3086  0.1559
 5486SOL    HW128091   3.007   0.786  13.321  0.4282 -0.9094 -0.2795
 5486SOL    HW228092   2.968   0.694  13.198  1.4482 -0.7194  2.2785
 5487SOL     OW28093   2.015   1.178   5.124  0.4665 -0.0589 -0.1644
 5487SOL    HW128094   2.093   1.234   5.131  0.4121  0.1228 -0.9372
 5487SOL    HW228095   2.044   1.088   5.137 -2.0658 -0.7623  0.5673
 5488SOL     OW28096   2.110   0.714  13.121 -0.0369 -0.3143 -0.5059
 5488SOL    HW128097   2.110   0.809  13.130  0.9619 -0.4647  1.1475
 5488SOL    HW228098   2.153   0.695  13.037 -0.3030 -2.2182 -0.2119
 5489SOL     OW28099   2.097   1.438   7.321  0.3342 -0.9467  0.0903
 5489SOL    HW128100   2.017   1.481   7.292  0.9446  0.6455  0.7844
 5489SOL    HW228101   2.174   1.485   7.291  0.3048 -0.1503  1.2796
 5490SOL     OW28102   4.149   1.353  15.328  0.1175  0.0294  0.5957
 5490SOL    HW128103   4.168   1.325  15.417  0.6695  0.5233  0.6387
 5490SOL    HW228104   4.075   1.412  15.338 -0.6527 -0.4393 -2.2362
 5491SOL     OW28105   4.225   2.626   4.810  0.7503  0.3285 -0.1485
 5491SOL    HW128106   4.289   2.639   4.880  0.8729  1.0786 -0.4004
 5491SOL    HW228107   4.260   2.700   4.759  0.4620  1.3665  1.1536
 5492SOL     OW28108   0.895   3.566   6.702  0.5568 -0.2041 -0.0382
 5492SOL    HW128109   0.879   3.605   6.616 -0.6182 -0.2869  0.1434
 5492SOL    HW228110   0.985   3.533   6.703  1.2670  1.7043 -0.7983
 5493SOL     OW28111   4.023   1.880   7.499 -0.2410  0.0638  0.4194
 5493SOL    HW128112   4.061   1.954   7.451 -1.6815  0.1137 -0.6342
 5493SOL    HW228113   4.093   1.846   7.554 -1.1141 -0.7407  1.0369
 5494SOL     OW28114   3.206   1.529  16.947 -0.4012 -0.0545 -0.3306
 5494SOL    HW128115   3.244   1.531  17.035  0.8129 -0.6801 -0.8390
 5494SOL    HW228116   3.113   1.510  16.960 -0.7046  1.5426 -0.1821
 5495SOL     OW28117   2.487   2.196   6.900 -0.0870 -0.1448 -0.1218
 5495SOL    HW128118   2.470   2.287   6.876  2.3915  0.9830  2.3904
 5495SOL    HW228119   2.579   2.186   6.874  0.0919 -1.2031  0.9036
 5496SOL     OW28120   2.791   3.614   8.224  0.3579  0.2403  0.1709
 5496SOL    HW128121   2.874   3.620   8.271 -1.2326 -0.5061  3.1071
 5496SOL    HW228122   2.819   3.559   8.151  1.6646  1.1516 -0.0312
 5497SOL     OW28123   3.257   1.587   7.170 -0.0985  0.1231  0.4548
 5497SOL    HW128124   3.217   1.664   7.131  2.5200  0.2058 -2.1000
 5497SOL    HW228125   3.319   1.635   7.225  1.8297  0.2882 -1.8592
 5498SOL     OW28126   4.690   3.658   4.943 -0.1039  0.2106  0.5281
 5498SOL    HW128127   4.676   3.584   5.003 -3.9062 -1.3955 -2.3590
 5498SOL    HW228128   4.678   3.620   4.857 -0.1370 -0.9250  1.0358
 5499SOL     OW28129   3.016   4.100   2.696 -0.6630  0.2452  0.1968
 5499SOL    HW128130   3.072   4.167   2.656  0.9047 -1.1704  0.0294
 5499SOL    HW228131   2.985   4.049   2.621  0.0040  1.6799 -1.0813
 5500SOL     OW28132   4.496   3.006   5.432  0.0271 -0.1685 -0.5721
 5500SOL    HW128133   4.470   2.917   5.455 -0.0055 -0.5472 -2.0520
 5500SOL    HW228134   4.410   3.050   5.430  0.5854  1.0358  2.1407
 5501SOL     OW28135   0.060   4.466  14.196  0.0158  0.0888  0.5926
 5501SOL    HW128136   0.043   4.558  14.214  0.7363  0.5453 -1.1248
 5501SOL    HW228137   0.126   4.471  14.127  0.5066  4.1962  1.3611
 5502SOL     OW28138   0.367   2.060   2.146 -0.0351  0.1150  0.5664
 5502SOL    HW128139   0.333   2.079   2.233 -0.0430  3.0541 -0.0897
 5502SOL    HW228140   0.427   1.988   2.166  0.0467 -0.0197 -0.1544
 5503SOL     OW28141   3.142   1.241  13.659 -0.4734  0.3774 -0.3013
 5503SOL    HW128142   3.226   1.245  13.704  0.0827  0.5732 -1.3589
 5503SOL    HW228143   3.115   1.155  13.692 -0.3602  1.0904  1.6562
 5504SOL     OW28144   3.330   0.469   7.565 -0.2998  0.1351  0.1254
 5504SOL    HW128145   3.331   0.420   7.482 -3.1888  0.2932 -0.0098
 5504SOL    HW228146   3.283   0.404   7.617  0.0272  1.2017  1.7516
 5505SOL     OW28147   4.172   2.794   7.118  0.5069 -0.4148  0.2445
 5505SOL    HW128148   4.263   2.809   7.144  0.6525 -0.1160 -0.4380
 5505SOL    HW228149   4.129   2.868   7.162  3.0688  3.0098 -2.9703
 5506SOL     OW28150   3.915   0.071   2.496 -0.0786  0.6886  0.2145
 5506SOL    HW128151   3.986   0.036   2.550 -1.2486 -1.1581  0.5374
 5506SOL    HW228152   3.845   0.009   2.515  0.3993  0.2738  0.6390
 5507SOL     OW28153   2.051   3.831   4.518 -0.1227  0.2836  0.3468
 5507SOL    HW128154   1.970   3.882   4.527  0.1073  0.6611  0.2567
 5507SOL    HW228155   2.019   3.747   4.552 -0.8744  1.0891  1.6309
 5508SOL     OW28156   3.042   2.379   3.028 -0.3817 -0.6104  0.3872
 5508SOL    HW128157   3.066   2.343   2.942  0.1752  0.2499  0.1797
 5508SOL    HW228158   2.947   2.383   3.032 -0.3774 -0.5504  0.4258
 5509SOL     OW28159   0.046   4.659   6.762  0.3169 -0.0222  0.0449
 5509SOL    HW128160   4.724   4.631   6.836 -0.8942  0.7098 -0.5729
 5509SOL    HW228161   0.126   4.672   6.813  0.7680 -0.2846 -0.5935
 5510SOL     OW28162   3.141   0.709   1.603 -0.4607 -0.1121 -0.4074
 5510SOL    HW128163   3.132   0.791   1.554  1.1807  0.0201 -0.5136
 5510SOL    HW228164   3.230   0.681   1.579 -0.4086 -0.5954  0.3658
 5511SOL     OW28165   2.916   0.277  10.627 -0.4906  0.5139  0.0898
 5511SOL    HW128166   2.918   0.203  10.688 -1.4904  0.3217 -0.1033
 5511SOL    HW228167   2.950   0.345  10.685  1.4741  1.1074 -1.7617
 5512SOL     OW28168   3.049   1.701   0.896 -0.2241 -0.6242 -0.2300
 5512SOL    HW128169   3.075   1.743   0.978  1.4051 -0.6220 -0.7599
 5512SOL    HW228170   3.009   1.622   0.934  0.1965 -0.7594 -0.0732
 5513SOL     OW28171   1.258   3.373  11.411  0.2717 -0.4067  0.2589
 5513SOL    HW128172   1.187   3.389  11.350  0.8026 -0.0836 -0.2785
 5513SOL    HW228173   1.290   3.288  11.380  1.4093  0.0600  0.1534
 5514SOL     OW28174   2.651   0.586   1.042 -0.1759  0.1868  0.4879
 5514SOL    HW128175   2.741   0.576   1.072 -0.7993  0.0782  2.3083
 5514SOL    HW228176   2.626   0.496   1.023  0.4174 -0.5408  3.1196
 5515SOL     OW28177   3.563   4.672  15.356 -0.4556  0.1766  0.3346
 5515SOL    HW128178   3.563   0.018  15.301 -1.1378 -0.7915 -1.0618
 5515SOL    HW228179   3.654   4.684  15.385 -0.8922 -1.3919  2.3188
 5516SOL     OW28180   2.014   0.048  12.897  0.5403 -0.2833 -0.2342
 5516SOL    HW128181   2.032   4.690  12.871  0.1774 -0.0921 -1.1451
 5516SOL    HW228182   2.090   0.087  12.854 -0.7760  1.8423 -0.6702
 5517SOL     OW28183   3.014   4.488   9.230  0.5619  0.3432 -0.4765
 5517SOL    HW128184   2.929   4.531   9.230  0.4765  0.1751 -3.5595
 5517SOL    HW228185   3.050   4.513   9.315  0.3214  1.4991 -0.7043
 5518SOL     OW28186   1.043   3.492   4.742 -0.0795 -0.4439 -0.0116
 5518SOL    HW128187   1.124   3.520   4.784 -0.9473  0.9210  0.7616
 5518SOL    HW228188   1.038   3.541   4.660  2.4259  1.7293  1.1137
 5519SOL     OW28189   0.399   3.615   0.358 -0.4070  0.2481  0.4474
 5519SOL    HW128190   0.342   3.552   0.315  0.3834 -1.0893  1.3730
 5519SOL    HW228191   0.417   3.583   0.446  1.3781 -0.3121 -0.1258
 5520SOL     OW28192   4.006   2.118   8.218  0.0799 -0.5953  0.1952
 5520SOL    HW128193   3.944   2.152   8.283 -2.6209 -0.9503 -2.2058
 5520SOL    HW228194   4.034   2.192   8.164  0.1196  0.4073  1.5856
 5521SOL     OW28195   3.902   0.906   3.779  0.6466 -0.1494 -0.3077
 5521SOL    HW128196   3.929   0.998   3.781 -0.5989  0.2314 -1.2135
 5521SOL    HW228197   3.984   0.858   3.791  0.3510 -0.1395  1.8456
 5522SOL     OW28198   2.572   0.961   8.246  0.3043  0.2587  0.2579
 5522SOL    HW128199   2.555   1.052   8.273  0.0788  0.5771 -0.9241
 5522SOL    HW228200   2.631   0.929   8.314  1.8591 -0.3137 -1.3382
 5523SOL     OW28201   4.415   3.044   7.931  0.4417 -0.9948  0.3625
 5523SOL    HW128202   4.424   2.949   7.921  2.6517 -0.4471 -2.9318
 5523SOL    HW228203   4.505   3.067   7.909 -0.4122  0.5856 -1.5270
 5524SOL     OW28204   3.629   0.648   1.416 -0.0851  0.0891 -0.3192
 5524SOL    HW128205   3.584   0.594   1.350 -0.9744 -0.7548  0.9692
 5524SOL    HW228206   3.556   0.681   1.468  0.8577 -0.2640  1.2344
 5525SOL     OW28207   2.346   3.107   6.478  0.0886  0.6568  0.0724
 5525SOL    HW128208   2.291   3.128   6.402 -1.5919 -1.9176  0.5950
 5525SOL    HW228209   2.285   3.057   6.532 -1.8353 -0.3446 -3.0862
 5526SOL     OW28210   2.667   0.171   2.478  0.0357  0.1858  0.1401
 5526SOL    HW128211   2.586   0.219   2.467  0.8770  1.4002 -0.7293
 5526SOL    HW228212   2.649   0.093   2.425 -1.6495 -1.4172  3.1263
 5527SOL     OW28213   2.567   2.104   3.723 -0.1598  0.1950  0.1334
 5527SOL    HW128214   2.492   2.080   3.670 -1.0195  1.7844  0.6206
 5527SOL    HW228215   2.554   2.199   3.725  1.2596  0.3703  1.1629
 5528SOL     OW28216   1.622   0.129   6.877  0.2507 -0.3873 -0.2127
 5528SOL    HW128217   1.637   0.106   6.969 -0.8546 -0.4609 -0.0540
 5528SOL    HW228218   1.527   0.131   6.878  0.2551  0.1509 -1.6342
 5529SOL     OW28219   4.715   0.748   7.952 -0.2015  0.0804  0.3011
 5529SOL    HW128220   4.728   0.709   7.866  1.7597  3.1243 -0.7836
 5529SOL    HW228221   4.640   0.801   7.926  0.4052  0.1590 -1.2823
 5530SOL     OW28222   4.295   1.334   8.931 -0.6637  0.1843 -0.2469
 5530SOL    HW128223   4.262   1.255   8.974 -1.2030  0.5920  0.0990
 5530SOL    HW228224   4.282   1.298   8.844 -1.7791 -4.5269  1.8908
 5531SOL     OW28225   0.860   0.774   1.008 -0.2205  0.1413  0.0828
 5531SOL    HW128226   0.778   0.783   1.056 -0.6442  0.3364 -0.6754
 5531SOL    HW228227   0.918   0.766   1.084 -1.8390  2.5762  1.5624
 5532SOL     OW28228   3.830   1.049  10.643  0.0981 -0.2836  0.3094
 5532SOL    HW128229   3.740   1.082  10.636 -0.1837 -1.8599 -3.3630
 5532SOL    HW228230   3.822   1.011  10.731 -1.0607  0.8253  0.6909
 5533SOL     OW28231   3.418   1.360   3.410 -0.4318  0.3461  0.2783
 5533SOL    HW128232   3.464   1.394   3.333 -1.2927  1.6169  0.3299
 5533SOL    HW228233   3.374   1.438   3.445 -0.4376 -0.7833  2.8105
 5534SOL     OW28234   3.617   3.583  16.966  0.3459 -0.0466  0.7476
 5534SOL    HW128235   3.689   3.605  16.908 -1.1420  1.0561 -0.6785
 5534SOL    HW228236   3.631   3.489  16.955  1.0369  0.5041 -2.9232
 5535SOL     OW28237   1.060   0.876   4.935 -0.0991  0.0513 -0.7308
 5535SOL    HW128238   1.113   0.945   4.975 -0.5119 -0.6640  1.0181
 5535SOL    HW228239   1.010   0.924   4.868  0.2653  0.3631 -0.7784
 5536SOL     OW28240   3.302   3.122  11.247 -0.0272 -0.1022  0.3694
 5536SOL    HW128241   3.307   3.079  11.332 -0.6023  0.7413  0.8327
 5536SOL    HW228242   3.389   3.091  11.223 -0.4516 -2.9207  2.5900
 5537SOL     OW28243   4.385   2.459   7.629 -0.3334 -0.4728 -0.1171
 5537SOL    HW128244   4.436   2.523   7.580 -0.2382 -0.5898 -0.1707
 5537SOL    HW228245   4.445   2.400   7.676  1.0764  1.1654  0.1342
 5538SOL     OW28246   4.391   1.635  17.579  0.1490  0.3705 -0.1472
 5538SOL    HW128247   4.356   1.568  17.638  1.0289  1.3316  1.4775
 5538SOL    HW228248   4.439   1.695  17.636 -0.2089 -0.2031  0.7787
 5539SOL     OW28249   1.573   0.386   0.589  0.2689 -0.1680 -0.3198
 5539SOL    HW128250   1.492   0.416   0.548  0.0756  0.0139  0.1974
 5539SOL    HW228251   1.551   0.319   0.654  2.4121 -1.0214 -0.4771
 5540SOL     OW28252   2.642   3.231  15.122  0.0425 -0.0284  0.0693
 5540SOL    HW128253   2.708   3.286  15.080  0.0265  0.5686  0.8056
 5540SOL    HW228254   2.614   3.287  15.195  1.3643  0.4306  0.2206
 5541SOL     OW28255   4.179   1.808   6.778  0.2520  0.5490  0.3772
 5541SOL    HW128256   4.190   1.875   6.711 -1.4587 -0.4637 -0.9034
 5541SOL    HW228257   4.255   1.753   6.760  0.4589  0.8232  0.4213
 5542SOL     OW28258   4.052   3.457  10.775  0.2511  0.6071  0.3340
 5542SOL    HW128259   4.128   3.447  10.833  0.7074 -0.7609 -0.4975
 5542SOL    HW228260   4.047   3.553  10.774 -1.4244  0.5079 -1.3638
 5543SOL     OW28261   1.241   1.674   2.466 -0.5862  0.0635  0.2261
 5543SOL    HW128262   1.267   1.596   2.418 -0.9150  1.0877 -1.5933
 5543SOL    HW228263   1.280   1.745   2.415  0.0417 -1.3942 -1.3310
 5544SOL     OW28264   2.398   4.714  16.864 -0.4189  0.1206  0.3095
 5544SOL    HW128265   2.308   4.685  16.852  0.5631 -3.3690  1.3315
 5544SOL    HW228266   2.417   4.677  16.950  0.7363  1.4039  0.6038
 5545SOL     OW28267   2.202   0.908   2.473  0.7283  0.1874  0.4465
 5545SOL    HW128268   2.200   1.003   2.489  1.1683  0.4898 -1.2744
 5545SOL    HW228269   2.119   0.888   2.517  1.8800 -1.2389  1.9689
 5546SOL     OW28270   0.306   0.171   8.278  0.4586  0.2190 -0.7440
 5546SOL    HW128271   0.274   0.212   8.359 -0.2327 -2.0247  0.1266
 5546SOL    HW228272   0.401   0.171   8.294  0.2970 -3.6776  0.1613
 5547SOL     OW28273   1.111   3.746   4.805  0.4659  0.0286 -0.1066
 5547SOL    HW128274   1.040   3.809   4.819 -0.5049 -0.9511 -0.6302
 5547SOL    HW228275   1.092   3.737   4.711  1.1122 -2.1364 -0.0353
 5548SOL     OW28276   1.004   0.211   1.811 -0.5706  0.0451 -0.6145
 5548SOL    HW128277   0.942   0.139   1.803 -2.4201  1.6827 -0.7271
 5548SOL    HW228278   0.944   0.284   1.824  0.3985  0.3078  2.4990
 5549SOL     OW28279   1.037   3.476   4.081 -0.2535 -0.3591 -0.5995
 5549SOL    HW128280   1.049   3.562   4.041  0.0110  1.0480  2.4861
 5549SOL    HW228281   0.951   3.486   4.121 -0.7981  0.1977 -1.9400
 5550SOL     OW28282   3.355   0.129   5.354 -0.0457 -0.2808 -0.5289
 5550SOL    HW128283   3.325   0.218   5.336  1.6940 -0.0301 -2.0644
 5550SOL    HW228284   3.273   0.086   5.381  1.0362 -0.1258  3.0338
 5551SOL     OW28285   0.326   3.071   6.939  0.1499 -0.0297 -0.3753
 5551SOL    HW128286   0.289   3.140   6.884  0.3807 -0.3080 -0.8803
 5551SOL    HW228287   0.254   3.050   6.998  0.3269  0.1116 -0.1071
 5552SOL     OW28288   2.534   4.353   4.713  0.0032  0.0930  0.2098
 5552SOL    HW128289   2.516   4.410   4.788 -0.2959  1.7188 -1.1086
 5552SOL    HW228290   2.555   4.418   4.647 -1.8853  1.1387  0.6185
 5553SOL     OW28291   4.266   3.789   7.402  0.3714 -0.3670 -0.5072
 5553SOL    HW128292   4.320   3.747   7.468  1.4292  0.2809 -0.9725
 5553SOL    HW228293   4.228   3.862   7.450  0.1692 -0.9569  0.2277
 5554SOL     OW28294   1.589   2.201   4.581  0.6139  0.2300 -0.1686
 5554SOL    HW128295   1.498   2.176   4.600 -0.5587  1.1371 -4.4214
 5554SOL    HW228296   1.590   2.158   4.496  0.1470 -0.5274  0.2139
 5555SOL     OW28297   1.501   0.713   8.611 -0.2833  1.0089  0.4775
 5555SOL    HW128298   1.590   0.700   8.644 -0.9669 -1.8686  1.1566
 5555SOL    HW228299   1.448   0.670   8.678 -1.4130  0.0843 -1.0224
 5556SOL     OW28300   1.911   4.639   9.396  0.2137  0.1131  0.4000
 5556SOL    HW128301   1.866   4.598   9.470 -0.0621 -0.2115  0.0443
 5556SOL    HW228302   1.998   4.664   9.429  1.0142  0.3897 -1.9790
 5557SOL     OW28303   2.111   3.811   9.538 -0.3022  0.0775  0.3003
 5557SOL    HW128304   2.136   3.753   9.467 -1.1679  2.1500 -1.6994
 5557SOL    HW228305   2.160   3.890   9.514  0.2768 -0.0233  1.1286
 5558SOL     OW28306   1.821   3.330  12.472 -0.5851  0.0665  0.0911
 5558SOL    HW128307   1.778   3.332  12.386 -0.2695  0.1142 -0.0670
 5558SOL    HW228308   1.839   3.238  12.490  1.3079  0.2829 -0.7133
 5559SOL     OW28309   2.704   1.379   8.529 -0.1867  0.3573 -0.5886
 5559SOL    HW128310   2.773   1.427   8.483  1.2253 -0.7703  0.3492
 5559SOL    HW228311   2.695   1.300   8.477 -2.1093 -0.8504  1.5731
 5560SOL     OW28312   0.472   1.232   7.666 -0.0368 -0.1196 -1.0833
 5560SOL    HW128313   0.441   1.143   7.684  0.1193 -0.5288 -2.8374
 5560SOL    HW228314   0.566   1.216   7.671 -0.3540 -1.3774  1.1131
 5561SOL     OW28315   1.556   2.760   1.798 -0.0649  0.5156 -0.1772
 5561SOL    HW128316   1.607   2.810   1.734  2.3521  1.3817  2.3936
 5561SOL    HW228317   1.617   2.686   1.798 -0.4754  0.1802  0.8520
 5562SOL     OW28318   1.061   4.491   3.456  0.2592  0.4630 -0.2617
 5562SOL    HW128319   1.113   4.554   3.506 -0.5500  1.8879 -1.2175
 5562SOL    HW228320   1.010   4.551   3.401  0.0795  0.8552  0.3380
 5563SOL     OW28321   1.143   4.466  15.245 -0.1811 -0.1310 -0.2128
 5563SOL    HW128322   1.101   4.547  15.271 -2.7602 -1.5160 -0.0515
 5563SOL    HW228323   1.230   4.493  15.274  0.2587 -0.8024 -0.9072
 5564SOL     OW28324   2.913   0.579   2.672  0.2776  0.0559  0.2547
 5564SOL    HW128325   3.003   0.574   2.640 -0.3066  0.2870 -1.4716
 5564SOL    HW228326   2.912   0.515   2.743  2.2329 -0.6311 -0.3406
 5565SOL     OW28327   0.251   1.477  14.449 -0.4307 -0.1301 -0.2079
 5565SOL    HW128328   0.339   1.440  14.449 -0.0873  0.6906 -0.6223
 5565SOL    HW228329   0.202   1.455  14.528  0.8427  0.9400  0.8692
 5566SOL     OW28330   4.492   1.226   9.253  0.6374 -0.2007  0.2172
 5566SOL    HW128331   4.585   1.243   9.242  0.1138  1.6333 -1.4205
 5566SOL    HW228332   4.444   1.305   9.228  0.4344 -1.1823 -2.4686
 5567SOL     OW28333   4.629   3.718  13.901  0.2161 -0.4862 -1.0025
 5567SOL    HW128334   4.655   3.808  13.917  0.1298 -0.8303  1.0355
 5567SOL    HW228335   4.579   3.702  13.981 -0.0612 -0.7475 -1.2253
 5568SOL     OW28336   2.190   1.989   6.503 -0.3758 -0.2836 -0.1313
 5568SOL    HW128337   2.244   2.042   6.561  0.1245 -0.3189 -0.5637
 5568SOL    HW228338   2.182   2.053   6.432 -1.3964  0.1514  0.3688
 5569SOL     OW28339   1.573   0.619   7.155  0.3019 -0.1205 -0.0053
 5569SOL    HW128340   1.504   0.680   7.127  0.5751  0.0656 -0.2749
 5569SOL    HW228341   1.617   0.671   7.222  1.1048  0.0560 -0.6668
 5570SOL     OW28342   1.669   1.753  12.347 -0.3281 -0.2266 -0.0823
 5570SOL    HW128343   1.745   1.702  12.376  1.7137  0.6383 -3.8406
 5570SOL    HW228344   1.645   1.769  12.438  2.0313 -1.1191  0.7040
 5571SOL     OW28345   1.586   1.311   4.565  0.1110  0.0273 -0.1858
 5571SOL    HW128346   1.569   1.246   4.634  1.3438 -1.9705 -1.7840
 5571SOL    HW228347   1.496   1.331   4.539  0.2686  0.6705 -0.2369
 5572SOL     OW28348   2.793   0.489   8.313  0.6420 -0.1192 -0.3901
 5572SOL    HW128349   2.751   0.511   8.395  1.4675 -1.5252  0.4100
 5572SOL    HW228350   2.782   0.395   8.329 -0.3468 -0.1220 -1.1045
 5573SOL     OW28351   3.440   1.824  15.243  0.2865  0.6094 -0.0435
 5573SOL    HW128352   3.506   1.818  15.312  0.1443 -0.6210 -0.0251
 5573SOL    HW228353   3.467   1.901  15.192 -0.1738  0.9410  0.2167
 5574SOL     OW28354   2.267   0.504   6.783  0.0036  0.0124 -0.0444
 5574SOL    HW128355   2.322   0.545   6.716  0.8751 -0.3851  0.4385
 5574SOL    HW228356   2.295   0.413   6.775 -1.4485 -0.4695  0.4085
 5575SOL     OW28357   3.285   2.778   1.818 -0.1131 -0.2968 -0.3200
 5575SOL    HW128358   3.309   2.847   1.879 -0.0256  1.0123 -1.8457
 5575SOL    HW228359   3.281   2.822   1.733  1.3249  0.1884 -0.1296
 5576SOL     OW28360   2.749   1.508   1.954 -0.2217 -0.0282  0.2670
 5576SOL    HW128361   2.787   1.558   1.882  0.6240 -1.5329 -0.3208
 5576SOL    HW228362   2.782   1.552   2.032  1.9104  0.9854 -1.2007
 5577SOL     OW28363   1.098   3.199   6.739 -0.2257  0.2442  0.3364
 5577SOL    HW128364   1.112   3.106   6.720 -0.9970  0.0792  0.5795
 5577SOL    HW228365   1.006   3.197   6.765  0.1630  1.1121  1.7792
 5578SOL     OW28366   1.875   3.657   1.038 -0.2834  0.1401  0.5416
 5578SOL    HW128367   1.905   3.616   1.119 -0.3640 -1.6509 -0.3297
 5578SOL    HW228368   1.844   3.578   0.993  2.6188 -1.2763  1.0464
 5579SOL     OW28369   0.445   4.407   8.423  0.3291 -0.8979 -0.3825
 5579SOL    HW128370   0.443   4.344   8.495 -1.3617 -3.1761 -2.4370
 5579SOL    HW228371   0.493   4.356   8.357  1.8810  0.1770 -0.0944
 5580SOL     OW28372   1.314   2.239  17.534  0.2869 -0.3857 -0.0156
 5580SOL    HW128373   1.360   2.226  17.617  0.4150 -1.6193 -0.2782
 5580SOL    HW228374   1.238   2.184  17.548  0.3497 -1.2089 -2.7989
 5581SOL     OW28375   3.677   2.419   8.281 -0.5740  0.3611 -0.1859
 5581SOL    HW128376   3.668   2.382   8.368  1.1658  2.2349  0.7990
 5581SOL    HW228377   3.612   2.489   8.293 -1.4987 -0.4736 -0.2886
 5582SOL     OW28378   1.880   4.052   4.588  0.6559 -0.3716  0.1730
 5582SOL    HW128379   1.888   4.134   4.540 -1.1145 -0.7241 -0.7350
 5582SOL    HW228380   1.787   4.053   4.610  0.6972  1.7301  0.1994
 5583SOL     OW28381   1.845   2.279   2.948 -0.7467 -0.0497 -0.1448
 5583SOL    HW128382   1.927   2.329   2.950 -1.1612  0.6162  0.2816
 5583SOL    HW228383   1.866   2.208   2.887 -1.4365 -2.1431  2.0171
 5584SOL     OW28384   0.828   1.734   6.828 -0.1565  0.8495 -0.1966
 5584SOL    HW128385   0.773   1.798   6.782 -0.3811  1.0188  0.3085
 5584SOL    HW228386   0.829   1.771   6.916  0.4970 -0.1512  0.2106
 5585SOL     OW28387   3.895   1.643  16.413 -0.0796  0.2416 -0.1882
 5585SOL    HW128388   3.800   1.645  16.409  0.0378  4.1254 -0.5774
 5585SOL    HW228389   3.899   1.566  16.470 -0.5587 -0.9517 -1.7588
 5586SOL     OW28390   2.128   1.866   5.225 -0.6776 -0.2560  0.0165
 5586SOL    HW128391   2.217   1.880   5.193 -0.4143  0.7821  1.1961
 5586SOL    HW228392   2.080   1.870   5.143 -1.2536 -0.6778  0.3344
 5587SOL     OW28393   3.930   4.011   6.817 -0.0079  0.4146  0.1939
 5587SOL    HW128394   3.866   4.064   6.769  0.2183 -0.9650 -1.6108
 5587SOL    HW228395   3.868   3.972   6.878  0.3823 -0.7746 -0.1848
 5588SOL     OW28396   3.588   0.135   5.189  0.5201  0.7289 -0.6741
 5588SOL    HW128397   3.525   0.105   5.255  2.0570 -1.5655 -0.2570
 5588SOL    HW228398   3.664   0.107   5.240  0.0129 -0.2570 -0.4455
 5589SOL     OW28399   0.072   2.336   2.626 -0.0705  0.0043 -0.2945
 5589SOL    HW128400   0.006   2.378   2.571 -0.2911  0.6270  0.4517
 5589SOL    HW228401   0.138   2.325   2.557 -1.3928 -1.2999 -1.3295
 5590SOL     OW28402   1.201   2.919  12.020 -0.0095 -0.7496 -0.1443
 5590SOL    HW128403   1.137   2.904  11.951  0.9108  0.4906 -1.2544
 5590SOL    HW228404   1.228   3.010  12.007 -0.2920 -0.6560 -0.0848
 5591SOL     OW28405   3.716   0.412   4.984  0.9423  0.6790 -0.0843
 5591SOL    HW128406   3.698   0.404   4.890  0.1720 -0.2496  0.1451
 5591SOL    HW228407   3.770   0.335   5.002 -0.0881 -0.0466 -0.1211
 5592SOL     OW28408   4.335   0.836   9.613  0.5908 -0.4257 -0.2024
 5592SOL    HW128409   4.367   0.919   9.576 -0.2766 -0.9133 -1.9747
 5592SOL    HW228410   4.407   0.809   9.671  1.1534 -0.1450 -0.7644
 5593SOL     OW28411   2.701   2.522   6.959 -0.2916  0.5366 -0.1567
 5593SOL    HW128412   2.709   2.575   6.879  0.3573 -1.1987 -1.2527
 5593SOL    HW228413   2.762   2.449   6.946 -0.9025  0.1213 -0.7243
 5594SOL     OW28414   3.913   3.188   2.044  0.4872 -0.1158 -0.7109
 5594SOL    HW128415   3.946   3.137   1.970  0.8776 -1.2761  0.2665
 5594SOL    HW228416   3.865   3.263   2.009  0.7839  1.1876  1.6814
 5595SOL     OW28417   4.388   2.850   2.115 -0.0735  0.1616  1.0555
 5595SOL    HW128418   4.450   2.877   2.048 -1.2258  0.2121 -0.0004
 5595SOL    HW228419   4.317   2.912   2.096  1.3324  1.5018  0.2207
 5596SOL     OW28420   0.956   3.416   0.961 -0.4587  0.1592  0.3033
 5596SOL    HW128421   0.959   3.391   0.868 -2.3389 -0.3206  0.3693
 5596SOL    HW228422   1.014   3.357   1.009  2.1423  0.6283 -2.2290
 5597SOL     OW28423   2.334   3.570   3.852 -0.5586  0.0342 -0.1284
 5597SOL    HW128424   2.390   3.556   3.928 -0.4695  0.6929 -0.0761
 5597SOL    HW228425   2.392   3.612   3.788  0.3473 -1.0909 -0.0474
 5598SOL     OW28426   0.518   1.635  11.791 -0.6761 -0.0873 -0.3863
 5598SOL    HW128427   0.442   1.682  11.756  0.7134  2.8153  0.5529
 5598SOL    HW228428   0.592   1.691  11.770 -2.2311  2.3695  0.6250
 5599SOL     OW28429   0.241   2.592  17.487 -0.1082  0.5246  0.1955
 5599SOL    HW128430   0.247   2.529  17.559  0.1052 -0.0039 -0.2860
 5599SOL    HW228431   0.322   2.635  17.513  0.7039 -1.5565  1.1410
 5600SOL     OW28432   2.576   1.606   5.092 -0.1634 -0.2829 -0.7005
 5600SOL    HW128433   2.621   1.632   5.012  1.4511 -1.6834 -0.2715
 5600SOL    HW228434   2.549   1.514   5.089  1.1851 -0.6259 -2.2942
 5601SOL     OW28435   1.714   4.581   7.755 -0.3657 -0.1910 -0.1475
 5601SOL    HW128436   1.670   4.631   7.824 -2.9146  0.7195 -2.4552
 5601SOL    HW228437   1.655   4.516   7.716 -1.1919  0.9481 -0.7916
 5602SOL     OW28438   2.737   0.363   7.660  0.0778  0.3546 -0.3392
 5602SOL    HW128439   2.650   0.387   7.694  0.0701  2.6210 -1.9625
 5602SOL    HW228440   2.734   0.267   7.655  1.0848  0.3130 -0.1241
 5603SOL     OW28441   3.575   1.326   6.625  0.1808  0.1255 -0.1478
 5603SOL    HW128442   3.581   1.362   6.713  0.9281 -0.1300 -0.0883
 5603SOL    HW228443   3.481   1.308   6.618 -0.3909  2.8972  0.4666
 5604SOL     OW28444   4.415   3.762   4.926 -0.4782 -0.6369 -0.4159
 5604SOL    HW128445   4.407   3.675   4.886 -0.4335 -1.2570  0.9149
 5604SOL    HW228446   4.510   3.775   4.927 -0.6655  0.6512 -0.0736
 5605SOL     OW28447   3.126   4.710  15.215  0.3624  0.2365 -0.8520
 5605SOL    HW128448   3.164   4.626  15.190  1.3813  0.8961 -1.5445
 5605SOL    HW228449   3.033   4.690  15.230  0.4556  0.9129  0.6282
 5606SOL     OW28450   3.884   0.473   2.405 -0.3930 -0.3821  0.0323
 5606SOL    HW128451   3.947   0.543   2.418 -1.7765  1.0289 -0.9113
 5606SOL    HW228452   3.882   0.486   2.310 -0.8281  0.7473  0.1986
 5607SOL     OW28453   1.591   3.557   4.503  0.2854  0.4155 -0.2121
 5607SOL    HW128454   1.526   3.622   4.529 -0.6116 -1.1729  1.5401
 5607SOL    HW228455   1.551   3.518   4.426 -0.3556 -0.2591  0.4638
 5608SOL     OW28456   3.834   3.629   5.446 -0.3244  0.6130 -0.7015
 5608SOL    HW128457   3.887   3.708   5.433  0.2499  0.2526 -0.5456
 5608SOL    HW228458   3.822   3.645   5.540 -2.9990  0.7430 -1.0748
 5609SOL     OW28459   0.097   4.018   1.370  0.1988  0.2736 -0.0230
 5609SOL    HW128460   0.082   3.924   1.382  1.3251  0.2507  1.1362
 5609SOL    HW228461   0.190   4.028   1.349 -0.4503  4.4138 -1.0094
 5610SOL     OW28462   0.805   3.157  13.086  0.3310 -0.2968 -0.1864
 5610SOL    HW128463   0.719   3.117  13.094 -0.0331  0.2588 -1.3166
 5610SOL    HW228464   0.829   3.129  12.997  2.2674  0.5582  0.0622
 5611SOL     OW28465   2.921   1.493   1.075  0.7806  0.1908 -0.0142
 5611SOL    HW128466   2.890   1.432   1.141  1.8625 -0.4818 -0.1319
 5611SOL    HW228467   3.001   1.445   1.054  0.1709 -0.2441 -1.3837
 5612SOL     OW28468   0.022   0.590   7.721  0.2660  0.0763 -0.1474
 5612SOL    HW128469   4.720   0.501   7.733  1.2642 -0.3979 -0.7709
 5612SOL    HW228470   4.701   0.613   7.645 -0.4132 -1.7925 -0.2448
 5613SOL     OW28471   4.176   1.494   0.080 -0.2590 -0.3239  0.2088
 5613SOL    HW128472   4.190   1.478   0.174  0.8905 -0.0969  0.0722
 5613SOL    HW228473   4.101   1.552   0.086 -1.9926 -2.2464 -3.3763
 5614SOL     OW28474   3.531   1.723  15.807 -0.2367 -0.5795  0.3100
 5614SOL    HW128475   3.558   1.705  15.896 -0.5039 -3.2938 -0.1550
 5614SOL    HW228476   3.585   1.801  15.794  0.8061 -1.0088  2.2203
 5615SOL     OW28477   0.826   1.418  11.958 -0.1743 -0.4705  0.4133
 5615SOL    HW128478   0.817   1.331  11.996  0.3921 -0.7330 -0.0354
 5615SOL    HW228479   0.830   1.401  11.864  1.7465  1.3524  0.1537
 5616SOL     OW28480   4.274   3.531   5.667 -0.6592 -0.3385  0.1230
 5616SOL    HW128481   4.270   3.459   5.730  1.2119 -0.1823  0.4265
 5616SOL    HW228482   4.268   3.610   5.720 -1.1679 -0.4833  0.2782
 5617SOL     OW28483   3.806   2.549  11.908 -0.4386  0.3411  0.5680
 5617SOL    HW128484   3.864   2.602  11.963  0.9764  0.1754 -0.7610
 5617SOL    HW228485   3.866   2.510  11.845 -0.4105 -0.1587  0.8982
 5618SOL     OW28486   2.461   3.424   9.583  0.2838  0.3804 -0.4243
 5618SOL    HW128487   2.500   3.511   9.568  1.1399  0.0989  0.1726
 5618SOL    HW228488   2.457   3.403   9.677 -1.9214  2.0221 -0.1588
 5619SOL     OW28489   1.616   1.678  13.494 -0.1956  0.2339  0.5664
 5619SOL    HW128490   1.544   1.699  13.435  1.2889  0.7367 -1.0818
 5619SOL    HW228491   1.658   1.598  13.461  0.9100  1.4984 -1.0862
 5620SOL     OW28492   1.273   1.930  12.505  0.3846 -0.4163 -0.1109
 5620SOL    HW128493   1.271   1.923  12.601 -1.8085 -0.7643 -0.1704
 5620SOL    HW228494   1.344   1.993  12.490  0.4730 -0.6529 -0.6538
 5621SOL     OW28495   1.364   2.157   2.911 -0.2808 -0.1089 -0.4082
 5621SOL    HW128496   1.344   2.123   2.998 -1.0852  0.2201 -0.4604
 5621SOL    HW228497   1.315   2.240   2.913  0.8081  0.5004  0.6551
 5622SOL     OW28498   2.548   3.703   6.138  0.3006 -0.0455 -0.3911
 5622SOL    HW128499   2.548   3.671   6.228 -0.2633  0.9155 -0.0463
 5622SOL    HW228500   2.455   3.695   6.116  0.9782 -0.7769 -2.9729
 5623SOL     OW28501   0.603   4.672  12.111  0.4468  0.1867  0.0981
 5623SOL    HW128502   0.684   4.623  12.098  1.1091  1.3707 -0.2972
 5623SOL    HW228503   0.620   4.705  12.199  0.0963  3.3233 -1.0028
 5624SOL     OW28504   0.490   1.097   3.356 -0.1482 -0.0117 -0.7529
 5624SOL    HW128505   0.451   1.020   3.313 -1.9604  1.0585 -1.0060
 5624SOL    HW228506   0.420   1.161   3.357 -0.8564 -0.7789 -0.6618
 5625SOL     OW28507   2.141   4.072   3.394  0.5027 -0.2379  0.0153
 5625SOL    HW128508   2.175   4.081   3.305  0.7329 -2.3919 -0.1257
 5625SOL    HW228509   2.065   4.127   3.377 -0.1644 -0.4842  2.1536
 5626SOL     OW28510   0.908   2.794   5.663 -0.3076 -0.5392  1.0489
 5626SOL    HW128511   0.885   2.791   5.571 -2.1918 -1.3490  1.5435
 5626SOL    HW228512   0.836   2.852   5.691  0.1436  1.9406 -2.9434
 5627SOL     OW28513   4.171   2.337   8.848  0.2419 -0.1071  0.7352
 5627SOL    HW128514   4.093   2.284   8.832  0.3518  0.3987 -1.5231
 5627SOL    HW228515   4.134   2.425   8.849  1.6757  0.4680  2.1227
 5628SOL     OW28516   3.977   1.510   7.338  0.4455 -0.6561  0.2290
 5628SOL    HW128517   4.011   1.543   7.255 -0.5369 -0.2094 -0.0073
 5628SOL    HW228518   4.054   1.464   7.369 -0.1366 -1.1352  0.9442
 5629SOL     OW28519   2.800   0.810   4.339  0.2869 -0.1081  0.3108
 5629SOL    HW128520   2.747   0.730   4.342 -4.4185  3.0252  1.8242
 5629SOL    HW228521   2.822   0.814   4.246 -1.0487 -0.0083 -0.0113
 5630SOL     OW28522   4.439   0.620  17.027 -0.0641 -0.5935  0.0558
 5630SOL    HW128523   4.470   0.579  16.946  1.7277  2.0361 -0.5787
 5630SOL    HW228524   4.403   0.538  17.062  1.0370 -1.1219 -0.0426
 5631SOL     OW28525   0.606   0.012  10.306 -0.5811 -0.3562 -0.5411
 5631SOL    HW128526   0.577   4.705  10.388  2.3651  0.3468  0.8488
 5631SOL    HW228527   0.586   0.101  10.335 -0.2666 -0.4696  0.0132
 5632SOL     OW28528   3.715   3.140   7.525 -0.6121  0.0635 -0.0459
 5632SOL    HW128529   3.668   3.082   7.466  0.5953 -3.5612  2.5251
 5632SOL    HW228530   3.716   3.091   7.607 -0.0367  1.2095  0.6367
 5633SOL     OW28531   0.659   4.068   0.011  0.0662 -0.0638 -0.0670
 5633SOL    HW128532   0.619   4.036  17.660  1.7596  0.9540 -1.3261
 5633SOL    HW228533   0.740   4.017   0.008 -0.3624 -0.6281 -2.0700
 5634SOL     OW28534   3.657   4.358   8.438 -0.3577 -0.3028 -0.6022
 5634SOL    HW128535   3.616   4.347   8.523  0.2534 -2.5086 -0.5820
 5634SOL    HW228536   3.671   4.452   8.443  2.6507 -0.7865  0.2353
 5635SOL     OW28537   2.749   3.528   3.123 -0.5361  0.6181 -0.1733
 5635SOL    HW128538   2.753   3.527   3.027 -1.9804  0.9001 -0.2333
 5635SOL    HW228539   2.723   3.436   3.129  1.5396  0.2979  3.3407
 5636SOL     OW28540   2.599   2.198   6.103 -0.3369  0.4374 -0.2425
 5636SOL    HW128541   2.618   2.164   6.190 -1.3356 -1.6853 -0.8715
 5636SOL    HW228542   2.508   2.178   6.083 -0.3741  0.7576 -0.3881
 5637SOL     OW28543   1.523   4.158  16.857 -0.3628  0.5436  0.1917
 5637SOL    HW128544   1.514   4.234  16.915 -0.0966  0.7785 -0.0771
 5637SOL    HW228545   1.608   4.175  16.817  0.6026 -0.1969  1.9130
 5638SOL     OW28546   0.596   0.454   4.292 -0.5518  0.3063  0.0998
 5638SOL    HW128547   0.657   0.388   4.260 -0.8301 -0.2045  0.6271
 5638SOL    HW228548   0.635   0.474   4.377 -2.5153  1.9149  0.6328
 5639SOL     OW28549   1.579   1.856   6.084 -0.6412 -0.5245 -0.3007
 5639SOL    HW128550   1.528   1.798   6.027  0.7449 -0.1729 -1.9289
 5639SOL    HW228551   1.507   1.910   6.118 -0.1058  0.3427 -0.5325
 5640SOL     OW28552   0.218   2.277   7.637  0.7902  0.4781 -0.1179
 5640SOL    HW128553   0.148   2.214   7.617  1.0514 -0.0115  0.5403
 5640SOL    HW228554   0.281   2.246   7.572 -0.4360 -2.5436  0.1083
 5641SOL     OW28555   3.027   3.730   7.175  0.0577  0.1927 -0.1364
 5641SOL    HW128556   3.079   3.650   7.172 -0.0394  0.1185  0.1757
 5641SOL    HW228557   3.058   3.763   7.090 -2.2694  0.6748 -0.7939
 5642SOL     OW28558   1.888   4.388   8.969 -0.1100 -0.2467  0.3408
 5642SOL    HW128559   1.922   4.402   9.058  0.6757  1.0923 -0.1723
 5642SOL    HW228560   1.814   4.329   8.986  1.4178 -2.3364 -0.3034
 5643SOL     OW28561   3.926   1.939   6.542 -0.2244  0.7114  0.0559
 5643SOL    HW128562   3.868   1.879   6.496 -0.0195  0.5889 -0.0411
 5643SOL    HW228563   3.901   1.897   6.625  1.3537 -1.1729 -0.4203
 5644SOL     OW28564   4.173   1.174   5.588 -0.2442 -0.5264  0.3607
 5644SOL    HW128565   4.260   1.197   5.620 -0.2944 -0.4422  0.4344
 5644SOL    HW228566   4.171   1.214   5.501  2.3457 -2.0413 -0.4049
 5645SOL     OW28567   1.965   0.555   5.900  0.0682 -0.5842  0.3881
 5645SOL    HW128568   1.983   0.558   5.994  0.0159 -0.9509  0.4118
 5645SOL    HW228569   2.034   0.604   5.855  0.1707  0.4229  1.6499
 5646SOL     OW28570   3.258   0.096   4.021 -0.3554 -0.0744 -0.2421
 5646SOL    HW128571   3.191   0.109   4.088  0.6170 -1.2971  0.9923
 5646SOL    HW228572   3.208   0.029   3.973 -0.7703 -1.9549  2.7865
 5647SOL     OW28573   4.472   2.242  10.975 -0.8189 -0.1277  0.3648
 5647SOL    HW128574   4.382   2.241  10.941 -0.7641  2.2888  0.1735
 5647SOL    HW228575   4.460   2.209  11.064  0.6841  1.3379  1.1011
 5648SOL     OW28576   3.521   0.883   4.605 -0.4544  0.5518  0.7620
 5648SOL    HW128577   3.515   0.944   4.531 -1.3146 -2.1817 -1.4607
 5648SOL    HW228578   3.452   0.822   4.579 -2.2239  2.6102  0.6384
 5649SOL     OW28579   2.253   0.913   4.165 -0.2089  0.4655 -0.0092
 5649SOL    HW128580   2.320   0.929   4.232 -0.0584  0.4592 -0.1562
 5649SOL    HW228581   2.181   0.952   4.213 -1.1237  0.4897 -1.3916
 5650SOL     OW28582   2.496   0.444   5.150 -0.4548 -0.3346 -0.0002
 5650SOL    HW128583   2.561   0.484   5.208  0.3275 -0.5686 -0.7123
 5650SOL    HW228584   2.496   0.498   5.071 -1.1045  0.8054  0.7861
 5651SOL     OW28585   3.882   2.496   7.511 -0.8891 -0.0869  0.2059
 5651SOL    HW128586   3.835   2.510   7.594  0.3231  2.9697  0.4040
 5651SOL    HW228587   3.950   2.563   7.524 -1.2446  0.5525 -1.2592
 5652SOL     OW28588   3.521   2.670   8.959  0.3628  0.1976 -0.0255
 5652SOL    HW128589   3.558   2.727   9.027 -0.2770 -0.6549  1.0297
 5652SOL    HW228590   3.499   2.593   9.011 -0.4225  0.1057 -0.5003
 5653SOL     OW28591   2.297   0.286   2.674 -0.0179 -0.8499  0.4743
 5653SOL    HW128592   2.344   0.208   2.699  0.3732 -0.2628  1.5393
 5653SOL    HW228593   2.324   0.293   2.582  0.5521 -1.3660  0.6120
 5654SOL     OW28594   0.582   3.487   8.340  0.7150  0.0334 -0.2171
 5654SOL    HW128595   0.527   3.534   8.402 -0.2791  0.3894 -1.3723
 5654SOL    HW228596   0.667   3.529   8.353  2.2977 -2.8695 -1.0300
 5655SOL     OW28597   2.141   4.024   5.912  0.0905  0.1077  0.1910
 5655SOL    HW128598   2.073   4.063   5.857 -0.3966 -0.0778  0.6589
 5655SOL    HW228599   2.118   3.931   5.908  2.4635 -0.4892  0.4712
 5656SOL     OW28600   2.447   1.506  14.883  0.1449  0.0938 -0.2358
 5656SOL    HW128601   2.359   1.491  14.848  0.0434 -1.3798  0.6497
 5656SOL    HW228602   2.429   1.539  14.971 -0.2843 -0.8438  0.0276
 5657SOL     OW28603   0.161   3.831  14.726 -0.2472 -0.0673  0.5698
 5657SOL    HW128604   0.104   3.907  14.712 -0.8441 -0.7684 -0.8603
 5657SOL    HW228605   0.246   3.874  14.719 -0.7047  0.6079 -0.7869
 5658SOL     OW28606   0.410   4.062  11.755  0.0068  0.0109 -0.9417
 5658SOL    HW128607   0.396   3.980  11.802  1.4663 -0.7669 -1.8675
 5658SOL    HW228608   0.330   4.059  11.702 -0.1919 -1.3428 -0.5459
 5659SOL     OW28609   4.354   3.150   0.138  0.1802 -0.7122 -0.3978
 5659SOL    HW128610   4.348   3.119   0.228  0.1778  0.2057 -0.0764
 5659SOL    HW228611   4.401   3.083   0.090  1.6084  0.9966 -1.3909
 5660SOL     OW28612   0.663   0.880  16.322 -0.0680  0.3056  0.3427
 5660SOL    HW128613   0.703   0.960  16.354 -3.4642  1.6575  1.2741
 5660SOL    HW228614   0.669   0.839  16.409 -0.3787  0.9822  0.6846
 5661SOL     OW28615   1.310   1.779   0.488  0.0861  0.4026 -1.1349
 5661SOL    HW128616   1.359   1.855   0.459  1.5226 -0.4243 -0.9019
 5661SOL    HW228617   1.360   1.707   0.449  1.7353  1.9107 -1.7528
 5662SOL     OW28618   2.272   4.080   9.588  0.5272  0.6229  0.3074
 5662SOL    HW128619   2.222   4.079   9.669 -1.6388 -1.0884 -1.0695
 5662SOL    HW228620   2.253   4.156   9.532  1.0453  1.2620  0.9964
 5663SOL     OW28621   3.914   4.674   5.659  0.0762 -0.1735  0.0601
 5663SOL    HW128622   3.973   4.729   5.608 -0.4202  0.2163 -0.0838
 5663SOL    HW228623   3.911   4.711   5.748  1.0540  0.9430 -0.3779
 5664SOL     OW28624   1.550   2.451   3.815 -0.2363 -0.4734 -0.3738
 5664SOL    HW128625   1.520   2.428   3.903 -0.6876  2.0682  0.1359
 5664SOL    HW228626   1.500   2.530   3.794  0.7693 -0.5994 -3.2717
 5665SOL     OW28627   3.808   1.883  15.846  0.5100 -0.3749  0.0686
 5665SOL    HW128628   3.838   1.929  15.924 -1.4448 -1.0734  1.2346
 5665SOL    HW228629   3.815   1.961  15.791  1.0825  1.2976  2.4855
 5666SOL     OW28630   4.369   0.758   7.527  0.3086 -0.1682 -0.0097
 5666SOL    HW128631   4.364   0.771   7.622 -0.1134 -1.0435  0.0943
 5666SOL    HW228632   4.463   0.747   7.513  0.2697  0.8072 -1.0050
 5667SOL     OW28633   2.714   2.777  17.416  0.4974 -0.5402  0.2731
 5667SOL    HW128634   2.694   2.863  17.378 -2.2697 -1.9865 -1.4907
 5667SOL    HW228635   2.697   2.725  17.338  1.0665  1.2745 -1.0544
 5668SOL     OW28636   1.760   1.922  16.954  0.1784 -0.0400  0.1710
 5668SOL    HW128637   1.790   1.889  16.869  1.4416 -1.4085  1.1534
 5668SOL    HW228638   1.683   1.869  16.972 -0.5940  1.1305  0.3398
 5669SOL     OW28639   3.840   4.069   1.933 -0.2265 -0.6935 -0.0221
 5669SOL    HW128640   3.921   4.096   1.978 -0.4807 -0.0908  0.0740
 5669SOL    HW228641   3.814   3.994   1.986  0.4796 -0.7951  0.1848
 5670SOL     OW28642   0.402   4.485   8.851  0.4358  0.0995  0.0298
 5670SOL    HW128643   0.496   4.469   8.862  0.4098 -0.7570 -0.9422
 5670SOL    HW228644   0.372   4.394   8.843 -1.1316  0.3956  2.6134
 5671SOL     OW28645   0.252   4.693   3.395 -0.2362  0.8737  0.1145
 5671SOL    HW128646   0.195   0.033   3.418  0.2380  1.0822  0.6538
 5671SOL    HW228647   0.185   4.627   3.381  0.6014 -0.0460  0.3706
 5672SOL     OW28648   0.303   0.494   5.018  0.1853 -0.1924  0.1011
 5672SOL    HW128649   0.342   0.565   5.068  1.1063 -0.0419 -0.8314
 5672SOL    HW228650   0.215   0.499   5.056  0.4075 -3.5038  1.0582
 5673SOL     OW28651   0.429   1.548   2.157  0.9021  0.4129  0.3207
 5673SOL    HW128652   0.462   1.575   2.071  1.2362  0.2641  0.4005
 5673SOL    HW228653   0.460   1.459   2.171 -0.9178 -0.2675  0.0213
 5674SOL     OW28654   1.860   1.329   4.565  0.0700 -0.2640  0.7156
 5674SOL    HW128655   1.766   1.327   4.549  0.3282 -0.8378 -0.8034
 5674SOL    HW228656   1.872   1.241   4.601 -0.9032 -0.1750  1.2564
 5675SOL     OW28657   0.854   1.685  11.998 -0.1942 -0.2284  0.1501
 5675SOL    HW128658   0.837   1.593  11.977  1.5642 -0.4426 -0.3124
 5675SOL    HW228659   0.870   1.724  11.911 -0.3954 -1.6235 -0.5129
 5676SOL     OW28660   4.103   2.260   6.268  0.3280 -0.3235  0.2066
 5676SOL    HW128661   4.103   2.169   6.236 -0.4322  0.0299 -0.8088
 5676SOL    HW228662   4.048   2.245   6.345  0.4963 -0.4262  0.3078
 5677SOL     OW28663   1.269   4.411   5.730 -0.1105  0.1073 -0.5433
 5677SOL    HW128664   1.204   4.357   5.684 -0.0393 -1.4488  1.1985
 5677SOL    HW228665   1.222   4.439   5.809 -0.2298  2.3866 -1.4346
 5678SOL     OW28666   3.457   0.311  17.503  0.0235 -0.8289  0.4774
 5678SOL    HW128667   3.386   0.349  17.450  0.2812  0.2897  0.9318
 5678SOL    HW228668   3.445   0.218  17.485  3.2555 -1.5451  2.0985
 5679SOL     OW28669   0.233   3.072  13.382  0.1130 -0.3294  0.2085
 5679SOL    HW128670   0.318   3.035  13.407 -0.5567 -2.3159 -0.4423
 5679SOL    HW228671   0.176   2.996  13.370  0.8573 -0.8099 -0.3084
 5680SOL     OW28672   0.391   4.536   5.920 -0.0448  0.0937 -0.0329
 5680SOL    HW128673   0.483   4.561   5.912 -0.1397  1.0711  1.9717
 5680SOL    HW228674   0.340   4.615   5.901  0.2523 -0.6636 -4.1063
 5681SOL     OW28675   2.001   2.512   3.776 -0.4356  0.4326  0.1603
 5681SOL    HW128676   1.990   2.527   3.682 -1.9183 -1.0080  0.0948
 5681SOL    HW228677   1.944   2.580   3.811 -0.3028 -0.0587  1.3561
 5682SOL     OW28678   3.758   4.260   1.198  0.4946 -0.0636  0.0949
 5682SOL    HW128679   3.793   4.284   1.113  0.9882 -0.0493  0.2995
 5682SOL    HW228680   3.703   4.187   1.170 -0.2920  0.0640  1.2716
 5683SOL     OW28681   4.116   3.333   3.668  0.6222  0.4849 -0.3752
 5683SOL    HW128682   4.165   3.403   3.625 -0.3104  1.4902  0.2084
 5683SOL    HW228683   4.044   3.377   3.712  0.0447  0.3303 -1.1671
 5684SOL     OW28684   4.656   0.572  17.543 -0.5072  0.0294  0.0913
 5684SOL    HW128685   4.617   0.568  17.630 -0.1068  1.3173  0.3262
 5684SOL    HW228686   0.003   0.525  17.569 -0.2060 -0.6710 -2.0509
 5685SOL     OW28687   4.383   3.338   5.274  0.0938  0.1702  0.2611
 5685SOL    HW128688   4.432   3.397   5.331 -0.2624  1.4786 -0.7918
 5685SOL    HW228689   4.454   3.280   5.245 -0.1553  1.4812 -3.0232
 5686SOL     OW28690   1.326   0.230   7.461 -0.2668  0.3563  0.1743
 5686SOL    HW128691   1.252   0.186   7.502  1.9108 -2.0349  1.5118
 5686SOL    HW228692   1.273   0.287   7.406  1.6311  0.0269 -2.0171
 5687SOL     OW28693   1.811   2.975  12.918  0.3926  0.2058  0.6487
 5687SOL    HW128694   1.886   2.929  12.881  0.0773 -0.9420  1.4332
 5687SOL    HW228695   1.753   2.904  12.944  0.7548 -0.3047  0.0781
 5688SOL     OW28696   4.365   4.242   4.024 -0.0197 -0.3797 -0.3591
 5688SOL    HW128697   4.329   4.289   3.949 -1.9046  0.1287  0.8534
 5688SOL    HW228698   4.456   4.273   4.026  0.2513 -1.1937 -0.0955
 5689SOL     OW28699   1.873   4.149   8.169 -0.2205 -0.3452 -0.0687
 5689SOL    HW128700   1.926   4.118   8.095 -0.9528 -0.9490 -0.3474
 5689SOL    HW228701   1.835   4.068   8.203 -0.3244 -0.1736  0.2216
 5690SOL     OW28702   2.106   1.920   7.182 -0.3671  0.2377 -0.1206
 5690SOL    HW128703   2.074   1.895   7.269  1.1926 -1.7272 -0.0955
 5690SOL    HW228704   2.078   2.011   7.188 -1.1270 -0.1273  1.7543
 5691SOL     OW28705   4.677   4.252   1.397  0.1737 -0.4623  0.2247
 5691SOL    HW128706   4.590   4.219   1.422  0.4835  0.1815  2.1960
 5691SOL    HW228707   4.720   4.167   1.385 -0.1572 -0.3798 -1.5685
 5692SOL     OW28708   3.932   4.169   5.625  0.0297  0.6150 -0.4633
 5692SOL    HW128709   3.973   4.170   5.711 -0.9098  0.3830 -0.0160
 5692SOL    HW228710   3.868   4.238   5.641  0.0041  0.3844  0.3871
 5693SOL     OW28711   1.397   1.073   3.342  0.0526 -0.3597  0.0036
 5693SOL    HW128712   1.311   1.079   3.384  0.7058  2.7218  0.8859
 5693SOL    HW228713   1.387   1.105   3.253 -1.5513  0.8794  0.6314
 5694SOL     OW28714   0.445   1.552   4.740 -0.0549 -0.4093 -0.6452
 5694SOL    HW128715   0.398   1.548   4.824 -2.3461  0.0682 -1.9098
 5694SOL    HW228716   0.463   1.460   4.722  0.0668 -0.2648 -1.2630
 5695SOL     OW28717   3.601   1.320   6.151 -0.1596  0.1978  0.0660
 5695SOL    HW128718   3.606   1.402   6.200 -3.0214 -0.1251  0.9267
 5695SOL    HW228719   3.663   1.338   6.081  0.0417 -0.6895  0.0187
 5696SOL     OW28720   0.007   4.512  14.937 -0.7531  0.4425  0.1026
 5696SOL    HW128721   0.074   4.463  14.890 -1.6823 -1.5427  0.8134
 5696SOL    HW228722   4.667   4.504  14.875 -1.4613 -1.4082  1.1594
 5697SOL     OW28723   4.049   4.117  15.146 -0.2065 -0.0580 -0.1124
 5697SOL    HW128724   4.118   4.155  15.200 -1.6048  1.0976  0.8643
 5697SOL    HW228725   3.970   4.122  15.200 -1.2104 -0.0495 -1.5458
 5698SOL     OW28726   0.061   2.810   1.774  0.8356 -0.7376  0.6035
 5698SOL    HW128727   0.117   2.879   1.812  1.3110 -1.5447  1.3882
 5698SOL    HW228728   0.124   2.738   1.779 -1.0626 -2.4255  0.0852
 5699SOL     OW28729   0.851   0.871  12.230  0.2252 -0.6782  0.2383
 5699SOL    HW128730   0.925   0.918  12.191  0.5452 -0.4010  1.1893
 5699SOL    HW228731   0.889   0.786  12.249  0.4001 -1.2108 -2.4424
 5700SOL     OW28732   3.774   0.138   3.446 -0.4662  0.2161  0.3856
 5700SOL    HW128733   3.687   0.158   3.482 -0.0565 -0.9054  2.0127
 5700SOL    HW228734   3.748   0.112   3.357 -1.6086  1.3454  0.3923
 5701SOL     OW28735   3.669   3.733   7.727 -0.0879 -0.5268 -0.2634
 5701SOL    HW128736   3.757   3.768   7.743  0.2328 -0.5902 -1.9325
 5701SOL    HW228737   3.650   3.708   7.818  1.8450 -0.1222  0.2561
 5702SOL     OW28738   0.245   1.615  11.440 -0.4557  0.2346  0.1941
 5702SOL    HW128739   0.223   1.614  11.534  1.5075  2.2187  0.6606
 5702SOL    HW228740   0.326   1.664  11.433 -1.9004  2.3122 -1.7112
 5703SOL     OW28741   4.299   4.281   8.358 -0.4790 -0.3094  0.0085
 5703SOL    HW128742   4.354   4.227   8.301  1.4360  1.2537  0.3504
 5703SOL    HW228743   4.328   4.369   8.334 -2.0868  0.5543  1.2892
 5704SOL     OW28744   4.656   3.954   2.058  0.2161  0.4642  0.1831
 5704SOL    HW128745   4.726   3.972   1.995  0.7067 -2.2279 -0.0642
 5704SOL    HW228746   4.587   4.019   2.046  1.8878  2.3720  0.8743
 5705SOL     OW28747   2.244   1.434   2.777 -0.2676 -0.4301  0.1922
 5705SOL    HW128748   2.282   1.447   2.690 -0.7781 -0.3797 -0.0292
 5705SOL    HW228749   2.321   1.460   2.827 -0.4745  1.9383 -0.7149
 5706SOL     OW28750   2.435   1.840  15.222 -0.5526  0.4114 -0.0402
 5706SOL    HW128751   2.473   1.821  15.136 -1.3997  0.3404 -0.4044
 5706SOL    HW228752   2.513   1.860  15.273 -0.9032 -0.1576  0.7096
 5707SOL     OW28753   1.475   3.691   2.599  0.4194  0.0428 -0.2383
 5707SOL    HW128754   1.564   3.726   2.605  0.1063  0.9278 -0.6889
 5707SOL    HW228755   1.421   3.761   2.562 -0.8618 -1.6552 -1.5730
 5708SOL     OW28756   0.551   0.922  16.700  0.0517 -0.4540 -0.1861
 5708SOL    HW128757   0.624   0.984  16.694  0.3917 -0.8537 -0.1636
 5708SOL    HW228758   0.483   0.970  16.654  1.6469  2.0547  0.0774
 5709SOL     OW28759   3.190   0.282   2.539  0.1069  0.8975 -0.1704
 5709SOL    HW128760   3.097   0.305   2.540 -0.4651 -1.4920  1.8114
 5709SOL    HW228761   3.209   0.305   2.630 -0.2906 -2.2926  0.7382
 5710SOL     OW28762   0.562   0.819   6.364 -0.1122 -0.2395  0.1853
 5710SOL    HW128763   0.480   0.854   6.400 -1.5512 -1.8588 -1.4988
 5710SOL    HW228764   0.535   0.727   6.359  0.5684 -0.3440 -1.4777
 5711SOL     OW28765   0.276   4.382  13.500 -0.0465  0.1644 -0.3422
 5711SOL    HW128766   0.309   4.294  13.485 -1.1407 -0.3669  0.4036
 5711SOL    HW228767   0.184   4.372  13.477 -0.3178 -0.4757  1.0681
 5712SOL     OW28768   4.639   1.510   4.578  0.0231 -0.0645 -0.3957
 5712SOL    HW128769   4.561   1.493   4.630 -0.3275  2.2310 -0.1722
 5712SOL    HW228770   4.619   1.464   4.496  3.0803 -0.0618 -1.1512
 5713SOL     OW28771   3.052   0.828   8.991  0.8360  0.3748 -0.0635
 5713SOL    HW128772   3.125   0.860   8.938  0.5192  3.6155  1.5114
 5713SOL    HW228773   3.098   0.751   9.025 -1.1247 -2.2327 -3.2804
 5714SOL     OW28774   3.647   2.908   4.030  0.4536 -0.4325  0.1583
 5714SOL    HW128775   3.718   2.966   4.006  0.6511 -0.9665 -0.5574
 5714SOL    HW228776   3.687   2.839   4.083  0.5705 -0.2365  0.3229
 5715SOL     OW28777   4.621   1.950  13.451 -0.4655 -0.1251 -0.1978
 5715SOL    HW128778   4.684   1.911  13.391  0.0662 -0.1691  0.3878
 5715SOL    HW228779   4.647   1.921  13.539 -0.7019 -0.9882 -0.4054
 5716SOL     OW28780   3.033   4.473   1.839  0.3787  0.0919 -0.1737
 5716SOL    HW128781   3.039   4.406   1.906  0.1682  1.7459  1.4980
 5716SOL    HW228782   3.120   4.510   1.855 -0.0325  0.5351  1.0248
 5717SOL     OW28783   2.613   1.907   8.983  0.1781  0.0477 -0.2350
 5717SOL    HW128784   2.702   1.909   8.948  0.5223  0.7231  0.7020
 5717SOL    HW228785   2.590   1.998   8.965 -1.0572 -0.0894  0.7004
 5718SOL     OW28786   2.288   3.965   1.565 -0.0433 -0.0590 -0.2571
 5718SOL    HW128787   2.280   4.026   1.492 -0.7853 -1.3440 -1.2606
 5718SOL    HW228788   2.380   3.939   1.567  0.0161  0.2839  1.7362
 5719SOL     OW28789   1.330   2.937   5.694  0.0768 -0.1492 -0.0343
 5719SOL    HW128790   1.248   2.896   5.722 -1.0976  1.7892 -0.6470
 5719SOL    HW228791   1.370   2.862   5.650 -0.9407 -0.8264  0.1831
 5720SOL     OW28792   3.497   2.427  17.068  0.1274  0.1840 -0.1730
 5720SOL    HW128793   3.526   2.519  17.068 -1.0311  0.5436  0.2350
 5720SOL    HW228794   3.575   2.376  17.090  0.4225 -0.3384 -2.4503
 5721SOL     OW28795   1.793   1.005   3.813  0.2707 -0.0900 -0.1863
 5721SOL    HW128796   1.712   1.050   3.834  0.9231  0.3951  1.2871
 5721SOL    HW228797   1.832   0.995   3.899 -1.5978  3.0329  1.0259
 5722SOL     OW28798   1.136   0.366   0.189  0.1850 -0.1296 -0.2393
 5722SOL    HW128799   1.041   0.373   0.181  0.0411 -1.3113  0.4009
 5722SOL    HW228800   1.172   0.354   0.102 -0.7451  1.9863 -0.9109
 5723SOL     OW28801   2.517   0.495  16.802  0.1160 -0.0059 -0.3111
 5723SOL    HW128802   2.457   0.536  16.864 -0.3808  1.9781 -2.0566
 5723SOL    HW228803   2.500   0.403  16.819  0.8994  0.2018  1.6004
 5724SOL     OW28804   1.214   1.663  16.962 -0.4443  0.4476  0.3904
 5724SOL    HW128805   1.257   1.740  16.926  0.6308 -0.8139 -1.0698
 5724SOL    HW228806   1.261   1.654  17.045  0.7098  1.2976 -0.1802
 5725SOL     OW28807   3.967   0.382   9.861  0.1776  0.3929  0.3779
 5725SOL    HW128808   3.947   0.440   9.935 -1.1345  0.1782  0.1864
 5725SOL    HW228809   4.061   0.398   9.852  0.2977  0.2983  1.5050
 5726SOL     OW28810   1.766   1.425   8.068  0.0778 -0.6998  0.2880
 5726SOL    HW128811   1.714   1.501   8.042 -0.0878 -0.6883  0.6513
 5726SOL    HW228812   1.713   1.353   8.034 -2.7670  0.6190  1.9162
 5727SOL     OW28813   3.031   2.921   4.768 -0.3296  0.0341  0.1048
 5727SOL    HW128814   3.119   2.907   4.734 -2.0313 -0.2039 -4.1865
 5727SOL    HW228815   2.985   2.894   4.688 -0.7384 -0.2871  0.4437
 5728SOL     OW28816   3.788   3.494   9.151  0.1714  0.6875  0.2010
 5728SOL    HW128817   3.727   3.533   9.214 -0.5732 -1.9963  1.1529
 5728SOL    HW228818   3.776   3.401   9.170 -0.3564  0.5614 -0.7483
 5729SOL     OW28819   2.261   2.050   2.940 -0.3710  0.8658  0.5802
 5729SOL    HW128820   2.348   2.074   2.908 -0.8562  1.7592 -0.0532
 5729SOL    HW228821   2.265   1.963   2.901  1.1109  0.7917  0.8842
 5730SOL     OW28822   1.000   2.058  17.034  0.1539 -0.6177 -0.2132
 5730SOL    HW128823   0.907   2.054  17.012  0.0892  0.4928 -0.1720
 5730SOL    HW228824   1.035   2.079  16.947  0.5444  1.6120  0.4854
 5731SOL     OW28825   4.316   2.258  16.565 -0.3002  0.0406  0.1299
 5731SOL    HW128826   4.349   2.265  16.655 -2.3443  2.1789  0.7166
 5731SOL    HW228827   4.375   2.317  16.518 -0.4034 -0.1537 -0.2405
 5732SOL     OW28828   1.850   4.590   3.566  0.1104  0.5940 -0.0854
 5732SOL    HW128829   1.848   4.671   3.516 -2.0185  1.3985  1.3082
 5732SOL    HW228830   1.923   4.541   3.528 -0.0785  0.9379 -0.8860
 5733SOL     OW28831   3.520   1.835   7.294 -0.2917  0.2563  0.7654
 5733SOL    HW128832   3.505   1.743   7.316 -1.7016  0.2602 -0.1403
 5733SOL    HW228833   3.611   1.845   7.323 -0.2452 -0.0704  0.7297
 5734SOL     OW28834   4.573   1.787   4.405  0.2401 -0.0159 -0.0266
 5734SOL    HW128835   4.624   1.767   4.484  0.3926  0.1637 -0.0774
 5734SOL    HW228836   4.567   1.881   4.422 -2.3385 -0.2828  0.5137
 5735SOL     OW28837   0.757   0.558   3.374 -0.0656 -0.0085 -0.1852
 5735SOL    HW128838   0.850   0.581   3.383 -0.5464  2.1697 -0.9511
 5735SOL    HW228839   0.757   0.496   3.301 -1.1912  0.0821 -0.2610
 5736SOL     OW28840   1.852   0.182   3.032 -0.4475  0.2395 -0.0597
 5736SOL    HW128841   1.878   0.190   2.940  1.3102 -0.9188  0.3209
 5736SOL    HW228842   1.852   0.274   3.057 -0.5302  0.4685 -0.8919
 5737SOL     OW28843   1.163   2.165  15.524 -0.4251 -0.5962 -1.0468
 5737SOL    HW128844   1.097   2.234  15.520 -0.5303 -0.7803 -2.4908
 5737SOL    HW228845   1.149   2.139  15.433 -1.2997 -1.5346 -0.6406
 5738SOL     OW28846   2.471   0.390   9.972  0.1410 -0.3742 -0.2972
 5738SOL    HW128847   2.401   0.348  10.022 -0.3988 -0.2658 -0.9586
 5738SOL    HW228848   2.443   0.481   9.984  1.3327 -0.3527  2.1822
 5739SOL     OW28849   0.884   4.080   0.417  0.3620 -0.4252 -0.0689
 5739SOL    HW128850   0.818   4.037   0.473 -1.3673  1.2913 -0.7835
 5739SOL    HW228851   0.936   4.005   0.388 -0.8956 -1.5992  0.6827
 5740SOL     OW28852   1.237   3.700   6.810 -0.3350 -0.6373 -0.1030
 5740SOL    HW128853   1.222   3.618   6.763  0.8206 -0.7298 -0.3176
 5740SOL    HW228854   1.216   3.671   6.899 -0.1240  0.2459  0.2285
 5741SOL     OW28855   1.106   3.067   5.471 -0.1625  0.2075  0.0997
 5741SOL    HW128856   1.169   3.011   5.517 -0.5989 -2.0612 -2.0224
 5741SOL    HW228857   1.154   3.113   5.402  0.6356 -1.6710 -0.6082
 5742SOL     OW28858   1.007   0.127   6.622  0.2975 -0.4079  0.2337
 5742SOL    HW128859   0.945   0.120   6.694  2.5114 -1.5446  2.0221
 5742SOL    HW228860   1.076   0.183   6.657 -0.0131  0.7106 -0.9436
 5743SOL     OW28861   3.391   1.992   2.060 -0.4810  0.3937  0.2322
 5743SOL    HW128862   3.462   1.953   2.010 -2.3120 -1.4588 -0.9353
 5743SOL    HW228863   3.421   1.990   2.150  0.2935  0.5817 -0.0225
 5744SOL     OW28864   4.006   1.436   3.793 -0.3480 -0.0420  0.0731
 5744SOL    HW128865   3.931   1.486   3.824  1.0843  1.6528  0.8252
 5744SOL    HW228866   4.067   1.443   3.866  1.8896  0.3004 -1.8229
 5745SOL     OW28867   3.526   0.651   5.376  0.2435  0.5321 -0.2925
 5745SOL    HW128868   3.603   0.614   5.419 -0.3346  0.7555  0.9379
 5745SOL    HW228869   3.554   0.710   5.306  0.9229  0.3275 -0.1974
 5746SOL     OW28870   1.827   0.045   8.743 -0.3806  0.0659  0.3479
 5746SOL    HW128871   1.886   0.115   8.771  1.2068 -0.7100 -1.0617
 5746SOL    HW228872   1.766   0.029   8.815  1.2716 -1.2336  1.4357
 5747SOL     OW28873   4.411   4.724   6.084 -0.0836 -0.4848 -0.1565
 5747SOL    HW128874   4.340   0.046   6.049  0.0804  0.9580  1.7852
 5747SOL    HW228875   4.366   4.640   6.072  0.2670 -0.9874  2.0402
 5748SOL     OW28876   0.903   4.264  16.628 -0.3552 -0.5443 -0.4400
 5748SOL    HW128877   0.839   4.251  16.698 -0.1507 -1.3322 -0.3984
 5748SOL    HW228878   0.982   4.288  16.676  0.4766 -2.1218 -1.0194
 5749SOL     OW28879   0.132   2.867  17.190  0.3076 -0.2702 -0.0809
 5749SOL    HW128880   0.197   2.937  17.182  0.1858 -0.5796 -3.5922
 5749SOL    HW228881   0.166   2.791  17.143 -1.2546 -0.6654 -0.5553
 5750SOL     OW28882   3.310   2.306   7.353 -0.2571  0.1263 -0.1107
 5750SOL    HW128883   3.342   2.224   7.390  0.1220 -0.1312 -1.0111
 5750SOL    HW228884   3.384   2.313   7.293 -0.4125  1.5073 -0.1218
 5751SOL     OW28885   0.088   0.166   5.669 -0.4807  0.0408 -0.2849
 5751SOL    HW128886   0.147   0.181   5.596 -0.8475 -0.9541 -0.7903
 5751SOL    HW228887   0.139   0.161   5.750  0.9918 -0.1952 -1.2256
 5752SOL     OW28888   2.318   4.399   4.347 -0.3940 -0.3358 -0.5443
 5752SOL    HW128889   2.351   4.390   4.258 -0.5265  2.1731 -0.8356
 5752SOL    HW228890   2.316   4.494   4.362  0.4379 -0.3829 -0.1241
 5753SOL     OW28891   1.378   1.748  12.341 -0.1499 -0.4176 -0.2943
 5753SOL    HW128892   1.467   1.777  12.320 -0.4982 -0.0665 -1.2960
 5753SOL    HW228893   1.358   1.800  12.420 -1.6205 -0.7397 -0.4598
 5754SOL     OW28894   3.509   3.158   0.222  0.5110  0.4394  0.2346
 5754SOL    HW128895   3.447   3.199   0.162 -1.5113 -1.2758  1.1441
 5754SOL    HW228896   3.442   3.096   0.252 -4.4431  4.0761 -3.2185
 5755SOL     OW28897   3.407   0.826  16.608 -0.3191  0.5323  0.5166
 5755SOL    HW128898   3.383   0.810  16.516  0.5359  1.2541  0.1687
 5755SOL    HW228899   3.373   0.744  16.645  0.0522 -0.4616 -1.2991
 5756SOL     OW28900   0.746   0.516   2.376 -0.0698 -0.5867  0.5690
 5756SOL    HW128901   0.746   0.534   2.470 -0.9601 -0.9081  0.6278
 5756SOL    HW228902   0.652   0.535   2.365 -0.3278 -2.0339  0.3328
 5757SOL     OW28903   0.382   3.770   8.006  0.3082  0.8529  0.3006
 5757SOL    HW128904   0.286   3.779   8.009  0.3173  1.5577 -1.9547
 5757SOL    HW228905   0.410   3.839   7.947 -2.0975  1.2548 -0.3910
 5758SOL     OW28906   0.218   2.032   3.290 -0.7643  0.2688  0.0690
 5758SOL    HW128907   0.183   1.959   3.340 -2.3004  0.0830 -1.2823
 5758SOL    HW228908   0.230   1.990   3.205  0.4966 -0.7224  0.7392
 5759SOL     OW28909   4.203   0.159   6.014  0.5180 -0.4553  0.1458
 5759SOL    HW128910   4.115   0.191   5.998  0.5924 -0.1825  0.2796
 5759SOL    HW228911   4.248   0.241   6.036 -1.3467  0.5079  0.3373
 5760SOL     OW28912   4.372   2.205   5.755  0.2296 -0.4689 -0.1326
 5760SOL    HW128913   4.331   2.135   5.805  2.4357 -2.2149 -0.7802
 5760SOL    HW228914   4.311   2.226   5.684  1.6692 -0.7958 -1.4615
 5761SOL     OW28915   3.062   1.422  10.256 -0.0335 -0.1206  0.4416
 5761SOL    HW128916   3.072   1.333  10.290 -1.4110 -0.4463  0.0050
 5761SOL    HW228917   3.148   1.424  10.214  1.2227  0.0572  3.0096
 5762SOL     OW28918   4.538   4.375   5.747 -0.2826 -0.0697 -0.1604
 5762SOL    HW128919   4.521   4.414   5.661 -0.9819  1.8913  0.8773
 5762SOL    HW228920   4.623   4.409   5.776 -0.5890 -0.1994  0.8814
 5763SOL     OW28921   2.728   3.411   6.548  0.0382  0.3696 -0.9925
 5763SOL    HW128922   2.658   3.399   6.612  1.1302  1.6340  0.4269
 5763SOL    HW228923   2.806   3.389   6.600 -0.5035  1.5989  0.3429
 5764SOL     OW28924   3.555   2.908   3.574  0.0179  0.1627 -0.1699
 5764SOL    HW128925   3.591   2.916   3.486  0.4384  0.5149  0.0337
 5764SOL    HW228926   3.630   2.941   3.623 -0.7476 -0.3618  1.3813
 5765SOL     OW28927   2.381   4.491   6.761  0.2770  0.1453 -0.6303
 5765SOL    HW128928   2.382   4.423   6.695 -0.8732  0.2337 -0.7318
 5765SOL    HW228929   2.387   4.568   6.704  0.2123  0.0177 -0.8059
 5766SOL     OW28930   4.597   3.813   3.910  0.0850 -0.2591  0.2830
 5766SOL    HW128931   4.564   3.873   3.977 -0.8298 -0.1986 -0.2165
 5766SOL    HW228932   4.538   3.827   3.836  0.8446  1.6011  0.0207
 5767SOL     OW28933   0.466   0.700   5.134 -0.1888  0.0688  0.5244
 5767SOL    HW128934   0.413   0.774   5.163 -1.0959 -1.3870  2.6621
 5767SOL    HW228935   0.514   0.699   5.217 -0.8321 -1.0083  0.8872
 5768SOL     OW28936   4.240   3.105   5.434 -0.2506 -0.0611  0.0601
 5768SOL    HW128937   4.234   3.195   5.401 -1.5521  0.7811  2.5493
 5768SOL    HW228938   4.232   3.116   5.529 -0.2291 -0.4389  0.1041
 5769SOL     OW28939   2.709   3.113   2.830 -0.5220 -0.3453 -0.6396
 5769SOL    HW128940   2.617   3.137   2.825  0.0968  2.3593  0.9580
 5769SOL    HW228941   2.736   3.116   2.738 -2.6517 -1.4857 -1.2911
 5770SOL     OW28942   1.677   4.122   6.345 -0.1953  0.0687  0.0121
 5770SOL    HW128943   1.697   4.047   6.289  0.2204  0.4690 -0.3876
 5770SOL    HW228944   1.650   4.071   6.421  1.8932  0.6432  1.1432
 5771SOL     OW28945   1.379   3.712   0.298 -0.1533  0.1241 -0.1298
 5771SOL    HW128946   1.425   3.634   0.267 -1.1882 -0.0314 -1.2599
 5771SOL    HW228947   1.340   3.689   0.383 -1.6967  1.1400 -0.5806
 5772SOL     OW28948   3.139   1.295  11.890 -0.0065 -0.8085  0.1572
 5772SOL    HW128949   3.229   1.313  11.861 -0.4527 -0.9955 -1.3460
 5772SOL    HW228950   3.098   1.378  11.865  1.1287 -0.2019  0.3036
 5773SOL     OW28951   0.184   4.472  11.955 -0.2953  0.0667 -0.5618
 5773SOL    HW128952   0.244   4.401  11.976 -1.7262 -2.0641 -3.6078
 5773SOL    HW228953   0.223   4.541  12.009  0.2480 -0.9516  0.3531
 5774SOL     OW28954   3.936   0.563   9.356 -0.2585  0.6060 -0.2208
 5774SOL    HW128955   4.002   0.494   9.367  0.9140  1.5797 -0.9804
 5774SOL    HW228956   3.927   0.602   9.443  2.9073  2.5382 -0.7371
 5775SOL     OW28957   4.662   2.090  12.308  0.4096  0.0339  0.3742
 5775SOL    HW128958   4.612   2.127  12.380  0.3263  1.1124 -0.2379
 5775SOL    HW228959   4.628   2.000  12.299 -1.2674  0.7132 -0.1238
 5776SOL     OW28960   3.709   3.640  17.556  0.3745 -0.3737 -0.1469
 5776SOL    HW128961   3.661   3.605  17.631 -1.4745  0.5920 -0.8835
 5776SOL    HW228962   3.635   3.689  17.519  0.7603  1.1095  1.0329
 5777SOL     OW28963   1.327   2.612   1.766  0.3253 -0.5923 -0.1719
 5777SOL    HW128964   1.413   2.651   1.749  0.5759 -0.7547  0.7571
 5777SOL    HW228965   1.299   2.653   1.847  0.6432  0.1093 -0.4122
 5778SOL     OW28966   1.011   1.542   7.434 -0.1784 -0.3899 -0.2081
 5778SOL    HW128967   1.029   1.464   7.486  0.8953  0.0355  0.0580
 5778SOL    HW228968   1.037   1.520   7.345  0.1415 -0.9559  0.0224
 5779SOL     OW28969   1.599   4.518   5.955  0.2850  0.3472  0.0957
 5779SOL    HW128970   1.661   4.484   6.019 -0.0436  1.3638  0.9615
 5779SOL    HW228971   1.572   4.435   5.917  1.1476  0.8671 -1.6812
 5780SOL     OW28972   1.271   0.134  15.288  0.0094 -0.2351 -0.7658
 5780SOL    HW128973   1.258   0.073  15.215 -0.2433 -0.3948 -0.5890
 5780SOL    HW228974   1.311   0.205  15.238  1.0482  0.0274  0.4354
 5781SOL     OW28975   0.867   0.818   5.143  0.1098  0.1594 -0.3084
 5781SOL    HW128976   0.808   0.759   5.094 -0.0745 -0.4503  0.6424
 5781SOL    HW228977   0.932   0.834   5.076  0.2166  1.1564  0.0434
 5782SOL     OW28978   1.138   0.115  10.025 -0.0737 -0.0797  0.2575
 5782SOL    HW128979   1.099   0.119  10.113  1.0430 -0.8274  0.7802
 5782SOL    HW228980   1.229   0.124  10.051  0.0729  1.0674 -0.6389
 5783SOL     OW28981   2.260   3.306  16.608 -0.3710  0.1246  0.1989
 5783SOL    HW128982   2.256   3.256  16.526 -1.9729 -0.3570  0.5677
 5783SOL    HW228983   2.331   3.368  16.594 -0.0281 -0.0116  1.3095
 5784SOL     OW28984   1.459   2.971   0.509  0.3553 -0.0380  0.0034
 5784SOL    HW128985   1.374   3.001   0.476  0.4761 -1.8396 -1.9095
 5784SOL    HW228986   1.464   2.881   0.477 -2.5361 -0.3183  0.3335
 5785SOL     OW28987   0.618   1.042   9.664 -0.2382  0.2009 -0.9007
 5785SOL    HW128988   0.582   1.052   9.752  1.5008  0.2458 -0.1948
 5785SOL    HW228989   0.573   0.973   9.617  0.1342  0.1425 -1.1737
 5786SOL     OW28990   1.414   0.119   4.294  0.1105 -0.0367  0.1416
 5786SOL    HW128991   1.331   0.100   4.250 -0.5661  2.2737  0.3945
 5786SOL    HW228992   1.460   0.036   4.297  1.6844  0.8638  1.1181
 5787SOL     OW28993   3.614   3.223   5.631  0.2638  0.1880 -0.2048
 5787SOL    HW128994   3.695   3.268   5.607  1.7802 -2.4830 -0.0944
 5787SOL    HW228995   3.636   3.141   5.675 -2.9222 -0.5013  0.0913
 5788SOL     OW28996   3.006   0.419   2.336 -0.1697  0.2122 -0.7836
 5788SOL    HW128997   3.076   0.358   2.359  0.8402  2.0779  1.0869
 5788SOL    HW228998   2.948   0.409   2.412 -0.1337  1.9029 -0.5469
 5789SOL     OW28999   4.292   0.484  16.562 -0.1670 -0.0167  0.3545
 5789SOL    HW129000   4.337   0.412  16.606 -0.8214 -2.4242 -2.8881
 5789SOL    HW229001   4.354   0.513  16.495  1.1167 -0.8767  1.1567
 5790SOL     OW29002   3.241   0.034   6.576  0.4769  0.9006  0.0039
 5790SOL    HW129003   3.236   4.715   6.656  2.9875  0.3829 -0.1829
 5790SOL    HW229004   3.191   4.714   6.513  0.4772  1.1175 -0.1787
 5791SOL     OW29005   1.711   2.991  17.632  0.0196  0.3297  0.8021
 5791SOL    HW129006   1.696   3.061  17.696 -3.5531  1.5394 -1.3494
 5791SOL    HW229007   1.781   3.034  17.582 -0.5654  1.3619  0.8709
 5792SOL     OW29008   2.755   3.955   0.597  0.6153  0.3290  0.2465
 5792SOL    HW129009   2.685   4.018   0.614  1.4699  2.2297 -3.3877
 5792SOL    HW229010   2.746   3.897   0.673  2.1485  1.4070  1.2640
 5793SOL     OW29011   1.343   3.025   2.708  0.1515 -0.7183  0.1080
 5793SOL    HW129012   1.435   3.010   2.731 -0.1120 -1.3223  0.7885
 5793SOL    HW229013   1.308   3.070   2.784 -0.9268 -0.9144 -0.2828
 5794SOL     OW29014   3.201   3.380  13.771 -0.9368 -0.4984  0.0138
 5794SOL    HW129015   3.113   3.409  13.746 -1.1185 -1.0830 -0.0398
 5794SOL    HW229016   3.260   3.435  13.720 -0.0805  0.2840  1.8554
 5795SOL     OW29017   2.136   1.207   7.188 -0.0909 -0.2529 -0.2202
 5795SOL    HW129018   2.125   1.260   7.267 -1.6141  1.5316 -1.6218
 5795SOL    HW229019   2.104   1.272   7.125 -0.2648 -0.0748  0.0563
 5796SOL     OW29020   3.818   4.460   6.977 -0.3330  0.1627 -0.5647
 5796SOL    HW129021   3.905   4.433   7.006 -0.5159  0.8188  0.6130
 5796SOL    HW229022   3.764   4.381   6.979  1.9266 -1.3838 -0.2913
 5797SOL     OW29023   1.620   2.273   1.098  0.2752  0.1358 -0.4132
 5797SOL    HW129024   1.699   2.323   1.080  0.6664 -0.0865  0.6767
 5797SOL    HW229025   1.554   2.340   1.114  0.3793  0.7156 -2.4649
 5798SOL     OW29026   2.810   3.302  14.407 -0.0150  0.4534 -0.9557
 5798SOL    HW129027   2.874   3.366  14.437  1.4606 -1.6523  0.3718
 5798SOL    HW229028   2.837   3.224  14.456 -2.9737 -0.9179 -1.4935
 5799SOL     OW29029   3.458   1.787  16.104 -0.2573  0.0817 -0.1876
 5799SOL    HW129030   3.516   1.749  16.169  1.4511  2.5034 -0.2727
 5799SOL    HW229031   3.382   1.729  16.103 -1.8685  2.1757  0.8642
 5800SOL     OW29032   0.219   1.198  13.082  0.4113 -0.0871 -0.1004
 5800SOL    HW129033   0.207   1.272  13.023 -2.2859 -0.7943 -0.4315
 5800SOL    HW229034   0.300   1.236  13.117 -1.2974  0.0432  3.6688
 5801SOL     OW29035   1.983   3.491  13.238 -1.1600 -0.0599 -0.1754
 5801SOL    HW129036   1.975   3.586  13.232 -2.4154 -0.0291  1.9183
 5801SOL    HW229037   2.077   3.474  13.240 -1.3506 -1.0599  0.0720
 5802SOL     OW29038   3.391   4.530  14.577  0.1250 -0.1103  0.0400
 5802SOL    HW129039   3.403   4.461  14.513 -1.5582  0.3787 -0.8076
 5802SOL    HW229040   3.307   4.508  14.616 -0.0380  0.7951  0.2039
 5803SOL     OW29041   2.240   1.287   8.363 -0.4303  0.5753  0.0575
 5803SOL    HW129042   2.253   1.359   8.424  2.6781 -1.6150  1.9436
 5803SOL    HW229043   2.208   1.335   8.286 -2.5181 -1.3460 -0.2589
 5804SOL     OW29044   2.538   4.015   5.464 -0.4382  0.7057 -0.0335
 5804SOL    HW129045   2.456   3.978   5.432  1.2621 -3.4000  0.4344
 5804SOL    HW229046   2.567   3.939   5.515  0.1870  1.0691  0.1620
 5805SOL     OW29047   1.118   3.149  15.867 -0.0870  0.6536  0.3569
 5805SOL    HW129048   1.027   3.176  15.879  0.3789  2.2479  0.3904
 5805SOL    HW229049   1.106   3.069  15.917 -1.5249  1.1210  0.7513
 5806SOL     OW29050   1.855   3.721   8.545  0.5008 -0.3800 -0.3932
 5806SOL    HW129051   1.916   3.655   8.578  0.5101  0.4735  1.2856
 5806SOL    HW229052   1.828   3.692   8.458  3.4714 -1.0484 -1.0734
 5807SOL     OW29053   4.104   1.542   2.025 -0.4541 -0.1565  0.0613
 5807SOL    HW129054   4.091   1.548   1.930 -0.9965 -1.2057  0.0717
 5807SOL    HW229055   4.198   1.527   2.032 -0.7857 -2.0347  0.4231
 5808SOL     OW29056   1.899   0.096   7.790 -0.2029  0.2668  0.5238
 5808SOL    HW129057   1.854   0.035   7.849  2.8190  0.2003  2.7359
 5808SOL    HW229058   1.979   0.047   7.770 -1.7594 -2.5213  1.0380
 5809SOL     OW29059   1.075   4.695   8.727 -0.2366  0.3900 -0.2877
 5809SOL    HW129060   1.103   0.030   8.666 -0.1650 -2.8007 -3.7272
 5809SOL    HW229061   0.983   4.719   8.743 -0.8491 -0.8732 -1.9341
 5810SOL     OW29062   0.182   3.689  13.253  0.9124  0.2238  0.3208
 5810SOL    HW129063   0.236   3.630  13.200  0.9776 -1.2740  2.0572
 5810SOL    HW229064   0.123   3.635  13.305 -1.9653  1.9153 -1.2404
 5811SOL     OW29065   3.528   2.432   9.457 -0.2576 -0.2970  0.7591
 5811SOL    HW129066   3.449   2.485   9.471 -0.1840  0.0818 -0.2623
 5811SOL    HW229067   3.581   2.492   9.405 -0.8565 -0.0188  0.4760
 5812SOL     OW29068   0.094   3.454   1.640  0.0183  0.1022 -0.8374
 5812SOL    HW129069   0.080   3.482   1.550 -0.0700  0.1221 -0.8172
 5812SOL    HW229070   0.045   3.371   1.646  2.4291 -1.1246  2.4464
 5813SOL     OW29071   3.196   1.468  11.371  0.3395 -0.0608 -0.4722
 5813SOL    HW129072   3.146   1.386  11.376 -0.4637  0.5746  1.8192
 5813SOL    HW229073   3.147   1.508  11.299 -1.0927  0.3480  0.7332
 5814SOL     OW29074   2.478   0.225   4.790  0.2660 -0.5530 -0.5659
 5814SOL    HW129075   2.394   0.189   4.818  0.0296  0.5485  0.1198
 5814SOL    HW229076   2.549   0.164   4.809 -1.8861 -2.4903  1.1325
 5815SOL     OW29077   4.266   0.769   3.122 -0.1326 -0.1039 -0.3425
 5815SOL    HW129078   4.240   0.726   3.203  1.1538 -0.8302 -0.3237
 5815SOL    HW229079   4.341   0.821   3.151  0.8108 -0.6383 -1.8098
 5816SOL     OW29080   0.753   1.612   6.168 -0.0186 -0.1896  0.2961
 5816SOL    HW129081   0.795   1.619   6.082  1.9695  3.8032  1.5579
 5816SOL    HW229082   0.724   1.521   6.167  1.2806 -0.6083  0.5466
 5817SOL     OW29083   1.539   0.436   3.125  0.7283  0.2051  0.2100
 5817SOL    HW129084   1.625   0.466   3.096  1.4256 -0.4683  1.5521
 5817SOL    HW229085   1.509   0.397   3.043 -1.2435 -0.4261  1.2290
 5818SOL     OW29086   0.070   4.263   6.220  0.0250 -0.2470 -0.1579
 5818SOL    HW129087   0.104   4.346   6.187  0.3353 -0.2045  0.2598
 5818SOL    HW229088   0.089   4.199   6.151  1.1899  0.0719 -0.1316
 5819SOL     OW29089   3.529   1.754   4.879  0.2627 -0.2966 -0.6663
 5819SOL    HW129090   3.522   1.659   4.865 -0.2225 -0.6745  1.9834
 5819SOL    HW229091   3.498   1.791   4.797  1.0715  0.8683 -0.4482
 5820SOL     OW29092   1.351   1.439   6.492 -0.6338  0.1809 -0.0567
 5820SOL    HW129093   1.338   1.522   6.446 -3.9199 -0.5272 -0.4037
 5820SOL    HW229094   1.435   1.457   6.534 -1.6316  1.0329  1.5817
 5821SOL     OW29095   0.065   3.752   6.330  0.5138  0.2772  0.0885
 5821SOL    HW129096   0.019   3.716   6.406  2.9417  0.0351  1.4539
 5821SOL    HW229097   0.123   3.823   6.357  0.1074 -0.0073  1.7033
 5822SOL     OW29098   0.207   2.409   9.373  0.6915  0.0850  0.1316
 5822SOL    HW129099   0.221   2.412   9.279  0.6918 -3.8437  0.0179
 5822SOL    HW229100   0.220   2.318   9.400 -3.5760 -0.4220  0.4429
 5823SOL     OW29101   2.769   4.073   3.274 -0.0052  0.2246 -0.4644
 5823SOL    HW129102   2.820   4.027   3.207 -0.9729 -2.4430  0.6393
 5823SOL    HW229103   2.683   4.073   3.232 -0.7892  0.5650  1.1623
 5824SOL     OW29104   1.104   4.056   4.124  1.2479  0.2717  0.0203
 5824SOL    HW129105   1.036   4.094   4.068 -0.0962 -1.3236  0.5777
 5824SOL    HW229106   1.152   4.001   4.063  1.2474 -0.8179  1.0158
 5825SOL     OW29107   0.096   1.764   5.838 -0.0483  0.4196  0.0527
 5825SOL    HW129108   0.176   1.728   5.875 -0.4791 -0.9020 -0.3013
 5825SOL    HW229109   0.138   1.838   5.794  0.5631 -0.6900 -1.2301
 5826SOL     OW29110   0.437   4.043   1.921  0.5275  0.1207  0.7899
 5826SOL    HW129111   0.354   3.998   1.932  1.4222 -1.1285  2.4524
 5826SOL    HW229112   0.408   4.131   1.897  1.9123  0.6843  1.1768
 5827SOL     OW29113   2.769   4.494   1.387  0.0426  0.0433  0.5882
 5827SOL    HW129114   2.691   4.541   1.416 -0.3635 -2.2789  3.2609
 5827SOL    HW229115   2.826   4.526   1.457  0.1433  1.9410 -0.3440
 5828SOL     OW29116   1.746   2.056   4.824  0.1745  0.2218 -0.5171
 5828SOL    HW129117   1.703   2.110   4.757 -0.4184 -1.6890 -1.6668
 5828SOL    HW229118   1.687   1.982   4.838  0.0232  0.2596 -0.9459
 5829SOL     OW29119   3.332   2.460  17.299  0.2748  0.7190  0.1885
 5829SOL    HW129120   3.336   2.366  17.315  0.2148  0.7857  0.6078
 5829SOL    HW229121   3.387   2.464  17.221 -0.9370 -1.2464 -0.7797
 5830SOL     OW29122   0.943   2.475  16.252 -0.2954  0.0550 -0.3073
 5830SOL    HW129123   0.977   2.420  16.181  2.3720  0.4804  0.6470
 5830SOL    HW229124   0.957   2.561  16.214 -0.3659 -0.4188 -1.4015
 5831SOL     OW29125   2.840   0.344  17.426 -0.3963  0.0085 -0.2890
 5831SOL    HW129126   2.877   0.361  17.512 -0.9663 -0.9277  0.1431
 5831SOL    HW229127   2.874   0.260  17.398 -1.9620  0.4497 -3.5538
 5832SOL     OW29128   3.219   1.300   4.516  0.2374  0.3846  0.1741
 5832SOL    HW129129   3.151   1.248   4.559  0.0535  1.7776  1.5582
 5832SOL    HW229130   3.168   1.377   4.491  0.0663 -0.4823 -2.0982
 5833SOL     OW29131   0.672   1.343  10.448  0.1715 -0.5237  0.1673
 5833SOL    HW129132   0.712   1.262  10.415  0.1532 -0.4590 -0.0120
 5833SOL    HW229133   0.603   1.302  10.500  0.7011 -2.3549 -0.5477
 5834SOL     OW29134   0.982   0.922   4.049 -0.0105 -0.0811 -0.4603
 5834SOL    HW129135   1.068   0.931   4.091  1.0325  2.1903 -3.1503
 5834SOL    HW229136   1.003   0.953   3.961  1.5086  0.2593  0.0251
 5835SOL     OW29137   2.535   0.890   7.439  0.4306 -0.0609  0.8470
 5835SOL    HW129138   2.468   0.861   7.502  1.2951 -0.8849  1.3945
 5835SOL    HW229139   2.598   0.939   7.491  0.1582  0.8816  0.2805
 5836SOL     OW29140   1.235   4.671   7.101  0.3154  0.3909  0.7385
 5836SOL    HW129141   1.298   4.604   7.073 -1.1125 -0.5485 -0.2271
 5836SOL    HW229142   1.289   4.720   7.163  0.4985 -1.4597  2.0705
 5837SOL     OW29143   3.770   1.403   4.862  0.2623 -0.5706 -0.3213
 5837SOL    HW129144   3.685   1.448   4.859  0.5428  0.0667  1.8682
 5837SOL    HW229145   3.780   1.402   4.957  1.7406  1.9781 -0.4437
 5838SOL     OW29146   1.216   3.485  13.845  0.8830  0.4730  0.0531
 5838SOL    HW129147   1.281   3.539  13.890  0.3402  0.0995  1.2910
 5838SOL    HW229148   1.194   3.541  13.770 -0.4129  1.6830  1.3380
 5839SOL     OW29149   3.304   0.630  11.860 -0.6262 -0.2494  0.0958
 5839SOL    HW129150   3.300   0.721  11.829 -3.3117  0.4100  2.3132
 5839SOL    HW229151   3.210   0.619  11.875 -0.2567 -0.2884  2.3969
 5840SOL     OW29152   3.906   0.344  16.062  0.1888 -0.0594  0.4840
 5840SOL    HW129153   3.981   0.295  16.029 -0.8924 -1.8251  0.6284
 5840SOL    HW229154   3.896   0.320  16.155  0.7313  1.9230  1.0581
 5841SOL     OW29155   4.096   4.648   7.633 -0.0891 -0.2381 -0.1890
 5841SOL    HW129156   4.114   4.575   7.574  0.4159 -1.2897  1.2836
 5841SOL    HW229157   4.072   4.600   7.712 -0.8160  1.3184  0.5373
 5842SOL     OW29158   2.561   1.564  12.782 -0.0305  0.3269 -0.2576
 5842SOL    HW129159   2.636   1.623  12.790 -0.2779  0.5938  0.1202
 5842SOL    HW229160   2.487   1.612  12.820 -0.6272 -0.8007 -0.0194
 5843SOL     OW29161   0.381   1.266   1.579 -0.4906  0.4050  0.0770
 5843SOL    HW129162   0.303   1.311   1.548 -2.3694 -3.4993 -0.8085
 5843SOL    HW229163   0.452   1.323   1.548  1.6061 -2.8326 -1.1317
 5844SOL     OW29164   1.985   2.742   2.236  0.2918 -0.6268  0.0208
 5844SOL    HW129165   1.973   2.734   2.141  0.9196 -0.9726 -0.0292
 5844SOL    HW229166   1.942   2.666   2.275  0.3654 -0.5920  0.1669
 5845SOL     OW29167   0.633   1.794   8.839 -0.5151  0.3806  0.6382
 5845SOL    HW129168   0.594   1.816   8.754 -1.8677  0.7412  1.3483
 5845SOL    HW229169   0.725   1.785   8.815  0.3043  0.4922  3.7694
 5846SOL     OW29170   0.558   2.570   5.536  0.5053 -0.1353 -1.0852
 5846SOL    HW129171   0.563   2.640   5.601  0.0532  0.2790 -1.4997
 5846SOL    HW229172   0.621   2.505   5.566 -1.3819 -1.7260 -0.5586
 5847SOL     OW29173   4.373   0.903   4.641  0.1076 -0.1029  0.0329
 5847SOL    HW129174   4.467   0.891   4.627 -0.0619  0.3160 -1.4287
 5847SOL    HW229175   4.343   0.815   4.616 -1.1133 -0.4313  2.6997
 5848SOL     OW29176   3.815   0.538   3.201  0.3991  0.0123  0.1193
 5848SOL    HW129177   3.734   0.545   3.252  1.1809  0.1010  1.3708
 5848SOL    HW229178   3.865   0.475   3.253  1.0063 -0.3361 -0.9022
 5849SOL     OW29179   2.073   2.791   5.334 -0.1105  0.4359  0.1757
 5849SOL    HW129180   1.987   2.803   5.374 -0.9196 -0.0855 -1.4056
 5849SOL    HW229181   2.053   2.731   5.262  0.5560 -0.7884  0.9875
 5850SOL     OW29182   0.715   4.536   8.297 -0.4886 -0.0266  0.2362
 5850SOL    HW129183   0.690   4.532   8.389  2.8493  2.8073  1.2547
 5850SOL    HW229184   0.644   4.593   8.266  0.1859  0.2809 -0.7525
 5851SOL     OW29185   3.064   4.563   6.453 -0.5430 -0.1680  0.5852
 5851SOL    HW129186   3.062   4.527   6.542 -0.4538 -2.6253 -0.4336
 5851SOL    HW229187   2.976   4.600   6.458  0.0153  1.1496  0.9741
 5852SOL     OW29188   2.541   1.907  13.029  1.1790  0.0435 -0.2805
 5852SOL    HW129189   2.580   1.858  13.101 -0.6767  0.2317  0.8601
 5852SOL    HW229190   2.506   1.979  13.083  2.8132 -0.0710  0.9317
 5853SOL     OW29191   1.978   2.847   8.187  0.1309 -0.3130  0.1850
 5853SOL    HW129192   2.072   2.849   8.175  0.2531 -4.1367  0.5272
 5853SOL    HW229193   1.949   2.795   8.112  1.3808  0.0043 -0.5049
 5854SOL     OW29194   1.018   1.530   6.822 -0.1635 -0.4898 -0.4238
 5854SOL    HW129195   1.042   1.620   6.800  1.6415 -0.7286  0.5624
 5854SOL    HW229196   0.930   1.540   6.784  0.3063  0.8014 -1.1878
 5855SOL     OW29197   1.150   2.525  13.645  0.3138 -0.2879 -0.2676
 5855SOL    HW129198   1.148   2.458  13.713 -0.2102 -0.1079 -0.0994
 5855SOL    HW229199   1.169   2.609  13.687 -1.3396  0.1217 -0.3205
 5856SOL     OW29200   1.167   0.472   2.916 -0.2656 -0.3276 -0.2404
 5856SOL    HW129201   1.254   0.443   2.944 -0.6681  1.3764  2.7850
 5856SOL    HW229202   1.180   0.478   2.822 -0.4450  0.7348 -0.1959
 5857SOL     OW29203   2.104   2.958   4.767 -0.1452 -0.1446  0.1515
 5857SOL    HW129204   2.110   2.922   4.856  1.7498  2.0333  0.9117
 5857SOL    HW229205   2.149   2.889   4.718  0.3692  1.0305 -1.0477
 5858SOL     OW29206   1.753   1.666   3.799  0.1013 -0.1533 -0.4722
 5858SOL    HW129207   1.807   1.737   3.833 -0.7725  0.8586 -1.2212
 5858SOL    HW229208   1.753   1.680   3.705  0.5236  1.4690 -0.2251
 5859SOL     OW29209   2.717   0.657  16.197 -0.2595  0.3315  0.1102
 5859SOL    HW129210   2.688   0.683  16.110 -3.4140 -0.7763  0.7962
 5859SOL    HW229211   2.769   0.579  16.176 -1.2783 -0.1306 -0.7175
 5860SOL     OW29212   0.978   3.921   7.958 -0.4362 -0.0182  0.0669
 5860SOL    HW129213   0.981   3.937   8.052 -1.7217 -1.1246  0.2962
 5860SOL    HW229214   0.947   4.006   7.925  0.9551  1.1261  1.7026
 5861SOL     OW29215   1.863   0.946   7.531 -0.6629  0.5347 -0.0536
 5861SOL    HW129216   1.928   0.909   7.590 -2.1846 -1.5373  0.2952
 5861SOL    HW229217   1.780   0.924   7.573 -0.2045 -0.1778  0.4622
 5862SOL     OW29218   3.399   1.005  12.294 -0.1752 -0.2963 -0.4105
 5862SOL    HW129219   3.481   0.958  12.310 -0.1963 -1.2010 -2.8964
 5862SOL    HW229220   3.342   0.940  12.254  0.8595 -1.8357  0.6419
 5863SOL     OW29221   4.167   3.647   4.363  0.6054  0.2568  0.0117
 5863SOL    HW129222   4.196   3.647   4.272  3.0719 -2.4373  0.7987
 5863SOL    HW229223   4.080   3.686   4.363  0.8378  0.7797 -0.0362
 5864SOL     OW29224   0.142   1.527   2.071 -0.0978  0.2252 -0.2399
 5864SOL    HW129225   0.227   1.564   2.048 -0.8384  0.7562 -2.1074
 5864SOL    HW229226   0.152   1.522   2.166  0.8106  0.3823 -0.3312
 5865SOL     OW29227   3.646   2.168   7.594 -0.0627 -0.0481  0.5083
 5865SOL    HW129228   3.588   2.099   7.627  0.3851 -0.3902  0.5906
 5865SOL    HW229229   3.622   2.251   7.636 -1.4603 -0.2890  0.1602
 5866SOL     OW29230   3.670   3.279   1.403 -0.4520  0.1952  0.3569
 5866SOL    HW129231   3.622   3.236   1.333 -2.0281  1.4100  0.6937
 5866SOL    HW229232   3.716   3.346   1.352 -0.0348 -0.9558 -0.7824
 5867SOL     OW29233   0.384   1.241   3.078 -0.1469  0.7483  0.4208
 5867SOL    HW129234   0.358   1.332   3.092  1.5141  1.0720  1.3994
 5867SOL    HW229235   0.340   1.232   2.993 -0.8895 -1.8128  1.0618
 5868SOL     OW29236   3.735   2.593   8.043 -0.0777  0.0534 -0.2793
 5868SOL    HW129237   3.677   2.669   8.048  0.1240  0.0960  1.4629
 5868SOL    HW229238   3.742   2.545   8.126 -1.6061 -0.5740 -0.5168
 5869SOL     OW29239   2.123   2.627  13.039 -0.3524 -0.3657  0.2297
 5869SOL    HW129240   2.103   2.715  13.071  1.5226  0.6141 -1.2799
 5869SOL    HW229241   2.182   2.650  12.968  0.2754  0.7613  1.1077
 5870SOL     OW29242   0.641   1.900   1.906  0.1341  0.0710  0.0824
 5870SOL    HW129243   0.621   1.947   1.987 -0.5795  0.3933 -0.2843
 5870SOL    HW229244   0.710   1.952   1.866  1.9500 -0.7037  2.2085
 5871SOL     OW29245   1.562   3.849   6.418  0.0777  0.0431 -0.0351
 5871SOL    HW129246   1.622   3.800   6.474  0.9650  0.6276 -0.4641
 5871SOL    HW229247   1.563   3.792   6.341 -0.1299 -0.3230  0.2338
 5872SOL     OW29248   0.190   3.627   7.310  0.7183  0.2770  0.0798
 5872SOL    HW129249   0.220   3.634   7.219  1.0871 -1.9484  0.0232
 5872SOL    HW229250   0.266   3.653   7.362 -1.6050  0.1633  3.5525
 5873SOL     OW29251   2.512   3.926   4.123 -0.1863  0.2740  0.6024
 5873SOL    HW129252   2.550   4.010   4.098 -3.2694  1.4426 -0.1429
 5873SOL    HW229253   2.586   3.867   4.136  0.9322  1.6205  0.2687
 5874SOL     OW29254   3.837   2.781   3.568  0.5319 -0.4909  0.3679
 5874SOL    HW129255   3.810   2.848   3.505  1.1383 -1.1904 -0.6201
 5874SOL    HW229256   3.838   2.709   3.506 -2.3830  0.2124 -0.5153
 5875SOL     OW29257   0.119   0.402  17.614  0.2611  0.2330 -0.0618
 5875SOL    HW129258   0.152   0.400  17.524 -0.4311  1.5707 -0.3402
 5875SOL    HW229259   0.188   0.446  17.662 -0.9052  1.7645  0.2024
 5876SOL     OW29260   1.250   1.404  14.961 -1.1631 -0.0425  0.7827
 5876SOL    HW129261   1.249   1.310  14.945 -0.9629  0.3703 -1.6824
 5876SOL    HW229262   1.233   1.434  14.871 -2.3778  0.3622  1.1499
 5877SOL     OW29263   4.629   2.463   2.476 -0.0289  0.5560  0.0513
 5877SOL    HW129264   4.596   2.486   2.390  0.2995  2.0451  0.3238
 5877SOL    HW229265   4.581   2.517   2.538 -0.3605  0.4162 -0.0852
 5878SOL     OW29266   3.183   0.638  16.597 -0.1090  0.0541 -0.3325
 5878SOL    HW129267   3.108   0.605  16.647  1.1177  1.5165  2.4803
 5878SOL    HW229268   3.257   0.609  16.650 -0.3801  0.7956  0.4571
 5879SOL     OW29269   0.644   4.159   4.779  0.1093 -0.1160 -0.2547
 5879SOL    HW129270   0.614   4.244   4.748  2.3148  1.0255  0.7873
 5879SOL    HW229271   0.572   4.100   4.756  0.5421 -1.0848  0.8692
 5880SOL     OW29272   4.410   4.200   7.098  0.0721  0.5350  0.0450
 5880SOL    HW129273   4.347   4.238   7.037  0.8879 -0.0443 -1.1642
 5880SOL    HW229274   4.476   4.169   7.036 -0.7549  0.2077 -0.6723
 5881SOL     OW29275   0.285   0.942  14.424  0.4800 -0.1638  0.0831
 5881SOL    HW129276   0.323   1.000  14.490  0.9842  1.5537 -1.6876
 5881SOL    HW229277   0.193   0.957  14.442  0.6749  0.3571  0.6634
 5882SOL     OW29278   0.954   3.300   1.643  0.1325  0.1128  0.1978
 5882SOL    HW129279   0.989   3.385   1.671  1.2551  0.5809 -2.5892
 5882SOL    HW229280   1.025   3.268   1.586  0.9786  1.1934  0.6389
 5883SOL     OW29281   2.697   2.808  16.295 -0.2751 -0.2590  0.5009
 5883SOL    HW129282   2.668   2.774  16.210 -0.7387  0.5905  0.3107
 5883SOL    HW229283   2.696   2.902  16.280 -2.4336 -0.4083 -0.2928
 5884SOL     OW29284   3.181   2.544   1.867  0.1709 -0.5853 -0.2475
 5884SOL    HW129285   3.226   2.528   1.950 -1.6076  1.4730  1.0882
 5884SOL    HW229286   3.223   2.628   1.852  0.2563 -0.7679 -1.0763
 5885SOL     OW29287   0.765   2.504   0.854 -0.1194  0.6438 -0.6166
 5885SOL    HW129288   0.687   2.451   0.839  0.8910 -0.5202 -1.6845
 5885SOL    HW229289   0.770   2.544   0.767  0.3913  2.0259  0.0466
 5886SOL     OW29290   0.877   3.233   2.095 -0.1844  0.2917 -0.0327
 5886SOL    HW129291   0.843   3.321   2.113 -1.0343 -0.4995  2.1900
 5886SOL    HW229292   0.839   3.219   2.008  0.6734  2.1501 -0.7123
 5887SOL     OW29293   0.753   3.418  15.191 -0.1784 -0.6813  0.7897
 5887SOL    HW129294   0.731   3.429  15.284 -0.9403  1.1729  0.3723
 5887SOL    HW229295   0.839   3.459  15.194  1.1097 -3.3316  0.6233
 5888SOL     OW29296   0.247   0.532   5.739 -0.1993 -0.1049 -0.4468
 5888SOL    HW129297   0.302   0.490   5.805 -0.1241 -0.3429 -0.6611
 5888SOL    HW229298   0.281   0.511   5.652 -1.8263  0.4366 -1.1913
 5889SOL     OW29299   2.571   3.730   5.144  0.1091 -0.0524  0.0415
 5889SOL    HW129300   2.645   3.768   5.193  0.9684  0.1700 -1.4421
 5889SOL    HW229301   2.496   3.760   5.195 -0.1928 -1.8151  0.6474
 5890SOL     OW29302   1.057   3.444   3.679  0.2240  0.2959  0.5786
 5890SOL    HW129303   1.051   3.351   3.701 -0.7593 -0.0036 -0.9084
 5890SOL    HW229304   1.058   3.442   3.583 -0.9478  0.1393  0.5719
 5891SOL     OW29305   0.412   0.034   6.417  0.0821  0.1641 -0.1715
 5891SOL    HW129306   0.443   0.070   6.501 -0.4242 -0.2735  0.2031
 5891SOL    HW229307   0.488   0.054   6.362  1.4360  0.9119  1.9520
 5892SOL     OW29308   1.839   1.756   5.829 -0.1064  0.0931 -0.0965
 5892SOL    HW129309   1.890   1.802   5.895 -2.8843 -1.7571  3.3109
 5892SOL    HW229310   1.857   1.663   5.844  0.3898  0.7682  3.4093
 5893SOL     OW29311   4.045   1.259   4.043 -0.0440 -0.5097  0.0492
 5893SOL    HW129312   4.082   1.347   4.043  2.3720 -1.5261  1.1927
 5893SOL    HW229313   3.972   1.266   4.105 -0.9245  2.7419 -1.3647
 5894SOL     OW29314   2.475   3.473   6.681  0.6847  0.1380  0.2588
 5894SOL    HW129315   2.518   3.487   6.765  0.1793 -1.0061  0.7006
 5894SOL    HW229316   2.388   3.442   6.703  0.0734  1.5603 -0.1184
 5895SOL     OW29317   2.223   1.970   8.090 -0.2278  0.4290 -0.2183
 5895SOL    HW129318   2.296   1.981   8.151  0.3065  1.1353 -0.9911
 5895SOL    HW229319   2.165   2.039   8.125 -1.4364 -0.6236 -0.1487
 5896SOL     OW29320   0.162   0.141   1.529  0.0885  0.2172  0.4130
 5896SOL    HW129321   0.086   0.089   1.501  0.1109 -0.0762  0.9058
 5896SOL    HW229322   0.233   0.082   1.502 -0.6555 -0.1070 -0.8761
 5897SOL     OW29323   3.002   1.037  15.011 -0.4100 -0.1756  0.3743
 5897SOL    HW129324   3.069   0.982  15.052  0.4784 -0.6603 -1.6911
 5897SOL    HW229325   3.050   1.105  14.963  2.1550 -2.2447 -0.0138
 5898SOL     OW29326   2.992   1.335   5.377  0.0076 -0.6801  0.0034
 5898SOL    HW129327   3.035   1.368   5.298 -1.1948  1.1787  0.1411
 5898SOL    HW229328   3.059   1.367   5.439  0.9907 -2.4935 -0.1138
 5899SOL     OW29329   2.571   2.850   6.822 -0.1432  0.5229  0.4953
 5899SOL    HW129330   2.582   2.927   6.766 -1.7157  1.7127  1.8035
 5899SOL    HW229331   2.517   2.892   6.889 -1.1992 -2.7482  1.7234
 5900SOL     OW29332   3.696   1.597   5.461  0.2481  0.5624 -0.4211
 5900SOL    HW129333   3.688   1.502   5.471 -2.2759  0.8609  0.3604
 5900SOL    HW229334   3.608   1.632   5.475  1.1814  2.4444  0.7785
 5901SOL     OW29335   4.641   3.568   4.070  0.1786 -0.4050  0.0498
 5901SOL    HW129336   4.627   3.632   4.000  0.1456 -0.4493  0.0158
 5901SOL    HW229337   4.728   3.531   4.058  0.4773 -0.3767  2.1570
 5902SOL     OW29338   1.943   2.056   9.398 -0.5869 -0.4068  0.0776
 5902SOL    HW129339   1.915   1.965   9.389 -0.9034 -0.3078  0.0577
 5902SOL    HW229340   1.973   2.055   9.489  1.3496  0.1003 -0.5422
 5903SOL     OW29341   1.827   2.404  16.648  0.7962  0.0441 -0.4142
 5903SOL    HW129342   1.915   2.442  16.654  0.4560  0.3498  2.3523
 5903SOL    HW229343   1.838   2.322  16.696 -0.8035  0.4959  0.7220
 5904SOL     OW29344   2.927   1.183  12.043 -0.2172  0.6430  0.3905
 5904SOL    HW129345   2.998   1.244  12.020  0.2504 -0.3081 -0.7347
 5904SOL    HW229346   2.905   1.147  11.957 -0.2221  0.2853  0.5419
 5905SOL     OW29347   4.000   4.545   2.072 -0.3942  0.4216 -0.3757
 5905SOL    HW129348   3.983   4.477   2.138 -0.6598  2.4526  1.6356
 5905SOL    HW229349   3.956   4.616   2.118  0.0062  0.6135 -0.2890
 5906SOL     OW29350   2.305   2.026   3.528 -0.0967  0.7208  0.3238
 5906SOL    HW129351   2.266   1.965   3.590 -0.5123  1.0802  0.4177
 5906SOL    HW229352   2.283   2.105   3.577 -2.4782 -0.8341  1.7393
 5907SOL     OW29353   4.588   0.960   9.064 -0.3353  0.1547 -0.0672
 5907SOL    HW129354   4.514   0.900   9.070 -0.3331  0.2257  0.6568
 5907SOL    HW229355   4.584   1.008   9.146  0.6766  1.0063 -0.5124
 5908SOL     OW29356   2.447   3.916   0.931  0.7934 -0.3929 -0.4258
 5908SOL    HW129357   2.462   3.848   0.865  2.3143  0.6472 -1.1526
 5908SOL    HW229358   2.352   3.923   0.931  0.7858 -0.4918 -0.4352
 5909SOL     OW29359   3.774   0.413  15.159 -0.3363 -0.1309  0.3049
 5909SOL    HW129360   3.765   0.439  15.068 -1.5472  1.5972  0.9073
 5909SOL    HW229361   3.840   0.344  15.162  0.3602  0.5236 -0.4813
 5910SOL     OW29362   4.426   2.353   3.560  0.2940 -0.0483  0.3375
 5910SOL    HW129363   4.436   2.429   3.617 -1.9341  1.1637 -0.8753
 5910SOL    HW229364   4.437   2.401   3.478  0.6932 -0.3034  0.2418
 5911SOL     OW29365   4.536   1.333   0.250 -0.0006  0.4931 -0.5889
 5911SOL    HW129366   4.557   1.358   0.340 -0.6148 -2.2877  0.3415
 5911SOL    HW229367   4.507   1.243   0.262 -1.2387  1.2009  1.7070
 5912SOL     OW29368   3.346   3.364   6.530 -0.4437  0.5362 -0.6410
 5912SOL    HW129369   3.351   3.301   6.458 -1.1280  0.6001 -0.7437
 5912SOL    HW229370   3.370   3.307   6.603  2.2469  2.7835  0.2088
 5913SOL     OW29371   1.510   0.200   3.302 -0.1498 -0.1038  0.5389
 5913SOL    HW129372   1.492   0.264   3.234 -0.1997 -0.6824  0.0043
 5913SOL    HW229373   1.424   0.158   3.315 -1.0558  1.9717  1.2924
 5914SOL     OW29374   0.581   2.983   8.205 -0.2236 -0.0947 -0.7285
 5914SOL    HW129375   0.560   3.054   8.265 -0.7599 -0.0214 -1.0050
 5914SOL    HW229376   0.522   2.916   8.240  0.2120  0.1609  0.4661
 5915SOL     OW29377   0.378   3.958   9.085 -0.3583  0.0397 -0.6741
 5915SOL    HW129378   0.339   3.897   9.148 -2.2255  1.7937 -0.1579
 5915SOL    HW229379   0.426   3.903   9.022 -0.3331 -1.4868  0.6576
 5916SOL     OW29380   4.310   0.172   6.343 -0.4263 -0.2255  0.2296
 5916SOL    HW129381   4.395   0.192   6.381  0.7326 -1.6125 -1.6159
 5916SOL    HW229382   4.308   0.237   6.273  1.2713 -0.0973  0.3184
 5917SOL     OW29383   0.363   4.046   7.177  0.8052 -0.1383 -0.2467
 5917SOL    HW129384   0.352   4.052   7.082  0.8498 -1.8356 -0.3681
 5917SOL    HW229385   0.321   3.962   7.195 -0.2529  0.2162 -1.0524
 5918SOL     OW29386   2.846   4.599  12.862  0.0777  0.2082 -0.6620
 5918SOL    HW129387   2.892   4.595  12.946 -1.6753  2.0585  0.3727
 5918SOL    HW229388   2.809   4.687  12.867  0.1125  0.0739  1.6815
 5919SOL     OW29389   3.545   3.125   1.130 -0.2235  0.1006 -0.5674
 5919SOL    HW129390   3.479   3.064   1.163  0.2333 -0.7270 -1.1789
 5919SOL    HW229391   3.507   3.141   1.043  3.2511 -1.7425 -2.4110
 5920SOL     OW29392   4.498   0.738   5.551 -0.0700 -0.4674  0.1727
 5920SOL    HW129393   4.481   0.663   5.608 -2.1279 -0.6317 -0.6326
 5920SOL    HW229394   4.437   0.725   5.478 -0.0446  1.9133 -0.2660
 5921SOL     OW29395   2.122   0.652   4.707 -0.6088 -1.5021 -0.6019
 5921SOL    HW129396   2.159   0.565   4.724  2.0797 -0.2386 -0.0216
 5921SOL    HW229397   2.036   0.637   4.748  0.6793 -3.1603  1.5075
 5922SOL     OW29398   2.238   3.565   7.871  0.1570  0.4902 -0.3274
 5922SOL    HW129399   2.229   3.638   7.933  0.6859 -0.0857  0.4295
 5922SOL    HW229400   2.331   3.575   7.852 -0.0496  1.2405 -0.9273
 5923SOL     OW29401   1.250   1.615   4.250 -0.3301 -0.2251 -0.3172
 5923SOL    HW129402   1.205   1.548   4.302 -0.0679 -0.7236 -0.7347
 5923SOL    HW229403   1.341   1.615   4.280  0.0691 -0.1831 -1.5675
 5924SOL     OW29404   0.102   4.478   2.613 -0.2694  0.0483  0.2721
 5924SOL    HW129405   0.166   4.461   2.545 -1.7602 -1.5368 -0.7245
 5924SOL    HW229406   0.025   4.431   2.583  0.6801 -0.9445 -0.5905
 5925SOL     OW29407   2.712   0.431  13.760 -0.1952 -0.6824 -0.6668
 5925SOL    HW129408   2.729   0.497  13.693 -0.5999 -0.4451 -0.5367
 5925SOL    HW229409   2.736   0.351  13.713  2.5824 -0.6081  0.5557
 5926SOL     OW29410   0.819   1.353  16.304  0.3359 -0.0790 -0.3533
 5926SOL    HW129411   0.777   1.380  16.223  2.9111  0.5172 -1.4734
 5926SOL    HW229412   0.873   1.427  16.332 -1.6415  0.4189  2.2006
 5927SOL     OW29413   3.317   1.384   1.743  0.0180 -0.2567 -0.9841
 5927SOL    HW129414   3.285   1.296   1.759  2.7835 -1.4059 -1.7762
 5927SOL    HW229415   3.262   1.427   1.809  0.6033  3.0478 -2.6704
 5928SOL     OW29416   3.778   3.471   0.892  0.2543  0.1075 -0.2339
 5928SOL    HW129417   3.857   3.454   0.943  0.7016 -0.5381 -1.1434
 5928SOL    HW229418   3.808   3.531   0.823 -4.5779 -0.3433 -2.7178
 5929SOL     OW29419   4.294   0.431   7.707  0.6552 -0.1528 -0.1495
 5929SOL    HW129420   4.213   0.396   7.669  1.2433  0.6372 -2.1262
 5929SOL    HW229421   4.324   0.359   7.762  3.7039  1.7214  0.6652
 5930SOL     OW29422   2.107   4.137   1.676 -0.1097 -0.3499  0.3201
 5930SOL    HW129423   2.047   4.076   1.720  0.4030 -0.0117  1.4839
 5930SOL    HW229424   2.178   4.077   1.655 -0.6026 -1.0631  0.6711
 5931SOL     OW29425   2.941   3.910   5.254 -0.3957  0.5557  0.2525
 5931SOL    HW129426   2.964   3.820   5.231 -0.7045  0.0840  1.7920
 5931SOL    HW229427   2.908   3.892   5.342 -0.9418 -1.0560 -0.2752
 5932SOL     OW29428   4.006   1.199   0.513 -0.1246 -0.0314  0.1530
 5932SOL    HW129429   4.025   1.114   0.472  1.0446  0.5456 -0.4947
 5932SOL    HW229430   4.050   1.182   0.597  0.0648 -1.5693 -0.2540
 5933SOL     OW29431   0.871   0.881   7.557 -0.5698  0.2659 -0.6177
 5933SOL    HW129432   0.832   0.927   7.631 -1.6184 -0.4755 -0.7148
 5933SOL    HW229433   0.799   0.834   7.516  0.6508 -1.3650 -0.9140
 5934SOL     OW29434   3.106   4.317   5.659  0.2234  0.0959 -0.1564
 5934SOL    HW129435   3.176   4.275   5.708  1.0635  1.1296 -0.4906
 5934SOL    HW229436   3.051   4.241   5.637 -0.0991  0.3745 -0.3151
 5935SOL     OW29437   0.599   2.311   7.760  0.7859 -0.7182  0.4454
 5935SOL    HW129438   0.674   2.324   7.818  1.7612 -0.0948 -0.9422
 5935SOL    HW229439   0.540   2.282   7.829  0.2587  0.9303  0.7051
 5936SOL     OW29440   2.262   0.022   5.314 -0.4508  0.2589  0.1632
 5936SOL    HW129441   2.283   4.661   5.316  1.7391  0.7232 -0.9360
 5936SOL    HW229442   2.307   0.046   5.394 -0.3330 -0.5078  0.3323
 5937SOL     OW29443   2.813   0.011   5.034 -0.0066  0.0141  0.1808
 5937SOL    HW129444   2.852   0.072   4.971  0.4761  0.0196  0.4864
 5937SOL    HW229445   2.763   0.067   5.093 -0.9587 -0.6654  0.0137
 5938SOL     OW29446   3.338   1.452   6.467 -0.3729  0.6045 -0.0221
 5938SOL    HW129447   3.246   1.443   6.444 -0.5732  2.6606 -0.0506
 5938SOL    HW229448   3.352   1.540   6.502 -1.3701  0.8638 -0.2759
 5939SOL     OW29449   2.964   3.374   3.372 -0.0249 -0.1429  0.1432
 5939SOL    HW129450   3.007   3.381   3.458  1.2583 -2.1913 -0.3416
 5939SOL    HW229451   2.895   3.310   3.391  2.4037 -2.6100  0.6535
 5940SOL     OW29452   1.599   3.055   7.414  0.1700  0.2354  0.0431
 5940SOL    HW129453   1.667   3.078   7.351  0.2103 -0.9167 -0.3278
 5940SOL    HW229454   1.561   2.976   7.375  0.5726  0.7565 -1.4019
 5941SOL     OW29455   4.257   2.823   1.311  1.0246  0.5844 -0.2228
 5941SOL    HW129456   4.197   2.885   1.351  0.2756 -1.5184  1.9013
 5941SOL    HW229457   4.319   2.818   1.385  1.2276  0.1088 -0.4208
 5942SOL     OW29458   2.266   4.127   9.292 -0.1335  0.3343 -0.6234
 5942SOL    HW129459   2.242   4.109   9.201 -0.3359 -1.7124 -0.1817
 5942SOL    HW229460   2.181   4.164   9.316  0.4568  0.6379  1.0076
 5943SOL     OW29461   0.083   4.315   6.983 -0.0591 -0.0451  0.0479
 5943SOL    HW129462   0.116   4.335   6.895  1.8877 -0.1846  0.7506
 5943SOL    HW229463   0.024   4.241   6.968  2.0139 -1.3473 -1.6665
 5944SOL     OW29464   3.127   0.091   0.660  0.0427  0.5468 -0.4489
 5944SOL    HW129465   3.085   0.042   0.731  0.0002  0.5658 -0.4606
 5944SOL    HW229466   3.163   0.168   0.705 -0.1973  1.0428 -1.0986
 5945SOL     OW29467   2.766   2.119   4.478  0.0740  0.3135 -0.1051
 5945SOL    HW129468   2.717   2.173   4.540 -0.8454  0.0077 -0.5624
 5945SOL    HW229469   2.793   2.179   4.409 -3.4390  0.2037 -1.5904
 5946SOL     OW29470   1.592   0.860  17.560 -0.0177  0.0546  0.4221
 5946SOL    HW129471   1.640   0.778  17.558 -1.9520 -1.0808  0.4228
 5946SOL    HW229472   1.559   0.859  17.470  2.0620  2.4234 -0.3512
 5947SOL     OW29473   2.168   4.335   5.586 -0.0196  0.1423 -0.3912
 5947SOL    HW129474   2.201   4.419   5.618 -1.8695  0.9134 -0.4651
 5947SOL    HW229475   2.251   4.288   5.592  1.4269  2.5119 -1.8664
 5948SOL     OW29476   2.275   2.609  12.404  0.9326  0.4313 -0.0113
 5948SOL    HW129477   2.287   2.650  12.319  1.3522 -0.6065 -0.4458
 5948SOL    HW229478   2.205   2.550  12.378  1.4722 -0.2660  0.1200
 5949SOL     OW29479   1.230   2.767   2.029  0.1684  0.1780 -0.4382
 5949SOL    HW129480   1.148   2.782   2.076  0.8536  1.4902  0.3338
 5949SOL    HW229481   1.273   2.849   2.052 -0.6937  0.2804  0.7953
 5950SOL     OW29482   3.872   1.162   5.475  0.0542 -0.4292  0.1619
 5950SOL    HW129483   3.877   1.182   5.569  1.6094 -0.7897  0.1555
 5950SOL    HW229484   3.950   1.212   5.451 -0.8059 -0.0303 -1.8005
 5951SOL     OW29485   0.535   3.437   6.954  0.0837 -0.7075 -0.6143
 5951SOL    HW129486   0.536   3.344   6.979 -0.5184 -1.1858 -2.3781
 5951SOL    HW229487   0.469   3.467   7.017 -0.3579 -0.3975 -1.2292
 5952SOL     OW29488   1.936   0.834  10.439 -0.3780  0.4374 -0.0108
 5952SOL    HW129489   1.878   0.763  10.411  0.6641 -0.5230  0.2992
 5952SOL    HW229490   1.911   0.837  10.531 -0.7569  3.6776 -0.2226
 5953SOL     OW29491   0.730   1.419  13.021  0.3902 -0.5551 -0.4250
 5953SOL    HW129492   0.805   1.467  12.986  0.5474  0.1567  0.8760
 5953SOL    HW229493   0.769   1.346  13.070 -1.1228 -1.6610 -0.8618
 5954SOL     OW29494   1.177   0.265  14.643 -0.6373  0.1807 -0.3278
 5954SOL    HW129495   1.130   0.242  14.563  0.4911  0.2887 -1.0135
 5954SOL    HW229496   1.163   0.359  14.648  0.6346  0.3549 -0.2192
 5955SOL     OW29497   3.084   2.557   3.489 -0.3081  0.2383  0.0088
 5955SOL    HW129498   3.036   2.480   3.520  0.1804  0.2740  0.8716
 5955SOL    HW229499   3.061   2.563   3.396  0.4788 -0.0918 -0.2118
 5956SOL     OW29500   3.675   2.371   6.811  0.0023 -0.6096 -0.1405
 5956SOL    HW129501   3.614   2.442   6.834 -1.5063 -0.6555 -3.9926
 5956SOL    HW229502   3.638   2.289   6.844  1.8551 -0.6777  1.7655
 5957SOL     OW29503   0.062   2.818   2.099 -0.0356  0.0314  0.1079
 5957SOL    HW129504   0.086   2.911   2.093 -0.5288 -0.1058 -3.8328
 5957SOL    HW229505   0.092   2.808   2.189  0.1226 -1.0676 -0.0674
 5958SOL     OW29506   0.378   4.225   8.620  0.0727  0.0369  0.6266
 5958SOL    HW129507   0.292   4.202   8.586 -0.0698  0.3490  0.7754
 5958SOL    HW229508   0.362   4.235   8.714 -1.2198  0.7010  0.3426
 5959SOL     OW29509   4.209   1.567  16.616  0.3090  0.3559 -0.5505
 5959SOL    HW129510   4.196   1.570  16.711 -2.5588  0.4228 -0.9509
 5959SOL    HW229511   4.161   1.647  16.597 -0.0723  1.0650  3.3704
 5960SOL     OW29512   1.650   2.962  11.590 -0.3465  0.1325 -0.2130
 5960SOL    HW129513   1.569   2.956  11.640  0.2674  1.4534  0.9347
 5960SOL    HW229514   1.639   3.052  11.558  1.3682  0.8650  1.2296
 5961SOL     OW29515   4.112   4.537   4.137 -0.0309 -0.2161  0.2814
 5961SOL    HW129516   4.072   4.548   4.224 -2.5225 -0.3144 -0.8386
 5961SOL    HW229517   4.037   4.583   4.098 -2.3293 -4.0318  0.1685
 5962SOL     OW29518   1.744   1.007  13.257 -0.1167 -0.4182  0.6384
 5962SOL    HW129519   1.708   0.987  13.344  0.8282 -1.0745  0.8796
 5962SOL    HW229520   1.755   0.914  13.234 -0.5793 -0.4746  0.6448
 5963SOL     OW29521   4.255   4.127  12.982  0.4271  0.4792 -0.0639
 5963SOL    HW129522   4.348   4.111  12.963 -0.2973 -1.0640 -2.3060
 5963SOL    HW229523   4.205   4.073  12.921  1.8527 -3.1422  2.0009
 5964SOL     OW29524   3.295   4.443   6.847  0.1824 -0.2998  0.2977
 5964SOL    HW129525   3.351   4.419   6.773  0.5183  0.7491  0.2113
 5964SOL    HW229526   3.209   4.426   6.810 -0.2403 -1.3006  1.7728
 5965SOL     OW29527   3.505   4.016   2.054  0.0990 -0.2089  0.0046
 5965SOL    HW129528   3.507   3.999   2.148 -0.8356 -1.0709 -0.1297
 5965SOL    HW229529   3.537   3.933   2.019 -1.8983 -1.1946  0.5291
 5966SOL     OW29530   4.306   3.808   4.619  0.0857  0.2608 -0.2241
 5966SOL    HW129531   4.231   3.849   4.576 -0.4163 -0.0630  0.3381
 5966SOL    HW229532   4.312   3.719   4.584 -2.6104  0.1412 -0.3673
 5967SOL     OW29533   3.962   2.144   3.789 -0.5867 -0.2003 -0.0129
 5967SOL    HW129534   3.943   2.238   3.785 -1.3891 -0.3390  0.6261
 5967SOL    HW229535   4.055   2.148   3.765 -1.0503  0.1258 -1.7186
 5968SOL     OW29536   0.602   3.627  12.230 -0.1820 -0.1520  0.0429
 5968SOL    HW129537   0.575   3.538  12.253 -2.4690  0.8083  0.9960
 5968SOL    HW229538   0.571   3.673  12.308 -1.1031 -2.0337  0.8017
 5969SOL     OW29539   1.645   1.382   6.306 -0.0200 -0.2195 -0.0911
 5969SOL    HW129540   1.663   1.471   6.275 -1.4338  0.5222  1.2434
 5969SOL    HW229541   1.658   1.339   6.221 -2.8389 -0.1779 -0.5198
 5970SOL     OW29542   1.382   0.437   6.899 -0.4875 -0.0295 -0.7782
 5970SOL    HW129543   1.415   0.392   6.976 -1.7393  1.6600  0.7300
 5970SOL    HW229544   1.375   0.525   6.937 -1.6910 -1.2151  1.6735
 5971SOL     OW29545   1.865   4.468   2.149  0.4687  0.5427 -0.0324
 5971SOL    HW129546   1.879   4.559   2.175 -2.2246  0.8455  0.3666
 5971SOL    HW229547   1.864   4.480   2.054 -0.6833 -0.3948 -0.1493
 5972SOL     OW29548   0.969   0.229  14.831 -0.5304 -0.5421  0.1577
 5972SOL    HW129549   1.038   0.241  14.766 -1.4023  1.3869 -0.4205
 5972SOL    HW229550   0.927   0.157  14.785 -0.5562  0.4294 -1.3262
 5973SOL     OW29551   1.646   1.338   9.068  0.5774  0.0786 -0.4347
 5973SOL    HW129552   1.560   1.326   9.108  1.9537  1.9882  3.0710
 5973SOL    HW229553   1.640   1.288   8.986 -0.5538 -1.2198  0.4263
 5974SOL     OW29554   0.168   3.573  14.527  0.1515  0.7799 -0.0468
 5974SOL    HW129555   0.169   3.538  14.616 -0.9294  0.9128  0.0197
 5974SOL    HW229556   0.205   3.496  14.485 -0.2127  0.5500  0.0491
 5975SOL     OW29557   1.010   3.925  12.489 -0.2857 -0.3524  0.0070
 5975SOL    HW129558   1.013   3.886  12.402  4.1583  2.5197 -1.1365
 5975SOL    HW229559   1.091   3.975  12.499  0.4485 -1.4657 -0.3226
 5976SOL     OW29560   2.260   2.314   7.372  0.3954 -0.5107 -0.3670
 5976SOL    HW129561   2.250   2.221   7.391  1.2426 -0.3965  0.6244
 5976SOL    HW229562   2.347   2.333   7.407 -0.5024 -0.2879  1.7193
 5977SOL     OW29563   0.734   4.237   3.175  0.3125  0.4307  0.1466
 5977SOL    HW129564   0.821   4.237   3.136  0.4274 -0.3265  0.4047
 5977SOL    HW229565   0.757   4.277   3.259 -1.2131  1.3761  0.1250
 5978SOL     OW29566   2.779   2.923  17.184  1.1796 -0.3295  0.0163
 5978SOL    HW129567   2.813   2.986  17.249  0.1181 -1.5845  1.7778
 5978SOL    HW229568   2.833   2.843  17.186  2.3325  0.4219 -0.8528
 5979SOL     OW29569   3.277   4.484   2.292  0.1893  0.3340 -0.4084
 5979SOL    HW129570   3.227   4.475   2.211 -0.0379 -2.1083  0.0135
 5979SOL    HW229571   3.202   4.502   2.349 -1.0620 -1.5956 -1.4711
 5980SOL     OW29572   0.764   0.790  17.076  0.9422 -0.6669 -0.6218
 5980SOL    HW129573   0.703   0.859  17.048 -0.8722 -1.8224  0.4833
 5980SOL    HW229574   0.845   0.835  17.052  0.1568  1.0528 -0.0959
 5981SOL     OW29575   2.461   0.394   0.651 -0.0018 -0.1100 -0.0967
 5981SOL    HW129576   2.523   0.334   0.693  0.9887  1.3899  0.6042
 5981SOL    HW229577   2.437   0.352   0.568  0.2744  1.3466 -0.9064
 5982SOL     OW29578   3.680   4.321   5.154 -0.6041  0.0993 -0.2648
 5982SOL    HW129579   3.585   4.335   5.155 -0.6988 -0.5531 -0.0978
 5982SOL    HW229580   3.709   4.403   5.114  1.2072  0.4245  1.6634
 5983SOL     OW29581   2.245   4.274  15.679  0.5182 -0.3897  0.0668
 5983SOL    HW129582   2.150   4.284  15.669  0.4705 -1.9584 -1.0409
 5983SOL    HW229583   2.257   4.257  15.773  0.2452  1.6712  0.4623
 5984SOL     OW29584   4.152   3.874   3.319  0.1501 -0.0386 -0.0494
 5984SOL    HW129585   4.216   3.940   3.348 -0.2289 -0.0824  0.8519
 5984SOL    HW229586   4.150   3.816   3.395 -3.4612  0.7900  0.4907
 5985SOL     OW29587   1.192   0.497  15.473  0.4205  0.4392  0.3073
 5985SOL    HW129588   1.265   0.520  15.530 -0.6210 -1.4853  2.4143
 5985SOL    HW229589   1.178   0.580  15.427  4.7438  0.6699 -0.6018
 5986SOL     OW29590   3.649   4.203   6.329  0.0446  0.4289 -0.2207
 5986SOL    HW129591   3.615   4.224   6.242  0.6865  0.9254 -0.3494
 5986SOL    HW229592   3.583   4.239   6.388 -0.1080  2.5346 -1.6975
 5987SOL     OW29593   4.422   3.014  17.476 -0.5511 -0.0466 -0.0362
 5987SOL    HW129594   4.514   3.014  17.448 -0.3878  0.8223  0.5137
 5987SOL    HW229595   4.440   2.961  17.554  0.7048 -1.6028 -1.3572
 5988SOL     OW29596   4.728   2.096   7.566  0.6796  0.6481 -0.3874
 5988SOL    HW129597   4.724   2.003   7.544  1.9272  0.7418 -1.0117
 5988SOL    HW229598   0.004   2.097   7.662  1.6469  0.3585 -0.4721
 5989SOL     OW29599   0.698   0.863  11.112 -0.5538  0.5127 -0.1250
 5989SOL    HW129600   0.694   0.956  11.091  1.7548  0.3403 -1.2250
 5989SOL    HW229601   0.764   0.845  11.045 -0.9288  1.0413 -0.6423
 5990SOL     OW29602   1.972   4.411   1.779 -0.5882 -0.1353  0.2950
 5990SOL    HW129603   1.972   4.492   1.831 -1.2108 -0.7593  1.2570
 5990SOL    HW229604   2.039   4.363   1.828 -2.0604 -0.5442  1.9235
 5991SOL     OW29605   4.337   2.979   1.774 -0.1219  0.4129 -0.0152
 5991SOL    HW129606   4.313   3.048   1.837  0.1106  0.2228  0.2837
 5991SOL    HW229607   4.428   2.964   1.797  0.0557 -1.0405 -1.6614
 5992SOL     OW29608   1.424   1.661   2.741  0.4331 -0.1623  0.0593
 5992SOL    HW129609   1.370   1.613   2.803  2.0260 -1.0372  0.7676
 5992SOL    HW229610   1.399   1.615   2.661  0.0074  0.0861  0.0504
 5993SOL     OW29611   3.984   0.026   7.139 -0.0933 -0.3107  0.1854
 5993SOL    HW129612   3.893   0.001   7.127  0.2385 -0.9860 -0.9289
 5993SOL    HW229613   3.991   0.085   7.215 -0.3053 -0.7509  0.5436
 5994SOL     OW29614   1.425   0.635   7.615  0.2364 -0.2417 -0.1095
 5994SOL    HW129615   1.480   0.573   7.569  0.2827 -0.4724  0.2551
 5994SOL    HW229616   1.344   0.584   7.612 -0.4031  0.8358 -1.3100
 5995SOL     OW29617   3.882   1.970   4.637  0.2455  0.2912 -0.1819
 5995SOL    HW129618   3.901   1.908   4.567 -0.8812  0.5515 -0.7101
 5995SOL    HW229619   3.966   1.987   4.680 -0.7267  0.2222  1.7358
 5996SOL     OW29620   0.975   3.997  15.802 -0.4861 -0.8882 -0.1449
 5996SOL    HW129621   0.880   4.009  15.806 -0.2967  0.7195 -0.2779
 5996SOL    HW229622   0.998   4.031  15.715  0.7890 -0.6035  0.2956
 5997SOL     OW29623   2.618   4.104  10.933  0.5271  0.4653  0.4649
 5997SOL    HW129624   2.681   4.065  10.994  0.3869 -0.5834 -0.0605
 5997SOL    HW229625   2.560   4.029  10.920  0.1749  0.3769  2.4248
 5998SOL     OW29626   2.513   3.537   4.049 -0.0290  0.5282 -0.2541
 5998SOL    HW129627   2.607   3.544   4.032  0.1134 -0.1232  0.2460
 5998SOL    HW229628   2.513   3.447   4.082 -2.6116  1.0613  1.2028
 5999SOL     OW29629   3.248   0.273  12.273  0.1471  0.2427  0.2820
 5999SOL    HW129630   3.299   0.196  12.247 -1.2663 -1.1183  1.5997
 5999SOL    HW229631   3.300   0.342  12.230  0.1632 -0.4422 -0.8026
 6000SOL     OW29632   2.054   1.397   8.119  0.0627 -0.3077  0.0725
 6000SOL    HW129633   2.101   1.451   8.183  2.4203 -1.9504 -0.2638
 6000SOL    HW229634   1.996   1.470   8.094  1.4363  0.0101 -2.1769
 6001SOL     OW29635   1.740   3.499   9.071 -0.1609  0.3952 -0.0435
 6001SOL    HW129636   1.818   3.518   9.123  2.1010  2.2155 -4.1484
 6001SOL    HW229637   1.774   3.522   8.985  2.0287  0.8132  0.9305
 6002SOL     OW29638   1.286   0.829   7.769  0.8381  0.4880 -0.3106
 6002SOL    HW129639   1.288   0.895   7.699 -0.1377  2.7883  1.8052
 6002SOL    HW229640   1.330   0.754   7.730  0.6064  0.4044 -0.4123
 6003SOL     OW29641   1.720   2.889  16.849  0.2178  0.0175 -0.2963
 6003SOL    HW129642   1.682   2.808  16.815  1.4652 -1.6253  2.2966
 6003SOL    HW229643   1.812   2.864  16.862 -0.7207 -1.1596  3.8782
 6004SOL     OW29644   2.182   2.404   5.391  0.1729  0.3384 -0.1501
 6004SOL    HW129645   2.090   2.427   5.406  0.4718  1.4155  0.0169
 6004SOL    HW229646   2.187   2.325   5.444  0.6114  1.6355  1.7444
 6005SOL     OW29647   3.087   3.069   7.179 -0.0478 -0.0778  0.5513
 6005SOL    HW129648   3.090   3.165   7.187 -0.4838 -0.3526  4.0241
 6005SOL    HW229649   3.029   3.062   7.103  1.1865 -3.8920 -0.0387
 6006SOL     OW29650   3.872   1.476  16.615 -0.1651 -0.6483  0.2012
 6006SOL    HW129651   3.800   1.414  16.626 -0.3360  0.0562  3.0467
 6006SOL    HW229652   3.867   1.511  16.703  2.2136 -0.4620  0.2506
 6007SOL     OW29653   0.965   1.309  12.622 -0.3558  0.0935  0.0159
 6007SOL    HW129654   1.006   1.377  12.569  2.2734 -1.6229 -0.1927
 6007SOL    HW229655   1.023   1.305  12.699 -0.0358 -3.1274 -0.3570
 6008SOL     OW29656   0.015   1.411   7.424 -0.0350 -0.0162  0.3448
 6008SOL    HW129657   4.686   1.485   7.428 -0.7259 -0.5707  0.0829
 6008SOL    HW229658   0.097   1.456   7.405  1.3891 -3.0326 -0.5621
 6009SOL     OW29659   1.041   1.439  11.655 -0.4764 -0.4915 -0.4398
 6009SOL    HW129660   0.949   1.414  11.657 -0.7103  0.3698 -0.4651
 6009SOL    HW229661   1.071   1.349  11.637  2.8386  0.7343 -1.1202
 6010SOL     OW29662   3.563   4.364  15.983  0.3617  0.5514  0.0807
 6010SOL    HW129663   3.538   4.427  16.051  0.6365 -0.7987  1.4242
 6010SOL    HW229664   3.495   4.389  15.920  0.1302 -0.5987 -0.1193
 6011SOL     OW29665   3.058   0.031   0.375 -0.1591  0.4584 -0.0002
 6011SOL    HW129666   3.143   0.057   0.339 -0.2754 -1.1078 -1.4321
 6011SOL    HW229667   3.074   0.026   0.469 -1.3756  1.4510  0.2622
 6012SOL     OW29668   4.704   0.752   4.410  0.1612 -0.0511 -0.2746
 6012SOL    HW129669   4.683   0.782   4.498 -0.4197  0.4427 -0.5821
 6012SOL    HW229670   0.044   0.814   4.395 -0.5516  0.8770  0.1405
 6013SOL     OW29671   1.671   3.652   8.747 -0.0234 -0.4525  0.0863
 6013SOL    HW129672   1.699   3.696   8.667  0.1951  1.3299  1.1507
 6013SOL    HW229673   1.753   3.612   8.776 -0.1753 -1.1630 -0.4598
 6014SOL     OW29674   4.248   0.741   7.129  0.3521 -0.0064 -0.3186
 6014SOL    HW129675   4.174   0.767   7.075  0.3645 -0.7590 -0.6864
 6014SOL    HW229676   4.298   0.820   7.106  0.8372  0.6001  2.7243
 6015SOL     OW29677   0.790   3.004   0.403  0.8537 -0.0111 -0.0762
 6015SOL    HW129678   0.871   3.042   0.369  1.1602 -0.4209  0.1994
 6015SOL    HW229679   0.805   2.917   0.367 -1.1164 -0.5893  0.4702
 6016SOL     OW29680   3.284   3.890   7.417 -0.6864 -0.0077 -0.5416
 6016SOL    HW129681   3.361   3.866   7.469 -0.6153 -0.1309 -0.7031
 6016SOL    HW229682   3.314   3.965   7.366  3.2425 -0.4192  1.1767
 6017SOL     OW29683   2.406   2.666   4.845 -0.2832 -0.4615  0.0488
 6017SOL    HW129684   2.461   2.599   4.886  2.2728  2.2829  1.1165
 6017SOL    HW229685   2.438   2.752   4.871 -1.0416 -0.0226 -0.4815
 6018SOL     OW29686   1.033   4.690   6.113 -0.4435  0.2090  0.4538
 6018SOL    HW129687   0.999   0.038   6.153 -0.3902  1.2588 -1.6003
 6018SOL    HW229688   1.115   4.681   6.162  0.5784  1.0698 -1.1036
 6019SOL     OW29689   2.579   4.383  10.825 -0.6137 -0.1612  0.6021
 6019SOL    HW129690   2.546   4.294  10.837  1.1062 -0.7327  1.1070
 6019SOL    HW229691   2.622   4.398  10.909 -0.0506 -2.4301  0.7323
 6020SOL     OW29692   4.512   1.794  15.334  0.2348 -0.2442  0.2591
 6020SOL    HW129693   4.418   1.811  15.326 -0.0016 -0.7719  1.8410
 6020SOL    HW229694   4.512   1.765  15.426  0.3940  2.3729  1.0995
 6021SOL     OW29695   4.127   4.281   6.185 -0.0318 -0.3269 -0.3326
 6021SOL    HW129696   4.191   4.288   6.114  1.5124 -0.1680  1.0743
 6021SOL    HW229697   4.157   4.207   6.239  0.4134  1.4498  1.8482
 6022SOL     OW29698   4.004   1.046  13.100  0.3554  0.5702 -0.5146
 6022SOL    HW129699   4.014   0.955  13.129  1.0958  0.3554 -1.4303
 6022SOL    HW229700   3.952   1.081  13.173  1.1022 -0.9012  0.7394
 6023SOL     OW29701   2.573   3.678   9.471  0.2039 -0.3383  0.5078
 6023SOL    HW129702   2.511   3.750   9.485 -0.8908 -1.0983 -0.4666
 6023SOL    HW229703   2.647   3.728   9.436  0.8982 -0.9727  1.0813
 6024SOL     OW29704   1.930   1.763  15.257  0.0359 -0.0270  0.6001
 6024SOL    HW129705   1.948   1.749  15.165 -1.0448  0.4590  0.3152
 6024SOL    HW229706   2.017   1.778  15.293  0.7871 -0.4751 -1.0483
 6025SOL     OW29707   0.682   2.670  17.174  0.2617 -0.1616  0.5138
 6025SOL    HW129708   0.699   2.607  17.244 -1.9370 -1.2304  0.1078
 6025SOL    HW229709   0.601   2.630  17.139  0.5707 -1.3993  1.2066
 6026SOL     OW29710   2.547   1.241   4.137  0.2882  0.5870 -0.7142
 6026SOL    HW129711   2.510   1.320   4.177 -3.2635 -1.3886 -0.0542
 6026SOL    HW229712   2.610   1.281   4.077 -0.2279  1.5335 -0.6317
 6027SOL     OW29713   1.655   0.349  14.360  0.5651 -0.5214  0.2438
 6027SOL    HW129714   1.690   0.423  14.311 -0.8944 -1.0664 -1.6464
 6027SOL    HW229715   1.572   0.384  14.393  0.9773 -0.0341  0.7614
 6028SOL     OW29716   2.233   1.975   1.200 -0.3170 -0.0026  0.1846
 6028SOL    HW129717   2.214   1.887   1.234  1.5822 -0.4233  0.1857
 6028SOL    HW229718   2.171   1.974   1.127 -1.9321  1.7839  1.5479
 6029SOL     OW29719   4.633   2.641   9.275  0.0402  0.8006  0.6484
 6029SOL    HW129720   4.591   2.591   9.345 -0.3075 -1.5825 -1.2266
 6029SOL    HW229721   4.712   2.669   9.320 -0.7565  1.7766  1.4249
 6030SOL     OW29722   2.455   1.151  10.285 -0.2020  0.7636 -0.1088
 6030SOL    HW129723   2.511   1.074  10.288  0.2043  1.0816  0.4523
 6030SOL    HW229724   2.500   1.216  10.232  3.4558 -1.2378  0.5638
 6031SOL     OW29725   0.144   1.979   9.136  0.0098 -0.5346  0.7498
 6031SOL    HW129726   0.104   2.051   9.086 -1.5128 -1.5212  0.5582
 6031SOL    HW229727   0.079   1.964   9.204 -1.9876  0.7013 -0.8678
 6032SOL     OW29728   2.815   2.727   4.218  0.0534 -0.7772 -0.0486
 6032SOL    HW129729   2.908   2.745   4.227  0.1469 -1.6460  0.6990
 6032SOL    HW229730   2.782   2.799   4.272 -0.1586 -1.3192  0.5437
 6033SOL     OW29731   3.942   2.774  13.351 -0.6378 -0.6227 -0.0051
 6033SOL    HW129732   4.026   2.812  13.327 -0.4400 -0.4253  0.9830
 6033SOL    HW229733   3.950   2.682  13.328  0.0820 -0.0050 -2.1848
 6034SOL     OW29734   4.645   1.061   3.090 -0.0251  0.3071  0.0020
 6034SOL    HW129735   4.562   1.018   3.107  1.5796 -1.7526  2.5243
 6034SOL    HW229736   4.640   1.059   2.994  0.9187  0.1039 -0.0391
 6035SOL     OW29737   0.133   1.319   2.979  0.5932 -0.1007 -0.4009
 6035SOL    HW129738   0.145   1.396   2.924 -2.2924  0.9438  0.4358
 6035SOL    HW229739   0.179   1.259   2.920 -0.9053 -2.4608  0.8015
 6036SOL     OW29740   0.028   0.643   5.435  0.0984  0.3821  0.5300
 6036SOL    HW129741   4.711   0.562   5.426 -2.7441  2.3477 -1.2802
 6036SOL    HW229742   4.704   0.697   5.490  0.9285  1.8564 -0.0555
 6037SOL     OW29743   0.843   2.078   6.868  0.0003  0.1309 -0.8170
 6037SOL    HW129744   0.857   2.064   6.962  0.2258 -1.3890 -1.0752
 6037SOL    HW229745   0.879   2.166   6.855 -0.5278  0.0650 -2.7691
 6038SOL     OW29746   4.528   3.625   2.303 -0.4083  0.3525 -0.0344
 6038SOL    HW129747   4.520   3.536   2.337  0.9364 -0.6865 -2.4230
 6038SOL    HW229748   4.461   3.671   2.353  0.9914  2.5243 -0.1688
 6039SOL     OW29749   0.481   0.553   7.819 -0.2785 -0.2730 -0.0934
 6039SOL    HW129750   0.415   0.601   7.768 -0.2428 -1.3016 -1.0985
 6039SOL    HW229751   0.464   0.469   7.776 -1.8350  0.2086 -0.4346
 6040SOL     OW29752   0.941   2.635   8.612  0.2547  0.0459  0.0992
 6040SOL    HW129753   0.863   2.637   8.668  0.5773 -0.1077  0.5551
 6040SOL    HW229754   1.003   2.581   8.661 -0.5985  0.3994  1.5814
 6041SOL     OW29755   3.615   0.747   3.695  0.0702  0.4010 -0.1301
 6041SOL    HW129756   3.537   0.776   3.647 -0.6384 -0.3917  0.5249
 6041SOL    HW229757   3.688   0.796   3.657  0.4368  0.2447  0.3728
 6042SOL     OW29758   0.756   0.381   2.768  0.3961  0.2000 -0.6188
 6042SOL    HW129759   0.834   0.325   2.765  1.5510  1.9892 -3.2642
 6042SOL    HW229760   0.703   0.336   2.703  1.7072  0.0894 -1.6122
 6043SOL     OW29761   4.278   2.623   3.580 -0.4312  0.0781 -0.7554
 6043SOL    HW129762   4.314   2.577   3.504  1.7699 -2.1512  1.6793
 6043SOL    HW229763   4.255   2.704   3.534  0.8267 -1.2675 -3.7987
 6044SOL     OW29764   1.488   0.506   8.409 -0.1706 -0.2505  0.4169
 6044SOL    HW129765   1.479   0.564   8.485 -1.4370 -1.2250  1.0102
 6044SOL    HW229766   1.447   0.567   8.347 -2.1049 -4.6673 -2.6556
 6045SOL     OW29767   1.228   3.882  15.912  0.2173  0.1708 -0.2435
 6045SOL    HW129768   1.142   3.872  15.871  0.0241 -0.5591  0.3372
 6045SOL    HW229769   1.220   3.974  15.935  0.3776 -0.8921  4.1222
 6046SOL     OW29770   2.854   4.097  11.124 -0.3919 -0.4229 -0.1931
 6046SOL    HW129771   2.939   4.134  11.148 -0.1228  0.5095 -2.5429
 6046SOL    HW229772   2.812   4.179  11.096  1.3569  0.2290 -0.8687
 6047SOL     OW29773   1.518   1.964   3.368 -0.0088  0.6995  0.0664
 6047SOL    HW129774   1.597   1.912   3.379 -1.1637 -1.2608 -0.7962
 6047SOL    HW229775   1.478   1.932   3.448 -1.8594  2.6487 -0.0787
 6048SOL     OW29776   3.435   3.069  12.397 -0.6220 -0.2335 -0.2357
 6048SOL    HW129777   3.524   3.092  12.369  0.0853 -0.3686  1.8535
 6048SOL    HW229778   3.379   3.101  12.327  0.8537  0.5016 -1.0667
 6049SOL     OW29779   3.467   2.282  15.105 -0.0742 -0.4605 -0.0745
 6049SOL    HW129780   3.512   2.199  15.122 -1.5600 -1.1275  0.6119
 6049SOL    HW229781   3.529   2.342  15.145  1.5282 -2.3663  0.3043
 6050SOL     OW29782   4.181   2.187   5.557 -0.4380 -0.0512  0.5085
 6050SOL    HW129783   4.171   2.093   5.575 -0.6135  0.0765  1.0533
 6050SOL    HW229784   4.169   2.174   5.463 -1.0019 -0.3630  0.6251
 6051SOL     OW29785   2.316   0.597  12.433  0.0832  0.3311 -0.1521
 6051SOL    HW129786   2.266   0.676  12.454 -2.4177 -1.1848 -0.4340
 6051SOL    HW229787   2.360   0.581  12.517 -0.4871  1.9097  0.4590
 6052SOL     OW29788   1.005   2.913  14.632 -0.5430  0.4558 -0.0086
 6052SOL    HW129789   1.099   2.922  14.649  0.1354 -2.5047 -2.1556
 6052SOL    HW229790   1.007   2.930  14.538 -1.7732 -1.3995 -0.3627
 6053SOL     OW29791   0.472   0.860   2.952 -0.2222 -0.2626 -0.1180
 6053SOL    HW129792   0.556   0.814   2.951 -0.4099 -0.6403  1.4354
 6053SOL    HW229793   0.494   0.939   2.903  0.9642  1.7557  3.6513
 6054SOL     OW29794   4.108   0.840   8.227  1.0691 -0.1827 -0.0284
 6054SOL    HW129795   4.158   0.788   8.290  0.4578  1.3204  1.6784
 6054SOL    HW229796   4.112   0.930   8.257 -0.3931  0.0944 -0.6390
 6055SOL     OW29797   2.107   1.188   7.696 -0.2671  0.0237 -0.4065
 6055SOL    HW129798   2.091   1.096   7.676  2.4369 -0.3793 -0.7785
 6055SOL    HW229799   2.113   1.190   7.791 -0.9023  1.0349 -0.3773
 6056SOL     OW29800   3.723   3.189   6.423 -0.5381  0.3209 -0.5472
 6056SOL    HW129801   3.748   3.281   6.427 -2.1628  0.6718  1.2579
 6056SOL    HW229802   3.716   3.188   6.327 -1.6885  0.9249 -0.4711
 6057SOL     OW29803   3.432   2.934   4.211 -0.4174  0.1172  0.3551
 6057SOL    HW129804   3.480   2.999   4.262 -0.9245 -0.2527  1.2982
 6057SOL    HW229805   3.498   2.899   4.151 -1.4908 -1.3455  0.0405
 6058SOL     OW29806   1.505   3.600   8.312 -0.7061  0.2439 -0.2850
 6058SOL    HW129807   1.473   3.547   8.239 -0.2440 -0.2985 -0.0915
 6058SOL    HW229808   1.505   3.531   8.378  0.6668 -1.0747 -1.6638
 6059SOL     OW29809   1.604   3.935   1.792 -0.0817  0.1115  0.0154
 6059SOL    HW129810   1.541   3.863   1.803 -0.6121  0.1978 -2.6111
 6059SOL    HW229811   1.550   4.014   1.793  1.0303  0.8807 -1.3323
 6060SOL     OW29812   0.484   4.524  10.447  0.5022  0.4669 -0.0843
 6060SOL    HW129813   0.398   4.561  10.428  1.7694  3.6491  0.3535
 6060SOL    HW229814   0.484   4.509  10.541 -1.9247 -1.9014 -0.4650
 6061SOL     OW29815   1.630   2.012   8.418 -0.3930 -0.4356  0.1637
 6061SOL    HW129816   1.672   2.056   8.344 -2.0933  0.3182 -0.3448
 6061SOL    HW229817   1.583   2.087   8.455  1.1614  0.4840  0.2757
 6062SOL     OW29818   1.969   2.859   7.836  0.1890 -0.2816 -0.0524
 6062SOL    HW129819   1.962   2.954   7.847 -0.1190 -0.1290 -1.4794
 6062SOL    HW229820   1.987   2.864   7.742  2.9649  2.5831  0.6637
 6063SOL     OW29821   1.737   4.250   6.984 -0.1379 -0.2093  0.1984
 6063SOL    HW129822   1.733   4.335   6.940  0.3477 -1.1844 -1.7517
 6063SOL    HW229823   1.670   4.250   7.052 -2.1240 -2.4562 -1.7679
 6064SOL     OW29824   2.118   0.606   6.381  0.3298 -0.2127 -0.1752
 6064SOL    HW129825   2.190   0.557   6.421  1.6803  0.5325 -1.6935
 6064SOL    HW229826   2.104   0.549   6.306  0.6666  0.0768 -0.4590
 6065SOL     OW29827   2.117   1.434   6.157  0.2600 -0.2959 -0.0368
 6065SOL    HW129828   2.030   1.399   6.138  0.3495 -0.0338 -0.9164
 6065SOL    HW229829   2.140   1.479   6.076  0.1493  2.8006  1.6522
 6066SOL     OW29830   0.031   2.461  12.536  0.1556 -0.0862  0.0614
 6066SOL    HW129831   4.732   2.421  12.617  0.6377  3.3383  1.9185
 6066SOL    HW229832   0.072   2.543  12.564  1.4415  0.5532 -3.6874
 6067SOL     OW29833   1.088   3.001   0.431  0.3734 -0.5531 -0.0938
 6067SOL    HW129834   1.104   2.909   0.449  1.7972 -0.5182 -1.1619
 6067SOL    HW229835   1.092   3.028   0.523 -1.9045  0.7890 -0.3907
 6068SOL     OW29836   1.335   2.211   2.188 -0.0131  0.2954  0.1827
 6068SOL    HW129837   1.391   2.134   2.195 -0.9027 -0.4004 -0.4277
 6068SOL    HW229838   1.406   2.275   2.182 -0.1335  0.5718  1.5848
 6069SOL     OW29839   0.220   3.739   1.615 -0.4646  0.1029 -0.3680
 6069SOL    HW129840   0.186   3.740   1.525  0.5536  0.9314 -0.7354
 6069SOL    HW229841   0.203   3.653   1.655  0.0960 -0.3351 -1.0654
 6070SOL     OW29842   0.248   0.047  14.237 -0.0517 -0.3689  0.4446
 6070SOL    HW129843   0.210   0.090  14.161  0.9821  3.0722  1.8515
 6070SOL    HW229844   0.169   0.009  14.275 -0.4731  1.2302  1.1555
 6071SOL     OW29845   0.086   4.403   3.567  0.0217  0.4102  0.0126
 6071SOL    HW129846   0.054   4.348   3.638  1.7182 -1.1069 -0.3967
 6071SOL    HW229847   0.100   4.486   3.613 -1.8374  0.6904  0.0786
 6072SOL     OW29848   4.282   0.712  16.124 -0.3244 -0.0132  0.4514
 6072SOL    HW129849   4.279   0.798  16.084  4.3159 -1.3645 -2.9488
 6072SOL    HW229850   4.194   0.679  16.108 -0.6552  0.9648  0.3227
 6073SOL     OW29851   2.848   3.071  15.307 -0.1933 -0.6002  0.1707
 6073SOL    HW129852   2.800   3.144  15.346 -1.7260 -0.5892 -1.6731
 6073SOL    HW229853   2.785   2.999  15.318 -1.4593  0.4690 -0.0451
 6074SOL     OW29854   1.660   3.468   7.980  0.4547 -0.3051 -0.2999
 6074SOL    HW129855   1.621   3.383   8.003 -0.1411  0.3496  1.0861
 6074SOL    HW229856   1.626   3.489   7.892 -0.6239  1.4122  0.5245
 6075SOL     OW29857   1.642   2.115   2.767  0.3370 -0.4946 -0.4855
 6075SOL    HW129858   1.592   2.147   2.842  2.4418 -0.6608  1.0066
 6075SOL    HW229859   1.587   2.142   2.694  0.1880  2.0373  0.5801
 6076SOL     OW29860   0.188   4.728   8.561  0.5545 -0.0084  0.4688
 6076SOL    HW129861   0.279   4.704   8.546  0.8619 -0.3524  2.9841
 6076SOL    HW229862   0.151   4.681   8.486  1.3350 -2.4881  1.6608
 6077SOL     OW29863   0.114   0.626   6.130 -0.6785  0.1640  0.3963
 6077SOL    HW129864   0.107   0.689   6.201  0.2849  1.0270 -0.2612
 6077SOL    HW229865   0.111   0.535   6.160 -2.5347 -0.2477 -1.0819
 6078SOL     OW29866   2.304   3.518   4.768 -0.3564  0.9018 -0.0242
 6078SOL    HW129867   2.341   3.454   4.830  2.0773  1.7041 -0.6600
 6078SOL    HW229868   2.323   3.483   4.681 -0.9990  0.4469  0.0205
 6079SOL     OW29869   2.139   1.437  10.966  0.2186 -0.2902  0.1106
 6079SOL    HW129870   2.212   1.499  10.972 -0.6717  1.0011 -2.7763
 6079SOL    HW229871   2.103   1.451  11.053  1.6774 -1.0162  0.8404
 6080SOL     OW29872   1.770   3.210   2.975  0.3929 -0.5208  0.5694
 6080SOL    HW129873   1.732   3.291   3.008 -1.3979 -1.3590  0.5452
 6080SOL    HW229874   1.861   3.212   3.005  0.5977  2.5097 -0.3153
 6081SOL     OW29875   1.336   3.834   8.222 -0.3343 -0.2765 -0.2964
 6081SOL    HW129876   1.376   3.763   8.273  1.1458 -0.9991 -2.4723
 6081SOL    HW229877   1.382   3.908   8.261 -1.6862  0.5612 -0.2963
 6082SOL     OW29878   3.298   4.396  11.916 -0.0254  0.0713  0.1613
 6082SOL    HW129879   3.289   4.482  11.956  3.4223  1.2308 -1.5129
 6082SOL    HW229880   3.222   4.397  11.857  0.3464  0.4590 -0.3179
 6083SOL     OW29881   0.339   4.647   1.485 -0.4497  0.1091 -0.1436
 6083SOL    HW129882   0.341   4.556   1.456 -0.7611 -0.7530  2.5391
 6083SOL    HW229883   0.403   4.634   1.555 -0.0941 -0.7190 -0.6238
 6084SOL     OW29884   4.560   0.131   4.639 -0.2263 -0.4012  0.5933
 6084SOL    HW129885   4.575   0.044   4.677  2.4543 -0.0873  0.2436
 6084SOL    HW229886   4.620   0.140   4.565 -0.2531  2.1268  0.8795
 6085SOL     OW29887   2.551   3.594   6.399 -0.1033  0.0799 -0.0937
 6085SOL    HW129888   2.488   3.523   6.383  0.1034 -0.1842  0.2583
 6085SOL    HW229889   2.626   3.543   6.429  1.9434  3.1789  0.0141
 6086SOL     OW29890   4.366   3.843  13.024  0.1307  0.6340 -0.0884
 6086SOL    HW129891   4.404   3.889  12.949  1.0056  4.1248  2.5206
 6086SOL    HW229892   4.279   3.883  13.023  0.1616  0.6518 -1.6822
 6087SOL     OW29893   3.182   1.492   4.167 -0.2718  0.3098 -0.4452
 6087SOL    HW129894   3.192   1.423   4.101  1.8392 -0.4222  0.6148
 6087SOL    HW229895   3.238   1.559   4.128  0.2048  0.7317  0.9593
 6088SOL     OW29896   1.747   3.205   6.983  0.7096  0.0363  0.2327
 6088SOL    HW129897   1.747   3.301   6.985 -1.1514  0.0267  0.5466
 6088SOL    HW229898   1.701   3.184   6.902  2.5072 -0.7103 -0.5917
 6089SOL     OW29899   4.041   3.310   6.960 -0.3371 -0.4243 -0.4096
 6089SOL    HW129900   4.039   3.224   6.918 -0.4666 -1.0833  0.9598
 6089SOL    HW229901   4.010   3.288   7.048 -0.1525  2.5692  0.3944
 6090SOL     OW29902   0.903   1.136   8.668  0.2524 -0.0981  0.2657
 6090SOL    HW129903   0.957   1.214   8.656 -0.9081  0.9007  1.5213
 6090SOL    HW229904   0.905   1.100   8.580  0.3024 -0.7628  0.5329
 6091SOL     OW29905   0.445   3.074   6.152 -0.4328  0.3588 -0.1663
 6091SOL    HW129906   0.383   3.033   6.212 -0.1477  1.4901  0.9031
 6091SOL    HW229907   0.409   3.057   6.065  0.7574  0.1292 -0.6188
 6092SOL     OW29908   0.397   2.402   5.335  0.3564  0.1801  0.7195
 6092SOL    HW129909   0.318   2.381   5.385  0.0970 -0.5187  0.0148
 6092SOL    HW229910   0.445   2.457   5.398  2.3974  0.7673 -1.3528
 6093SOL     OW29911   2.971   2.708  11.481  0.5635  0.2142  0.3602
 6093SOL    HW129912   3.027   2.724  11.557  0.5348 -2.0707  0.8649
 6093SOL    HW229913   2.884   2.736  11.510 -0.8309 -2.5045 -1.2616
 6094SOL     OW29914   0.390   2.106  16.148  0.2175 -0.2902 -0.0128
 6094SOL    HW129915   0.431   2.159  16.217 -0.4486  0.1041  0.0799
 6094SOL    HW229916   0.373   2.169  16.078 -0.3809 -0.7172 -0.2502
 6095SOL     OW29917   3.427   3.181   8.460  0.2138 -0.4361  0.3571
 6095SOL    HW129918   3.388   3.240   8.526 -0.3278 -1.2272  0.7512
 6095SOL    HW229919   3.506   3.161   8.510  0.3992 -0.9674 -0.1603
 6096SOL     OW29920   0.176   2.849  11.127 -1.1640  0.8022 -0.0959
 6096SOL    HW129921   0.236   2.778  11.103 -0.4406  1.9536 -1.6829
 6096SOL    HW229922   0.221   2.925  11.092 -2.2830  2.4105  1.9476
 6097SOL     OW29923   1.391   1.779   5.390  0.1582 -0.0886  0.6891
 6097SOL    HW129924   1.391   1.721   5.314  0.4334 -1.6780  1.9160
 6097SOL    HW229925   1.321   1.837   5.359 -0.2119 -0.2433  1.2386
 6098SOL     OW29926   0.340   4.618   2.760 -0.1298 -0.3589  0.0821
 6098SOL    HW129927   0.348   4.598   2.853 -0.5141  1.3329  0.4734
 6098SOL    HW229928   0.266   4.559   2.747 -2.3405  2.6740 -1.2120
 6099SOL     OW29929   0.834   2.991  12.865 -0.3116 -0.5097 -0.1997
 6099SOL    HW129930   0.747   2.983  12.825 -1.9764 -0.0303  3.3240
 6099SOL    HW229931   0.867   3.060  12.807 -2.5591 -0.3122 -1.2695
 6100SOL     OW29932   2.890   3.528   6.326  0.2640 -0.2142 -0.4727
 6100SOL    HW129933   2.979   3.523   6.361 -0.6843 -0.3157  1.9426
 6100SOL    HW229934   2.841   3.464   6.378 -0.9858  1.1368  0.0131
 6101SOL     OW29935   1.890   3.127   9.074  0.0007  0.4497 -0.0084
 6101SOL    HW129936   1.841   3.059   9.121  2.4094 -0.6370  0.9255
 6101SOL    HW229937   1.930   3.168   9.151  0.7512 -1.7901  0.7831
 6102SOL     OW29938   4.568   1.364  11.233 -0.5315  0.0200  0.6881
 6102SOL    HW129939   4.623   1.302  11.184 -3.2300  0.6175 -3.1026
 6102SOL    HW229940   4.610   1.447  11.212  0.6553 -0.5003  1.0157
 6103SOL     OW29941   1.570   2.832  16.016  0.3471 -0.3447  0.4563
 6103SOL    HW129942   1.557   2.743  15.982 -0.5677 -0.6671  1.6591
 6103SOL    HW229943   1.480   2.859  16.035 -0.2165 -1.2224 -0.9480
 6104SOL     OW29944   1.642   4.240  12.877 -0.1788 -0.4511  0.0394
 6104SOL    HW129945   1.647   4.247  12.781  0.9995 -2.7853 -0.0704
 6104SOL    HW229946   1.551   4.251  12.904  0.0942 -2.2979  1.7033
 6105SOL     OW29947   3.328   4.030   9.024  0.0150 -0.4599 -0.1276
 6105SOL    HW129948   3.377   3.949   9.007 -1.6843 -1.8703  1.6403
 6105SOL    HW229949   3.241   3.990   9.025 -0.2722  0.1453 -0.9693
 6106SOL     OW29950   2.621   0.231   9.086  0.0073 -0.2683  1.0042
 6106SOL    HW129951   2.560   0.304   9.074  1.4098  0.9015  1.0107
 6106SOL    HW229952   2.568   0.153   9.069 -0.1796 -0.0020  0.3682
 6107SOL     OW29953   0.953   2.713   6.743 -0.2681 -0.3719 -0.3740
 6107SOL    HW129954   0.869   2.736   6.782 -0.3804 -1.1622 -0.1448
 6107SOL    HW229955   0.914   2.679   6.662 -0.7426  0.8716 -0.6595
 6108SOL     OW29956   1.711   0.840  10.919 -0.2357 -0.4039 -0.2256
 6108SOL    HW129957   1.615   0.833  10.919 -0.2437 -0.2653  0.5519
 6108SOL    HW229958   1.722   0.933  10.899 -4.2634  0.2896  0.8789
 6109SOL     OW29959   1.694   3.938   3.983 -0.3573 -0.7468  0.0357
 6109SOL    HW129960   1.718   4.004   3.917 -1.5246 -0.7873 -0.4326
 6109SOL    HW229961   1.601   3.960   3.988 -0.1551  0.1827 -0.1010
 6110SOL     OW29962   0.591   1.308   2.276  0.0477  0.3988  0.1362
 6110SOL    HW129963   0.517   1.288   2.218 -0.5258 -2.0533  1.6891
 6110SOL    HW229964   0.662   1.326   2.215 -1.2839  0.2519 -1.4664
 6111SOL     OW29965   0.152   2.645   4.654 -0.2911 -0.4887  0.2102
 6111SOL    HW129966   0.114   2.574   4.705 -2.7890 -0.9476 -2.2950
 6111SOL    HW229967   0.202   2.598   4.586 -0.0435  0.3491 -0.1930
 6112SOL     OW29968   2.338   1.475   6.530  0.4436  0.0451  0.1220
 6112SOL    HW129969   2.376   1.493   6.444 -1.6243 -0.2976 -0.8525
 6112SOL    HW229970   2.247   1.460   6.505  0.6298  0.2026 -0.6395
 6113SOL     OW29971   2.199   4.674   2.065  0.0773  0.8184  0.0314
 6113SOL    HW129972   2.255   4.613   2.017 -3.6960 -3.1119  0.6453
 6113SOL    HW229973   2.169   4.620   2.137  3.4857 -0.4306  0.5459
 6114SOL     OW29974   1.996   2.678  14.283  0.4364  0.2627 -0.0630
 6114SOL    HW129975   2.086   2.668  14.314  1.0681 -0.3083 -2.0499
 6114SOL    HW229976   1.957   2.596  14.312 -1.8099  1.5203  0.4705
 6115SOL     OW29977   4.700   4.525   9.024 -0.1469 -0.0840  0.3801
 6115SOL    HW129978   4.683   4.481   9.107  0.4066  1.5598  1.3701
 6115SOL    HW229979   4.721   4.452   8.966 -1.7475 -1.5747  1.7050
 6116SOL     OW29980   1.727   4.166   9.076  0.3471  0.0351  0.1636
 6116SOL    HW129981   1.702   4.078   9.104  0.7933 -0.0393  0.3225
 6116SOL    HW229982   1.801   4.177   9.136  1.7771 -0.5078 -1.5016
 6117SOL     OW29983   3.450   3.689   2.536  0.2057  0.8047 -0.2754
 6117SOL    HW129984   3.466   3.780   2.562  1.4485  0.4305  0.2668
 6117SOL    HW229985   3.356   3.693   2.558 -1.1328 -1.9600 -5.6000
 6118SOL     OW29986   3.936   2.548  15.710  0.5448 -0.5056 -0.3872
 6118SOL    HW129987   4.018   2.597  15.707 -0.9819  2.0352 -0.7921
 6118SOL    HW229988   3.953   2.461  15.746 -2.2559 -0.9400 -0.1170
 6119SOL     OW29989   3.254   3.227   7.429 -0.1814  0.4540 -0.0954
 6119SOL    HW129990   3.274   3.318   7.452  0.6887 -0.5130  2.9495
 6119SOL    HW229991   3.162   3.230   7.454 -0.4259 -0.3434 -0.9105
 6120SOL     OW29992   2.629   1.781  11.814 -0.4432  0.4439  0.3321
 6120SOL    HW129993   2.616   1.826  11.731  0.0629 -0.2310 -0.1106
 6120SOL    HW229994   2.614   1.849  11.879 -0.4041  2.6627 -1.9972
 6121SOL     OW29995   1.972   2.538   7.109  0.3479 -0.3614  0.0760
 6121SOL    HW129996   1.903   2.479   7.140 -0.6844  0.6985 -0.2244
 6121SOL    HW229997   2.055   2.499   7.136 -0.3512  0.1231  2.8694
 6122SOL     OW29998   2.934   1.052  13.162 -0.7359 -0.0455  0.1503
 6122SOL    HW129999   2.976   1.032  13.078 -0.5762  1.3569 -0.0992
 6122SOL    HW230000   2.889   0.973  13.192  0.9530 -0.4372  1.5882
 6123SOL     OW30001   2.469   3.981  12.513 -0.4549  0.1613 -0.1208
 6123SOL    HW130002   2.538   4.032  12.556  0.7188 -1.4531 -0.0927
 6123SOL    HW230003   2.482   3.905  12.570  0.5109 -0.1531 -0.7632
 6124SOL     OW30004   3.041   1.300   3.139 -0.0694  0.5517 -0.0643
 6124SOL    HW130005   3.005   1.228   3.190  0.0913  0.7625  0.3465
 6124SOL    HW230006   2.982   1.295   3.064  0.1359  0.6620 -0.2322
 6125SOL     OW30007   2.224   4.672   4.303  0.4987 -0.4429  0.1123
 6125SOL    HW130008   2.184   0.011   4.352 -0.1007 -1.7866  1.5727
 6125SOL    HW230009   2.154   4.607   4.300  0.1704  0.0341 -2.9027
 6126SOL     OW30010   1.251   3.822   1.154  0.4783 -0.0449  0.1970
 6126SOL    HW130011   1.198   3.823   1.074  2.8736 -0.6355 -1.4083
 6126SOL    HW230012   1.202   3.771   1.219 -2.0458  0.6370 -1.1672
 6127SOL     OW30013   0.207   1.549   7.284  0.3664 -0.8985 -0.1235
 6127SOL    HW130014   0.190   1.643   7.278  1.9303 -0.6075  0.0491
 6127SOL    HW230015   0.174   1.523   7.197  0.8867 -0.6710 -0.3906
 6128SOL     OW30016   4.559   4.209   4.730  0.2351 -0.0141 -0.1070
 6128SOL    HW130017   4.494   4.146   4.760  0.8171  0.3644  1.9144
 6128SOL    HW230018   4.529   4.283   4.783  0.0236 -1.2964  1.5616
 6129SOL     OW30019   4.332   4.367   5.934 -0.2070 -0.2202  0.2866
 6129SOL    HW130020   4.401   4.396   5.994  0.2147 -0.3097 -0.1543
 6129SOL    HW230021   4.389   4.348   5.860  0.1018 -0.6020  0.6194
 6130SOL     OW30022   1.200   1.885   3.268  0.0408  0.5905  0.0043
 6130SOL    HW130023   1.246   1.822   3.323 -0.0572  0.6297  0.1322
 6130SOL    HW230024   1.107   1.868   3.285  0.0715  0.6320  0.2175
 6131SOL     OW30025   3.610   4.026   5.171  0.1670  0.4595  0.7296
 6131SOL    HW130026   3.647   4.113   5.155  0.1480  0.9386  3.2109
 6131SOL    HW230027   3.673   3.961   5.142 -0.2912  1.3817 -2.3092
 6132SOL     OW30028   4.206   1.516   9.547  0.2625  0.4952  0.1516
 6132SOL    HW130029   4.297   1.486   9.542  0.3167  0.5600  0.7480
 6132SOL    HW230030   4.162   1.442   9.589 -2.4383  2.2187  0.2979
 6133SOL     OW30031   4.380   2.018   1.052 -1.0129  0.6121  0.1404
 6133SOL    HW130032   4.462   2.054   1.085  0.0115 -0.2538 -1.4838
 6133SOL    HW230033   4.397   2.037   0.960 -1.3850  3.0772  0.5720
 6134SOL     OW30034   1.539   3.373   6.548  0.3821 -0.7868  0.4704
 6134SOL    HW130035   1.468   3.369   6.484 -0.3524  2.1207  1.0596
 6134SOL    HW230036   1.508   3.450   6.597 -0.2723  0.5444 -2.0598
 6135SOL     OW30037   2.486   2.589   3.910 -0.4206  0.3476  0.3970
 6135SOL    HW130038   2.521   2.545   3.987  0.7425 -0.5660 -0.6653
 6135SOL    HW230039   2.394   2.560   3.912  0.1760 -1.4297  2.7413
 6136SOL     OW30040   0.325   1.770   1.945  0.3808  0.1998 -0.0957
 6136SOL    HW130041   0.365   1.724   1.872  0.4873 -0.9419  0.6796
 6136SOL    HW230042   0.405   1.779   1.996 -0.6225 -0.3871  1.6182
 6137SOL     OW30043   0.615   1.816   7.011 -0.0786  0.3838  0.4806
 6137SOL    HW130044   0.619   1.760   7.089 -1.6387 -0.0346  0.2544
 6137SOL    HW230045   0.525   1.850   7.010 -1.1613 -2.6212 -3.6578
 6138SOL     OW30046   0.500   3.802   1.805 -0.7818  0.0352 -0.3175
 6138SOL    HW130047   0.424   3.778   1.858 -0.8160  0.7024 -0.0546
 6138SOL    HW230048   0.508   3.892   1.837 -0.7601  0.2650 -0.9703
 6139SOL     OW30049   1.001   0.149   3.778 -0.0809  0.4148 -0.2599
 6139SOL    HW130050   0.956   0.231   3.797 -2.4207 -1.0589  0.5913
 6139SOL    HW230051   1.036   0.114   3.860 -0.1932 -1.9915 -1.2140
 6140SOL     OW30052   3.046   2.484   6.936 -0.6376  0.3003 -0.1177
 6140SOL    HW130053   3.035   2.579   6.936 -0.6270  0.3010  0.4678
 6140SOL    HW230054   3.069   2.462   7.026 -0.3586 -3.0450 -1.0229
 6141SOL     OW30055   2.673   0.851   8.834  0.8999  0.2333 -0.3570
 6141SOL    HW130056   2.734   0.781   8.813 -0.1265 -0.2442 -1.7188
 6141SOL    HW230057   2.675   0.897   8.750  3.2528 -0.1985 -0.5456
 6142SOL     OW30058   1.671   1.567   4.424  0.0471  0.0906 -0.4190
 6142SOL    HW130059   1.661   1.627   4.498  0.9478 -1.9409  1.3140
 6142SOL    HW230060   1.648   1.481   4.459 -1.8657  1.0160  0.6423
 6143SOL     OW30061   1.207   4.279   1.357  0.3137  0.0014  0.1541
 6143SOL    HW130062   1.200   4.210   1.422  1.5298  0.2947  0.6060
 6143SOL    HW230063   1.253   4.232   1.287  0.3984  0.6553 -0.2272
 6144SOL     OW30064   3.306   2.015   9.089 -0.5196  0.6838 -0.3225
 6144SOL    HW130065   3.262   2.028   9.173  1.5742 -1.7395  1.1482
 6144SOL    HW230066   3.328   1.922   9.090  0.4496  0.8660 -4.2107
 6145SOL     OW30067   2.344   0.217  11.820  0.3874 -0.4800 -0.7404
 6145SOL    HW130068   2.337   0.308  11.847  3.2467 -0.3011 -0.6393
 6145SOL    HW230069   2.250   0.202  11.805  0.0731 -1.5186  2.2507
 6146SOL     OW30070   4.006   1.166   4.949 -0.2570 -0.2369 -0.1209
 6146SOL    HW130071   4.074   1.224   4.985  0.2872  0.6534 -2.5449
 6146SOL    HW230072   3.940   1.163   5.017  0.2985  2.7998  0.5693
 6147SOL     OW30073   0.945   3.200   7.605  0.5704 -0.7924  0.9245
 6147SOL    HW130074   0.983   3.113   7.622 -1.1026 -1.7067 -0.0202
 6147SOL    HW230075   0.993   3.226   7.527 -1.4806 -0.0296 -0.0741
 6148SOL     OW30076   3.510   2.792   2.851  0.2660 -0.2492 -0.0171
 6148SOL    HW130077   3.448   2.780   2.778  0.2492 -0.0976 -0.0276
 6148SOL    HW230078   3.517   2.704   2.889 -0.5141 -1.3278 -2.3324
 6149SOL     OW30079   4.070   1.472   9.283 -0.2390  0.3363  0.1924
 6149SOL    HW130080   4.148   1.483   9.228 -0.8553 -0.3533 -0.8208
 6149SOL    HW230081   4.100   1.521   9.360  0.8939  2.8113 -1.8069
 6150SOL     OW30082   2.979   3.323   6.645  0.0183 -0.2942  0.0543
 6150SOL    HW130083   3.024   3.248   6.684  2.6067 -0.6549 -3.6454
 6150SOL    HW230084   3.023   3.397   6.686 -1.9228  0.5767  0.6023
 6151SOL     OW30085   0.176   3.043   3.263  0.4748 -0.6821  0.2932
 6151SOL    HW130086   0.242   3.007   3.203 -0.0217 -0.3006 -0.4875
 6151SOL    HW230087   0.115   3.089   3.205  2.4790  0.3033 -1.0321
 6152SOL     OW30088   2.650   1.521   1.613 -0.3723  0.3814  0.5115
 6152SOL    HW130089   2.740   1.524   1.646  0.0127  1.4335 -0.6126
 6152SOL    HW230090   2.648   1.432   1.578 -1.9308  1.3910 -1.9384
 6153SOL     OW30091   3.441   4.710   7.425 -0.3080 -0.0342  0.0567
 6153SOL    HW130092   3.403   0.010   7.344  2.3403  0.6615 -0.9324
 6153SOL    HW230093   3.474   4.624   7.400 -0.2450 -0.6433  2.2526
 6154SOL     OW30094   0.542   2.160   8.436  0.1475  0.3079 -0.1069
 6154SOL    HW130095   0.597   2.236   8.416 -0.5796  0.5362 -1.1972
 6154SOL    HW230096   0.504   2.202   8.514  0.5653  0.3073  0.0976
 6155SOL     OW30097   1.527   2.181   4.079  0.0468 -0.3645  0.1442
 6155SOL    HW130098   1.463   2.165   4.009  0.0454  1.2609 -0.2139
 6155SOL    HW230099   1.612   2.163   4.038 -0.5057 -0.1951 -1.0919
 6156SOL     OW30100   3.186   2.775   7.594  0.2253  0.1078  0.0695
 6156SOL    HW130101   3.153   2.799   7.680  2.8192  0.9786  0.8134
 6156SOL    HW230102   3.264   2.830   7.587  0.3490 -0.0856 -0.0716
 6157SOL     OW30103   1.559   0.800  17.290  0.1476  0.3709  0.1234
 6157SOL    HW130104   1.582   0.845  17.209 -0.3515 -0.6002 -0.5563
 6157SOL    HW230105   1.566   0.706  17.270 -1.2778 -0.4290  3.3442
 6158SOL     OW30106   0.775   0.626   2.633  0.0384  0.5452  0.7256
 6158SOL    HW130107   0.763   0.549   2.688  0.4592 -0.8179 -1.0738
 6158SOL    HW230108   0.870   0.630   2.643  0.4304 -0.9945 -2.3321
 6159SOL     OW30109   3.884   3.598   4.968 -0.8482 -0.1931  0.7273
 6159SOL    HW130110   3.937   3.532   5.013  3.2619  2.0323 -0.8547
 6159SOL    HW230111   3.935   3.610   4.887 -0.9031 -0.2712  0.6804
 6160SOL     OW30112   3.190   2.761   6.216  0.3677 -0.4323  0.5108
 6160SOL    HW130113   3.223   2.671   6.215 -0.9365 -0.9295  1.7227
 6160SOL    HW230114   3.246   2.814   6.160 -0.6537  1.4614  1.3039
 6161SOL     OW30115   0.332   2.246   4.408 -0.0346  0.1928 -0.0324
 6161SOL    HW130116   0.408   2.214   4.456 -0.8153 -0.8694  0.4935
 6161SOL    HW230117   0.347   2.219   4.318 -0.7356  0.3895 -0.2070
 6162SOL     OW30118   1.697   0.500  13.304 -0.0509 -0.0945  0.2750
 6162SOL    HW130119   1.623   0.457  13.347 -0.8565  2.4098  1.4151
 6162SOL    HW230120   1.762   0.444  13.346  0.6673  0.7555  0.3085
 6163SOL     OW30121   3.391   0.243   6.549 -0.2699  0.2287  0.1207
 6163SOL    HW130122   3.462   0.188   6.582  1.7961  2.0393 -1.2671
 6163SOL    HW230123   3.318   0.181   6.550  0.4053 -0.6249 -2.3024
 6164SOL     OW30124   3.089   3.399  11.137 -0.3399 -0.3022 -0.3021
 6164SOL    HW130125   3.067   3.484  11.097  0.9766 -0.1072 -0.5975
 6164SOL    HW230126   3.035   3.343  11.081  0.8262  0.9896 -2.7246
 6165SOL     OW30127   1.831   0.935   7.966 -0.3031  0.0289  0.9280
 6165SOL    HW130128   1.770   0.970   7.901  0.7578  0.4748  0.1828
 6165SOL    HW230129   1.848   1.017   8.013 -1.5376  0.7428  0.1357
 6166SOL     OW30130   2.354   1.582  15.113 -0.2070 -0.2906  0.4204
 6166SOL    HW130131   2.303   1.536  15.180 -0.5816  0.2764  0.5255
 6166SOL    HW230132   2.359   1.669  15.154 -0.6827  0.1122 -0.3802
 6167SOL     OW30133   0.573   2.850   4.606  0.3567  1.5725 -0.4808
 6167SOL    HW130134   0.654   2.801   4.624  0.7074  2.5584  0.6596
 6167SOL    HW230135   0.554   2.880   4.695  0.9243 -1.1710  0.5701
 6168SOL     OW30136   3.365   1.681   4.033  0.3797 -0.0147 -0.3033
 6168SOL    HW130137   3.310   1.715   3.963 -1.9927 -1.0739  1.0548
 6168SOL    HW230138   3.403   1.764   4.063 -0.2819  0.0741  0.2844
 6169SOL     OW30139   1.286   3.589  15.878  0.4817 -0.5706  0.4418
 6169SOL    HW130140   1.279   3.683  15.895  1.7701 -0.8767  2.7157
 6169SOL    HW230141   1.196   3.555  15.871  0.1838  0.5059 -1.0255
 6170SOL     OW30142   2.076   1.469  14.186  0.0788 -0.3015  0.3468
 6170SOL    HW130143   2.077   1.416  14.107  2.1891  0.3271 -0.0448
 6170SOL    HW230144   2.074   1.558  14.152 -0.4199 -0.4013  0.1216
 6171SOL     OW30145   2.302   2.624  12.134  0.4190  0.2885  0.3110
 6171SOL    HW130146   2.294   2.530  12.117 -0.7723  0.4564 -0.0871
 6171SOL    HW230147   2.336   2.651  12.049  0.4258  1.9496  0.8452
 6172SOL     OW30148   4.017   3.269  16.876  0.3021 -0.0738 -0.0242
 6172SOL    HW130149   4.100   3.244  16.916 -0.1967  0.7363  1.5329
 6172SOL    HW230150   4.033   3.253  16.783  1.4216  0.3732  0.0862
 6173SOL     OW30151   0.247   2.635   3.349  0.3280  0.6092 -0.3010
 6173SOL    HW130152   0.317   2.578   3.379 -1.1427 -1.5978 -1.0163
 6173SOL    HW230153   0.191   2.635   3.426 -1.8908  0.4902 -1.8907
 6174SOL     OW30154   1.075   2.892  15.753  1.0268  0.5745 -0.2707
 6174SOL    HW130155   1.168   2.873  15.762  0.6768 -0.9309  0.0642
 6174SOL    HW230156   1.074   2.983  15.722  1.8492  0.8682  0.5727
 6175SOL     OW30157   1.676   4.176   1.611 -0.1862 -0.3380 -0.3128
 6175SOL    HW130158   1.585   4.158   1.586 -0.4233  1.2036 -0.5535
 6175SOL    HW230159   1.711   4.101   1.564 -1.1696 -0.5932 -0.6467
 6176SOL     OW30160   0.828   2.828   6.450  0.0213 -0.5599 -0.0460
 6176SOL    HW130161   0.860   2.910   6.487  0.9918 -0.7083 -0.5611
 6176SOL    HW230162   0.761   2.864   6.392 -0.0737  2.8475  2.1827
 6177SOL     OW30163   1.610   3.272   2.634 -0.6296  1.1087 -0.4327
 6177SOL    HW130164   1.629   3.180   2.618 -3.3158  0.3378  0.7733
 6177SOL    HW230165   1.688   3.310   2.595 -0.3996 -0.3487 -1.3955
 6178SOL     OW30166   3.127   1.755   6.165 -0.8347  0.2559 -0.5611
 6178SOL    HW130167   3.152   1.725   6.078 -0.8221  0.0988 -0.5037
 6178SOL    HW230168   3.157   1.846   6.164  0.3070 -0.1324 -1.1950
 6179SOL     OW30169   3.675   4.063  10.313  0.9595 -0.3346 -0.0128
 6179SOL    HW130170   3.750   4.004  10.309  1.1076 -0.2816  1.7042
 6179SOL    HW230171   3.667   4.077  10.219  2.1206  1.0013  0.0751
 6180SOL     OW30172   3.751   2.263  11.781 -0.2496 -0.4626 -0.5165
 6180SOL    HW130173   3.806   2.331  11.742 -1.1724 -0.1510 -1.2865
 6180SOL    HW230174   3.746   2.292  11.872  2.4562  2.8811 -1.4401
 6181SOL     OW30175   3.460   3.779   8.894  0.6409 -0.4467  0.0039
 6181SOL    HW130176   3.541   3.756   8.939  0.8195 -1.0061 -0.6010
 6181SOL    HW230177   3.409   3.698   8.897 -0.4170  0.2587  0.6662
 6182SOL     OW30178   1.556   1.604   7.529  0.3871 -0.4165  0.1971
 6182SOL    HW130179   1.617   1.676   7.514 -0.9890  1.0613  1.7858
 6182SOL    HW230180   1.614   1.529   7.544 -0.2934 -1.0474 -0.3473
 6183SOL     OW30181   0.405   2.273   2.759 -0.1227 -0.2689 -0.0377
 6183SOL    HW130182   0.485   2.227   2.731  0.0002 -0.3793  0.4916
 6183SOL    HW230183   0.335   2.211   2.777  0.7970 -0.6626  2.1680
 6184SOL     OW30184   4.183   4.257  10.158  0.3434 -0.4762  1.0739
 6184SOL    HW130185   4.133   4.216  10.230 -1.7871 -1.5906 -1.0383
 6184SOL    HW230186   4.266   4.281  10.200  0.6708  2.2128 -1.1183
 6185SOL     OW30187   1.025   3.962  13.950 -0.5175 -0.0548 -0.4920
 6185SOL    HW130188   0.965   3.909  13.898 -0.1599 -1.1780  0.2319
 6185SOL    HW230189   0.995   3.937  14.037 -2.9012  0.1133 -1.2681
 6186SOL     OW30190   2.054   4.022  13.955 -0.2312 -0.7769 -0.1013
 6186SOL    HW130191   2.080   4.111  13.979  0.8101 -0.9971 -0.4609
 6186SOL    HW230192   1.963   4.040  13.980 -0.3094 -2.5312  0.9012
 6187SOL     OW30193   2.600   4.142   2.129 -0.0451  0.1560  0.2234
 6187SOL    HW130194   2.529   4.205   2.115 -0.8033 -0.1940  2.3829
 6187SOL    HW230195   2.579   4.119   2.220  0.7531 -0.0055  0.3614
 6188SOL     OW30196   1.728   2.741   5.875  0.4775 -0.3348  0.1351
 6188SOL    HW130197   1.649   2.687   5.875  1.6031 -1.9831 -2.1527
 6188SOL    HW230198   1.711   2.816   5.817  0.0885 -0.5019  0.0365
 6189SOL     OW30199   2.701   1.334  10.397  0.1345  0.1243 -0.4311
 6189SOL    HW130200   2.646   1.398  10.352 -0.0230  0.3234  0.0399
 6189SOL    HW230201   2.750   1.298  10.323  1.8099  0.3724  0.5673
 6190SOL     OW30202   4.674   3.559   3.138  0.2708  0.6606  0.6773
 6190SOL    HW130203   4.604   3.560   3.073  0.3299 -1.4035  0.5962
 6190SOL    HW230204   4.638   3.507   3.210  0.1871 -1.1987 -0.7114
 6191SOL     OW30205   3.720   0.245   2.450  0.3053  0.8391 -0.3605
 6191SOL    HW130206   3.794   0.197   2.486 -1.7654 -2.4121 -0.4748
 6191SOL    HW230207   3.767   0.314   2.402 -0.2901  0.1181 -1.9811
 6192SOL     OW30208   0.295   4.327   7.209  0.2667  0.2880  0.4134
 6192SOL    HW130209   0.346   4.261   7.162  0.4652  0.1005  0.8984
 6192SOL    HW230210   0.217   4.327   7.154  0.5451 -0.2191  0.0124
 6193SOL     OW30211   4.607   0.489  15.119  0.5194 -0.1261 -0.0550
 6193SOL    HW130212   4.669   0.416  15.116  0.2577 -0.2920 -1.7369
 6193SOL    HW230213   4.561   0.475  15.036 -2.2167 -1.5180  1.6991
 6194SOL     OW30214   4.683   0.141   8.475 -0.2806 -0.2451 -0.0765
 6194SOL    HW130215   0.033   0.121   8.518 -1.2232 -1.2568  1.2444
 6194SOL    HW230216   4.714   0.136   8.384 -0.3849  0.9411 -0.1783
 6195SOL     OW30217   1.828   3.129   3.406  0.1027 -0.3611  0.0185
 6195SOL    HW130218   1.745   3.125   3.358  0.7593  2.1561 -1.3240
 6195SOL    HW230219   1.870   3.209   3.375  0.2512  0.0147  1.1764
 6196SOL     OW30220   4.264   4.666   6.575  0.2149 -0.6960 -0.7933
 6196SOL    HW130221   4.252   0.027   6.591 -0.8230 -0.7085 -1.4504
 6196SOL    HW230222   4.247   4.660   6.481 -0.7415  1.0833 -0.7226
 6197SOL     OW30223   4.028   0.863   4.535  0.0866  0.6175 -0.0167
 6197SOL    HW130224   4.073   0.785   4.567 -3.2176 -1.2692 -0.0261
 6197SOL    HW230225   4.047   0.925   4.606  0.6724  1.0431 -0.5395
 6198SOL     OW30226   1.904   0.852   3.576 -0.5422 -0.0018 -0.4573
 6198SOL    HW130227   1.979   0.909   3.559  0.4692 -1.5192 -0.9717
 6198SOL    HW230228   1.884   0.890   3.662  0.1514 -0.4510 -0.1021
 6199SOL     OW30229   2.089   3.534   8.623  0.2505 -0.0466 -0.5723
 6199SOL    HW130230   2.119   3.457   8.672 -1.1763  0.9262  1.8559
 6199SOL    HW230231   2.075   3.494   8.537  0.8248 -0.9986 -0.2236
 6200SOL     OW30232   0.864   2.100   7.174  0.5953 -0.8009  0.2768
 6200SOL    HW130233   0.886   2.007   7.169 -0.3304 -1.0766  1.2933
 6200SOL    HW230234   0.769   2.090   7.188  0.5731  0.9504  1.3412
 6201SOL     OW30235   0.675   2.890   9.048 -0.0745 -0.9944  0.1590
 6201SOL    HW130236   0.732   2.959   9.081 -0.1342 -0.1172 -1.5402
 6201SOL    HW230237   0.702   2.891   8.956 -0.7041  1.3358 -0.0117
 6202SOL     OW30238   1.413   2.523  13.583  0.5401 -0.1399 -0.3623
 6202SOL    HW130239   1.435   2.432  13.605 -0.9929 -0.3338  0.3284
 6202SOL    HW230240   1.324   2.540  13.614  1.9424  2.5933  2.2410
 6203SOL     OW30241   1.711   3.463   7.003  0.2610  0.4220  0.0493
 6203SOL    HW130242   1.781   3.502   7.055 -0.2291  0.0523  0.9953
 6203SOL    HW230243   1.636   3.466   7.063 -0.4655 -2.7530 -0.6927
 6204SOL     OW30244   1.758   1.847   3.529  0.1816 -0.2258  0.5500
 6204SOL    HW130245   1.749   1.941   3.540  1.2829  0.0277 -0.6281
 6204SOL    HW230246   1.852   1.836   3.515 -0.1261  0.8432 -2.2992
 6205SOL     OW30247   0.688   4.083   0.953 -0.1602 -0.1037 -0.2473
 6205SOL    HW130248   0.642   4.143   0.894 -1.5780 -2.2569 -1.3353
 6205SOL    HW230249   0.775   4.066   0.917 -0.2759  0.8362 -0.9840
 6206SOL     OW30250   3.230   0.445  10.816 -0.1390 -0.3485 -0.4090
 6206SOL    HW130251   3.134   0.450  10.819 -0.0530  1.1525 -0.1780
 6206SOL    HW230252   3.244   0.504  10.890 -1.2652 -1.0204  0.3534
 6207SOL     OW30253   4.585   2.759   7.616  0.0714  0.0244  0.0586
 6207SOL    HW130254   4.654   2.824   7.602 -0.4061  0.9915  2.1033
 6207SOL    HW230255   4.622   2.680   7.575  3.1816  1.7285 -0.4441
 6208SOL     OW30256   2.589   0.714   5.077 -0.6534  0.2376  0.2396
 6208SOL    HW130257   2.657   0.767   5.037  1.4068 -1.2680  1.7593
 6208SOL    HW230258   2.617   0.714   5.169 -0.1973 -2.0016  0.1104
 6209SOL     OW30259   2.295   0.576   7.780  0.6616  0.1299 -0.5767
 6209SOL    HW130260   2.229   0.532   7.726 -0.2599  1.3168 -0.4273
 6209SOL    HW230261   2.245   0.581   7.862  0.5175 -0.1386 -0.6495
 6210SOL     OW30262   4.149   4.197  16.653  0.5162 -0.0783 -0.4135
 6210SOL    HW130263   4.216   4.156  16.598 -0.7215 -1.0795 -1.1792
 6210SOL    HW230264   4.110   4.256  16.588 -1.8601  0.5230  1.5819
 6211SOL     OW30265   0.457   3.970   4.731 -0.4831 -0.4531  0.2546
 6211SOL    HW130266   0.384   3.982   4.791 -1.0176  0.6018 -0.6147
 6211SOL    HW230267   0.485   3.879   4.718 -1.8813 -0.3602 -3.4139
 6212SOL     OW30268   1.638   0.055  12.415 -0.5850  0.2136  0.0961
 6212SOL    HW130269   1.672   4.702  12.442 -0.9595  0.3600  1.0566
 6212SOL    HW230270   1.653   0.053  12.321 -1.3341 -0.7482  0.0041
 6213SOL     OW30271   3.617   2.492   5.052 -0.1417 -0.3063  0.4720
 6213SOL    HW130272   3.532   2.483   5.009  1.2495 -0.6901 -2.1614
 6213SOL    HW230273   3.673   2.464   4.981  0.9768 -0.6405  1.4968
 6214SOL     OW30274   1.668   0.616   7.808 -0.5960 -0.7533  0.5670
 6214SOL    HW130275   1.719   0.564   7.746 -1.6648 -0.5312 -0.4918
 6214SOL    HW230276   1.733   0.622   7.878  0.0286 -4.1029  0.2779
 6215SOL     OW30277   2.558   3.331  13.736 -0.2101  0.2189  0.2580
 6215SOL    HW130278   2.488   3.291  13.789  0.2068  1.6894  1.9155
 6215SOL    HW230279   2.625   3.320  13.803 -0.5619 -2.2787  0.2174
 6216SOL     OW30280   2.091   2.346  10.361  0.9508 -0.5893  0.0863
 6216SOL    HW130281   2.119   2.387  10.280 -2.0445  0.4157 -0.4405
 6216SOL    HW230282   2.010   2.307  10.327  0.8579 -0.0624 -0.2804
 6217SOL     OW30283   1.626   1.703  15.789 -0.4678  0.0420 -0.0127
 6217SOL    HW130284   1.648   1.611  15.772 -0.5018 -0.1668  1.0455
 6217SOL    HW230285   1.613   1.730  15.698  3.1560 -2.6285 -1.3009
 6218SOL     OW30286   2.169   3.121   2.923  0.2614  0.2124 -0.1362
 6218SOL    HW130287   2.135   3.135   2.835  1.8364  1.3230 -0.5767
 6218SOL    HW230288   2.199   3.030   2.917 -1.1551 -0.2307 -0.3505
 6219SOL     OW30289   0.218   1.210  17.241 -0.1034 -0.1879 -0.4974
 6219SOL    HW130290   0.130   1.248  17.240  0.1902  0.4626 -0.7981
 6219SOL    HW230291   0.247   1.227  17.151  0.5920 -1.8271 -0.5923
 6220SOL     OW30292   2.630   1.930   6.699 -0.0913  0.6734  0.3691
 6220SOL    HW130293   2.606   1.850   6.652  1.3719  1.4835 -1.7792
 6220SOL    HW230294   2.598   1.978   6.623 -0.6313  1.6229  1.2013
 6221SOL     OW30295   4.112   2.823  10.175  0.1118 -0.5723 -0.4097
 6221SOL    HW130296   4.043   2.841  10.111 -0.5271 -0.2370  0.3637
 6221SOL    HW230297   4.076   2.871  10.250  0.9074  0.7997 -0.9145
 6222SOL     OW30298   2.490   3.722   2.259 -0.4255 -0.2104 -0.0291
 6222SOL    HW130299   2.417   3.782   2.245 -1.3350 -0.7778  2.2263
 6222SOL    HW230300   2.456   3.638   2.229 -2.5123  0.1133  1.4062
 6223SOL     OW30301   3.779   3.535   4.507 -0.2976  0.1362  0.0931
 6223SOL    HW130302   3.743   3.603   4.451  1.2210  0.6224 -0.2717
 6223SOL    HW230303   3.755   3.563   4.596  1.6706 -2.3119  1.3935
 6224SOL     OW30304   4.567   1.189   7.504  0.2354 -0.2077 -0.2258
 6224SOL    HW130305   4.547   1.229   7.589 -3.7771  0.3562 -1.4343
 6224SOL    HW230306   4.645   1.242   7.485 -0.4923  2.2012  3.5965
 6225SOL     OW30307   4.521   4.618   7.783  0.5101  0.4735 -0.4040
 6225SOL    HW130308   4.493   4.673   7.709 -1.7493 -0.6888 -0.4212
 6225SOL    HW230309   4.518   4.530   7.746 -0.2918  1.3117 -2.3781
 6226SOL     OW30310   2.513   3.386   3.401 -0.4090  0.1895  0.2338
 6226SOL    HW130311   2.599   3.343   3.400 -0.1233  0.7930 -0.5435
 6226SOL    HW230312   2.479   3.351   3.483  0.4409 -0.0078  0.4964
 6227SOL     OW30313   3.613   3.775   2.084  0.5177  0.1100  0.2453
 6227SOL    HW130314   3.604   3.692   2.037  1.2137  1.1948 -1.7665
 6227SOL    HW230315   3.670   3.740   2.154 -1.3251 -1.6338  0.8731
 6228SOL     OW30316   2.000   2.931   3.821  0.3948  0.0689 -0.3781
 6228SOL    HW130317   2.071   2.947   3.883 -0.0086  0.6384 -0.0649
 6228SOL    HW230318   1.950   2.861   3.863 -1.6443  2.2636  0.8463
 6229SOL     OW30319   2.899   4.350  13.118 -0.4716  0.4189  0.0191
 6229SOL    HW130320   2.945   4.422  13.075 -3.0556  1.2576 -1.3032
 6229SOL    HW230321   2.961   4.305  13.176 -0.6981  3.4317  2.5710
 6230SOL     OW30322   2.884   1.216   0.586 -0.2976 -0.2797 -0.0793
 6230SOL    HW130323   2.937   1.290   0.556 -1.5788  0.6582 -0.0343
 6230SOL    HW230324   2.834   1.198   0.506  0.8761 -0.3332 -0.7900
 6231SOL     OW30325   3.332   3.017   5.503 -0.5723 -0.1014 -0.7951
 6231SOL    HW130326   3.382   2.974   5.571 -0.9426 -0.6269 -0.8522
 6231SOL    HW230327   3.371   2.984   5.422  0.2845 -0.3980 -0.2512
 6232SOL     OW30328   2.290   4.090   1.325 -0.0361  0.2693 -0.3610
 6232SOL    HW130329   2.331   4.172   1.350 -0.4960  0.4448 -0.1833
 6232SOL    HW230330   2.349   4.062   1.255 -0.8851  0.1931 -1.0435
 6233SOL     OW30331   0.048   3.118   9.187  0.1373 -0.3884  0.6267
 6233SOL    HW130332   4.724   3.095   9.261 -1.3461  0.7223 -0.1505
 6233SOL    HW230333   0.136   3.099   9.220  1.4202 -1.4496 -3.4290
 6234SOL     OW30334   2.223   2.023   9.496 -0.0387 -0.0068  0.5759
 6234SOL    HW130335   2.146   2.034   9.552  0.3139 -2.3855  1.5744
 6234SOL    HW230336   2.193   2.033   9.406  0.1436  0.0828  0.5252
 6235SOL     OW30337   0.554   3.006  15.867 -0.5227 -0.0546  0.2604
 6235SOL    HW130338   0.614   2.945  15.910 -0.4897  0.8094  1.4479
 6235SOL    HW230339   0.469   2.964  15.879  0.2937 -2.2282 -1.4281
 6236SOL     OW30340   3.557   4.089   3.281  0.9147 -0.3315  0.0580
 6236SOL    HW130341   3.466   4.077   3.309  1.0344  2.4483  1.6832
 6236SOL    HW230342   3.575   3.995   3.284  1.0253 -0.2594  1.7783
 6237SOL     OW30343   2.960   4.083   9.230  0.4613  0.4130  0.3687
 6237SOL    HW130344   3.040   4.111   9.186 -0.1741  0.6201 -0.6539
 6237SOL    HW230345   2.895   4.113   9.166  0.2398  1.6145  1.1635
 6238SOL     OW30346   2.604   3.598   9.192 -0.2658  0.2150 -0.0748
 6238SOL    HW130347   2.590   3.513   9.233  0.4710 -0.3946 -1.0970
 6238SOL    HW230348   2.570   3.647   9.268 -3.0654 -2.9272  0.7210
 6239SOL     OW30349   1.880   3.883   3.287 -0.2990  0.8339  0.0726
 6239SOL    HW130350   1.840   3.862   3.202  1.0042 -1.1920 -0.0357
 6239SOL    HW230351   1.849   3.803   3.328 -0.4528  0.7831 -0.1418
 6240SOL     OW30352   3.813   1.387  15.064  0.1332 -0.2339 -0.0723
 6240SOL    HW130353   3.803   1.428  14.978 -3.0853 -0.0698  0.3574
 6240SOL    HW230354   3.725   1.350  15.073 -0.9608  2.3507 -0.1867
 6241SOL     OW30355   3.697   3.496   5.984  0.7283  0.4444 -0.3258
 6241SOL    HW130356   3.684   3.403   5.966  1.4347  0.2428  0.2292
 6241SOL    HW230357   3.712   3.504   6.078 -1.8397  2.3410 -0.0666
 6242SOL     OW30358   2.277   1.947  13.320 -0.1470 -0.3820  0.3886
 6242SOL    HW130359   2.324   2.001  13.256  0.3432 -1.5041 -0.2083
 6242SOL    HW230360   2.291   1.862  13.279  0.2709 -0.4307  0.6362
 6243SOL     OW30361   0.301   4.661  12.111  0.6965  0.2016 -0.0323
 6243SOL    HW130362   0.314   4.671  12.205 -0.0961  2.5580 -0.1797
 6243SOL    HW230363   0.390   4.670  12.076  0.6282  0.0228 -0.2501
 6244SOL     OW30364   3.295   3.262   2.964  0.2671  0.1097 -0.2785
 6244SOL    HW130365   3.278   3.353   2.989  0.1723 -0.5105  1.9603
 6244SOL    HW230366   3.320   3.274   2.873  0.9967 -1.7189 -0.3221
 6245SOL     OW30367   3.351   0.779   4.938  0.3022  0.3994 -0.7421
 6245SOL    HW130368   3.360   0.857   4.993  2.4377 -0.9048  0.7487
 6245SOL    HW230369   3.439   0.743   4.940  0.0141 -0.2321  0.6647
 6246SOL     OW30370   4.456   3.034  12.655 -0.4897 -0.1148  0.5346
 6246SOL    HW130371   4.522   2.986  12.604 -2.0321 -0.7378 -0.8787
 6246SOL    HW230372   4.474   2.991  12.738  1.1410  0.5512  0.5350
 6247SOL     OW30373   4.547   4.158   8.752  0.5284 -0.0922  0.0302
 6247SOL    HW130374   4.460   4.197   8.755  1.1941  1.3634  1.1784
 6247SOL    HW230375   4.528   4.070   8.723 -2.4579  1.0208 -1.3227
 6248SOL     OW30376   1.024   1.107   6.575  0.5885 -0.2138  0.6452
 6248SOL    HW130377   1.109   1.087   6.613  0.8160  1.0420  0.7961
 6248SOL    HW230378   0.982   1.025   6.599 -0.1219  0.2078  0.8589
 6249SOL     OW30379   1.099   2.966   8.901  0.1406 -0.3672  0.2214
 6249SOL    HW130380   1.043   3.002   8.970 -1.5849  1.2410 -2.0164
 6249SOL    HW230381   1.111   3.047   8.851  0.5662 -0.2766  0.4595
 6250SOL     OW30382   3.154   2.390   4.099 -0.5268 -0.3878 -0.0575
 6250SOL    HW130383   3.100   2.410   4.023  1.0811 -0.0698 -1.1109
 6250SOL    HW230384   3.128   2.463   4.157 -1.8049  0.2875 -1.4702
 6251SOL     OW30385   4.546   4.120   5.206 -0.2419 -0.0324 -0.2124
 6251SOL    HW130386   4.496   4.191   5.164  2.6135  1.0542 -1.7365
 6251SOL    HW230387   4.488   4.044   5.206 -1.6314  1.0400  2.7599
 6252SOL     OW30388   3.631   0.418   0.709  0.1966  0.2961  0.3896
 6252SOL    HW130389   3.695   0.480   0.675 -0.4481  1.8971  2.1234
 6252SOL    HW230390   3.688   0.362   0.762 -2.1012 -4.1213 -1.8345
 6253SOL     OW30391   2.056   3.143   1.143  0.7148  0.2789 -0.7946
 6253SOL    HW130392   2.026   3.219   1.093  0.9347  0.5692 -0.4894
 6253SOL    HW230393   2.089   3.082   1.077 -1.6323 -0.6007 -1.1501
 6254SOL     OW30394   0.786   2.461  17.615  0.3598  0.5812  0.0065
 6254SOL    HW130395   0.881   2.478  17.620  0.5651 -0.1592 -1.5025
 6254SOL    HW230396   0.759   2.433  17.702 -0.6464  1.0865 -0.1475
 6255SOL     OW30397   1.524   2.288   2.562 -0.6323 -0.3121 -0.2245
 6255SOL    HW130398   1.564   2.289   2.475 -1.3372  1.3627 -0.5255
 6255SOL    HW230399   1.453   2.226   2.540  0.4279 -1.8831  0.7991
 6256SOL     OW30400   3.794   2.913   8.024  0.1989  0.3524  0.8883
 6256SOL    HW130401   3.861   2.947   8.082  0.8140 -0.7267  0.8065
 6256SOL    HW230402   3.795   2.823   8.057 -0.1066  0.8517  2.2474
 6257SOL     OW30403   0.472   1.607   7.579 -0.2118  0.1428  0.2326
 6257SOL    HW130404   0.510   1.643   7.498  2.3061 -0.8159  0.9865
 6257SOL    HW230405   0.533   1.643   7.643 -0.3066 -0.6220  0.7485
 6258SOL     OW30406   0.298   0.293  16.089  0.3752 -0.0315  0.2225
 6258SOL    HW130407   0.378   0.269  16.135  0.2583 -0.0470  0.4172
 6258SOL    HW230408   0.318   0.321  15.999  2.8039  0.2955  0.8720
 6259SOL     OW30409   2.262   2.841   7.620 -0.4045 -0.0380 -0.6213
 6259SOL    HW130410   2.308   2.761   7.594 -0.9729 -1.0758  1.5214
 6259SOL    HW230411   2.171   2.825   7.594 -0.1177 -0.5812 -1.3051
 6260SOL     OW30412   4.583   2.039  15.427  0.5641 -0.2109 -0.3227
 6260SOL    HW130413   4.675   2.063  15.422  0.1363  1.9158  2.1548
 6260SOL    HW230414   4.572   1.958  15.377 -1.8487  0.2188 -0.4815
 6261SOL     OW30415   3.568   2.369  14.191 -0.2769 -0.5192 -0.6113
 6261SOL    HW130416   3.500   2.318  14.234 -2.4120  2.6279 -0.1908
 6261SOL    HW230417   3.633   2.374  14.261 -1.0577 -1.1883  0.1622
 6262SOL     OW30418   2.580   3.929  16.616 -0.2571  0.1627  0.0106
 6262SOL    HW130419   2.490   3.900  16.629 -0.5972  0.8478 -0.8419
 6262SOL    HW230420   2.617   3.930  16.704  1.3472 -0.2760 -0.6545
 6263SOL     OW30421   4.546   3.610  13.519  0.4520  0.1474 -0.1958
 6263SOL    HW130422   4.527   3.700  13.545  0.4390 -0.1205  0.6950
 6263SOL    HW230423   4.638   3.603  13.493  0.6597 -0.3518  0.6637
 6264SOL     OW30424   1.201   2.399   6.209  0.2935 -0.2828  0.1806
 6264SOL    HW130425   1.263   2.359   6.147 -0.9730 -2.2384  0.1809
 6264SOL    HW230426   1.149   2.320   6.223  2.5741 -2.0642 -1.4679
 6265SOL     OW30427   0.948   1.656  16.842 -0.7638  0.1495  0.3067
 6265SOL    HW130428   1.026   1.692  16.884  0.6598 -0.3075 -1.9487
 6265SOL    HW230429   0.937   1.576  16.893  0.6534  1.3113  2.4771
 6266SOL     OW30430   2.607   3.786   8.020 -0.4809 -0.5729 -0.2047
 6266SOL    HW130431   2.664   3.831   7.958 -0.7096 -0.8393 -0.6098
 6266SOL    HW230432   2.662   3.728   8.073 -0.6257 -2.0350 -1.6338
 6267SOL     OW30433   3.357   3.403   2.087  0.1105  0.0281  0.1206
 6267SOL    HW130434   3.299   3.442   2.153  0.8346  2.5026 -0.7100
 6267SOL    HW230435   3.291   3.367   2.028 -0.5861 -0.5323  1.2293
 6268SOL     OW30436   4.376   3.069   1.244  0.3379  0.1443 -0.5274
 6268SOL    HW130437   4.325   2.989   1.229  1.1760 -0.0437 -2.2632
 6268SOL    HW230438   4.383   3.061   1.339  0.5098  0.1097 -0.5445
 6269SOL     OW30439   3.318   3.413  10.773  0.2368  0.2956  0.0812
 6269SOL    HW130440   3.328   3.371  10.688  1.9094  1.7549 -0.4511
 6269SOL    HW230441   3.300   3.331  10.820  0.7320  0.2760  0.2313
 6270SOL     OW30442   3.724   0.476   9.212 -0.0256 -0.4883 -0.3868
 6270SOL    HW130443   3.798   0.483   9.271 -2.2964 -0.1558  2.4230
 6270SOL    HW230444   3.668   0.551   9.232  0.4747 -0.4440  0.8400
 6271SOL     OW30445   0.358   0.730   8.329 -0.0217 -0.2361 -0.5004
 6271SOL    HW130446   0.390   0.641   8.347  2.1179  0.6604  0.0758
 6271SOL    HW230447   0.289   0.710   8.265 -0.9832  0.4599  0.3148
 6272SOL     OW30448   1.366   4.601   3.661 -0.1538 -0.2082 -0.1655
 6272SOL    HW130449   1.431   4.544   3.703  0.4850 -0.0531 -0.9501
 6272SOL    HW230450   1.420   4.656   3.604 -0.8385 -1.5734 -2.1643
 6273SOL     OW30451   3.035   0.135   8.736  0.4351  0.5574  0.6846
 6273SOL    HW130452   3.004   0.186   8.811 -1.8668  1.4660 -0.8987
 6273SOL    HW230453   3.128   0.156   8.743  0.1448  2.0713  0.0388
 6274SOL     OW30454   2.577   3.111   6.711 -0.4506  0.0038 -0.6156
 6274SOL    HW130455   2.659   3.115   6.663  0.1286  0.5091  0.4148
 6274SOL    HW230456   2.515   3.146   6.647 -0.7504  0.7144  0.0724
 6275SOL     OW30457   2.726   0.639  15.451  0.0823  0.3009  0.0180
 6275SOL    HW130458   2.642   0.636  15.405 -0.3170  0.8293  0.7205
 6275SOL    HW230459   2.786   0.653  15.378  0.1558 -1.7127 -0.3187
 6276SOL     OW30460   2.685   2.252   8.383  0.0284 -0.5758 -0.4754
 6276SOL    HW130461   2.714   2.228   8.295  0.6072  1.0135 -0.7049
 6276SOL    HW230462   2.719   2.341   8.386  0.4559 -0.6753 -2.4389
 6277SOL     OW30463   3.848   3.750   6.623  0.4966 -0.3432 -0.1913
 6277SOL    HW130464   3.866   3.839   6.593  2.9525 -0.5332  0.6519
 6277SOL    HW230465   3.936   3.714   6.637  0.1251 -0.9712  0.5540
 6278SOL     OW30466   1.843   0.162  12.696  0.5439 -0.1906  0.3968
 6278SOL    HW130467   1.882   0.127  12.776 -0.1275 -0.0474  0.7919
 6278SOL    HW230468   1.923   0.166  12.644  0.8122 -0.9472  0.7441
 6279SOL     OW30469   0.652   0.897   0.815  0.1134  0.2023  0.0066
 6279SOL    HW130470   0.703   0.937   0.745  1.5141  0.9664  1.4769
 6279SOL    HW230471   0.714   0.867   0.882  0.3855  4.0640  1.5458
 6280SOL     OW30472   1.994   0.516  11.281  0.1444 -0.0993 -0.3976
 6280SOL    HW130473   1.936   0.440  11.275 -0.1759  0.1489 -0.4269
 6280SOL    HW230474   2.081   0.486  11.254  0.3209  1.2862 -1.3572
 6281SOL     OW30475   3.073   4.250  11.226  0.3739  0.2383  0.4701
 6281SOL    HW130476   3.099   4.314  11.292 -1.1911  0.4901  0.8447
 6281SOL    HW230477   3.160   4.230  11.192  0.0301  0.2506 -0.4123
 6282SOL     OW30478   3.597   2.683  11.654 -0.0661 -0.1450  0.1096
 6282SOL    HW130479   3.535   2.691  11.581  0.4734 -1.7853 -0.5280
 6282SOL    HW230480   3.577   2.590  11.659 -0.9633  0.0199 -0.3356
 6283SOL     OW30481   0.327   1.792   6.485  0.0609 -0.0142  0.2765
 6283SOL    HW130482   0.240   1.798   6.522  0.3033  0.4978  0.7586
 6283SOL    HW230483   0.338   1.698   6.500 -0.1449 -0.2860 -1.2989
 6284SOL     OW30484   2.572   1.273   5.623 -0.4940  0.0305 -0.0632
 6284SOL    HW130485   2.667   1.278   5.616 -0.6027  0.6472 -1.1567
 6284SOL    HW230486   2.563   1.353   5.674  1.1053 -1.1982  2.1543
 6285SOL     OW30487   2.482   1.027   1.775 -0.1495 -0.1160 -0.2402
 6285SOL    HW130488   2.470   0.932   1.765 -1.2794 -0.1012  1.0403
 6285SOL    HW230489   2.396   1.051   1.809  0.5444  1.1177  0.6321
 6286SOL     OW30490   4.556   1.735   4.128  0.0228 -0.3376 -0.2433
 6286SOL    HW130491   4.586   1.824   4.110  0.8703 -0.3138  1.2669
 6286SOL    HW230492   4.551   1.736   4.224 -0.3596 -1.4104 -0.2474
 6287SOL     OW30493   2.558   1.084   3.616 -0.5585 -0.0746 -0.7294
 6287SOL    HW130494   2.584   1.048   3.531 -1.4703 -0.2536 -0.9341
 6287SOL    HW230495   2.634   1.053   3.666 -0.1114  0.5942 -1.0003
 6288SOL     OW30496   0.326   0.811   5.741  0.6770 -0.2567  0.1079
 6288SOL    HW130497   0.283   0.725   5.746  0.5796 -0.2996 -1.4747
 6288SOL    HW230498   0.324   0.830   5.648 -1.8553 -0.1504  0.2033
 6289SOL     OW30499   0.809   2.235   9.891  0.9899  0.8556  0.3396
 6289SOL    HW130500   0.729   2.211   9.939  0.8535  0.8087  0.0889
 6289SOL    HW230501   0.769   2.262   9.809  0.6945  0.8483  0.4804
 6290SOL     OW30502   1.591   4.004   4.793 -0.6338 -0.1717 -0.3281
 6290SOL    HW130503   1.637   3.979   4.872  2.7538 -0.9897 -2.5636
 6290SOL    HW230504   1.603   3.925   4.739  0.9615  1.0772 -1.7849
 6291SOL     OW30505   4.356   4.643  13.259 -0.1789 -0.2811  0.6274
 6291SOL    HW130506   4.373   0.004  13.248 -0.1838 -0.4600 -0.9838
 6291SOL    HW230507   4.281   4.650  13.318  1.2501  2.2703  2.1317
 6292SOL     OW30508   1.552   4.606   1.767 -0.4312 -0.0072  0.0820
 6292SOL    HW130509   1.596   4.527   1.735 -0.3983 -0.3514  0.9693
 6292SOL    HW230510   1.611   4.673   1.732  0.0470 -1.0404 -1.0989
 6293SOL     OW30511   0.709   3.157  17.333 -0.4680 -0.1331  0.4061
 6293SOL    HW130512   0.643   3.133  17.267  1.5779 -1.0191 -1.3021
 6293SOL    HW230513   0.777   3.096  17.304  2.1820  2.4748  1.2140
 6294SOL     OW30514   3.018   1.953   3.771 -0.1745  0.3311 -0.3071
 6294SOL    HW130515   2.988   1.991   3.853 -1.3096 -1.4714  0.1219
 6294SOL    HW230516   3.080   2.020   3.744  0.0020  0.1827 -0.2711
 6295SOL     OW30517   0.293   3.081  11.046  0.2274 -0.1059  0.6867
 6295SOL    HW130518   0.316   3.040  10.962 -0.3550 -2.2947  1.5797
 6295SOL    HW230519   0.320   3.168  11.018 -1.7077  0.3226  0.1142
 6296SOL     OW30520   2.915   2.514   4.817  0.1190 -0.4413  0.0213
 6296SOL    HW130521   2.891   2.585   4.877  1.0618 -0.2428  0.1689
 6296SOL    HW230522   2.886   2.547   4.732  0.6536  1.9201  0.7396
 6297SOL     OW30523   2.616   4.697   2.320 -0.1368 -0.4390 -0.7589
 6297SOL    HW130524   2.578   4.624   2.368 -0.1857  0.2046  0.1742
 6297SOL    HW230525   2.640   4.662   2.234  0.2457 -1.2284 -0.3243
 6298SOL     OW30526   0.313   3.338   6.746  0.3342 -0.1947  0.1911
 6298SOL    HW130527   0.376   3.398   6.786 -1.0123  0.5104  1.2135
 6298SOL    HW230528   0.232   3.382   6.770 -0.0153 -1.2046  0.8326
 6299SOL     OW30529   1.588   3.032   8.236  0.1830  0.1800  0.0189
 6299SOL    HW130530   1.571   3.086   8.159  0.9072 -0.3969 -0.5466
 6299SOL    HW230531   1.521   2.967   8.217  0.6648 -0.4701  0.5304
 6300SOL     OW30532   4.180   0.068  11.206  0.0079  0.4350  0.8334
 6300SOL    HW130533   4.184   0.116  11.124  1.0907  2.4234  2.0514
 6300SOL    HW230534   4.148   0.133  11.269 -0.3449  1.0041  0.0607
 6301SOL     OW30535   1.722   0.561   6.539 -0.4413 -0.2417 -0.0132
 6301SOL    HW130536   1.742   0.596   6.626 -3.3155 -1.1085  1.0136
 6301SOL    HW230537   1.704   0.469   6.562 -1.3311  0.1279  0.7830
 6302SOL     OW30538   4.123   2.195   9.951 -0.1269  0.3009 -0.0508
 6302SOL    HW130539   4.188   2.126   9.936  0.3377  0.3506  1.6681
 6302SOL    HW230540   4.122   2.222   9.860 -1.2185 -0.6342 -0.3234
 6303SOL     OW30541   2.305   3.959   6.658 -0.3488  0.2012 -0.1739
 6303SOL    HW130542   2.238   3.896   6.682  0.3923 -0.5181  0.0243
 6303SOL    HW230543   2.384   3.905   6.654 -0.6455 -0.1499 -1.3650
 6304SOL     OW30544   0.227   1.544   8.996 -0.2959 -0.0124  0.6390
 6304SOL    HW130545   0.297   1.605   9.020 -0.6274  1.2499 -1.6150
 6304SOL    HW230546   0.154   1.599   8.969  0.5789  0.7145 -0.2083
 6305SOL     OW30547   1.402   0.465   5.878 -0.2063 -0.0062  0.7546
 6305SOL    HW130548   1.329   0.407   5.898 -2.1548  1.4822 -2.0796
 6305SOL    HW230549   1.473   0.401   5.876 -0.4539 -0.2243 -0.5960
 6306SOL     OW30550   2.893   0.956   7.585  0.2173 -0.2175 -0.1466
 6306SOL    HW130551   2.968   0.901   7.610  0.7315 -0.1664 -1.5948
 6306SOL    HW230552   2.936   1.026   7.536 -0.9038  0.4121 -0.2348
 6307SOL     OW30553   1.623   4.389   7.562  0.5831 -1.0603  0.0831
 6307SOL    HW130554   1.683   4.383   7.487  1.7500  0.9277  0.8342
 6307SOL    HW230555   1.540   4.365   7.523 -1.3826  1.5485  2.6347
 6308SOL     OW30556   4.358   1.123   9.806  0.3710 -0.9768 -0.3590
 6308SOL    HW130557   4.270   1.106   9.772 -0.1199  1.4269 -0.2939
 6308SOL    HW230558   4.369   1.216   9.787 -1.8038 -0.5317  0.5969
 6309SOL     OW30559   2.142   1.495   5.881  0.5646  0.0156 -0.3462
 6309SOL    HW130560   2.061   1.469   5.838 -1.9345  3.6982  2.1293
 6309SOL    HW230561   2.202   1.441   5.829 -0.0473  0.5267 -1.5763
 6310SOL     OW30562   0.710   2.182   2.344 -0.3945  0.2727 -0.1514
 6310SOL    HW130563   0.686   2.255   2.287 -2.5605 -0.4265 -0.1512
 6310SOL    HW230564   0.782   2.220   2.393 -0.1528  2.3884 -2.1521
 6311SOL     OW30565   1.571   1.413   5.972  0.4170  0.0680  0.2674
 6311SOL    HW130566   1.544   1.501   5.999  0.9012 -0.1263  1.3904
 6311SOL    HW230567   1.512   1.390   5.901  1.3392 -1.2180 -0.0793
 6312SOL     OW30568   3.749   2.007  11.109 -0.2035  0.2302  0.3383
 6312SOL    HW130569   3.669   1.988  11.157  1.1326  0.7694  2.7914
 6312SOL    HW230570   3.710   2.011  11.022  0.1905 -0.6526  0.1260
 6313SOL     OW30571   0.810   0.228   7.078  0.1340  0.1212 -0.7650
 6313SOL    HW130572   0.873   0.298   7.060 -0.6289  0.3893 -2.3807
 6313SOL    HW230573   0.866   0.152   7.093  1.7446  1.0098 -2.2721
 6314SOL     OW30574   2.657   3.022   7.128  0.4683  0.4764 -0.0457
 6314SOL    HW130575   2.571   2.992   7.157 -0.5445 -0.1966 -3.7614
 6314SOL    HW230576   2.683   3.059   7.212  1.3260 -0.8604  0.2628
 6315SOL     OW30577   3.678   4.379   2.674 -0.2047  1.1169  0.4973
 6315SOL    HW130578   3.707   4.468   2.652  2.2545  0.4873  1.1167
 6315SOL    HW230579   3.633   4.402   2.755  1.4684  2.0942  1.1470
 6316SOL     OW30580   4.559   1.209   7.024  0.1014 -0.3680  0.0568
 6316SOL    HW130581   4.623   1.280   7.022  0.0634 -0.2554  2.8894
 6316SOL    HW230582   4.612   1.145   6.976 -0.0194 -0.4890  0.0860
 6317SOL     OW30583   0.446   0.084   5.635  0.2169 -0.2454  0.3019
 6317SOL    HW130584   0.434   0.168   5.591  0.8809 -0.9166 -1.1607
 6317SOL    HW230585   0.536   0.059   5.611  1.4924  2.4124  2.2916
 6318SOL     OW30586   0.206   4.207   1.939 -0.5296 -0.2965 -0.3176
 6318SOL    HW130587   0.140   4.146   1.905  0.7102 -0.8464 -1.7477
 6318SOL    HW230588   0.168   4.287   1.904 -0.4092 -0.6819 -1.3433
 6319SOL     OW30589   0.986   1.241   7.115  0.6832 -0.0363 -0.4893
 6319SOL    HW130590   1.040   1.218   7.040 -0.6760  1.1175 -1.8465
 6319SOL    HW230591   1.026   1.188   7.183  0.1714  0.2344  0.0291
 6320SOL     OW30592   0.744   2.687   4.715 -0.1346 -0.0823  0.4398
 6320SOL    HW130593   0.706   2.697   4.802 -1.4132  0.6370 -0.2032
 6320SOL    HW230594   0.807   2.620   4.743 -0.3065  0.3370  1.8532
 6321SOL     OW30595   0.875   1.620   2.868  0.1678 -0.6475 -0.4121
 6321SOL    HW130596   0.795   1.624   2.921  0.7894 -0.3885  0.5143
 6321SOL    HW230597   0.833   1.594   2.786 -1.6856 -2.1617  1.0121
 6322SOL     OW30598   3.225   4.569   2.021 -0.4319 -0.5815 -0.4674
 6322SOL    HW130599   3.291   4.609   2.078  0.7148 -1.1153 -1.4094
 6322SOL    HW230600   3.280   4.542   1.947  1.0306  1.0207  0.0300
 6323SOL     OW30601   4.399   1.527  15.454 -0.0994  0.6817  0.0140
 6323SOL    HW130602   4.344   1.456  15.420 -1.2587  1.3503  0.4713
 6323SOL    HW230603   4.478   1.485  15.486 -2.2111 -2.2652  1.3930
 6324SOL     OW30604   0.971   1.515   8.400 -0.4297 -0.2217 -0.6845
 6324SOL    HW130605   0.896   1.560   8.437  0.4434  1.8306 -1.4349
 6324SOL    HW230606   0.987   1.588   8.340  1.5374 -1.3462 -1.5419
 6325SOL     OW30607   1.986   2.065   2.839 -0.3921  0.2415 -0.4624
 6325SOL    HW130608   2.070   2.045   2.881 -0.6619  0.3017  0.1151
 6325SOL    HW230609   1.934   1.992   2.871  0.7809 -0.4321 -0.0696
 6326SOL     OW30610   4.151   3.266   8.315 -0.2152  0.3634  0.1577
 6326SOL    HW130611   4.164   3.196   8.251 -1.9868 -1.7217  2.0895
 6326SOL    HW230612   4.134   3.217   8.395 -1.9240 -0.3816 -0.6741
 6327SOL     OW30613   1.789   0.968   2.103  0.5296 -0.0313  0.0422
 6327SOL    HW130614   1.703   0.926   2.114  0.2622  0.3933 -0.4554
 6327SOL    HW230615   1.838   0.923   2.171 -1.3536 -1.2540  0.6013
 6328SOL     OW30616   0.101   1.439   6.688 -0.6929 -0.2005  0.0714
 6328SOL    HW130617   0.083   1.348   6.665  0.2773 -0.3415 -0.1115
 6328SOL    HW230618   0.187   1.463   6.655 -0.4443 -1.5840 -0.3110
 6329SOL     OW30619   2.711   3.531   2.808  0.1318  0.3259  0.1236
 6329SOL    HW130620   2.626   3.558   2.843  1.2277  1.7841  1.6255
 6329SOL    HW230621   2.701   3.567   2.720  0.1116 -0.1324 -0.0642
 6330SOL     OW30622   0.001   2.707   5.698 -0.2741  0.1729  0.2583
 6330SOL    HW130623   4.656   2.652   5.690  1.0009 -1.8487  1.5933
 6330SOL    HW230624   4.700   2.781   5.749 -2.0597  0.6304 -1.5931
 6331SOL     OW30625   2.144   0.007   7.710 -0.2655  0.2437 -0.2122
 6331SOL    HW130626   2.235   4.710   7.698 -0.7948 -1.3168 -0.3992
 6331SOL    HW230627   2.113   4.674   7.648  0.7888  0.8677 -1.4096
 6332SOL     OW30628   0.109   1.540   7.878 -0.2707 -0.1088  0.4535
 6332SOL    HW130629   0.162   1.562   7.955  2.3160  0.0470 -1.3576
 6332SOL    HW230630   0.150   1.461   7.844  0.3858  0.0296  0.9097
 6333SOL     OW30631   1.107   0.055  10.306  0.1829  0.7762 -0.5200
 6333SOL    HW130632   1.198   0.029  10.319  0.8184  2.1319 -2.2749
 6333SOL    HW230633   1.074   0.040  10.395  0.2315  0.3242 -0.5759
 6334SOL     OW30634   3.089   4.051   4.150 -0.3453  0.2659 -0.4359
 6334SOL    HW130635   3.088   4.144   4.130  1.7954  0.4504  0.2692
 6334SOL    HW230636   3.088   4.055   4.245 -1.0733  0.2448 -0.4467
 6335SOL     OW30637   0.897   0.632   9.411  0.0370 -0.2043  0.4086
 6335SOL    HW130638   0.806   0.607   9.427 -0.0890 -1.5246 -2.3597
 6335SOL    HW230639   0.904   0.708   9.469 -2.1720  0.7737 -0.6086
 6336SOL     OW30640   1.129   1.264   6.028  0.3033 -0.0052  0.5179
 6336SOL    HW130641   1.156   1.331   6.091  0.1811  0.2240  0.3266
 6336SOL    HW230642   1.054   1.231   6.076 -0.6298 -0.3827 -1.2115
 6337SOL     OW30643   0.650   0.529   2.975  0.5682  0.2806  0.6391
 6337SOL    HW130644   0.659   0.478   2.894  0.7657  0.8858  0.2794
 6337SOL    HW230645   0.669   0.617   2.944 -0.6041  0.5688  0.7227
 6338SOL     OW30646   2.030   3.798   3.710 -0.0067  0.2380  0.1902
 6338SOL    HW130647   2.030   3.875   3.767 -0.8818  0.1701  0.2711
 6338SOL    HW230648   2.115   3.792   3.667 -0.9668  1.1221 -1.7892
 6339SOL     OW30649   1.052   1.844   0.521  0.5762  0.1046 -0.5190
 6339SOL    HW130650   1.013   1.760   0.496 -0.6894  0.0941  1.5148
 6339SOL    HW230651   1.145   1.821   0.520  0.5726  0.1213 -1.2765
 6340SOL     OW30652   2.820   4.239   7.556 -0.1312  0.7151 -0.2161
 6340SOL    HW130653   2.841   4.319   7.604 -1.2739  0.2847  1.0114
 6340SOL    HW230654   2.755   4.206   7.618 -1.7800  0.7774 -1.9082
 6341SOL     OW30655   3.009   3.386   0.774  0.7160  0.3720 -0.6538
 6341SOL    HW130656   2.917   3.364   0.757  0.3289  0.5322  1.1428
 6341SOL    HW230657   3.017   3.461   0.715  3.2123  0.6366 -0.0033
 6342SOL     OW30658   1.135   0.184   8.596 -0.0564  0.0514 -0.0799
 6342SOL    HW130659   1.101   0.271   8.574  0.0928 -0.3885 -1.9791
 6342SOL    HW230660   1.229   0.200   8.590 -0.2242  1.1542  0.1885
 6343SOL     OW30661   2.313   0.486   3.659 -0.3592 -0.4599 -0.0332
 6343SOL    HW130662   2.265   0.409   3.688  3.2807 -3.1963 -1.2280
 6343SOL    HW230663   2.404   0.458   3.643  0.3772 -0.0127  3.2956
 6344SOL     OW30664   1.896   3.137  16.359  0.1941 -0.2484 -0.8151
 6344SOL    HW130665   1.881   3.069  16.424 -0.2102  2.3775  1.8438
 6344SOL    HW230666   1.831   3.111  16.294 -1.8547  1.4046  0.5906
 6345SOL     OW30667   4.601   1.667   8.370 -0.5335 -0.1832  0.6420
 6345SOL    HW130668   4.644   1.584   8.351  1.6155  1.3316 -1.0613
 6345SOL    HW230669   4.615   1.674   8.465 -0.2864 -2.3914  0.7756
 6346SOL     OW30670   4.370   3.416  13.585 -0.1345  0.4281  0.3663
 6346SOL    HW130671   4.433   3.484  13.563  2.1732 -1.4336  1.1612
 6346SOL    HW230672   4.370   3.414  13.680  0.5055  3.3283  0.4288
 6347SOL     OW30673   0.227   0.829   2.802 -0.4146  0.2110  0.1251
 6347SOL    HW130674   0.265   0.873   2.726 -1.6468 -0.9015 -1.1239
 6347SOL    HW230675   0.304   0.841   2.859 -1.1301  1.7999  0.7354
 6348SOL     OW30676   1.917   3.448   3.317  0.5478  0.1534  0.0903
 6348SOL    HW130677   2.010   3.455   3.295  0.1915 -0.4476 -1.6561
 6348SOL    HW230678   1.891   3.398   3.240  0.0718  1.1693 -0.4027
 6349SOL     OW30679   4.030   2.886   2.888  0.2187 -0.3977 -0.1579
 6349SOL    HW130680   3.980   2.901   2.968  0.8815 -1.3936  0.4538
 6349SOL    HW230681   3.969   2.841   2.830 -1.8306  1.1792  0.7950
 6350SOL     OW30682   3.218   3.071  11.514  0.1724 -0.6134 -0.3076
 6350SOL    HW130683   3.232   2.978  11.530 -1.6143 -1.0257 -1.1170
 6350SOL    HW230684   3.284   3.102  11.576 -1.4905 -0.1857  1.2649
 6351SOL     OW30685   1.454   2.673   5.912  0.1524 -0.2180  0.1678
 6351SOL    HW130686   1.417   2.614   5.847 -0.3733  0.4045 -0.1019
 6351SOL    HW230687   1.393   2.663   5.985 -0.3094 -0.6005 -0.2725
 6352SOL     OW30688   0.108   3.713   8.001  0.5810  0.1628 -0.0886
 6352SOL    HW130689   0.138   3.644   8.060 -0.6475  1.1790  1.7328
 6352SOL    HW230690   0.092   3.656   7.925 -0.3731  0.2279  0.0709
 6353SOL     OW30691   4.472   0.464   5.925  0.6758 -0.9962 -0.2872
 6353SOL    HW130692   4.486   0.413   5.845 -1.3739 -1.4020 -0.3983
 6353SOL    HW230693   4.539   0.526   5.897  0.6055 -1.0188 -0.5117
 6354SOL     OW30694   2.978   0.347   0.536  0.3001 -0.2065 -0.4451
 6354SOL    HW130695   3.072   0.358   0.520  0.5429 -1.2311  0.3158
 6354SOL    HW230696   2.970   0.253   0.551  1.9803 -0.3915 -0.7108
 6355SOL     OW30697   2.483   3.400  17.515 -0.9281 -0.1494 -0.0567
 6355SOL    HW130698   2.492   3.428  17.606  0.2982  0.0920 -0.2566
 6355SOL    HW230699   2.550   3.455  17.475  0.2831 -0.2068  1.9137
 6356SOL     OW30700   0.515   0.826  16.097 -0.2811 -0.7495  0.0872
 6356SOL    HW130701   0.599   0.835  16.051 -0.4552  0.9901  0.1168
 6356SOL    HW230702   0.557   0.853  16.178 -4.2161  3.1825  0.7762
 6357SOL     OW30703   4.481   1.736  15.607 -0.0827  0.4120 -0.5589
 6357SOL    HW130704   4.443   1.657  15.570  1.8676 -0.1799 -1.3287
 6357SOL    HW230705   4.541   1.704  15.674  0.5366  0.5690 -1.0229
 6358SOL     OW30706   2.823   4.045   8.232 -0.5504  0.1855  0.7088
 6358SOL    HW130707   2.918   4.057   8.239 -0.7512  1.9285  0.5490
 6358SOL    HW230708   2.800   4.116   8.172  0.6312  0.2585  0.3329
 6359SOL     OW30709   1.927   0.925   9.750  0.0942 -0.3073  0.3463
 6359SOL    HW130710   1.927   0.851   9.689  1.6993  1.8384 -2.2762
 6359SOL    HW230711   1.872   0.881   9.814 -0.9268  1.1031  0.4383
 6360SOL     OW30712   1.031   2.066   3.791 -0.4162 -0.2522  0.2408
 6360SOL    HW130713   1.079   1.999   3.742 -0.2409  0.5707 -0.7079
 6360SOL    HW230714   1.004   2.127   3.722  0.7718  2.5203  2.2656
 6361SOL     OW30715   2.224   2.838   3.969 -0.4868  0.1409  0.3716
 6361SOL    HW130716   2.317   2.859   3.980 -0.3326 -0.5414  0.3825
 6361SOL    HW230717   2.208   2.810   4.059  2.6631 -0.1725  0.8569
 6362SOL     OW30718   0.335   4.214   0.892  0.2096  0.1172  0.0835
 6362SOL    HW130719   0.290   4.270   0.829  1.1370  0.3716 -0.3549
 6362SOL    HW230720   0.419   4.204   0.848  0.7191 -1.6886  1.4636
 6363SOL     OW30721   2.104   4.553   0.493  0.3093 -0.5697 -0.3639
 6363SOL    HW130722   2.019   4.575   0.531  0.1434 -2.2813  0.2526
 6363SOL    HW230723   2.084   4.514   0.408  0.9996  1.0647 -1.2748
 6364SOL     OW30724   3.995   1.022  12.096  1.0667 -0.3071  0.0805
 6364SOL    HW130725   4.058   1.094  12.097  1.6246 -0.7287 -4.4730
 6364SOL    HW230726   3.957   1.036  12.182  0.8528 -0.1533 -0.0380
 6365SOL     OW30727   3.502   3.804  17.436 -0.2532  0.5089 -0.6601
 6365SOL    HW130728   3.529   3.895  17.445 -0.4519  0.3355  1.8124
 6365SOL    HW230729   3.544   3.790  17.351 -1.1135  0.8729 -1.1476
 6366SOL     OW30730   4.113   0.269   8.929  0.0808 -0.2852  0.0972
 6366SOL    HW130731   4.148   0.331   8.993  1.6120  0.5412 -1.5391
 6366SOL    HW230732   4.120   0.315   8.846 -1.8883 -2.6371 -1.3716
 6367SOL     OW30733   2.762   1.154  15.037  0.2555 -0.4330  0.3139
 6367SOL    HW130734   2.757   1.142  15.132  2.1912  0.2247  0.5021
 6367SOL    HW230735   2.848   1.123  15.008 -0.7399  0.0233 -3.1159
 6368SOL     OW30736   3.509   4.150   7.519 -0.4008 -0.0544  0.0276
 6368SOL    HW130737   3.526   4.091   7.593  2.7635 -0.1428 -0.7670
 6368SOL    HW230738   3.481   4.231   7.562 -1.3949 -1.2088  1.5706
 6369SOL     OW30739   0.506   1.998   6.438 -0.4437  0.1352  0.3245
 6369SOL    HW130740   0.427   1.945   6.432  1.6451 -2.9808  0.4696
 6369SOL    HW230741   0.568   1.935   6.476  1.0711  0.7962 -1.0409
 6370SOL     OW30742   4.222   2.501   7.379 -0.3249  0.2510  0.8379
 6370SOL    HW130743   4.273   2.466   7.306 -0.0680  0.1577  1.0624
 6370SOL    HW230744   4.263   2.443   7.443 -1.5557 -1.0840  0.4277
 6371SOL     OW30745   0.448   2.578   2.243 -0.0527 -0.6960  0.1720
 6371SOL    HW130746   0.532   2.561   2.199 -0.3659 -1.8488  0.0222
 6371SOL    HW230747   0.473   2.609   2.330 -2.4082 -0.7121  0.8560
 6372SOL     OW30748   0.471   1.799  15.160 -0.0612 -0.0849 -0.3968
 6372SOL    HW130749   0.533   1.778  15.091  0.0723 -1.4750  0.1619
 6372SOL    HW230750   0.392   1.767  15.117  0.5911  1.7374 -3.0186
 6373SOL     OW30751   1.503   3.613   1.307 -0.3051  0.2758 -0.0922
 6373SOL    HW130752   1.545   3.542   1.355  0.7756  0.9569 -0.0251
 6373SOL    HW230753   1.428   3.566   1.272  0.5186 -0.4818 -0.8419
 6374SOL     OW30754   3.338   4.045  12.946  0.1830 -0.0089  0.1116
 6374SOL    HW130755   3.390   4.092  12.880  0.0881 -0.7871 -0.5194
 6374SOL    HW230756   3.396   3.977  12.979  2.5307  1.3460 -1.2099
 6375SOL     OW30757   3.703   4.058  10.047  0.8250  0.7319 -0.4468
 6375SOL    HW130758   3.742   4.139  10.014  2.8257  0.2216  0.6888
 6375SOL    HW230759   3.764   3.997  10.006 -0.8429 -0.8846 -0.5167
 6376SOL     OW30760   0.697   4.434   8.857 -1.0470  0.0060  0.0934
 6376SOL    HW130761   0.708   4.340   8.848 -2.9649 -0.0894 -1.4263
 6376SOL    HW230762   0.778   4.451   8.905 -0.9417 -2.7421  0.8914
 6377SOL     OW30763   1.142   4.702   4.655 -0.4920 -0.1201 -0.0649
 6377SOL    HW130764   1.113   4.656   4.576 -0.8013 -1.5352  0.8751
 6377SOL    HW230765   1.236   4.708   4.637 -0.7404  0.9275 -1.0200
 6378SOL     OW30766   1.768   2.398   2.647  0.0448 -0.1936  1.4049
 6378SOL    HW130767   1.683   2.357   2.629  0.4309  1.2451 -3.4632
 6378SOL    HW230768   1.749   2.490   2.665 -1.0549  0.0707 -1.1631
 6379SOL     OW30769   0.311   0.599   8.658 -0.1181 -0.4460 -0.5282
 6379SOL    HW130770   0.307   0.508   8.688  0.8500 -0.2959  0.0754
 6379SOL    HW230771   0.361   0.583   8.579 -3.0702 -0.4886 -2.4002
 6380SOL     OW30772   1.037   4.299  16.142 -0.0416 -0.2948 -0.1057
 6380SOL    HW130773   0.946   4.273  16.127  0.5776 -1.6005 -1.6627
 6380SOL    HW230774   1.030   4.395  16.147 -1.7549 -0.4668  0.4873
 6381SOL     OW30775   2.543   4.407   5.336  0.0206  0.7775 -0.4104
 6381SOL    HW130776   2.533   4.370   5.423  1.5005 -2.3589 -1.5961
 6381SOL    HW230777   2.618   4.462   5.362  0.8011 -0.1095 -0.7912
 6382SOL     OW30778   0.716   3.718   6.466  0.2983  0.6284 -0.1607
 6382SOL    HW130779   0.673   3.765   6.537 -0.0464 -0.3149  0.2547
 6382SOL    HW230780   0.642   3.686   6.415  0.6120 -0.4788  0.0791
 6383SOL     OW30781   1.213   0.022  15.745  0.1254 -0.3024 -0.3135
 6383SOL    HW130782   1.228   0.072  15.665  1.7798  0.1009  0.2603
 6383SOL    HW230783   1.269   0.076  15.801 -0.1789 -0.3319  0.0235
 6384SOL     OW30784   0.761   4.602   3.797  0.6849  0.1565  0.0847
 6384SOL    HW130785   0.825   4.673   3.790  1.7020 -0.8071 -0.5132
 6384SOL    HW230786   0.679   4.651   3.801  0.9542  0.4679  1.6062
 6385SOL     OW30787   4.151   1.591  16.880  0.0452 -0.4254  0.0305
 6385SOL    HW130788   4.147   1.653  16.952  0.2120  0.6868 -0.9263
 6385SOL    HW230789   4.059   1.582  16.855 -0.2161  0.2360  0.7671
 6386SOL     OW30790   3.070   2.370   8.203  0.5212  0.2900  0.0980
 6386SOL    HW130791   3.050   2.306   8.134  0.3819 -0.8803  1.2238
 6386SOL    HW230792   3.145   2.419   8.171  1.3628 -1.0621 -0.0044
 6387SOL     OW30793   1.774   2.163  13.437  0.0993 -0.1007  0.2675
 6387SOL    HW130794   1.822   2.080  13.445  2.0544  0.9119 -1.0192
 6387SOL    HW230795   1.805   2.205  13.517  0.6651  0.9493 -0.5024
 6388SOL     OW30796   3.978   0.642  12.360  0.0498 -0.2319  0.3701
 6388SOL    HW130797   3.967   0.632  12.265  0.5400  0.2543  0.2648
 6388SOL    HW230798   4.011   0.731  12.373  2.6129 -1.2518  0.7220
 6389SOL     OW30799   0.723   4.601  11.668 -0.0484  0.2900 -0.3945
 6389SOL    HW130800   0.649   4.542  11.649 -0.0434  0.9190 -2.2649
 6389SOL    HW230801   0.690   4.661  11.735 -2.6240 -0.1980 -1.2007
 6390SOL     OW30802   3.943   2.807   4.983  0.2465 -0.4083 -0.5373
 6390SOL    HW130803   3.896   2.888   5.003  0.6413 -0.6198  1.2004
 6390SOL    HW230804   3.937   2.802   4.887  1.4132 -2.0305 -0.5237
 6391SOL     OW30805   0.734   2.836   7.912  0.2146 -0.6057 -0.5605
 6391SOL    HW130806   0.683   2.877   7.841  0.0015  0.6712  0.3337
 6391SOL    HW230807   0.809   2.812   7.858  0.0925  0.1680 -1.0792
 6392SOL     OW30808   0.023   1.478   4.258 -0.1412 -0.2643  0.1232
 6392SOL    HW130809   0.084   1.405   4.274  0.3292 -0.3128 -1.8153
 6392SOL    HW230810   4.674   1.429   4.256 -0.7090  0.7474 -1.7241
 6393SOL     OW30811   0.254   1.134   4.129 -0.1278 -0.4843 -0.0292
 6393SOL    HW130812   0.219   1.202   4.186  0.0081  0.9910 -1.7181
 6393SOL    HW230813   0.347   1.159   4.129 -0.7938  1.9733 -1.7837
 6394SOL     OW30814   1.028   2.595  15.637  0.1565 -0.1852  0.5150
 6394SOL    HW130815   1.076   2.657  15.692  2.9213 -0.4817 -1.5738
 6394SOL    HW230816   0.949   2.646  15.622 -1.5277 -3.1679 -0.7958
 6395SOL     OW30817   0.516   3.637   3.222 -0.4521 -0.2241  0.0865
 6395SOL    HW130818   0.476   3.553   3.203 -0.5304  0.5112 -3.1087
 6395SOL    HW230819   0.476   3.685   3.149  0.7754 -0.8984 -1.0280
 6396SOL     OW30820   4.365   0.778  14.922 -0.2453 -0.2833 -0.3741
 6396SOL    HW130821   4.291   0.743  14.970  2.5047 -0.3400  3.8310
 6396SOL    HW230822   4.328   0.864  14.901 -1.1797 -0.8705 -1.1066
 6397SOL     OW30823   4.602   1.392   2.924  0.1737 -0.3492  0.2549
 6397SOL    HW130824   4.671   1.440   2.877  1.2330 -0.0099  2.1571
 6397SOL    HW230825   4.652   1.330   2.976 -0.2112 -0.6328  0.2844
 6398SOL     OW30826   3.397   0.445   8.307  0.3312 -0.3192  0.2252
 6398SOL    HW130827   3.370   0.425   8.218 -2.0170  0.7811  0.6840
 6398SOL    HW230828   3.399   0.541   8.305  0.8969 -0.3194  0.6960
 6399SOL     OW30829   4.557   0.866  10.529 -0.7245  0.0302 -0.0488
 6399SOL    HW130830   4.561   0.895  10.438  5.1476  1.6892  0.7401
 6399SOL    HW230831   4.468   0.893  10.551 -0.9715 -0.2102 -0.7593
 6400SOL     OW30832   0.263   0.153   4.854  0.1496 -0.4590 -0.3703
 6400SOL    HW130833   0.281   0.115   4.940  0.9413  0.9072  0.0686
 6400SOL    HW230834   0.206   0.088   4.812  1.1539 -0.0248 -2.3891
 6401SOL     OW30835   2.053   0.110   5.542 -0.2959  0.1595 -0.1862
 6401SOL    HW130836   2.083   0.103   5.452 -0.8101 -0.0852 -0.3409
 6401SOL    HW230837   2.081   0.195   5.575 -0.2707 -0.4075  1.2595
 6402SOL     OW30838   0.757   4.512   6.873 -0.0421  0.3297  0.2908
 6402SOL    HW130839   0.799   4.511   6.787  0.4166  0.7745  0.5080
 6402SOL    HW230840   0.737   4.605   6.879 -1.7199 -0.2176  2.8649
 6403SOL     OW30841   4.399   2.262   8.922 -0.1080 -0.3450  0.9532
 6403SOL    HW130842   4.369   2.171   8.923  1.3246 -0.8322 -0.8331
 6403SOL    HW230843   4.310   2.291   8.903  0.4800  1.4575  1.0035
 6404SOL     OW30844   1.505   1.065  12.104  0.1029 -0.4239  0.0969
 6404SOL    HW130845   1.471   1.119  12.176 -0.0868 -0.9339  0.3919
 6404SOL    HW230846   1.426   1.023  12.072  0.2365  0.3990 -1.2881
 6405SOL     OW30847   0.418   3.879  13.344  0.1369 -0.3895 -0.5049
 6405SOL    HW130848   0.345   3.820  13.324 -0.2989 -0.1105  0.2707
 6405SOL    HW230849   0.462   3.815  13.399 -0.0239 -1.3546 -1.4802
 6406SOL     OW30850   3.240   3.547   3.012  0.1105 -0.3371 -0.0471
 6406SOL    HW130851   3.277   3.634   3.026  1.2686 -0.7092 -0.7779
 6406SOL    HW230852   3.172   3.551   3.078  0.1943  1.3080 -0.0703
 6407SOL     OW30853   0.571   3.139   1.272  0.0577  0.1113 -0.9094
 6407SOL    HW130854   0.619   3.064   1.236 -0.1833  0.2763 -1.5618
 6407SOL    HW230855   0.609   3.147   1.359  0.4975 -2.2061 -0.8961
 6408SOL     OW30856   1.380   0.365   6.524  0.2010  0.3426 -0.4240
 6408SOL    HW130857   1.331   0.422   6.465  0.2405  1.1974  0.3737
 6408SOL    HW230858   1.433   0.318   6.460  0.1519  0.3555 -0.4745
 6409SOL     OW30859   4.272   4.716   7.345 -0.4143  0.2144 -0.4132
 6409SOL    HW130860   4.210   0.056   7.338  1.4125  1.7208 -0.9919
 6409SOL    HW230861   4.242   4.657   7.413  1.9402  0.6499  1.0308
 6410SOL     OW30862   0.847   3.525   4.281  0.4791 -0.0614  0.3447
 6410SOL    HW130863   0.793   3.455   4.315 -1.7728  1.2581 -0.5466
 6410SOL    HW230864   0.795   3.596   4.319 -3.1449 -1.1939 -2.5771
 6411SOL     OW30865   2.117   1.867   6.151  0.6773 -0.6004 -0.3953
 6411SOL    HW130866   2.047   1.888   6.090 -1.8336 -5.3757  0.8540
 6411SOL    HW230867   2.147   1.788   6.105 -0.1599  0.6534 -3.0734
 6412SOL     OW30868   2.151   1.373  15.261  0.1995 -0.0653  0.0895
 6412SOL    HW130869   2.067   1.366  15.215 -0.5419 -0.8269  1.5724
 6412SOL    HW230870   2.175   1.281  15.271  1.3188  0.0128 -1.7971
 6413SOL     OW30871   0.552   2.294   3.776 -0.3208 -0.4597  0.2595
 6413SOL    HW130872   0.543   2.212   3.727 -0.6666 -0.8679  1.0023
 6413SOL    HW230873   0.629   2.264   3.826 -0.5071 -1.3173  0.0318
 6414SOL     OW30874   1.016   4.648  10.967 -0.0657  0.0505  0.2923
 6414SOL    HW130875   1.042   4.562  11.001  2.0681  0.2169 -0.9639
 6414SOL    HW230876   1.074   4.703  11.020  2.9286 -1.2823 -1.5999
 6415SOL     OW30877   4.519   2.132   2.796 -0.6462 -0.1979  0.1602
 6415SOL    HW130878   4.576   2.082   2.739  1.9403  0.5413  2.1120
 6415SOL    HW230879   4.468   2.173   2.726  1.3878 -1.2969 -1.9437
 6416SOL     OW30880   1.842   1.185   3.576  0.9152 -0.4125  0.1328
 6416SOL    HW130881   1.777   1.162   3.510  0.3144  0.1820  0.5103
 6416SOL    HW230882   1.818   1.123   3.645  0.5016 -1.9492 -1.4249
 6417SOL     OW30883   0.404   2.166   3.421  0.2854 -0.1574 -0.1742
 6417SOL    HW130884   0.341   2.117   3.369 -0.5709 -0.8313  1.5045
 6417SOL    HW230885   0.428   2.100   3.486  3.3345  0.1058 -1.0312
 6418SOL     OW30886   3.239   2.128   4.481  0.2980 -0.0836 -0.1605
 6418SOL    HW130887   3.149   2.095   4.491  0.5822 -0.3531  1.5126
 6418SOL    HW230888   3.284   2.047   4.457 -0.8632 -1.3080  1.7749
 6419SOL     OW30889   2.733   2.223   8.102 -0.2799 -0.4746  0.1291
 6419SOL    HW130890   2.689   2.192   8.023 -0.2029 -0.1096 -0.0582
 6419SOL    HW230891   2.806   2.266   8.057 -0.5450 -0.4052 -0.2441
 6420SOL     OW30892   4.380   3.624  11.228  0.1986 -0.2960  0.5164
 6420SOL    HW130893   4.414   3.623  11.138 -1.0046 -0.1518  0.0497
 6420SOL    HW230894   4.412   3.707  11.263  0.5062 -0.4138  0.5109
 6421SOL     OW30895   3.588   2.170   9.500 -0.4877 -0.1458 -0.3724
 6421SOL    HW130896   3.604   2.264   9.500 -0.4201 -0.1614  0.0138
 6421SOL    HW230897   3.520   2.163   9.432 -1.6266  2.5188  0.5118
 6422SOL     OW30898   4.559   2.109   8.131  0.2316  0.2006 -0.4431
 6422SOL    HW130899   4.626   2.115   8.064 -0.2140  1.3571 -0.7775
 6422SOL    HW230900   4.601   2.093   8.215  0.0063  0.7110 -0.2361
 6423SOL     OW30901   2.268   0.217   5.765  0.0016 -0.1365 -0.4299
 6423SOL    HW130902   2.209   0.272   5.713 -1.8755 -1.0179  0.8140
 6423SOL    HW230903   2.210   0.195   5.837 -0.5485 -1.0289 -1.1520
 6424SOL     OW30904   3.561   3.934   2.675  0.4045 -0.1240  0.4739
 6424SOL    HW130905   3.503   3.923   2.751 -0.8171  0.3577 -0.3999
 6424SOL    HW230906   3.612   4.010   2.704  0.7584 -0.4762  0.7841
 6425SOL     OW30907   3.751   1.899   1.614 -0.1003  0.1097 -0.1118
 6425SOL    HW130908   3.789   1.972   1.564 -1.4113  0.1531 -1.0422
 6425SOL    HW230909   3.659   1.892   1.590  0.1071  0.3262 -0.9754
 6426SOL     OW30910   0.637   0.329   6.814 -0.3377  0.0771  0.3041
 6426SOL    HW130911   0.615   0.413   6.774  3.0731  0.6807 -0.2298
 6426SOL    HW230912   0.684   0.277   6.749 -2.0490 -0.5813 -0.4235
 6427SOL     OW30913   4.396   0.045   4.896 -0.1954  0.2573  0.2813
 6427SOL    HW130914   4.480   4.730   4.896  1.0222  2.4192 -1.4784
 6427SOL    HW230915   4.421   0.133   4.922 -1.5651  1.0369 -1.0679
 6428SOL     OW30916   1.031   0.789   7.350 -0.5051  0.3633 -0.2167
 6428SOL    HW130917   0.965   0.738   7.302 -0.3098  0.5648 -0.6936
 6428SOL    HW230918   0.973   0.825   7.417  1.7907 -0.4230  2.2028
 6429SOL     OW30919   4.463   0.373  12.134 -0.1796 -0.4111  0.5462
 6429SOL    HW130920   4.472   0.286  12.172  1.7542 -1.6371 -2.7595
 6429SOL    HW230921   4.403   0.408  12.201  0.4674 -0.0562  0.9362
 6430SOL     OW30922   0.806   0.519  17.025  0.2425 -0.2102  0.1554
 6430SOL    HW130923   0.762   0.594  17.063  1.8331  0.4045  0.7865
 6430SOL    HW230924   0.767   0.520  16.938  0.9739 -1.3863 -0.1951
 6431SOL     OW30925   0.845   2.651   3.226  0.3263 -0.1443  0.3032
 6431SOL    HW130926   0.880   2.607   3.303 -1.2811 -1.4988  0.2366
 6431SOL    HW230927   0.789   2.583   3.190  0.6532  0.5417 -1.5066
 6432SOL     OW30928   1.454   0.256   5.653 -0.0608  0.0254 -0.2690
 6432SOL    HW130929   1.464   0.182   5.593 -0.5742  0.9432 -1.4877
 6432SOL    HW230930   1.548   0.263   5.670  0.1166 -0.3756 -1.0716
 6433SOL     OW30931   0.690   3.357   5.474 -0.1079 -0.0573  0.0884
 6433SOL    HW130932   0.770   3.308   5.493  0.4034 -0.0991 -2.2604
 6433SOL    HW230933   0.627   3.292   5.505  0.1309 -0.8323 -1.0654
 6434SOL     OW30934   2.095   0.480   6.148  0.3231  0.3430 -0.0103
 6434SOL    HW130935   2.051   0.414   6.094  0.2791 -0.1962  0.6874
 6434SOL    HW230936   2.187   0.461   6.133 -0.0347 -2.1074  0.8010
 6435SOL     OW30937   0.649   0.738   1.876 -0.2474  0.4396 -0.3639
 6435SOL    HW130938   0.622   0.693   1.796 -2.5973 -0.4075  0.8894
 6435SOL    HW230939   0.595   0.689   1.938  0.4483  2.3985  1.7692
 6436SOL     OW30940   0.558   4.214   8.251 -0.3048  0.4364  0.0196
 6436SOL    HW130941   0.621   4.156   8.209 -0.1888  1.3562 -1.0516
 6436SOL    HW230942   0.480   4.180   8.207 -0.9807  0.7621  0.9352
 6437SOL     OW30943   4.167   0.882   6.505  0.7851 -0.3901  0.6574
 6437SOL    HW130944   4.213   0.799   6.487 -0.9472 -0.8075 -1.7557
 6437SOL    HW230945   4.227   0.952   6.481  0.7193 -0.6061 -0.1337
 6438SOL     OW30946   1.382   4.436   6.719 -0.0826  0.3594  0.5069
 6438SOL    HW130947   1.298   4.460   6.680 -0.6757 -1.2973  0.7912
 6438SOL    HW230948   1.373   4.462   6.810 -1.6225  2.6562 -0.2888
 6439SOL     OW30949   1.227   2.495   8.490 -0.0412  0.2204  0.4926
 6439SOL    HW130950   1.150   2.455   8.450 -1.1175  1.2082  1.5849
 6439SOL    HW230951   1.201   2.542   8.569 -0.0856  1.3554 -0.1850
 6440SOL     OW30952   3.844   1.623   6.039  0.4626 -0.4515  0.3339
 6440SOL    HW130953   3.763   1.673   6.043 -0.4382 -1.8833  0.0578
 6440SOL    HW230954   3.870   1.614   6.130  0.2075 -0.7561  0.3772
 6441SOL     OW30955   2.877   3.306   2.255 -0.0861 -0.0636  0.1933
 6441SOL    HW130956   2.930   3.380   2.226 -0.3176 -0.3726 -1.0318
 6441SOL    HW230957   2.789   3.335   2.233 -0.8568 -1.4696  1.3814
 6442SOL     OW30958   3.406   0.884   2.677  0.2695 -0.6544 -0.2144
 6442SOL    HW130959   3.457   0.953   2.718  0.0619 -1.9693  2.2407
 6442SOL    HW230960   3.479   0.830   2.648  1.1109 -0.6783  1.9640
 6443SOL     OW30961   3.280   2.566   3.015  0.2855  0.1036 -0.7242
 6443SOL    HW130962   3.213   2.543   3.079 -0.3152  1.2471 -0.9357
 6443SOL    HW230963   3.240   2.594   2.933 -0.6430 -0.3573 -0.4170
 6444SOL     OW30964   0.727   0.882   2.525  0.4560 -0.3825 -0.3163
 6444SOL    HW130965   0.712   0.794   2.558  3.1658  0.5006  3.1945
 6444SOL    HW230966   0.822   0.872   2.517  0.4163 -1.4473  0.5784
 6445SOL     OW30967   0.475   4.269   6.639  0.3245 -0.3930 -0.0290
 6445SOL    HW130968   0.462   4.270   6.545  2.1360  1.3565 -0.2463
 6445SOL    HW230969   0.549   4.208   6.643  0.2057 -0.6524 -1.8909
 6446SOL     OW30970   4.053   4.385   1.728  0.3072 -0.6024  0.4546
 6446SOL    HW130971   4.027   4.450   1.793  1.8816 -0.4961  0.9788
 6446SOL    HW230972   3.979   4.326   1.739 -1.3411  1.5787  1.0762
 6447SOL     OW30973   0.877   0.310   6.466  0.3035  0.1638  0.2122
 6447SOL    HW130974   0.904   0.388   6.513  0.4256  0.0868  0.2693
 6447SOL    HW230975   0.917   0.245   6.524  2.3086  1.4884  0.3006
 6448SOL     OW30976   2.407   0.746   5.817  0.0805  0.1931  0.1745
 6448SOL    HW130977   2.490   0.739   5.864 -1.4053 -0.2923  2.7340
 6448SOL    HW230978   2.346   0.741   5.891 -0.7537  0.6826 -0.4834
 6449SOL     OW30979   0.170   3.220   8.309  0.1453  0.4212 -0.1041
 6449SOL    HW130980   0.138   3.265   8.387  0.6119  1.8283 -0.7282
 6449SOL    HW230981   0.089   3.229   8.258  1.1734  1.1037 -1.6196
 6450SOL     OW30982   3.959   3.250   9.352  0.0790  0.2793  0.1197
 6450SOL    HW130983   3.925   3.176   9.402  0.9942  0.8409  1.5916
 6450SOL    HW230984   3.903   3.238   9.276 -1.6703  0.3798  1.3983
 6451SOL     OW30985   1.358   2.529   2.160 -0.2526  1.1925 -0.4367
 6451SOL    HW130986   1.269   2.492   2.163  0.9791 -1.5578  1.8164
 6451SOL    HW230987   1.336   2.616   2.126  1.4237  1.8099  0.0716
 6452SOL     OW30988   3.391   0.199  11.051  0.1002 -0.3925 -0.5897
 6452SOL    HW130989   3.433   0.252  11.118  1.4577 -2.5577  0.3000
 6452SOL    HW230990   3.460   0.136  11.030  0.7195  0.1725 -0.2290
 6453SOL     OW30991   2.124   3.218   2.618  0.0322 -0.2791 -0.2020
 6453SOL    HW130992   2.105   3.302   2.661 -0.0232 -1.5523  2.2625
 6453SOL    HW230993   2.205   3.242   2.573 -0.4960  0.8295 -0.5613
 6454SOL     OW30994   2.501   0.223  16.738  0.9298  0.0498 -0.1470
 6454SOL    HW130995   2.461   0.140  16.765  0.9823  0.4389  1.1271
 6454SOL    HW230996   2.450   0.242  16.659  3.2509 -2.6567 -2.2343
 6455SOL     OW30997   4.509   0.687   4.923 -0.3110 -0.7949  0.3796
 6455SOL    HW130998   4.567   0.760   4.944  0.1710 -1.4649  1.3854
 6455SOL    HW230999   4.561   0.643   4.856  2.0754  3.1663 -0.3050
 6456SOL     OW31000   1.202   4.447   3.841 -0.3185 -0.0301 -0.2190
 6456SOL    HW131001   1.211   4.367   3.790 -0.4122 -0.5949  0.6532
 6456SOL    HW231002   1.252   4.515   3.795  0.4142  0.2151  0.9420
 6457SOL     OW31003   3.542   4.224  15.684 -0.5244 -0.7266  0.4323
 6457SOL    HW131004   3.489   4.258  15.613  1.1545 -0.7503 -0.8342
 6457SOL    HW231005   3.482   4.239  15.756  0.6501 -0.5490  1.3785
 6458SOL     OW31006   0.834   2.098   4.580  0.0687  0.4826 -0.1768
 6458SOL    HW131007   0.848   2.169   4.518 -2.4200  1.1888  0.0746
 6458SOL    HW231008   0.848   2.139   4.665 -1.3754  0.5761  0.0024
 6459SOL     OW31009   0.805   3.301   8.283 -0.0642  0.5953 -0.2277
 6459SOL    HW131010   0.780   3.328   8.194 -2.7214 -0.8874  0.0700
 6459SOL    HW231011   0.741   3.231   8.298  1.4078 -0.3879  1.4165
 6460SOL     OW31012   1.920   2.410   5.482  0.1721 -0.1111  0.6936
 6460SOL    HW131013   1.864   2.334   5.498 -0.1554 -0.2123 -0.9222
 6460SOL    HW231014   1.894   2.477   5.545  0.8837 -0.1974  1.0857
 6461SOL     OW31015   3.169   4.180   9.513  0.3740 -0.3544 -0.2166
 6461SOL    HW131016   3.217   4.101   9.538 -0.9655 -0.3400  2.4532
 6461SOL    HW231017   3.215   4.225   9.443 -1.2728 -3.2887 -3.1909
 6462SOL     OW31018   2.478   2.914   4.024 -0.3099  0.0170  0.4338
 6462SOL    HW131019   2.514   2.892   4.110 -0.3114  0.8396  0.6385
 6462SOL    HW231020   2.556   2.895   3.972 -1.9931 -1.1607 -1.6703
 6463SOL     OW31021   1.983   4.482  13.906  0.3372 -0.3766  0.3466
 6463SOL    HW131022   2.039   4.405  13.916  1.7966  0.6054 -0.2844
 6463SOL    HW231023   1.916   4.477  13.975 -1.7829  0.2761 -1.6696
 6464SOL     OW31024   0.876   1.698   8.718 -0.2453  0.1420 -0.2065
 6464SOL    HW131025   0.820   1.705   8.641  1.0435 -0.5536 -1.2114
 6464SOL    HW231026   0.909   1.788   8.720  1.1476 -0.3821  0.4090
 6465SOL     OW31027   0.842   3.113   4.100  0.2346 -0.2432  0.4188
 6465SOL    HW131028   0.812   3.059   4.027 -1.3555  0.9479  0.1900
 6465SOL    HW231029   0.798   3.073   4.175  0.4519 -1.9215 -0.3450
 6466SOL     OW31030   2.317   0.239   6.857  0.5081  0.1197  0.1611
 6466SOL    HW131031   2.238   0.204   6.898  0.1734 -1.2027 -1.5895
 6466SOL    HW231032   2.370   0.196   6.925  1.6910 -0.5935 -1.2072
 6467SOL     OW31033   2.503   0.426  13.926 -0.1929  0.2211  0.3626
 6467SOL    HW131034   2.516   0.336  13.956 -2.8092  0.4196  2.0578
 6467SOL    HW231035   2.583   0.430  13.873 -0.7718  0.3161 -0.5062
 6468SOL     OW31036   3.131   4.562   7.247 -0.9376 -1.2104  0.9110
 6468SOL    HW131037   3.131   4.565   7.151  1.0415 -2.8546  0.8526
 6468SOL    HW231038   3.094   4.644   7.280 -1.3496 -0.6828 -0.8954
 6469SOL     OW31039   3.846   3.333  11.022 -0.0516 -0.0713 -0.0525
 6469SOL    HW131040   3.776   3.395  11.041 -2.4833 -3.7935  3.0026
 6469SOL    HW231041   3.931   3.377  11.034 -1.5221  2.5646  0.6410
 6470SOL     OW31042   1.194   3.254   6.198  0.0629  0.0804 -0.1045
 6470SOL    HW131043   1.144   3.315   6.252  1.0948 -0.2203  1.1718
 6470SOL    HW231044   1.200   3.312   6.122  2.5949 -0.3452 -0.2269
 6471SOL     OW31045   3.109   0.721   4.818 -0.0298 -0.4463 -0.9338
 6471SOL    HW131046   3.105   0.774   4.738 -0.0329  0.7906 -0.0988
 6471SOL    HW231047   3.191   0.750   4.857 -0.4899  0.8379 -0.9376
 6472SOL     OW31048   3.402   2.815   5.710  0.1596 -0.1378 -0.0297
 6472SOL    HW131049   3.311   2.801   5.686  0.3573 -0.1621 -0.7964
 6472SOL    HW231050   3.439   2.735   5.673 -0.2134 -0.5779  0.5511
 6473SOL     OW31051   0.491   3.858  14.167 -0.3852  0.0651  0.7487
 6473SOL    HW131052   0.401   3.880  14.145  0.0822  1.0638 -0.1492
 6473SOL    HW231053   0.473   3.805  14.245  0.6213 -2.6903 -0.8878
 6474SOL     OW31054   0.887   0.113  10.816  0.3483  0.2361  0.5652
 6474SOL    HW131055   0.947   0.051  10.856 -0.3269 -1.2493 -0.7029
 6474SOL    HW231056   0.802   0.069  10.809 -0.7284  2.4604 -0.8234
 6475SOL     OW31057   0.513   1.878   8.580  0.7873  0.1032 -0.1572
 6475SOL    HW131058   0.459   1.824   8.522 -0.8084 -1.1726  2.5144
 6475SOL    HW231059   0.490   1.967   8.554  1.9785  0.9841  1.7906
 6476SOL     OW31060   1.303   3.426   8.178 -0.0253 -0.0037  0.2239
 6476SOL    HW131061   1.282   3.358   8.241 -1.1398 -1.2597 -1.4827
 6476SOL    HW231062   1.214   3.458   8.160  0.1671 -0.3684 -1.4134
 6477SOL     OW31063   4.650   0.931   1.952  0.0899  0.3239  0.0902
 6477SOL    HW131064   4.648   0.874   2.029 -0.7660  0.3934  0.1259
 6477SOL    HW231065   4.693   0.873   1.890 -0.1073  0.5599 -0.2678
 6478SOL     OW31066   0.233   1.104  15.298 -0.3413  0.3472 -0.1959
 6478SOL    HW131067   0.306   1.046  15.316 -1.0393 -0.5667 -0.3050
 6478SOL    HW231068   0.279   1.170  15.246 -0.3298  2.4892  2.5172
 6479SOL     OW31069   1.146   0.180   0.436  0.6419 -1.1386  0.3980
 6479SOL    HW131070   1.157   0.186   0.531  1.8676  0.3206  0.1633
 6479SOL    HW231071   1.173   0.271   0.423  0.4455 -1.1125  0.1676
 6480SOL     OW31072   2.309   2.062   8.910  0.5511  0.2298  0.1740
 6480SOL    HW131073   2.395   2.098   8.888  0.9324 -1.4348 -1.0579
 6480SOL    HW231074   2.256   2.140   8.894 -1.4924 -0.7136  2.3127
 6481SOL     OW31075   3.865   4.233  16.911  0.2666 -0.3359 -0.1296
 6481SOL    HW131076   3.879   4.310  16.855 -0.8164 -0.0626 -0.0169
 6481SOL    HW231077   3.822   4.269  16.988 -0.5067  0.5272 -0.9571
 6482SOL     OW31078   2.328   3.194   2.422  0.0607  0.0936  0.0974
 6482SOL    HW131079   2.356   3.108   2.454  2.2225 -0.3350 -3.0326
 6482SOL    HW231080   2.409   3.243   2.435 -0.3477  0.4756  1.2386
 6483SOL     OW31081   1.788   0.940  16.421 -0.2231 -0.1526 -0.1132
 6483SOL    HW131082   1.879   0.958  16.397 -0.2948  1.9592  1.2161
 6483SOL    HW231083   1.744   0.913  16.340 -0.3793  0.8954 -0.3886
 6484SOL     OW31084   1.602   1.350   2.143  0.2325  0.0299 -0.7465
 6484SOL    HW131085   1.567   1.261   2.153  0.1325  0.2625  1.0317
 6484SOL    HW231086   1.680   1.333   2.091 -0.5817 -1.6333 -1.4219
 6485SOL     OW31087   2.766   0.760   5.792  0.4752  0.1771  0.2949
 6485SOL    HW131088   2.763   0.820   5.717 -0.3997 -2.0190 -1.3924
 6485SOL    HW231089   2.754   0.681   5.740 -0.2904  0.8659 -0.5896
 6486SOL     OW31090   2.509   1.328   5.072  0.2034 -0.2931 -0.3668
 6486SOL    HW131091   2.416   1.327   5.098 -0.2288 -3.5442 -2.0494
 6486SOL    HW231092   2.528   1.239   5.041  3.4871  1.1889 -2.5240
 6487SOL     OW31093   3.801   4.283  10.405  0.0225  0.4260 -0.0810
 6487SOL    HW131094   3.760   4.202  10.373 -0.0404  0.7461 -0.8166
 6487SOL    HW231095   3.783   4.284  10.499 -2.5612 -2.3410 -0.5393
 6488SOL     OW31096   0.053   4.607   2.869  0.2793  0.1499 -0.3273
 6488SOL    HW131097   0.111   4.680   2.847  0.6597  0.4282  1.6304
 6488SOL    HW231098   0.060   4.554   2.790 -0.6686 -2.8779  1.6105
 6489SOL     OW31099   1.545   3.685   3.362 -0.2606 -0.0841  0.4266
 6489SOL    HW131100   1.547   3.712   3.270  1.3171 -1.1101  0.1698
 6489SOL    HW231101   1.480   3.739   3.407  1.5856  2.6241 -0.2192
 6490SOL     OW31102   4.484   2.971   2.693  0.1344  0.2334 -0.5652
 6490SOL    HW131103   4.395   2.956   2.723 -0.0079  1.5636 -0.3509
 6490SOL    HW231104   4.471   2.965   2.599 -0.8012 -2.0827 -0.3016
 6491SOL     OW31105   4.471   4.119   2.809  0.1995  0.1978 -0.8147
 6491SOL    HW131106   4.535   4.131   2.739 -0.8839 -0.7580 -1.9850
 6491SOL    HW231107   4.529   4.106   2.884  1.7412 -2.9139 -2.5405
 6492SOL     OW31108   0.937   3.988   5.438 -0.3193 -0.5651 -0.4970
 6492SOL    HW131109   0.946   3.926   5.366  5.5718  0.7909 -0.9603
 6492SOL    HW231110   0.878   4.055   5.404 -0.4322  0.0375  0.8474
 6493SOL     OW31111   4.436   1.542   6.656  0.1308  0.2312  0.3458
 6493SOL    HW131112   4.445   1.563   6.563  2.0004 -1.7261  0.0818
 6493SOL    HW231113   4.494   1.466   6.661 -1.0604 -0.9192 -2.9217
 6494SOL     OW31114   3.219   2.919   5.014 -0.1430  0.0750  0.1440
 6494SOL    HW131115   3.252   2.850   4.956  0.5146  0.2105  0.3603
 6494SOL    HW231116   3.126   2.905   4.997  0.2384 -0.6944 -1.3395
 6495SOL     OW31117   4.715   4.202   3.730  0.6947 -0.4148 -0.3121
 6495SOL    HW131118   4.629   4.243   3.744 -0.4087 -2.9064  0.1591
 6495SOL    HW231119   4.731   4.177   3.821  1.6963 -0.9950 -0.6578
 6496SOL     OW31120   1.356   1.966   8.295 -0.1312 -0.3973  0.5176
 6496SOL    HW131121   1.390   2.026   8.361 -0.9232  0.8173 -0.1751
 6496SOL    HW231122   1.420   1.974   8.224  2.2263 -0.5758  2.6396
 6497SOL     OW31123   4.027   0.132   3.542  0.0959  0.4820  0.1894
 6497SOL    HW131124   4.052   0.098   3.457 -0.6485 -0.9724  0.5454
 6497SOL    HW231125   3.933   0.133   3.524 -0.4965  1.6374  3.2706
 6498SOL     OW31126   4.355   3.702   0.143  0.0586  0.4664  0.0632
 6498SOL    HW131127   4.265   3.733   0.154  0.5522  1.9139 -0.0600
 6498SOL    HW231128   4.383   3.761   0.073  2.6215 -1.8415 -0.8607
 6499SOL     OW31129   0.883   1.179   3.530 -0.4173 -0.5402 -0.3054
 6499SOL    HW131130   0.827   1.252   3.502 -1.3858 -1.0600  0.2811
 6499SOL    HW231131   0.827   1.105   3.553  0.0960 -0.9956 -0.5404
 6500SOL     OW31132   1.854   1.498   4.783  0.1088  0.1794  0.1215
 6500SOL    HW131133   1.846   1.465   4.694  0.8275  1.5543 -0.4395
 6500SOL    HW231134   1.785   1.456   4.835 -0.2403  0.1479 -0.3683
 6501SOL     OW31135   1.024   3.051  11.766 -0.4167  0.1045 -0.3676
 6501SOL    HW131136   1.007   2.981  11.704  1.0531 -1.2429  0.7679
 6501SOL    HW231137   1.081   3.107  11.713 -0.2066  0.2215 -0.0236
 6502SOL     OW31138   2.378   2.374  13.355  0.4380 -0.2649 -0.1635
 6502SOL    HW131139   2.411   2.394  13.443 -1.1907  1.9906 -0.0587
 6502SOL    HW231140   2.415   2.446  13.304 -1.4019  0.3108 -0.6683
 6503SOL     OW31141   1.462   0.071  12.818 -0.2012  0.2068 -0.4412
 6503SOL    HW131142   1.505   0.130  12.756  0.0614  0.6895  0.1983
 6503SOL    HW231143   1.496   0.121  12.892  1.3135 -0.4180 -0.7131
 6504SOL     OW31144   2.704   1.899   8.593 -0.5162 -0.0584 -0.3873
 6504SOL    HW131145   2.651   1.977   8.576  0.2882  0.7052  0.6193
 6504SOL    HW231146   2.638   1.830   8.592  0.8936 -1.4253  1.7809
 6505SOL     OW31147   4.328   2.296   9.382  0.1924 -0.7982  0.5073
 6505SOL    HW131148   4.278   2.279   9.303  0.1015 -1.8097  0.7808
 6505SOL    HW231149   4.261   2.331   9.441 -0.3281  0.1383 -0.6383
 6506SOL     OW31150   2.612   2.586  17.268 -0.7062 -0.2357 -0.4972
 6506SOL    HW131151   2.666   2.506  17.266  1.9669  1.5822 -1.2350
 6506SOL    HW231152   2.615   2.608  17.175 -4.0232 -0.2367 -0.5762
 6507SOL     OW31153   4.387   3.310  11.155  0.3687 -0.2124  0.4260
 6507SOL    HW131154   4.439   3.229  11.153 -0.2133 -0.6738  4.7088
 6507SOL    HW231155   4.405   3.350  11.240 -1.3378  0.6113  0.4019
 6508SOL     OW31156   4.209   4.411   3.886 -0.3553 -0.2524 -0.2771
 6508SOL    HW131157   4.192   4.493   3.839 -1.1309 -0.9917 -1.2722
 6508SOL    HW231158   4.188   4.437   3.976 -2.0746 -0.3460 -0.6609
 6509SOL     OW31159   3.071   4.103  11.618 -0.0975 -0.3195 -0.0331
 6509SOL    HW131160   3.078   4.175  11.680 -0.9666  0.5491 -0.9347
 6509SOL    HW231161   2.984   4.121  11.582  0.2168  0.7237 -0.2830
 6510SOL     OW31162   2.487   0.919   7.026  0.3268 -0.0904  0.1234
 6510SOL    HW131163   2.571   0.887   7.059  0.7486  1.1073  0.1983
 6510SOL    HW231164   2.469   0.979   7.098  0.3894 -1.2987  1.1349
 6511SOL     OW31165   4.109   3.196   3.960  0.5524  0.0228  0.6522
 6511SOL    HW131166   4.134   3.244   4.039  0.9992  1.5510 -0.4212
 6511SOL    HW231167   4.143   3.256   3.894 -1.7321  0.9900  0.3653
 6512SOL     OW31168   3.116   4.286   4.348  0.2438  0.2635  0.4561
 6512SOL    HW131169   3.151   4.374   4.362  2.3304 -0.3195 -1.0465
 6512SOL    HW231170   3.101   4.268   4.441 -1.4768 -2.9181 -0.4519
 6513SOL     OW31171   2.728   2.007   3.369 -0.6871 -0.4073 -0.7906
 6513SOL    HW131172   2.758   2.020   3.459  0.4941  1.1139 -1.3991
 6513SOL    HW231173   2.651   1.951   3.378 -0.2761 -0.8376  0.0027
 6514SOL     OW31174   1.570   0.572   3.945 -0.1604 -0.2735 -0.1673
 6514SOL    HW131175   1.609   0.579   3.857 -1.0260  0.2969 -0.5015
 6514SOL    HW231176   1.635   0.621   3.996  0.0709  0.9018 -1.5648
 6515SOL     OW31177   3.280   3.334   8.649  0.1181 -0.1102  0.5123
 6515SOL    HW131178   3.266   3.261   8.710 -0.3256  0.1695  0.7442
 6515SOL    HW231179   3.193   3.355   8.616  0.0558  3.0348  2.6683
 6516SOL     OW31180   0.546   2.010   3.656 -0.5089 -0.0084 -0.0549
 6516SOL    HW131181   0.471   1.968   3.697  0.7033 -1.9048  0.2165
 6516SOL    HW231182   0.620   1.987   3.713  0.0795 -0.5511 -1.0328
 6517SOL     OW31183   3.190   0.870   2.965  0.3769 -0.1272 -0.2805
 6517SOL    HW131184   3.122   0.845   2.902  0.6753 -1.7899  0.0496
 6517SOL    HW231185   3.144   0.828   3.037 -0.4372  3.7491  1.4048
 6518SOL     OW31186   1.492   2.365   3.161  0.4594 -0.0891  0.1337
 6518SOL    HW131187   1.537   2.291   3.121  1.0723  1.1036 -1.3654
 6518SOL    HW231188   1.427   2.308   3.202  1.0766 -0.6973  0.2623
 6519SOL     OW31189   1.368   1.197   5.910 -0.3022 -0.1685 -0.1748
 6519SOL    HW131190   1.291   1.224   5.959  0.1767  0.6442  0.1351
 6519SOL    HW231191   1.374   1.104   5.932  0.6761 -0.4632 -1.6649
 6520SOL     OW31192   0.390   0.079   8.034  0.3089 -0.3089 -0.0200
 6520SOL    HW131193   0.344   0.126   8.104  0.4202 -0.7008  0.3150
 6520SOL    HW231194   0.337   4.732   8.026 -1.4507  0.5394  3.3259
 6521SOL     OW31195   2.626   3.256   4.144 -0.4845  0.3974  0.2141
 6521SOL    HW131196   2.689   3.307   4.195 -0.3693  0.0256  0.4448
 6521SOL    HW231197   2.556   3.251   4.210  0.1559  0.0213  0.8626
 6522SOL     OW31198   1.638   2.772   5.606 -0.1648 -0.2193 -0.4552
 6522SOL    HW131199   1.545   2.751   5.595  0.2551 -2.7000  0.7146
 6522SOL    HW231200   1.665   2.688   5.643  0.6642  0.7450  1.1506
 6523SOL     OW31201   3.070   1.748   0.181  0.2838  0.3564  0.2858
 6523SOL    HW131202   2.989   1.707   0.209 -2.1578  3.6613 -1.9455
 6523SOL    HW231203   3.053   1.840   0.203  0.8824  0.4388  0.4247
 6524SOL     OW31204   1.989   2.359  16.919 -0.0854 -0.0345  0.5234
 6524SOL    HW131205   2.016   2.354  17.011 -0.6227  0.4098  0.7084
 6524SOL    HW231206   1.938   2.280  16.902  0.7649 -0.3175 -0.7251
 6525SOL     OW31207   0.155   2.991   1.426  0.1118 -0.2822  0.3424
 6525SOL    HW131208   0.236   2.942   1.444  0.8004  0.8264  0.2701
 6525SOL    HW231209   0.094   2.922   1.450 -1.7988  1.2933 -0.0075
 6526SOL     OW31210   2.022   3.134   6.585  0.2967  0.0136 -0.4039
 6526SOL    HW131211   1.957   3.199   6.611  1.6199  1.4619 -0.6963
 6526SOL    HW231212   1.977   3.054   6.611  1.4393 -0.4361  0.1753
 6527SOL     OW31213   2.286   0.308   5.295 -0.2626  0.5100 -0.2267
 6527SOL    HW131214   2.335   0.352   5.226  1.9923  0.8306  1.5494
 6527SOL    HW231215   2.206   0.281   5.250  0.1008  1.3567 -1.3791
 6528SOL     OW31216   0.705   2.369   4.839 -0.3045  0.1538 -0.1257
 6528SOL    HW131217   0.793   2.330   4.846 -0.2981  0.0907 -0.5276
 6528SOL    HW231218   0.679   2.343   4.750 -0.0759 -0.5703  0.0186
 6529SOL     OW31219   2.503   2.175  16.055 -0.1200 -0.7435  0.2469
 6529SOL    HW131220   2.573   2.130  16.103  0.4125 -2.0303 -1.7246
 6529SOL    HW231221   2.554   2.241  16.009 -0.3577 -0.3851  0.4974
 6530SOL     OW31222   3.672   1.500   3.646 -0.1693  0.3011 -0.0964
 6530SOL    HW131223   3.684   1.579   3.699  3.6344  0.0004 -0.4729
 6530SOL    HW231224   3.743   1.511   3.582  2.0443 -2.3158  1.9254
 6531SOL     OW31225   3.710   1.317  13.985  0.0365  0.2770  0.1931
 6531SOL    HW131226   3.646   1.373  13.941 -0.3402 -1.2610 -1.2166
 6531SOL    HW231227   3.771   1.383  14.018  1.2765 -1.1322  0.7095
 6532SOL     OW31228   0.844   2.700  16.108  0.3910 -0.1044 -0.0472
 6532SOL    HW131229   0.761   2.653  16.105  0.3589 -0.0766  0.3770
 6532SOL    HW231230   0.854   2.722  16.016 -2.3696 -1.4430 -0.6276
 6533SOL     OW31231   4.576   1.338   3.958  0.1267 -0.2401  0.3888
 6533SOL    HW131232   4.590   1.426   3.993 -0.3929 -0.2885  0.7129
 6533SOL    HW231233   4.497   1.351   3.905 -0.5320  2.1013  1.9592
 6534SOL     OW31234   2.741   0.356  16.647 -0.1708 -0.6047  0.3872
 6534SOL    HW131235   2.701   0.360  16.560 -1.4211 -1.8539  0.9040
 6534SOL    HW231236   2.664   0.350  16.703 -0.3168  0.3482  0.2788
 6535SOL     OW31237   1.001   4.458   1.320  0.0143 -0.6201 -0.0147
 6535SOL    HW131238   0.931   4.394   1.333 -0.5845 -0.3518 -1.8181
 6535SOL    HW231239   1.080   4.408   1.337  1.8641  2.2629 -0.0945
 6536SOL     OW31240   3.187   2.207  13.340  0.2400 -0.0631 -0.2331
 6536SOL    HW131241   3.123   2.203  13.269 -0.9925  2.2990  0.7611
 6536SOL    HW231242   3.130   2.222  13.414  2.1740 -0.7798  1.4065
 6537SOL     OW31243   1.412   3.615   2.923 -0.2318 -0.0554 -0.3121
 6537SOL    HW131244   1.427   3.670   3.001 -0.7906 -1.8499  1.0715
 6537SOL    HW231245   1.498   3.586   2.892 -1.2174  0.1018 -3.1412
 6538SOL     OW31246   3.662   0.149   3.192 -0.3701  0.4863  0.3820
 6538SOL    HW131247   3.584   0.102   3.161 -0.6886  1.6552 -0.5956
 6538SOL    HW231248   3.637   0.241   3.184 -1.9304 -0.1123 -1.7177
 6539SOL     OW31249   1.047   2.196   6.260 -0.1809 -0.3296  0.4639
 6539SOL    HW131250   0.981   2.177   6.194 -0.6419  3.1413 -0.1207
 6539SOL    HW231251   0.990   2.229   6.329 -0.9996 -1.6365  0.4042
 6540SOL     OW31252   2.237   3.449   7.406  0.1039 -0.2758 -0.4077
 6540SOL    HW131253   2.186   3.395   7.466  0.2468  0.0006 -0.0371
 6540SOL    HW231254   2.215   3.537   7.438 -0.9273 -0.2185 -1.2908
 6541SOL     OW31255   2.768   1.013   6.984  0.3642  0.2444 -0.1987
 6541SOL    HW131256   2.702   1.052   6.926  0.6259 -0.4836 -0.9674
 6541SOL    HW231257   2.782   0.935   6.931 -0.0615  0.4243 -0.5797
 6542SOL     OW31258   3.826   4.112   3.502 -0.1266 -0.2891 -0.6884
 6542SOL    HW131259   3.753   4.174   3.502  0.5842  0.5489  0.8663
 6542SOL    HW231260   3.875   4.127   3.421  1.3548  1.7427  0.5628
 6543SOL     OW31261   3.551   2.267   0.438  0.1270 -0.3458  1.0610
 6543SOL    HW131262   3.595   2.194   0.395  1.0392 -0.0700  1.5227
 6543SOL    HW231263   3.627   2.323   0.454 -0.9307  1.5242 -0.4274
 6544SOL     OW31264   3.100   3.493   8.321  0.3890 -0.4746 -0.1271
 6544SOL    HW131265   3.110   3.476   8.227 -0.0506 -0.1670 -0.2311
 6544SOL    HW231266   3.117   3.407   8.358  0.1393 -0.6414 -0.3990
 6545SOL     OW31267   1.385   1.884   6.644 -0.4212  0.1218 -0.0739
 6545SOL    HW131268   1.457   1.853   6.589  1.5238 -1.2273  3.2740
 6545SOL    HW231269   1.416   1.966   6.681 -0.6983  0.4912 -0.6530
 6546SOL     OW31270   4.637   2.261   5.839  0.5567  0.0287 -0.1156
 6546SOL    HW131271   4.543   2.243   5.832  0.3155  1.6003 -0.8982
 6546SOL    HW231272   4.621   2.352   5.864  0.1757 -0.0040 -0.2381
 6547SOL     OW31273   2.822   3.292   5.209  0.1069 -0.2014  0.4154
 6547SOL    HW131274   2.852   3.202   5.221  0.6129  0.0826  1.2678
 6547SOL    HW231275   2.730   3.278   5.232 -0.0533  0.3976  0.1325
 6548SOL     OW31276   4.178   2.866  10.561  0.0318 -0.1381 -0.2341
 6548SOL    HW131277   4.264   2.884  10.524  0.5925 -1.0219  0.6116
 6548SOL    HW231278   4.120   2.887  10.488 -1.9300  1.7267  1.8551
 6549SOL     OW31279   4.083   2.214   9.675 -0.1375 -0.3147 -0.0238
 6549SOL    HW131280   4.076   2.177   9.587 -0.9990  0.3883 -0.2506
 6549SOL    HW231281   4.101   2.307   9.662  0.0142 -0.7769 -3.2342
 6550SOL     OW31282   4.197   4.705   9.458  0.2046 -0.4451 -0.5384
 6550SOL    HW131283   4.114   0.000   9.419  0.1960  0.7885  0.3587
 6550SOL    HW231284   4.259   0.013   9.399  0.2343  1.9817  1.1546
 6551SOL     OW31285   3.408   4.664   7.691 -0.1997  0.4823 -0.0652
 6551SOL    HW131286   3.424   0.019   7.726 -3.0292  1.5863 -1.5259
 6551SOL    HW231287   3.436   4.673   7.600 -0.9896  0.3915 -0.3206
 6552SOL     OW31288   4.708   3.439  11.457  0.6052 -0.2737  0.5087
 6552SOL    HW131289   4.677   3.525  11.482  0.5741 -0.2255  0.3006
 6552SOL    HW231290   4.623   3.402  11.433  1.8646 -3.1429  0.3650
 6553SOL     OW31291   1.602   3.616  17.468 -0.4784  0.6441  0.2318
 6553SOL    HW131292   1.614   3.627  17.374  1.7779 -0.8650  0.3531
 6553SOL    HW231293   1.510   3.640  17.478 -0.8528 -0.5028 -0.3553
 6554SOL     OW31294   4.208   2.906   6.226  0.3613 -0.1107  0.0195
 6554SOL    HW131295   4.186   2.829   6.278  0.5087  0.0755  0.3567
 6554SOL    HW231296   4.128   2.957   6.218 -1.2712 -2.5452  0.7421
 6555SOL     OW31297   3.204   0.217   6.975 -0.2865  0.7049 -0.5607
 6555SOL    HW131298   3.122   0.169   6.980  0.5641 -0.4465  2.3802
 6555SOL    HW231299   3.191   0.260   6.890  0.2278  0.9902 -0.4951
 6556SOL     OW31300   1.029   2.710   4.520  0.4512 -0.3119 -0.1133
 6556SOL    HW131301   0.938   2.680   4.519  0.6043 -0.7210 -1.4568
 6556SOL    HW231302   1.065   2.626   4.494 -0.7073 -0.8555  0.0124
 6557SOL     OW31303   2.370   0.225  16.498 -0.5418  0.0939 -0.7305
 6557SOL    HW131304   2.324   0.146  16.471  1.7537 -1.1161 -1.1571
 6557SOL    HW231305   2.336   0.290  16.436 -0.4708 -0.3461 -1.2282
 6558SOL     OW31306   3.389   2.722  12.403 -0.5686 -0.2449 -0.4450
 6558SOL    HW131307   3.368   2.733  12.496  2.3166 -1.1091  0.3198
 6558SOL    HW231308   3.325   2.776  12.358 -1.4890  1.8523  3.3915
 6559SOL     OW31309   3.879   3.482   2.390  0.1471 -0.2931  0.7896
 6559SOL    HW131310   3.858   3.396   2.353 -0.5639  0.5225 -0.6862
 6559SOL    HW231311   3.813   3.492   2.459 -0.3441  1.7043  0.0271
 6560SOL     OW31312   0.912   3.256  15.544  0.3574 -0.1055 -0.0585
 6560SOL    HW131313   0.940   3.305  15.621  1.1714  1.0129 -1.0543
 6560SOL    HW231314   0.816   3.248  15.549  0.3422 -0.2071 -0.4656
 6561SOL     OW31315   0.698   4.515   4.340 -0.3699 -1.0840  0.1860
 6561SOL    HW131316   0.695   4.453   4.267  3.8903  0.6824 -1.5067
 6561SOL    HW231317   0.781   4.553   4.310  0.2657 -1.3258  1.6335
 6562SOL     OW31318   4.042   0.748  12.108  0.1844  0.1665 -0.1360
 6562SOL    HW131319   3.997   0.832  12.101  1.3282  0.9450  1.6257
 6562SOL    HW231320   4.109   0.777  12.170 -0.8563  2.3094 -0.0229
 6563SOL     OW31321   2.805   4.044   1.373 -0.0705 -0.5507  0.0909
 6563SOL    HW131322   2.848   4.009   1.295 -0.8153 -1.3360  0.0303
 6563SOL    HW231323   2.878   4.051   1.435 -0.7068 -0.2011  0.7971
 6564SOL     OW31324   0.388   2.709  10.721  0.4626  0.2550 -0.7627
 6564SOL    HW131325   0.330   2.648  10.677  0.4173  0.0943 -0.4801
 6564SOL    HW231326   0.468   2.679  10.677  1.4923 -0.2092  1.4266
 6565SOL     OW31327   4.298   3.222   2.571  0.9859  0.1209  0.0939
 6565SOL    HW131328   4.366   3.165   2.536  0.9638  1.1455 -1.6185
 6565SOL    HW231329   4.314   3.310   2.538 -0.5237 -0.3186 -1.8753
 6566SOL     OW31330   0.684   4.376   3.433 -0.0049  0.1669  0.5856
 6566SOL    HW131331   0.734   4.366   3.514  1.1503  1.6441  0.0654
 6566SOL    HW231332   0.609   4.432   3.454  0.6384  0.0489  3.2723
 6567SOL     OW31333   3.033   3.907   3.325  0.5384 -0.0179  0.0679
 6567SOL    HW131334   3.025   3.891   3.419 -1.5937 -0.5188 -0.2023
 6567SOL    HW231335   2.969   3.838   3.311  2.7363 -2.0171 -0.1508
 6568SOL     OW31336   4.164   0.597   5.735  0.2162  0.5665 -0.1550
 6568SOL    HW131337   4.123   0.558   5.812  1.8681 -0.3697  0.2436
 6568SOL    HW231338   4.197   0.528   5.678  0.4201 -0.6407  1.4547
 6569SOL     OW31339   1.153   2.723   0.473  0.2278  0.2087  0.3579
 6569SOL    HW131340   1.202   2.673   0.538 -1.6756 -3.4318 -0.9503
 6569SOL    HW231341   1.218   2.748   0.408 -1.0421 -0.7756 -1.3121
 6570SOL     OW31342   3.153   1.893   4.286  0.3418  0.6261  0.3566
 6570SOL    HW131343   3.060   1.904   4.302  0.3803 -0.8382  1.5936
 6570SOL    HW231344   3.168   1.957   4.216  1.4796  2.2733  2.1285
 6571SOL     OW31345   2.504   2.408   3.449 -0.1173  0.3584 -0.2592
 6571SOL    HW131346   2.420   2.444   3.419  0.0450  0.0598 -1.0831
 6571SOL    HW231347   2.482   2.378   3.538 -0.2646 -1.1265 -0.7865
 6572SOL     OW31348   4.012   4.328   8.370  0.0179 -0.5426 -0.5948
 6572SOL    HW131349   3.994   4.268   8.442 -2.2380 -3.1391 -3.2671
 6572SOL    HW231350   4.106   4.314   8.374  0.0972  0.0176 -0.5394
 6573SOL     OW31351   4.153   1.260   0.739 -0.1943 -0.2600  0.0941
 6573SOL    HW131352   4.224   1.200   0.716 -1.2830 -1.2146 -0.8108
 6573SOL    HW231353   4.193   1.337   0.778  0.8430 -1.3618  1.2065
 6574SOL     OW31354   3.429   3.957   4.282  0.0154 -0.0276 -0.1249
 6574SOL    HW131355   3.494   4.027   4.273 -0.8634  0.5794 -1.8131
 6574SOL    HW231356   3.414   3.956   4.376  1.3571 -0.3827  0.0932
 6575SOL     OW31357   3.912   0.880   6.470 -0.0150  0.6336 -0.2475
 6575SOL    HW131358   3.889   0.889   6.563 -2.0299  1.6887 -0.8413
 6575SOL    HW231359   4.007   0.870   6.482 -0.1378 -2.0186 -1.6130
 6576SOL     OW31360   3.969   0.176   8.382  0.1886  0.9028  0.5974
 6576SOL    HW131361   3.962   0.113   8.455  1.3134  0.7007  0.5225
 6576SOL    HW231362   4.057   0.156   8.353 -0.6239 -2.2329  0.2713
 6577SOL     OW31363   2.958   0.819   2.526  0.2828 -0.1238 -0.1525
 6577SOL    HW131364   2.995   0.835   2.439  0.9966  1.5172  0.4489
 6577SOL    HW231365   3.026   0.767   2.569  0.1793 -0.0628  0.0867
 6578SOL     OW31366   4.612   0.281  17.556  0.3299 -0.6092 -0.0345
 6578SOL    HW131367   4.703   0.279  17.585  0.4350  2.7371 -0.1830
 6578SOL    HW231368   4.578   0.349  17.614 -0.1598 -0.6715 -0.2425
 6579SOL     OW31369   2.745   4.114  13.763  0.1653 -0.0886 -0.6957
 6579SOL    HW131370   2.839   4.131  13.764  0.0454  0.4653  1.5805
 6579SOL    HW231371   2.716   4.177  13.829  1.7850 -2.0206  1.8598
 6580SOL     OW31372   2.315   4.334   7.237  0.3790  0.6734 -0.8824
 6580SOL    HW131373   2.343   4.261   7.181 -0.0467  0.1420 -0.3992
 6580SOL    HW231374   2.290   4.290   7.318 -1.1940 -0.2992 -1.8821
 6581SOL     OW31375   3.966   2.277  15.375  0.4070  0.6854 -0.1238
 6581SOL    HW131376   3.929   2.334  15.308  0.1344  0.0547 -0.5105
 6581SOL    HW231377   4.032   2.233  15.322  0.4269 -0.3519  0.7681
 6582SOL     OW31378   0.734   1.096  11.791  0.6693  0.0461  0.2646
 6582SOL    HW131379   0.732   1.119  11.884 -2.4659 -1.5246  0.5888
 6582SOL    HW231380   0.664   1.031  11.786  0.1934  0.7991 -2.5536
 6583SOL     OW31381   4.580   3.833   9.535 -0.2810  0.1861  0.3163
 6583SOL    HW131382   4.555   3.786   9.455  0.3966 -0.7773  0.6666
 6583SOL    HW231383   4.580   3.926   9.514  1.3059 -0.3026 -1.8803
 6584SOL     OW31384   0.455   2.387  17.713  0.1072  0.9989 -0.1202
 6584SOL    HW131385   0.455   2.326  17.639  3.0203  1.7524 -0.7541
 6584SOL    HW231386   0.360   2.389  17.719  0.1123 -1.0679  0.7275
 6585SOL     OW31387   4.412   2.887   4.170  0.1482  0.3610  0.0016
 6585SOL    HW131388   4.460   2.885   4.253  0.2951 -0.7528 -0.1116
 6585SOL    HW231389   4.371   2.973   4.175 -2.1541 -0.8310  1.8469
 6586SOL     OW31390   2.474   3.669   0.754 -0.0914 -0.2387  0.6345
 6586SOL    HW131391   2.389   3.690   0.715 -0.0707  0.1747  0.8070
 6586SOL    HW231392   2.473   3.576   0.734 -0.7678  0.1363 -1.0982
 6587SOL     OW31393   4.721   2.716   6.731  0.1918 -0.2553 -0.7071
 6587SOL    HW131394   4.670   2.640   6.757  0.8831 -0.0985  1.1512
 6587SOL    HW231395   0.001   2.695   6.639 -1.3702  0.2516 -1.0357
 6588SOL     OW31396   4.183   4.370   1.468 -0.2451 -0.4271 -0.5302
 6588SOL    HW131397   4.101   4.341   1.430 -1.2940  2.9372 -0.8618
 6588SOL    HW231398   4.152   4.384   1.557  0.8419  2.6259 -0.6235
 6589SOL     OW31399   4.678   3.800   9.829  0.5199 -0.1103  0.1710
 6589SOL    HW131400   4.646   3.821   9.741 -0.7080 -0.9027  0.4366
 6589SOL    HW231401   0.035   3.832   9.813  1.2551 -2.6653 -0.9823
 6590SOL     OW31402   0.339   4.287   3.638  0.3296 -0.2439  0.4514
 6590SOL    HW131403   0.258   4.241   3.615 -1.0333  0.9314  2.8709
 6590SOL    HW231404   0.311   4.354   3.701  1.8889 -0.2848  1.2007
 6591SOL     OW31405   1.415   0.245  12.366 -0.1381 -0.2630 -0.2460
 6591SOL    HW131406   1.480   0.175  12.373 -0.7218 -0.8394 -0.5872
 6591SOL    HW231407   1.467   0.306  12.314  1.9472 -0.0557  2.0782
 6592SOL     OW31408   0.069   2.234   1.259  0.3677 -0.4816 -0.4218
 6592SOL    HW131409   0.162   2.218   1.276 -0.0823 -0.7540  1.7673
 6592SOL    HW231410   0.034   2.247   1.347 -0.6801 -0.0152 -0.9132
 6593SOL     OW31411   2.365   3.031   9.403  0.0518 -0.2422 -0.4062
 6593SOL    HW131412   2.367   2.956   9.462  0.9843 -1.2179 -1.6572
 6593SOL    HW231413   2.277   3.069   9.406 -0.3220 -1.2423  1.4919
 6594SOL     OW31414   4.319   0.007  16.035 -0.3510  0.2260  0.1149
 6594SOL    HW131415   4.271   4.660  16.061  1.0281 -1.5939 -2.9054
 6594SOL    HW231416   4.383   4.700  15.976 -0.1053  1.7482 -0.6394
 6595SOL     OW31417   2.248   1.880  14.399  0.2682  0.2095 -0.0851
 6595SOL    HW131418   2.341   1.901  14.401  0.0008  1.4562 -0.6287
 6595SOL    HW231419   2.231   1.865  14.306  1.4377  1.2165 -0.4592
 6596SOL     OW31420   2.172   3.251   3.946 -0.5991 -0.0146 -0.0388
 6596SOL    HW131421   2.267   3.250   3.951 -0.7292 -1.7233  2.0889
 6596SOL    HW231422   2.153   3.339   3.978 -0.4208  0.1288 -0.3349
 6597SOL     OW31423   1.900   3.526   2.925  0.3816  0.0023 -0.3630
 6597SOL    HW131424   1.932   3.494   2.841  0.8506  0.2680 -0.2906
 6597SOL    HW231425   1.978   3.572   2.958  1.1241 -1.0506 -0.6563
 6598SOL     OW31426   4.203   1.947   3.436 -0.0921 -0.0394 -0.1250
 6598SOL    HW131427   4.284   1.992   3.464 -0.2311  0.5221 -0.6242
 6598SOL    HW231428   4.140   2.019   3.440  0.7374  0.6177  1.1840
 6599SOL     OW31429   1.507   4.301   4.965 -0.7735  0.1296 -0.0515
 6599SOL    HW131430   1.508   4.269   4.875 -1.8109 -1.8421  0.6482
 6599SOL    HW231431   1.508   4.218   5.013 -1.9733 -0.0341 -0.3156
 6600SOL     OW31432   2.174   3.135  13.034  0.4006 -0.4280  0.1622
 6600SOL    HW131433   2.225   3.186  12.971  0.3769  0.6336  1.0159
 6600SOL    HW231434   2.102   3.196  13.050 -0.2409 -1.1125 -0.0938
 6601SOL     OW31435   4.176   3.081  10.989 -0.2998 -0.1493 -0.3555
 6601SOL    HW131436   4.203   3.117  11.073 -2.1394 -0.6120  0.4436
 6601SOL    HW231437   4.109   3.143  10.959 -1.1349 -1.2310 -0.7214
 6602SOL     OW31438   1.386   0.774   6.220 -0.3985  0.8907  0.2525
 6602SOL    HW131439   1.450   0.831   6.263  0.4658  1.6858 -2.0924
 6602SOL    HW231440   1.329   0.833   6.170 -0.2608 -0.4016 -1.4226
 6603SOL     OW31441   3.951   3.631   5.949  0.0619  0.3223  0.3785
 6603SOL    HW131442   3.856   3.621   5.950  0.0113  0.7114 -0.8027
 6603SOL    HW231443   3.954   3.699   5.881 -2.3787 -0.3959 -0.4325
 6604SOL     OW31444   4.346   3.973   8.656  0.6959 -0.1256 -0.1590
 6604SOL    HW131445   4.313   4.063   8.658  2.3447  0.4253  2.3779
 6604SOL    HW231446   4.265   3.930   8.684 -1.3420  3.0683 -1.1736
 6605SOL     OW31447   1.616   2.828   4.666 -0.0982 -0.4767 -0.1990
 6605SOL    HW131448   1.552   2.777   4.616  0.7699  0.1858 -1.9759
 6605SOL    HW231449   1.672   2.862   4.597  0.7254  0.5661  0.9987
 6606SOL     OW31450   4.241   2.406  10.989 -0.3113  0.0790 -0.0218
 6606SOL    HW131451   4.245   2.502  10.991  3.0261 -0.0394 -0.8683
 6606SOL    HW231452   4.245   2.385  10.896  2.4048  1.9306 -0.3146
 6607SOL     OW31453   0.091   1.019  16.790  0.1760 -0.3391 -0.0738
 6607SOL    HW131454   0.115   0.927  16.780  0.6972 -0.5299  2.9405
 6607SOL    HW231455   4.729   1.009  16.797  0.1531  0.1059  0.2572
 6608SOL     OW31456   0.419   3.150  14.926  0.1996 -0.1817  0.6406
 6608SOL    HW131457   0.473   3.229  14.924 -0.1753  0.0233 -1.5388
 6608SOL    HW231458   0.478   3.082  14.961 -0.2699 -0.7586  0.3107
 6609SOL     OW31459   1.943   2.798  12.742  0.4516 -0.0832  0.0822
 6609SOL    HW131460   2.036   2.816  12.725 -0.5539  0.6042 -4.6487
 6609SOL    HW231461   1.929   2.726  12.681  1.7866 -0.4245  0.1804
 6610SOL     OW31462   1.752   1.605  10.416  0.0707 -0.1159  0.3445
 6610SOL    HW131463   1.800   1.617  10.498  0.8117 -0.6121 -0.0180
 6610SOL    HW231464   1.819   1.645  10.361 -0.0185  2.3602  2.0229
 6611SOL     OW31465   4.022   3.588   3.316  0.7434  0.1342  0.3403
 6611SOL    HW131466   4.101   3.591   3.262  1.7016 -1.1792  1.6594
 6611SOL    HW231467   3.963   3.646   3.267 -0.2027 -2.2676 -1.3543
 6612SOL     OW31468   1.206   2.270   6.699 -0.7750 -0.0894  0.4112
 6612SOL    HW131469   1.216   2.334   6.629  1.5869 -0.0955  0.7503
 6612SOL    HW231470   1.128   2.305   6.743 -2.2387 -1.0639 -1.4406
 6613SOL     OW31471   3.549   1.452   3.180 -0.0445 -0.1278 -0.1691
 6613SOL    HW131472   3.576   1.538   3.146 -0.9801  0.1039 -0.3507
 6613SOL    HW231473   3.624   1.425   3.232  0.9749  2.8818 -0.0296
 6614SOL     OW31474   4.298   1.128   3.461  0.0080 -0.3839 -0.4830
 6614SOL    HW131475   4.264   1.210   3.497  0.5202  0.1017 -1.1027
 6614SOL    HW231476   4.326   1.088   3.543 -0.3695 -0.0875 -0.2118
 6615SOL     OW31477   2.753   4.150  11.788 -0.0904  0.2747 -0.8614
 6615SOL    HW131478   2.761   4.078  11.726  0.9108 -0.5058  0.1645
 6615SOL    HW231479   2.758   4.228  11.732 -1.5658  0.0821 -1.2552
 6616SOL     OW31480   4.666   1.710   6.811  0.4141  0.5209  0.0507
 6616SOL    HW131481   4.581   1.665   6.804  1.8560 -1.9495 -1.5987
 6616SOL    HW231482   4.642   1.757   6.891 -0.1025  0.1013  0.1467
 6617SOL     OW31483   4.326   3.104   6.011 -0.2999  0.0144  0.4534
 6617SOL    HW131484   4.299   3.091   6.102 -0.2012 -0.5060  0.4057
 6617SOL    HW231485   4.263   3.043   5.974 -0.3679  0.0116  0.5719
 6618SOL     OW31486   3.069   2.110   5.749  0.2802 -0.5814  0.2039
 6618SOL    HW131487   2.981   2.099   5.712 -0.5323  3.2550  0.9927
 6618SOL    HW231488   3.121   2.134   5.673 -1.1670  0.3242 -0.5011
 6619SOL     OW31489   0.467   4.242  17.443  0.7628 -0.1332  0.1967
 6619SOL    HW131490   0.518   4.294  17.504  4.2932 -0.2364 -2.6748
 6619SOL    HW231491   0.530   4.236  17.371 -0.3784 -1.4871 -0.6892
 6620SOL     OW31492   0.564   0.557   6.730  0.2027 -0.3876 -0.6406
 6620SOL    HW131493   0.475   0.581   6.754  0.9576  0.7256  1.0589
 6620SOL    HW231494   0.610   0.634   6.697 -0.5780 -0.1317 -1.1233
 6621SOL     OW31495   3.349   3.397   7.012 -0.0491  0.1985 -0.0216
 6621SOL    HW131496   3.437   3.388   7.048  0.2279  1.8465 -0.2941
 6621SOL    HW231497   3.365   3.341   6.936  1.7601  1.5614 -0.6278
 6622SOL     OW31498   0.109   0.862  12.044 -0.1954 -0.4130 -0.0870
 6622SOL    HW131499   0.159   0.786  12.014  0.0128  0.8363 -2.9167
 6622SOL    HW231500   0.146   0.873  12.131 -0.2723  1.5757 -0.3122
 6623SOL     OW31501   1.961   4.179   9.259 -0.0444 -0.1225  0.1985
 6623SOL    HW131502   1.993   4.269   9.254  0.6758 -0.4273 -0.7586
 6623SOL    HW231503   1.905   4.180   9.336 -0.1107 -0.7570  0.1611
 6624SOL     OW31504   4.509   2.488   9.466 -0.9442 -0.5034 -0.0641
 6624SOL    HW131505   4.458   2.418   9.427 -0.0911 -0.8471 -0.5588
 6624SOL    HW231506   4.539   2.445   9.546  0.3924  0.5921  0.0356
 6625SOL     OW31507   2.167   4.682   6.999 -0.2767 -0.1093  0.1926
 6625SOL    HW131508   2.254   4.658   6.966  0.2891  3.1780 -0.6945
 6625SOL    HW231509   2.174   4.644   7.087 -1.8122  2.3651  1.3899
 6626SOL     OW31510   3.624   2.745   6.571 -0.1157  0.1359  0.3193
 6626SOL    HW131511   3.633   2.669   6.514  0.2326  3.5993 -4.3332
 6626SOL    HW231512   3.706   2.736   6.619  0.5131 -0.7057 -0.8963
 6627SOL     OW31513   3.448   3.268   9.047 -0.5246  0.0696  0.5144
 6627SOL    HW131514   3.419   3.353   9.077  1.0829  0.8491 -0.1387
 6627SOL    HW231515   3.530   3.258   9.095  1.3985 -1.0748 -2.9462
 6628SOL     OW31516   1.941   1.942  12.348 -0.2260  0.1613 -0.3061
 6628SOL    HW131517   1.893   1.940  12.265 -0.4849  0.4684 -0.1678
 6628SOL    HW231518   1.894   1.888  12.411  2.6326 -0.8615  0.9220
 6629SOL     OW31519   4.078   0.508   4.403 -0.5970 -0.0485 -0.0030
 6629SOL    HW131520   4.104   0.566   4.331  0.1970 -3.7930 -2.7244
 6629SOL    HW231521   4.033   0.442   4.351 -0.0151  0.3766 -1.0333
 6630SOL     OW31522   0.329   3.185   4.291 -0.1012 -0.5234  0.0921
 6630SOL    HW131523   0.303   3.237   4.368  0.1603 -0.4525  0.1305
 6630SOL    HW231524   0.288   3.100   4.310  0.1880 -0.5291  0.7082
 6631SOL     OW31525   0.902   2.069   2.928  0.4155 -0.3315 -0.0088
 6631SOL    HW131526   0.971   2.070   2.861 -0.6808  0.4586 -1.1326
 6631SOL    HW231527   0.944   2.129   2.989  0.6401 -0.9843  0.4760
 6632SOL     OW31528   2.809   2.133   7.471 -0.4870 -0.6254 -0.5161
 6632SOL    HW131529   2.774   2.045   7.453 -0.7813 -0.5605 -0.2515
 6632SOL    HW231530   2.742   2.178   7.419 -1.2740 -0.3915  0.7195
 6633SOL     OW31531   2.400   4.160   7.034  1.3796 -0.1397  0.1951
 6633SOL    HW131532   2.447   4.240   7.009 -1.2120  0.9917 -1.0428
 6633SOL    HW231533   2.438   4.093   6.977  0.0718 -1.2178  0.5905
 6634SOL     OW31534   0.831   1.183  13.177 -0.3257 -0.2188  0.3917
 6634SOL    HW131535   0.925   1.162  13.180 -0.0962  0.1692 -3.2063
 6634SOL    HW231536   0.795   1.098  13.150  0.0700 -0.2589 -0.0233
 6635SOL     OW31537   4.725   3.659   6.089 -0.4239 -0.3221 -0.1276
 6635SOL    HW131538   4.691   3.577   6.124  0.3468 -0.0795  1.2110
 6635SOL    HW231539   0.016   3.703   6.171  1.1142 -0.5729 -0.4326
 6636SOL     OW31540   4.726   3.267   6.615  0.0161 -0.0786  0.4911
 6636SOL    HW131541   4.693   3.198   6.673  0.7741 -0.5168  0.4088
 6636SOL    HW231542   0.059   3.213   6.571 -2.3454 -0.5089 -2.4927
 6637SOL     OW31543   4.178   2.289   3.235 -0.0827  0.2152  0.0748
 6637SOL    HW131544   4.155   2.210   3.187  0.1125  0.3459 -0.2377
 6637SOL    HW231545   4.147   2.270   3.324  2.7194  1.6038  1.3607
 6638SOL     OW31546   0.792   3.249   1.842  0.0502 -0.3515  0.3119
 6638SOL    HW131547   0.860   3.252   1.776 -1.2769  0.5233 -0.9977
 6638SOL    HW231548   0.726   3.306   1.804  1.9776  0.9346 -1.0424
 6639SOL     OW31549   0.099   2.660   3.581  0.4542 -0.2799  0.5296
 6639SOL    HW131550   0.008   2.681   3.603 -0.7021 -1.6053 -3.0138
 6639SOL    HW231551   0.132   2.748   3.597 -1.8581  1.2133 -2.7548
 6640SOL     OW31552   3.773   2.959   7.723 -0.5626 -0.1332 -0.0283
 6640SOL    HW131553   3.791   2.948   7.817 -1.6099  0.4131  0.2308
 6640SOL    HW231554   3.744   2.870   7.703 -1.9209  0.4864 -0.8082
 6641SOL     OW31555   2.559   3.353  14.344 -0.1325  0.0896  0.1788
 6641SOL    HW131556   2.651   3.337  14.361  0.0539  0.0754 -0.8735
 6641SOL    HW231557   2.531   3.403  14.421  1.0159 -1.3303  1.5168
 6642SOL     OW31558   2.432   1.865   2.174  0.4805  0.0798 -0.0238
 6642SOL    HW131559   2.463   1.944   2.131 -0.4407 -0.4782 -1.7310
 6642SOL    HW231560   2.344   1.851   2.137  1.7058 -1.6940 -2.2766
 6643SOL     OW31561   4.133   3.968   7.878 -0.0382  0.2559 -0.0773
 6643SOL    HW131562   4.219   3.950   7.841  0.5393 -0.7894  1.7699
 6643SOL    HW231563   4.119   4.051   7.833  0.4158  0.7193  0.6464
 6644SOL     OW31564   3.868   0.716   2.778  0.4587 -0.0071 -0.0838
 6644SOL    HW131565   3.940   0.713   2.714 -0.7960  2.4216 -1.5925
 6644SOL    HW231566   3.917   0.699   2.858  1.5925 -0.5341 -0.8826
 6645SOL     OW31567   0.376   1.166   6.108 -0.0180  0.1639 -0.1202
 6645SOL    HW131568   0.464   1.130   6.123  0.5440  2.2673  1.4997
 6645SOL    HW231569   0.355   1.106   6.036 -0.9721 -1.5700  1.5762
 6646SOL     OW31570   4.401   0.253  16.342 -0.3234  0.0830 -0.3020
 6646SOL    HW131571   4.482   0.204  16.329 -0.6185 -0.8027  1.2156
 6646SOL    HW231572   4.431   0.341  16.319  0.0911  0.1843  0.6211
 6647SOL     OW31573   4.722   1.840   9.375 -0.2507  0.7852 -0.3261
 6647SOL    HW131574   4.637   1.808   9.404  0.3031  1.2569  1.8471
 6647SOL    HW231575   0.040   1.760   9.363 -1.7316 -0.0011 -1.2647
 6648SOL     OW31576   0.327   4.359   4.442 -0.1894  0.4760  0.3160
 6648SOL    HW131577   0.352   4.269   4.422 -0.6418  0.8795 -2.1369
 6648SOL    HW231578   0.402   4.372   4.499  1.2647  2.3011 -1.9965
 6649SOL     OW31579   4.084   0.337  11.702 -0.0627  0.5453 -0.1267
 6649SOL    HW131580   4.164   0.343  11.755  0.6533 -0.2567 -1.1011
 6649SOL    HW231581   4.058   0.429  11.708  0.3820  0.5810  1.3579
 6650SOL     OW31582   0.404   3.466  16.143  0.0799  0.3756  0.0091
 6650SOL    HW131583   0.426   3.403  16.074  0.9879  1.6684 -0.9011
 6650SOL    HW231584   0.485   3.517  16.141  0.3677 -0.0574  0.7894
 6651SOL     OW31585   1.890   4.470   6.107  0.2473  0.0298 -0.1822
 6651SOL    HW131586   1.909   4.409   6.036 -1.7793  0.9168 -1.4830
 6651SOL    HW231587   1.966   4.466   6.165  0.9360 -2.0246 -1.2370
 6652SOL     OW31588   1.611   0.191   1.855  0.4109  0.0371  0.0860
 6652SOL    HW131589   1.572   0.242   1.784  3.2719  3.2265  0.8475
 6652SOL    HW231590   1.699   0.192   1.818 -0.0926  3.2590 -1.0323
 6653SOL     OW31591   2.839   1.750   5.444  0.3507 -0.4675  0.0150
 6653SOL    HW131592   2.823   1.665   5.486 -0.1288  0.7453  2.3237
 6653SOL    HW231593   2.755   1.747   5.398 -0.3501 -2.1749  1.3615
 6654SOL     OW31594   4.440   3.800   5.479  1.1310  0.0083  0.3376
 6654SOL    HW131595   4.441   3.853   5.399 -1.0013  2.6552  2.0700
 6654SOL    HW231596   4.360   3.826   5.525  1.2994  0.4208  0.3952
 6655SOL     OW31597   2.923   0.981  15.378 -0.9107  0.3586  0.2959
 6655SOL    HW131598   2.940   0.898  15.422  1.5042 -0.3005 -1.8765
 6655SOL    HW231599   3.014   1.011  15.374 -0.4544 -1.1289 -0.1952
 6656SOL     OW31600   0.390   1.420  12.193 -0.2169 -0.0638  0.1085
 6656SOL    HW131601   0.438   1.473  12.257  0.4757  1.0414 -1.3111
 6656SOL    HW231602   0.444   1.426  12.114 -0.1767 -0.3460  0.1158
 6657SOL     OW31603   1.813   1.889  14.458  0.5998 -0.0443  0.0402
 6657SOL    HW131604   1.822   1.955  14.389  1.3971 -1.1418 -0.9007
 6657SOL    HW231605   1.759   1.837  14.399  3.3748 -2.7402 -0.0967
 6658SOL     OW31606   0.993   4.029  15.513  0.1693  0.2729  0.2320
 6658SOL    HW131607   1.085   4.056  15.508 -0.2482  1.7127  0.5139
 6658SOL    HW231608   0.981   4.000  15.422 -1.3908  3.0790 -0.4760
 6659SOL     OW31609   1.139   3.714  15.315 -0.7857  0.0834 -0.0159
 6659SOL    HW131610   1.221   3.764  15.312 -0.6117 -0.0099  3.2281
 6659SOL    HW231611   1.085   3.789  15.293 -0.6374  0.4876  0.9723
 6660SOL     OW31612   0.242   3.948   0.961 -0.1232  0.0782  0.1993
 6660SOL    HW131613   0.261   4.041   0.948 -1.7744  0.3757 -0.1328
 6660SOL    HW231614   0.273   3.926   0.873  2.5759  0.4533  1.0635
 6661SOL     OW31615   4.004   0.188   7.842  0.6626 -0.5715  0.3448
 6661SOL    HW131616   4.038   0.166   7.929  0.8670 -1.6604  0.0015
 6661SOL    HW231617   3.928   0.130   7.842 -0.3787  0.8125  1.1762
 6662SOL     OW31618   2.557   2.972   0.721 -0.5712 -0.4532  0.0982
 6662SOL    HW131619   2.592   3.043   0.668  0.2025 -0.9115 -0.0069
 6662SOL    HW231620   2.634   2.915   0.717 -2.0280 -2.5030  1.0733
 6663SOL     OW31621   0.615   2.144   5.004 -0.3991  0.1027  0.6688
 6663SOL    HW131622   0.598   2.221   4.949  0.2853  1.5652  2.4908
 6663SOL    HW231623   0.586   2.175   5.089  1.0746 -0.5561  1.4098
 6664SOL     OW31624   2.480   0.178  13.476  0.3766  0.0041  0.5855
 6664SOL    HW131625   2.561   0.193  13.525  0.1767  1.1379  0.5662
 6664SOL    HW231626   2.476   0.254  13.418 -0.6178  1.3269  2.3658
 6665SOL     OW31627   2.601   1.797   5.268 -0.6486 -0.1857  0.1311
 6665SOL    HW131628   2.581   1.725   5.208  3.1879  0.8148 -2.4420
 6665SOL    HW231629   2.530   1.784   5.330  0.7578 -1.3953  1.4883
 6666SOL     OW31630   1.020   0.072  15.059 -0.1675  0.0882 -0.3963
 6666SOL    HW131631   1.104   0.029  15.074 -0.3998 -0.3629 -0.3619
 6666SOL    HW231632   1.032   0.113  14.974  0.2870 -0.2837 -0.5082
 6667SOL     OW31633   1.335   2.681   7.625 -0.2878 -0.1513 -0.3759
 6667SOL    HW131634   1.252   2.646   7.655  1.2854 -2.6585  1.0230
 6667SOL    HW231635   1.392   2.612   7.657 -0.4831  0.3613  1.0713
 6668SOL     OW31636   4.029   0.699   5.331 -0.4125  0.0241  0.0652
 6668SOL    HW131637   4.121   0.712   5.353 -0.9656  0.7844  1.9207
 6668SOL    HW231638   4.038   0.648   5.250  2.4637  1.0681 -0.2949
 6669SOL     OW31639   1.599   2.591   8.683 -0.0834 -0.2823 -0.3590
 6669SOL    HW131640   1.646   2.603   8.601 -0.8846 -1.9902 -1.0570
 6669SOL    HW231641   1.625   2.502   8.703 -0.8396 -0.6990 -1.2334
 6670SOL     OW31642   4.675   2.322   1.803  0.3571  0.5110 -0.2581
 6670SOL    HW131643   4.699   2.414   1.810 -0.7024  0.7402  0.3412
 6670SOL    HW231644   0.029   2.283   1.816  0.1979  0.9615  2.2044
 6671SOL     OW31645   0.874   0.704  16.620 -0.4579 -0.3861  0.2226
 6671SOL    HW131646   0.942   0.636  16.620  2.5853  2.6924 -2.2086
 6671SOL    HW231647   0.918   0.785  16.595  0.5438 -0.9462  0.1797
 6672SOL     OW31648   1.315   2.727   5.226 -0.1140  0.3331 -0.1280
 6672SOL    HW131649   1.256   2.697   5.295  0.8663  0.3104  0.6906
 6672SOL    HW231650   1.302   2.654   5.165  3.0180 -0.6414  0.3760
 6673SOL     OW31651   0.171   0.696   5.174  0.0899 -0.5577  0.0221
 6673SOL    HW131652   0.175   0.781   5.217 -0.8462 -0.5357  0.0703
 6673SOL    HW231653   0.088   0.671   5.216 -0.8312  3.1653  0.3543
 6674SOL     OW31654   2.137   1.213   3.832 -0.0455 -0.0983  0.2664
 6674SOL    HW131655   2.203   1.206   3.900  2.3788 -2.1151 -2.2853
 6674SOL    HW231656   2.162   1.144   3.770  0.9349  0.9714 -0.5383
 6675SOL     OW31657   3.207   2.469   3.756  0.6756 -0.1508 -0.3029
 6675SOL    HW131658   3.203   2.521   3.675  2.8466 -1.5830 -1.3240
 6675SOL    HW231659   3.288   2.489   3.802  0.1732 -2.7141  1.7133
 6676SOL     OW31660   2.367   1.962   5.097 -0.1618 -0.1406 -0.2973
 6676SOL    HW131661   2.451   1.982   5.055 -1.1950 -0.2389 -2.3919
 6676SOL    HW231662   2.387   1.979   5.189  2.7397  1.2396 -1.1764
 6677SOL     OW31663   3.561   3.106   8.059  0.7222 -0.2779 -0.2369
 6677SOL    HW131664   3.581   3.184   8.009 -1.8195  0.9817  0.7092
 6677SOL    HW231665   3.642   3.058   8.043  1.2089 -0.1338  1.7388
 6678SOL     OW31666   2.739   1.535   2.588  0.1650  0.5605  0.2066
 6678SOL    HW131667   2.707   1.521   2.499  1.0607 -0.2528  0.0186
 6678SOL    HW231668   2.830   1.510   2.569  0.3845  1.2073  0.4001
 6679SOL     OW31669   4.334   3.927   2.682  0.6291 -0.3207 -0.2661
 6679SOL    HW131670   4.303   3.970   2.602  0.8380  0.8695  0.2978
 6679SOL    HW231671   4.386   3.998   2.719  0.4483 -0.1194 -0.3956
 6680SOL     OW31672   1.756   0.904   4.728 -0.4950 -0.3930 -0.3151
 6680SOL    HW131673   1.686   0.913   4.792  0.9024  1.1601  1.0042
 6680SOL    HW231674   1.792   0.817   4.742  0.7646  0.0430 -0.7907
 6681SOL     OW31675   3.690   2.506   7.212  0.1175 -0.0521 -0.2649
 6681SOL    HW131676   3.682   2.543   7.124  0.0444  2.7474  0.9517
 6681SOL    HW231677   3.777   2.466   7.220 -0.3689 -1.2769 -1.0010
 6682SOL     OW31678   1.112   3.405  11.806  0.2998 -0.0135  0.2927
 6682SOL    HW131679   1.162   3.334  11.765 -0.8384 -0.5222 -0.2096
 6682SOL    HW231680   1.160   3.419  11.887 -0.1002 -1.7267  0.8318
 6683SOL     OW31681   4.334   2.370   6.246  0.0329  0.2212  0.6109
 6683SOL    HW131682   4.400   2.305   6.270  0.9542  0.6935 -0.6420
 6683SOL    HW231683   4.250   2.324   6.256  0.0009  0.3163  0.7800
 6684SOL     OW31684   3.306   1.279  16.168  0.0014  0.3292 -0.1355
 6684SOL    HW131685   3.302   1.208  16.231 -1.4920 -0.3724 -1.0154
 6684SOL    HW231686   3.266   1.239  16.090 -1.8134 -2.0110  1.9929
 6685SOL     OW31687   3.026   1.246   4.017 -0.1896 -0.2549  0.6374
 6685SOL    HW131688   3.109   1.259   3.971  0.0501  0.5601  1.2839
 6685SOL    HW231689   3.053   1.232   4.108  1.0276 -1.7573  0.0410
 6686SOL     OW31690   0.976   1.571   6.408 -0.0167 -0.0957 -0.1359
 6686SOL    HW131691   0.897   1.620   6.387 -0.2434 -0.7604 -0.8310
 6686SOL    HW231692   1.018   1.636   6.464 -0.9185  1.4617 -1.2680
 6687SOL     OW31693   4.506   4.430   5.474  0.0031 -0.4369  0.2447
 6687SOL    HW131694   4.583   4.447   5.420 -0.4199  0.6734 -0.0049
 6687SOL    HW231695   4.505   4.334   5.472  0.7109 -0.4025 -1.2005
 6688SOL     OW31696   3.416   2.950   7.661 -0.3280 -0.1167  0.2553
 6688SOL    HW131697   3.412   2.978   7.752 -2.2153  0.2558  0.0601
 6688SOL    HW231698   3.486   2.885   7.651 -1.0981 -1.2251  1.9589
 6689SOL     OW31699   0.637   1.000   9.944 -0.8104 -0.2810 -0.1810
 6689SOL    HW131700   0.649   1.094   9.956 -4.1805  0.2370 -0.9256
 6689SOL    HW231701   0.565   0.990  10.007 -2.0663  5.5595 -0.7685
 6690SOL     OW31702   2.340   4.469   8.619  0.0699 -0.3157  0.1637
 6690SOL    HW131703   2.369   4.394   8.669  1.3335 -0.5216 -0.8709
 6690SOL    HW231704   2.244   4.470   8.626 -0.1174 -1.5888 -2.0299
 6691SOL     OW31705   1.551   0.842  11.209  0.0200  0.1061 -0.6197
 6691SOL    HW131706   1.641   0.817  11.184  0.3178 -0.0975  0.6559
 6691SOL    HW231707   1.512   0.856  11.122  0.2406  1.8060 -0.4589
 6692SOL     OW31708   3.031   3.218  10.921 -0.3034  0.3161 -0.6007
 6692SOL    HW131709   3.091   3.197  10.849 -0.6549 -0.8347 -0.5682
 6692SOL    HW231710   2.946   3.186  10.891 -0.7526  0.7872  0.1684
 6693SOL     OW31711   1.911   0.511   9.081 -0.5584 -0.3183  0.0644
 6693SOL    HW131712   1.909   0.482   8.990  2.8775  0.2767 -0.1994
 6693SOL    HW231713   1.924   0.605   9.073 -0.7018 -0.3212 -0.2226
 6694SOL     OW31714   3.277   0.396   9.674 -0.8197  0.2187  0.3004
 6694SOL    HW131715   3.225   0.403   9.594  1.4508  0.7585 -1.1329
 6694SOL    HW231716   3.351   0.453   9.652 -0.9390  0.7240  1.1859
 6695SOL     OW31717   4.009   3.787   1.824 -0.0174  0.3091  0.6470
 6695SOL    HW131718   4.035   3.879   1.827 -2.5750  1.1182 -1.7360
 6695SOL    HW231719   3.984   3.770   1.915  1.1129 -0.2899  0.8391
 6696SOL     OW31720   2.320   4.041   7.704  0.1414  0.3767 -0.2876
 6696SOL    HW131721   2.254   3.975   7.683 -0.5861  0.1313  2.7955
 6696SOL    HW231722   2.332   4.027   7.798  1.0758  2.0189 -0.1603
 6697SOL     OW31723   0.510   3.276  16.308  0.0864  0.3163 -0.3938
 6697SOL    HW131724   0.480   3.327  16.233 -0.6196  1.6077  0.7561
 6697SOL    HW231725   0.438   3.221  16.337 -0.8022  2.8245  2.1749
 6698SOL     OW31726   0.433   1.544   4.335 -0.1816  0.0907  0.1338
 6698SOL    HW131727   0.422   1.451   4.356  2.3344  0.4223  2.9892
 6698SOL    HW231728   0.507   1.534   4.275 -2.3030 -1.6982 -2.1540
 6699SOL     OW31729   4.172   0.140   8.085  0.2893 -0.4127  0.2510
 6699SOL    HW131730   4.241   0.114   8.025  0.2243  0.2537 -0.1129
 6699SOL    HW231731   4.226   0.178   8.154  0.2854 -0.4535  0.2768
 6700SOL     OW31732   3.969   4.105  14.470  0.2339  0.3164  0.0843
 6700SOL    HW131733   3.955   4.012  14.483  1.8344 -0.0969 -1.2024
 6700SOL    HW231734   3.998   4.111  14.379  2.1826 -0.4415  0.6734
 6701SOL     OW31735   1.895   3.844  14.395 -0.2383 -0.0852 -0.4079
 6701SOL    HW131736   1.906   3.761  14.441 -2.2849 -0.6207 -0.9064
 6701SOL    HW231737   1.933   3.832  14.308  1.3438 -0.0508  0.2784
 6702SOL     OW31738   0.340   1.204   6.540 -0.0945  0.4068 -0.0641
 6702SOL    HW131739   0.352   1.153   6.620  1.0133  2.6123  1.1852
 6702SOL    HW231740   0.423   1.195   6.493  0.5184  0.7181  0.9569
 6703SOL     OW31741   3.358   2.665   3.571 -0.2770  0.6023 -0.6691
 6703SOL    HW131742   3.349   2.609   3.494 -0.6863  1.5216 -1.2926
 6703SOL    HW231743   3.415   2.732   3.534  1.2903 -0.4783 -0.2279
 6704SOL     OW31744   4.293   2.721   8.940 -0.2024  1.0060  0.2192
 6704SOL    HW131745   4.349   2.763   8.875 -2.6373  0.9654 -1.9373
 6704SOL    HW231746   4.320   2.742   9.029 -1.0342 -3.0784  1.4098
 6705SOL     OW31747   2.797   4.581   7.036 -0.0628  0.3165  0.1394
 6705SOL    HW131748   2.722   4.610   7.087  0.5324  0.8627  0.7118
 6705SOL    HW231749   2.837   4.514   7.092  0.4752  1.6179  1.2838
 6706SOL     OW31750   0.060   0.187  14.099 -0.8076 -0.1934 -0.2280
 6706SOL    HW131751   0.084   0.264  14.150 -0.8877  0.7770 -1.6567
 6706SOL    HW231752   4.722   0.146  14.149 -0.1817  0.9939  1.6525
 6707SOL     OW31753   0.627   0.143   2.023  0.2173  0.1342 -0.1110
 6707SOL    HW131754   0.594   0.054   2.037  0.7626  0.0332  0.5366
 6707SOL    HW231755   0.610   0.156   1.930 -1.8818  3.0631  0.6767
 6708SOL     OW31756   2.825   0.938   0.657  0.1934 -0.1167 -0.2634
 6708SOL    HW131757   2.902   0.893   0.692  0.1358  0.0794  0.1241
 6708SOL    HW231758   2.860   1.025   0.637  0.0997 -0.0116  0.0152
 6709SOL     OW31759   3.497   3.400  10.155  0.0780  0.2792 -1.0541
 6709SOL    HW131760   3.441   3.352  10.216 -1.4756  0.8927 -2.0261
 6709SOL    HW231761   3.429   3.439  10.102  0.4485  0.8865 -1.0787
 6710SOL     OW31762   4.175   3.461   5.923 -0.0829  0.0280 -0.1479
 6710SOL    HW131763   4.132   3.383   5.888  0.8971 -1.0095  0.9425
 6710SOL    HW231764   4.098   3.514   5.945  0.2035  1.6808 -3.1524
 6711SOL     OW31765   1.154   4.305   3.268 -0.1103  0.5603  0.2354
 6711SOL    HW131766   1.131   4.330   3.179  1.6549 -2.8347 -1.1652
 6711SOL    HW231767   1.128   4.375   3.328  4.3304  2.3404  0.0855
 6712SOL     OW31768   2.689   2.861   5.098  0.0673 -0.2490 -0.0334
 6712SOL    HW131769   2.633   2.916   5.044  1.1581 -0.0796 -1.0051
 6712SOL    HW231770   2.661   2.776   5.065 -2.5819  0.0055  1.5057
 6713SOL     OW31771   2.256   4.462   6.087  0.2057 -0.1708  0.1077
 6713SOL    HW131772   2.198   4.443   6.160 -1.6607  1.1921 -0.9958
 6713SOL    HW231773   2.289   4.376   6.060  0.3056  0.0100 -0.3527
 6714SOL     OW31774   3.536   1.578   8.267  0.2097 -0.2032 -0.2969
 6714SOL    HW131775   3.495   1.514   8.209  2.2957 -2.4644  0.7212
 6714SOL    HW231776   3.562   1.645   8.203 -1.9399  0.8322 -0.0745
 6715SOL     OW31777   3.391   2.593   3.952 -0.3410  0.0729  0.8274
 6715SOL    HW131778   3.323   2.644   3.997 -2.3527 -0.3121 -1.7383
 6715SOL    HW231779   3.437   2.662   3.904 -1.3105  0.9604  1.1686
 6716SOL     OW31780   0.572   1.331   1.828  0.1197 -0.1055 -0.3425
 6716SOL    HW131781   0.580   1.331   1.732 -1.9288  0.4748 -0.5162
 6716SOL    HW231782   0.496   1.273   1.831 -0.1371  0.1874 -0.9747
 6717SOL     OW31783   0.353   2.817   4.028  0.8262 -0.0634 -0.5404
 6717SOL    HW131784   0.372   2.861   3.945  0.4708 -0.1890 -0.6863
 6717SOL    HW231785   0.370   2.729   3.997  1.9864  0.1488 -0.5004
 6718SOL     OW31786   2.311   1.731   6.681 -0.4479  0.1578  0.0925
 6718SOL    HW131787   2.331   1.658   6.622  0.1699  1.0988 -0.8614
 6718SOL    HW231788   2.327   1.802   6.619 -1.7908  0.9287  0.6379
 6719SOL     OW31789   4.039   1.464   4.765 -0.2176  0.0156  0.2648
 6719SOL    HW131790   3.947   1.438   4.768 -0.2066  0.2115  1.9493
 6719SOL    HW231791   4.025   1.530   4.832  0.6359  1.1264 -0.6557
 6720SOL     OW31792   2.028   1.359  14.445  0.0419 -0.0488 -0.8733
 6720SOL    HW131793   2.118   1.374  14.473 -0.6713 -1.4893  2.1558
 6720SOL    HW231794   2.032   1.400  14.358 -0.9451 -0.9515 -1.3399
 6721SOL     OW31795   0.186   4.046   3.574  0.8213 -0.6755 -0.0930
 6721SOL    HW131796   0.269   4.001   3.592 -0.2244 -2.3205  0.6149
 6721SOL    HW231797   0.142   4.031   3.657  1.1320 -1.2288 -0.0230
 6722SOL     OW31798   2.067   1.672  14.481 -0.2226 -0.0596 -1.1909
 6722SOL    HW131799   2.097   1.763  14.488 -0.2179 -0.0350 -1.4928
 6722SOL    HW231800   2.051   1.677  14.386 -2.2112 -2.2672 -0.9413
 6723SOL     OW31801   3.019   3.825   8.021 -0.0692 -0.3394 -0.8771
 6723SOL    HW131802   2.925   3.842   8.019  0.0888  0.6243  0.3952
 6723SOL    HW231803   3.047   3.910   8.056 -0.5105 -0.6193  0.1525
 6724SOL     OW31804   1.640   4.703   7.146 -0.0513  0.4598 -0.2612
 6724SOL    HW131805   1.689   0.050   7.167 -0.6820  0.7452  0.1251
 6724SOL    HW231806   1.604   4.678   7.231  2.1068  1.2649  0.8937
 6725SOL     OW31807   4.448   4.516   4.354 -0.3718  0.6981 -0.3469
 6725SOL    HW131808   4.353   4.516   4.340 -0.5078 -3.1817  0.5888
 6725SOL    HW231809   4.446   4.533   4.448  2.9775  2.7564 -0.6513
 6726SOL     OW31810   1.229   3.190   4.619  0.3759  0.5359 -0.2969
 6726SOL    HW131811   1.136   3.188   4.641  0.6578  0.5642  0.8609
 6726SOL    HW231812   1.245   3.097   4.601 -0.4400  0.7850 -2.2953
 6727SOL     OW31813   3.255   0.882  11.744 -0.3483 -0.1326  0.0299
 6727SOL    HW131814   3.351   0.889  11.736 -0.5206  2.3710  0.0364
 6727SOL    HW231815   3.232   0.972  11.770 -1.2131 -0.5569  0.7228
 6728SOL     OW31816   0.367   3.593   7.725 -0.2617 -0.5813 -0.8216
 6728SOL    HW131817   0.362   3.525   7.792  0.0322  1.2675  1.0579
 6728SOL    HW231818   0.458   3.583   7.698  0.1278  0.6040  0.0876
 6729SOL     OW31819   1.312   0.922   8.643  0.1205 -0.1139 -0.0949
 6729SOL    HW131820   1.301   0.867   8.721 -1.3619  0.4683  0.1117
 6729SOL    HW231821   1.390   0.884   8.603  0.1888 -0.4498  0.3597
 6730SOL     OW31822   4.096   4.366   4.961 -0.2797 -0.0660 -0.7064
 6730SOL    HW131823   4.139   4.289   4.925 -1.1759 -1.1265  0.5112
 6730SOL    HW231824   4.006   4.353   4.934 -0.1142 -1.4067 -0.5941
 6731SOL     OW31825   2.029   2.431   5.927  0.3890  0.6759  0.2771
 6731SOL    HW131826   2.117   2.396   5.911  0.0561 -1.0293  2.2298
 6731SOL    HW231827   2.031   2.452   6.021 -0.0046 -0.5644  0.5546
 6732SOL     OW31828   3.024   2.916   8.652  0.2738 -0.0691  0.0124
 6732SOL    HW131829   3.063   2.994   8.613  0.5219 -1.0987 -1.7501
 6732SOL    HW231830   2.963   2.961   8.712  1.1052 -0.2749  1.0187
 6733SOL     OW31831   0.988   4.668   5.421 -0.3180  0.2725 -0.0882
 6733SOL    HW131832   0.985   4.690   5.514  0.7640 -1.2101  0.3053
 6733SOL    HW231833   1.055   4.601   5.407 -0.5385  0.0009  0.1653
 6734SOL     OW31834   4.076   0.183   7.322 -1.3312  0.4711 -0.3353
 6734SOL    HW131835   3.991   0.189   7.366 -0.8340  1.8751  0.4345
 6734SOL    HW231836   4.109   0.264   7.360 -1.6390  1.0613 -1.3170
 6735SOL     OW31837   0.815   1.959   8.179 -0.6619 -0.8128 -0.2822
 6735SOL    HW131838   0.863   1.976   8.260 -0.1568 -1.3712 -0.4627
 6735SOL    HW231839   0.852   2.026   8.122 -0.7762 -0.1884  0.3864
 6736SOL     OW31840   3.685   4.137   2.524 -0.0735  0.5512  0.0359
 6736SOL    HW131841   3.760   4.169   2.474  0.7102 -0.5159  0.5217
 6736SOL    HW231842   3.666   4.215   2.577 -0.9555  0.9413 -0.8620
 6737SOL     OW31843   0.469   2.201  17.063 -0.3183 -0.1991 -0.3457
 6737SOL    HW131844   0.375   2.214  17.074 -0.0623  1.6990 -0.4771
 6737SOL    HW231845   0.468   2.106  17.052 -0.7896 -0.5860  2.9521
 6738SOL     OW31846   4.274   3.034   8.166 -0.5560  0.1103  0.0113
 6738SOL    HW131847   4.308   3.073   8.086 -0.7458 -0.1919 -0.2147
 6738SOL    HW231848   4.348   2.979   8.192  0.4749  2.2149  1.5647
 6739SOL     OW31849   1.863   3.006   2.311 -0.4367 -0.4895 -0.6063
 6739SOL    HW131850   1.950   3.039   2.286 -0.0907 -0.7330  0.3023
 6739SOL    HW231851   1.892   2.915   2.310  1.2483  0.0336  0.0014
 6740SOL     OW31852   1.162   3.678   8.055 -0.3857 -0.5176  0.0447
 6740SOL    HW131853   1.216   3.725   8.118 -3.0962  0.4990  1.6156
 6740SOL    HW231854   1.099   3.746   8.028  0.4766  0.5206  0.6572
 6741SOL     OW31855   0.482   3.271   3.945  0.0934  0.2263 -0.6048
 6741SOL    HW131856   0.482   3.181   3.977 -0.1895  0.1776 -0.7317
 6741SOL    HW231857   0.574   3.294   3.936  0.1626  0.3901  0.4526
 6742SOL     OW31858   1.748   1.954   7.694 -0.0297 -0.0681  0.2895
 6742SOL    HW131859   1.830   2.000   7.676  0.3032 -0.4882  0.7115
 6742SOL    HW231860   1.734   1.919   7.606 -0.0714 -0.4222  0.4344
 6743SOL     OW31861   2.383   2.282   8.599  0.1603  0.3731  0.0331
 6743SOL    HW131862   2.420   2.337   8.531  0.9604 -0.7917 -0.4733
 6743SOL    HW231863   2.464   2.258   8.644  0.7545  1.1756 -0.6203
 6744SOL     OW31864   0.187   2.586  17.104  0.9163  0.0081  0.0532
 6744SOL    HW131865   0.272   2.623  17.079  1.8590 -0.7946  2.0595
 6744SOL    HW231866   0.137   2.617  17.028  0.3792 -2.2917 -0.5246
 6745SOL     OW31867   2.016   4.101  15.172 -0.6217 -0.1394 -0.0316
 6745SOL    HW131868   1.946   4.038  15.154 -0.4108 -0.2138 -0.5846
 6745SOL    HW231869   2.096   4.059  15.140 -0.0006 -0.8517  2.4579
 6746SOL     OW31870   0.997   2.247   3.097  0.2634  0.2524  0.1789
 6746SOL    HW131871   1.070   2.309   3.095  0.2070  0.3133 -0.0491
 6746SOL    HW231872   0.921   2.305   3.093  0.5368  0.6285  0.3897
 6747SOL     OW31873   4.129   3.101   6.662 -0.7097 -0.0960 -0.0830
 6747SOL    HW131874   4.182   3.022   6.674  0.4297  0.8092  0.7454
 6747SOL    HW231875   4.191   3.165   6.628 -0.7387  0.2515  0.5246
 6748SOL     OW31876   1.418   3.015   1.896  0.3512 -0.7512  0.3009
 6748SOL    HW131877   1.454   2.936   1.856  2.6766  1.2488 -1.5234
 6748SOL    HW231878   1.334   3.021   1.850  0.5376  0.2736  0.0872
 6749SOL     OW31879   1.341   2.283   5.991 -0.2575 -0.0077 -0.1414
 6749SOL    HW131880   1.341   2.191   5.963 -1.0918  0.6057 -2.1941
 6749SOL    HW231881   1.431   2.295   6.019 -0.6359  2.5985 -0.0310
 6750SOL     OW31882   2.165   1.040   9.864 -0.3301 -0.9018  0.2418
 6750SOL    HW131883   2.105   0.987   9.811  0.3302 -1.0217 -0.3815
 6750SOL    HW231884   2.114   1.055   9.944  2.1050  0.5992  1.5032
 6751SOL     OW31885   4.366   0.996  13.380  0.4507  0.0153  0.1319
 6751SOL    HW131886   4.340   0.948  13.459 -1.1199  0.5261 -0.0791
 6751SOL    HW231887   4.343   0.931  13.313  2.6822  2.2430 -2.8128
 6752SOL     OW31888   3.231   2.147   5.513  0.4994 -0.0907 -0.8535
 6752SOL    HW131889   3.282   2.070   5.539 -0.2849 -0.3845 -0.2075
 6752SOL    HW231890   3.302   2.209   5.494  1.1918 -0.4669  0.5604
 6753SOL     OW31891   1.989   4.267   3.741  0.2936  0.3994  0.3426
 6753SOL    HW131892   2.053   4.196   3.745  0.3443  0.3022 -1.9974
 6753SOL    HW231893   1.904   4.225   3.752  0.2465  0.8734  1.6942
 6754SOL     OW31894   1.977   3.996   8.889  0.1191 -0.1038 -0.2442
 6754SOL    HW131895   1.882   3.988   8.881  0.1842  0.6140 -1.7185
 6754SOL    HW231896   2.003   4.045   8.812  1.9776  1.1330  1.1712
 6755SOL     OW31897   4.597   3.784  13.142  0.7372  0.0217  0.1196
 6755SOL    HW131898   4.628   3.705  13.097 -0.5136  0.4107 -1.4437
 6755SOL    HW231899   4.511   3.796  13.102 -0.2720 -1.6912  1.7479
 6756SOL     OW31900   4.520   1.919   9.025  0.0931 -0.0438  0.4874
 6756SOL    HW131901   4.574   1.916   8.946 -0.9334  1.7620 -0.2764
 6756SOL    HW231902   4.433   1.944   8.996  0.4011  1.4900  0.8828
 6757SOL     OW31903   0.869   0.718   6.263  0.1276 -0.5441 -0.0523
 6757SOL    HW131904   0.775   0.724   6.245  0.2023  1.0064  0.0649
 6757SOL    HW231905   0.899   0.743   6.176 -2.5981 -3.3817 -1.8140
 6758SOL     OW31906   3.195   1.157   1.898 -0.0069 -0.2180 -0.2234
 6758SOL    HW131907   3.228   1.161   1.988  1.9919 -1.5017 -0.8878
 6758SOL    HW231908   3.142   1.078   1.894 -0.4117  0.1177 -1.8297
 6759SOL     OW31909   3.578   4.074   9.544  0.2482  0.3049 -0.3335
 6759SOL    HW131910   3.586   4.161   9.584 -1.8154 -0.0576  0.8833
 6759SOL    HW231911   3.654   4.029   9.579  0.3143  1.4636  1.0050
 6760SOL     OW31912   1.860   0.634   2.681 -0.3661  0.1136 -0.1886
 6760SOL    HW131913   1.780   0.615   2.730 -1.0815  1.5024 -0.7936
 6760SOL    HW231914   1.923   0.566   2.703 -0.1268  0.1860 -0.6491
 6761SOL     OW31915   4.273   4.243   1.835  0.2016  0.0071  0.5180
 6761SOL    HW131916   4.202   4.276   1.779  0.7324 -0.7317 -0.5625
 6761SOL    HW231917   4.296   4.327   1.876 -2.1506  1.6544 -1.5092
 6762SOL     OW31918   0.481   3.656  11.516 -0.1766  0.4432  0.0520
 6762SOL    HW131919   0.387   3.646  11.502 -0.2387  1.2288 -0.1082
 6762SOL    HW231920   0.480   3.646  11.611  2.1061  0.7677  0.1269
 6763SOL     OW31921   2.126   0.338   8.350  0.3774  0.4358  0.3614
 6763SOL    HW131922   2.216   0.372   8.353  0.8300 -0.5692 -1.6156
 6763SOL    HW231923   2.127   0.272   8.419  0.5525 -0.9758 -0.9755
 6764SOL     OW31924   0.036   2.331   6.943 -0.4544  0.3495 -0.0691
 6764SOL    HW131925   0.111   2.314   7.000 -2.2399  0.5058  2.3244
 6764SOL    HW231926   4.702   2.317   7.010  1.2786 -0.5698  1.4593
 6765SOL     OW31927   3.358   1.092  13.012 -0.5941 -0.0131  0.5623
 6765SOL    HW131928   3.380   1.104  12.920 -1.1660 -2.0997  0.1577
 6765SOL    HW231929   3.265   1.115  13.021 -0.6166  0.3252 -0.4906
 6766SOL     OW31930   4.216   0.022   1.952 -0.3720  0.2446 -0.2016
 6766SOL    HW131931   4.185   0.095   1.898 -0.6220 -0.4508 -1.0010
 6766SOL    HW231932   4.132   4.721   1.985 -0.1372 -1.5092 -1.3980
 6767SOL     OW31933   0.598   1.426   1.554  0.2549  0.6403  0.6012
 6767SOL    HW131934   0.618   1.517   1.535 -0.6122  0.0228 -3.1618
 6767SOL    HW231935   0.683   1.396   1.523  0.5978 -0.2424  2.3551
 6768SOL     OW31936   4.571   3.293   4.606  0.2557 -0.1261 -0.6176
 6768SOL    HW131937   4.617   3.266   4.527  0.0992 -1.2517 -0.3222
 6768SOL    HW231938   4.512   3.219   4.616 -0.6360  0.4803 -1.3463
 6769SOL     OW31939   1.885   0.804   6.838 -0.1456  0.2319 -0.1977
 6769SOL    HW131940   1.837   0.885   6.822 -1.3156 -0.5426 -0.6296
 6769SOL    HW231941   1.816   0.738   6.838  0.7237 -0.6751 -0.8210
 6770SOL     OW31942   2.371   0.052  15.177 -0.1494 -0.2823  0.7456
 6770SOL    HW131943   2.289   0.007  15.196  0.0452 -1.8789 -2.2473
 6770SOL    HW231944   2.434   4.718  15.203  0.7734  0.7101  1.0630
 6771SOL     OW31945   1.170   0.789   5.562 -0.1869 -0.5398  0.1379
 6771SOL    HW131946   1.222   0.722   5.607  0.9698 -0.5687 -1.2216
 6771SOL    HW231947   1.159   0.758   5.472 -2.1896  0.5365  0.0202
 6772SOL     OW31948   0.078   4.573   8.057  0.3725 -0.0719  0.2035
 6772SOL    HW131949   0.106   4.510   7.991 -0.9932  0.2523 -0.7019
 6772SOL    HW231950   0.010   4.525   8.105 -0.0373  0.5691  0.2633
 6773SOL     OW31951   2.005   3.472   2.702  0.0744 -0.3529  0.2563
 6773SOL    HW131952   2.098   3.489   2.687 -0.3136  1.3175 -0.3435
 6773SOL    HW231953   1.981   3.435   2.617  0.9291 -1.9161  0.6941
 6774SOL     OW31954   2.007   1.980   5.912  0.8086  0.5622  0.1787
 6774SOL    HW131955   1.960   2.028   5.844 -1.5946 -0.3637  1.2172
 6774SOL    HW231956   2.087   1.957   5.864  0.4131  2.0738 -1.2200
 6775SOL     OW31957   2.826   2.387   2.407  0.1655  0.7214 -0.1281
 6775SOL    HW131958   2.878   2.309   2.426 -2.9137 -1.8308 -2.1721
 6775SOL    HW231959   2.756   2.352   2.352  1.9739 -0.2337 -1.8095
 6776SOL     OW31960   1.365   0.521   3.753 -0.3268  0.0249  0.0220
 6776SOL    HW131961   1.288   0.566   3.719  0.6025  1.2540 -0.4683
 6776SOL    HW231962   1.386   0.575   3.830 -2.9665 -0.5403  1.1311
 6777SOL     OW31963   1.866   1.152   9.161 -0.0989  0.1888  0.4276
 6777SOL    HW131964   1.873   1.186   9.071  1.2140 -1.1462  0.0187
 6777SOL    HW231965   1.803   1.212   9.200 -0.0949  0.1490  0.4949
 6778SOL     OW31966   1.036   1.715   4.077 -0.5762 -0.0328 -0.2212
 6778SOL    HW131967   1.091   1.687   4.150 -0.2102 -1.6889 -1.1219
 6778SOL    HW231968   1.081   1.679   4.000 -0.7988 -0.4454 -0.1574
 6779SOL     OW31969   4.066   0.430  16.339 -0.3857  0.5540 -0.3636
 6779SOL    HW131970   4.149   0.427  16.386 -0.0365  2.9796 -0.8445
 6779SOL    HW231971   4.019   0.356  16.377 -1.2384  1.7880  0.9836
 6780SOL     OW31972   3.816   2.591   3.398  0.4405 -0.1013 -0.4523
 6780SOL    HW131973   3.879   2.532   3.356  0.8330 -0.2324  0.3351
 6780SOL    HW231974   3.757   2.616   3.327 -0.7542  0.5515  0.7985
 6781SOL     OW31975   0.470   4.245  12.197 -0.0021 -0.0174 -0.8572
 6781SOL    HW131976   0.476   4.222  12.104 -0.5092 -0.3330 -0.8141
 6781SOL    HW231977   0.496   4.337  12.194 -0.0734  0.0291  0.1725
 6782SOL     OW31978   1.725   3.575  12.589 -0.0097 -0.1353  0.4060
 6782SOL    HW131979   1.754   3.497  12.542  2.0848  0.0355  1.3681
 6782SOL    HW231980   1.665   3.552  12.660 -0.1694  0.8399  0.5912
 6783SOL     OW31981   0.731   3.827   7.109  0.3355  0.1876  0.6683
 6783SOL    HW131982   0.795   3.768   7.069  0.9339  1.7661 -0.7136
 6783SOL    HW231983   0.778   3.908   7.085  0.7483  0.4776  2.4871
 6784SOL     OW31984   2.583   3.800   1.333  0.1451  0.1263  0.3710
 6784SOL    HW131985   2.571   3.890   1.303 -0.4881  0.4938  1.7333
 6784SOL    HW231986   2.575   3.808   1.428 -1.3108 -1.3250  0.3778
 6785SOL     OW31987   0.151   1.304   6.144  0.2082 -0.4486 -0.1206
 6785SOL    HW131988   0.143   1.261   6.229 -1.8140  1.4469  0.6578
 6785SOL    HW231989   0.230   1.264   6.109  1.2836  0.0806  1.7338
 6786SOL     OW31990   2.457   2.562   7.097  0.1717  0.0276 -0.1822
 6786SOL    HW131991   2.507   2.558   7.015 -1.0080  1.0959 -0.9543
 6786SOL    HW231992   2.501   2.631   7.147  0.4191 -0.2506 -0.0102
 6787SOL     OW31993   1.690   2.004   3.867 -0.1053  0.1382 -0.3553
 6787SOL    HW131994   1.617   1.946   3.845  1.8321 -1.5024 -2.4656
 6787SOL    HW231995   1.705   2.040   3.780 -0.8473  1.8405  0.2083
 6788SOL     OW31996   2.974   0.034   7.382  0.3309  0.4180  0.0611
 6788SOL    HW131997   3.015   4.731   7.461 -0.5976 -0.8254 -0.0209
 6788SOL    HW231998   2.959   0.127   7.402 -0.8188  0.6073 -1.6822
 6789SOL     OW31999   3.119   3.205   1.217 -0.2726  0.1347 -0.1899
 6789SOL    HW132000   3.198   3.259   1.219 -1.3502  1.7242 -1.0610
 6789SOL    HW232001   3.047   3.259   1.186 -1.4335 -1.0026  0.5080
 6790SOL     OW32002   4.003   0.572   4.666 -0.2045 -0.0316  0.2583
 6790SOL    HW132003   4.021   0.563   4.573 -0.0945  0.7149  0.2108
 6790SOL    HW232004   4.046   0.490   4.692 -0.5021 -1.0914 -2.6611
 6791SOL     OW32005   1.336   3.926  13.748 -0.0436  0.5764  0.2217
 6791SOL    HW132006   1.425   3.915  13.717 -0.0037 -0.3899  0.6672
 6791SOL    HW232007   1.285   3.855  13.709  0.5697  1.2292 -1.7597
 6792SOL     OW32008   0.302   0.203   5.872  0.2401  0.1140 -0.2940
 6792SOL    HW132009   0.369   0.157   5.819 -0.5774  0.3676 -1.5401
 6792SOL    HW232010   0.362   0.277   5.879 -0.4203  0.6394 -0.3055
 6793SOL     OW32011   0.251   2.100   6.143 -0.5116 -0.0400 -0.2001
 6793SOL    HW132012   0.240   2.005   6.142 -0.5349 -0.0319 -2.1460
 6793SOL    HW232013   0.172   2.130   6.099 -0.6393 -0.6042 -0.3487
 6794SOL     OW32014   2.103   0.894  17.315  0.6992  0.1762  0.0239
 6794SOL    HW132015   2.111   0.901  17.411 -1.3907 -0.1660  0.2203
 6794SOL    HW232016   2.013   0.864  17.306  0.5947  0.9644 -1.4349
 6795SOL     OW32017   2.899   4.731   2.870  0.3290 -0.3649 -0.1606
 6795SOL    HW132018   2.984   0.043   2.872  0.4952 -0.7022  0.6065
 6795SOL    HW232019   2.878   4.724   2.777 -2.6295  1.2009  0.3959
 6796SOL     OW32020   1.257   2.790   0.039 -0.2200 -0.6729 -0.3418
 6796SOL    HW132021   1.208   2.726  17.717 -2.4602  0.4918  0.3658
 6796SOL    HW232022   1.317   2.828  17.704 -0.4905 -0.5645 -0.5269
 6797SOL     OW32023   4.111   3.895  12.901  0.2514 -0.1406  0.2305
 6797SOL    HW132024   4.042   3.864  12.960 -1.5359  1.2414 -1.1405
 6797SOL    HW232025   4.071   3.869  12.819  0.2377  0.1296  0.1506
 6798SOL     OW32026   4.604   1.373   3.561  0.2442  0.0376  0.2112
 6798SOL    HW132027   4.635   1.288   3.592  1.8052  0.6400  0.2913
 6798SOL    HW232028   4.591   1.353   3.468 -1.7768 -1.9012  0.9166
 6799SOL     OW32029   0.363   1.322   8.847 -0.0958  0.2265  0.1161
 6799SOL    HW132030   0.315   1.393   8.889 -2.7434 -1.1646 -0.5583
 6799SOL    HW232031   0.450   1.322   8.886  0.1208  0.9860 -0.3689
 6800SOL     OW32032   2.125   2.549   7.430 -0.2160  0.2119 -0.3235
 6800SOL    HW132033   2.150   2.456   7.425  2.8672  1.1071 -2.0682
 6800SOL    HW232034   2.206   2.581   7.470 -0.1972 -1.6146  1.0884
 6801SOL     OW32035   1.412   0.863   4.410  0.9422  0.0745 -0.6435
 6801SOL    HW132036   1.395   0.904   4.326 -1.7406  1.0742  0.3796
 6801SOL    HW232037   1.506   0.878   4.418  1.5361 -3.5288 -0.5120
 6802SOL     OW32038   1.509   4.117   2.897  0.0081 -0.5185  0.2221
 6802SOL    HW132039   1.544   4.200   2.864  0.4729 -0.7441  0.1375
 6802SOL    HW232040   1.507   4.139   2.990  1.0755  1.0346 -0.1095
 6803SOL     OW32041   4.153   3.942  14.668  0.7889  0.6715  0.2843
 6803SOL    HW132042   4.092   3.995  14.718  0.0877  1.0133 -0.9271
 6803SOL    HW232043   4.226   3.954  14.729  0.3274  0.5203  0.8661
 6804SOL     OW32044   2.584   3.126  10.046  0.0180 -0.4200  0.0915
 6804SOL    HW132045   2.491   3.127  10.070  0.0126  0.9590 -0.0001
 6804SOL    HW232046   2.591   3.161   9.957 -1.2965  1.5193  0.7504
 6805SOL     OW32047   1.261   4.099  12.846 -0.3150  0.0894 -0.0768
 6805SOL    HW132048   1.312   4.055  12.915  1.9292 -0.8730 -2.3282
 6805SOL    HW232049   1.273   4.187  12.881 -0.2383  0.5573 -1.3113
 6806SOL     OW32050   0.115   1.222   2.331 -0.1110  0.3444 -0.4155
 6806SOL    HW132051   0.091   1.314   2.324  0.1795  0.5047  0.7702
 6806SOL    HW232052   0.044   1.192   2.273  0.2393  1.8636 -1.6337
 6807SOL     OW32053   4.062   0.064   2.899  0.5618  0.2248  0.2402
 6807SOL    HW132054   4.002   0.030   2.966 -0.6158 -1.8451 -1.8553
 6807SOL    HW232055   4.140   0.084   2.952  1.4615  0.6162 -1.2351
 6808SOL     OW32056   3.101   3.949  10.674 -0.7840  0.2411  0.0265
 6808SOL    HW132057   3.165   3.892  10.718 -2.0484 -0.6667  0.6884
 6808SOL    HW232058   3.160   4.015  10.638 -0.4200  1.4046  2.7490
 6809SOL     OW32059   2.118   1.446  17.132  0.0276  0.6273  0.1056
 6809SOL    HW132060   2.065   1.526  17.134 -1.0832 -0.1219  0.8331
 6809SOL    HW232061   2.084   1.399  17.209 -0.8934  1.5948  0.2864
 6810SOL     OW32062   3.792   2.621   2.318  0.5064  0.1026 -0.4567
 6810SOL    HW132063   3.886   2.634   2.317  0.7039 -1.5023 -1.9885
 6810SOL    HW232064   3.789   2.549   2.255  0.9094  0.6982 -1.1504
 6811SOL     OW32065   4.359   2.857   0.861 -0.6075 -0.1173 -0.3120
 6811SOL    HW132066   4.366   2.940   0.907 -0.7719 -0.1728 -0.1844
 6811SOL    HW232067   4.292   2.810   0.911 -0.5068 -1.1058 -1.0930
 6812SOL     OW32068   3.079   0.692   9.514 -0.3600  0.0514  0.6348
 6812SOL    HW132069   2.985   0.703   9.499 -0.5573 -0.4557  1.5688
 6812SOL    HW232070   3.065   0.658   9.602  0.7733 -0.8971  0.4440
 6813SOL     OW32071   1.535   2.898  16.465 -0.4433  0.1436  0.1479
 6813SOL    HW132072   1.500   2.945  16.540  0.3884 -0.4535  0.8959
 6813SOL    HW232073   1.627   2.879  16.484 -0.4892 -0.2386 -0.0011
 6814SOL     OW32074   2.242   0.363   7.317  0.0646 -0.2186  0.0925
 6814SOL    HW132075   2.203   0.334   7.399 -0.1116  0.4001  0.2308
 6814SOL    HW232076   2.277   0.448   7.344 -0.7829  0.9196 -2.3802
 6815SOL     OW32077   0.461   3.282  15.983 -0.0221 -1.2596  0.4064
 6815SOL    HW132078   0.519   3.212  15.952  1.0569  0.6186 -1.8208
 6815SOL    HW232079   0.374   3.267  15.946 -0.3329 -1.4526  1.2129
 6816SOL     OW32080   1.855   0.654   8.000  0.1822  0.0224  0.4334
 6816SOL    HW132081   1.858   0.749   7.983  2.1988 -0.4207 -1.8464
 6816SOL    HW232082   1.812   0.644   8.084  2.1051 -1.4071  1.2491
 6817SOL     OW32083   0.587   2.839   9.599  0.0414 -0.0497 -0.1255
 6817SOL    HW132084   0.532   2.823   9.676  0.1188 -0.3049 -0.1231
 6817SOL    HW232085   0.523   2.880   9.542 -0.1894  0.1007  0.2404
 6818SOL     OW32086   4.136   1.579   8.611  0.1958 -0.3123 -0.2605
 6818SOL    HW132087   4.210   1.594   8.552 -0.7894  0.0434 -1.4057
 6818SOL    HW232088   4.073   1.562   8.542 -1.8887 -1.6616  1.9790
 6819SOL     OW32089   3.179   2.027   8.109  0.1632  0.8612 -0.4882
 6819SOL    HW132090   3.174   2.031   8.014 -2.4403  0.2945 -0.3666
 6819SOL    HW232091   3.091   2.051   8.138 -0.3334  1.8699 -2.8648
 6820SOL     OW32092   3.738   1.938   5.936  0.8892  0.4508  0.8828
 6820SOL    HW132093   3.818   1.974   5.973  2.8388 -2.6981 -0.3730
 6820SOL    HW232094   3.681   2.010   5.964  0.1044  0.5698 -1.0272
 6821SOL     OW32095   0.225   1.674   7.667  0.1780  0.4440 -0.1812
 6821SOL    HW132096   0.312   1.650   7.635 -0.1907  0.6958 -1.3792
 6821SOL    HW232097   0.211   1.608   7.734  1.8606 -0.7842 -1.0296
 6822SOL     OW32098   1.159   0.925   7.138  0.6188 -0.2387 -0.0686
 6822SOL    HW132099   1.209   0.996   7.179 -0.5155 -0.6837  2.0576
 6822SOL    HW232100   1.143   0.870   7.215 -0.4338  0.1991  0.0209
 6823SOL     OW32101   3.094   1.017   6.713 -0.1483  0.3750 -0.6365
 6823SOL    HW132102   3.066   1.030   6.622  0.4344 -1.5781 -1.0945
 6823SOL    HW232103   3.048   1.081   6.766  0.5808 -0.3444  0.8441
 6824SOL     OW32104   2.071   0.733   5.256  0.6497 -0.3674 -0.1307
 6824SOL    HW132105   2.161   0.707   5.277  0.6988  1.8397  2.4487
 6824SOL    HW232106   2.084   0.818   5.213  2.1779 -0.3986  0.2673
 6825SOL     OW32107   2.408   1.911  16.316 -0.1195  0.4903 -0.5059
 6825SOL    HW132108   2.457   1.829  16.310 -0.8242  0.0603 -0.3617
 6825SOL    HW232109   2.476   1.978  16.330 -0.6088  0.2220  3.0041
 6826SOL     OW32110   1.668   4.020   0.567 -0.3443 -0.2522  0.3313
 6826SOL    HW132111   1.682   4.070   0.647 -2.7673  0.2720  0.4572
 6826SOL    HW232112   1.594   3.966   0.595 -2.6204  0.8787 -3.4951
 6827SOL     OW32113   4.677   0.690   8.269  0.4705  0.0110  0.0464
 6827SOL    HW132114   4.688   0.597   8.289 -0.5435  0.1334  1.2364
 6827SOL    HW232115   0.020   0.706   8.212  0.5334  0.2235  0.1875
 6828SOL     OW32116   1.380   0.512   4.796 -0.1377 -0.1247 -0.8172
 6828SOL    HW132117   1.290   0.544   4.794 -0.4483 -1.1170 -2.7431
 6828SOL    HW232118   1.420   0.576   4.737  0.2707 -1.2484 -1.7551
 6829SOL     OW32119   2.189   1.380   4.745 -0.0542  0.1666 -0.4807
 6829SOL    HW132120   2.099   1.367   4.775  0.5196 -1.9654  0.2962
 6829SOL    HW232121   2.216   1.448   4.807  1.1657 -0.6479 -0.1137
 6830SOL     OW32122   2.671   3.048  14.215  0.3400 -0.2210  0.3666
 6830SOL    HW132123   2.667   3.130  14.264  2.0738 -0.3664  0.7272
 6830SOL    HW232124   2.729   2.998  14.272  1.5348 -2.2112 -2.6384
 6831SOL     OW32125   2.584   3.150   7.408 -0.2301 -0.1909 -0.5071
 6831SOL    HW132126   2.603   3.240   7.382  1.3463 -0.2633  0.4130
 6831SOL    HW232127   2.489   3.148   7.421 -0.2221 -0.1954 -0.4510
 6832SOL     OW32128   3.755   4.172   9.344 -0.3559  0.0397  0.0042
 6832SOL    HW132129   3.725   4.263   9.341  1.4428  0.5800 -1.8011
 6832SOL    HW232130   3.709   4.136   9.420  2.2672  0.0716  1.6099
 6833SOL     OW32131   1.198   1.028   7.999  0.1676 -0.1408 -0.1559
 6833SOL    HW132132   1.133   0.961   7.978  0.7427 -0.2530 -1.5929
 6833SOL    HW232133   1.271   1.009   7.940  3.0143 -0.8770  3.6177
 6834SOL     OW32134   4.344   4.226   0.228 -0.0903 -0.6299  0.2316
 6834SOL    HW132135   4.260   4.255   0.264 -0.9633 -0.9166 -1.5766
 6834SOL    HW232136   4.399   4.262   0.297  1.6133  0.3513 -1.6436
 6835SOL     OW32137   4.052   0.857   2.278  0.5388 -0.2729  0.6067
 6835SOL    HW132138   4.078   0.936   2.326  0.2742 -0.1652  0.5697
 6835SOL    HW232139   4.060   0.881   2.186 -1.3111  1.7021  0.9673
 6836SOL     OW32140   0.355   1.014   7.091 -0.0780  0.2311  0.5402
 6836SOL    HW132141   0.313   0.942   7.043  0.3831 -0.8453  1.7515
 6836SOL    HW232142   0.448   1.019   7.067  0.0114 -0.6507  0.6738
 6837SOL     OW32143   3.635   1.196   8.611  0.3012  0.4222 -0.4029
 6837SOL    HW132144   3.573   1.195   8.684  1.0740  1.1916  0.2653
 6837SOL    HW232145   3.660   1.288   8.611  1.4544  0.1116  1.7183
 6838SOL     OW32146   0.296   2.804   9.325  0.0154 -0.2260  0.5978
 6838SOL    HW132147   0.374   2.751   9.340 -0.8173 -2.0008 -1.1829
 6838SOL    HW232148   0.241   2.749   9.381  1.1675 -1.8655  0.1283
 6839SOL     OW32149   3.014   1.161   4.627  0.0757  0.3237 -0.7515
 6839SOL    HW132150   2.997   1.223   4.699 -3.4525  0.2861 -1.5281
 6839SOL    HW232151   2.928   1.159   4.585  0.4662  0.4443 -1.5443
 6840SOL     OW32152   0.314   1.211   5.337  0.2822  0.6334  0.3189
 6840SOL    HW132153   0.283   1.158   5.411  0.1630  2.2428  1.4233
 6840SOL    HW232154   0.388   1.248   5.385  2.3090 -0.8842 -1.6461
 6841SOL     OW32155   3.445   1.969   5.617 -0.1914 -0.5552 -0.3978
 6841SOL    HW132156   3.465   1.968   5.524  3.2692  2.1496  0.3198
 6841SOL    HW232157   3.518   1.922   5.656  0.8141 -0.3971 -2.0850
 6842SOL     OW32158   0.836   2.458   8.127 -0.4196  0.1568 -0.1654
 6842SOL    HW132159   0.806   2.548   8.114  0.1162  0.4208  0.4539
 6842SOL    HW232160   0.823   2.417   8.041 -0.0340  0.6087 -0.4399
 6843SOL     OW32161   3.897   2.253   4.484  0.2471 -0.4497  0.3982
 6843SOL    HW132162   3.896   2.242   4.388 -3.7280  0.8316  0.3048
 6843SOL    HW232163   3.894   2.162   4.512 -1.4890  0.0686  1.8665
 6844SOL     OW32164   2.570   2.485   5.433  0.0921 -0.1220 -0.1507
 6844SOL    HW132165   2.662   2.464   5.446  0.9682  4.0349  0.2521
 6844SOL    HW232166   2.546   2.511   5.522  0.5453  0.6340 -0.2535
 6845SOL     OW32167   4.390   0.981   7.130 -0.0262  0.0749  0.0426
 6845SOL    HW132168   4.424   1.013   7.213  0.5702 -1.6518  0.4544
 6845SOL    HW232169   4.459   1.017   7.073 -0.3404  1.6954  0.6805
 6846SOL     OW32170   0.101   2.033   3.858 -0.0042  0.0241  0.3091
 6846SOL    HW132171   0.192   2.001   3.858 -0.1664 -0.4390  1.3428
 6846SOL    HW232172   0.113   2.126   3.873  2.0965 -0.1077 -0.5204
 6847SOL     OW32173   2.004   3.254   3.729 -0.1383 -0.5433  0.5146
 6847SOL    HW132174   1.981   3.341   3.762 -0.1563  0.6779 -2.6902
 6847SOL    HW232175   2.070   3.224   3.791 -2.1940 -0.0704  2.9274
 6848SOL     OW32176   1.357   1.254  13.205  0.0329  0.2561 -0.4798
 6848SOL    HW132177   1.375   1.348  13.198 -2.1647  0.8977  2.5430
 6848SOL    HW232178   1.426   1.213  13.153 -0.1840 -0.1356 -0.4593
 6849SOL     OW32179   3.562   0.580   8.039  0.3230 -0.3861  0.0219
 6849SOL    HW132180   3.503   0.636   8.089  1.8710  0.3535  1.0136
 6849SOL    HW232181   3.499   0.530   7.986 -0.7926  1.4412 -0.3613
 6850SOL     OW32182   4.479   3.403   1.718 -0.4502 -0.0649  0.2830
 6850SOL    HW132183   4.425   3.426   1.642  1.4815  2.0175 -0.4791
 6850SOL    HW232184   4.481   3.486   1.767  3.2798  0.0183 -0.0149
 6851SOL     OW32185   1.789   3.176   7.239 -0.0255  0.7258 -0.3049
 6851SOL    HW132186   1.883   3.163   7.223 -0.2695 -1.1541 -0.1444
 6851SOL    HW232187   1.756   3.182   7.149 -2.0136 -1.4145  0.2724
 6852SOL     OW32188   1.967   2.665   6.556 -0.1491 -0.3388 -0.4750
 6852SOL    HW132189   1.992   2.581   6.593 -0.3724 -0.7325 -1.2189
 6852SOL    HW232190   1.926   2.644   6.472 -0.3480  0.7919 -0.6671
 6853SOL     OW32191   0.090   3.881   4.100 -0.0381 -0.4444  0.3547
 6853SOL    HW132192   0.157   3.878   4.168  1.9930 -0.6782 -1.6768
 6853SOL    HW232193   0.087   3.790   4.071 -1.9896 -1.3055  3.2793
 6854SOL     OW32194   2.372   3.077  16.182 -0.2114  0.5340 -0.0893
 6854SOL    HW132195   2.421   3.117  16.110  1.1016 -1.1390 -0.1482
 6854SOL    HW232196   2.406   2.988  16.167  0.3418  0.9741 -1.3941
 6855SOL     OW32197   1.883   2.409  14.145 -0.0018 -0.5675 -0.0526
 6855SOL    HW132198   1.851   2.336  14.091  1.4826 -1.1577 -0.1161
 6855SOL    HW232199   1.908   2.480  14.085 -0.2124 -0.3315  0.1342
 6856SOL     OW32200   1.696   1.742   7.853 -0.0856 -0.1653 -0.6125
 6856SOL    HW132201   1.749   1.679   7.804  0.2379  1.5207 -2.4294
 6856SOL    HW232202   1.699   1.819   7.796 -1.6153  1.2570  1.2297
 6857SOL     OW32203   2.106   3.902   2.911 -0.3132 -0.3861  0.2952
 6857SOL    HW132204   2.155   3.947   2.842  0.5445 -0.4856  0.8374
 6857SOL    HW232205   2.024   3.873   2.871  0.2123  0.1848 -1.1776
 6858SOL     OW32206   2.661   4.233   7.308  0.2755  0.2001  0.2800
 6858SOL    HW132207   2.636   4.152   7.265 -2.3667  0.6459  0.9915
 6858SOL    HW232208   2.710   4.200   7.383  0.7455  0.7681  0.2259
 6859SOL     OW32209   1.174   3.390   8.541 -0.6519  0.1648 -0.1420
 6859SOL    HW132210   1.247   3.434   8.585 -0.5085 -0.7626  0.5601
 6859SOL    HW232211   1.196   3.297   8.549  0.0622  0.1594 -2.1480
 6860SOL     OW32212   1.940   0.997   0.422  0.4755  0.6919  0.0657
 6860SOL    HW132213   1.887   1.014   0.499  2.0022  2.0767  0.8048
 6860SOL    HW232214   2.016   0.949   0.457  0.6287  1.0132  0.1679
 6861SOL     OW32215   4.004   2.250  17.167  0.4320 -0.3478  0.2527
 6861SOL    HW132216   4.091   2.210  17.162  1.2293  1.5883 -1.1256
 6861SOL    HW232217   3.996   2.282  17.257 -0.3032 -1.4075  0.5605
 6862SOL     OW32218   4.562   4.439   6.105 -0.5021 -0.0558 -0.1005
 6862SOL    HW132219   4.655   4.446   6.085 -0.9059  1.5596 -1.4303
 6862SOL    HW232220   4.560   4.381   6.181 -1.9230 -0.5313 -0.4909
 6863SOL     OW32221   3.420   3.769   2.854 -0.0288 -0.3342 -0.1075
 6863SOL    HW132222   3.352   3.832   2.833  0.6194 -0.6850 -3.2622
 6863SOL    HW232223   3.406   3.708   2.781  0.0115  1.0251 -1.2429
 6864SOL     OW32224   4.463   1.454   2.243 -0.2257 -0.4632  0.4485
 6864SOL    HW132225   4.555   1.476   2.254 -0.2695 -0.1136  0.1182
 6864SOL    HW232226   4.454   1.508   2.164 -0.8315 -0.7693  0.3099
 6865SOL     OW32227   1.897   0.859   1.466 -0.1406 -0.0166  0.4026
 6865SOL    HW132228   1.846   0.796   1.416 -0.7304  1.5892 -1.0279
 6865SOL    HW232229   1.839   0.934   1.451 -0.8877 -1.1617 -2.2868
 6866SOL     OW32230   2.954   1.558   9.252  0.6922 -0.0590  0.3099
 6866SOL    HW132231   2.894   1.632   9.261 -0.2177 -0.9865  2.0408
 6866SOL    HW232232   3.013   1.606   9.195  0.3809 -0.7645 -0.6141
 6867SOL     OW32233   2.880   4.376   7.207  0.7053 -0.5499  0.4474
 6867SOL    HW132234   2.937   4.351   7.279  1.9601  0.1402 -0.2941
 6867SOL    HW232235   2.801   4.328   7.231 -0.6441  1.5059  0.1467
 6868SOL     OW32236   2.001   3.355   4.842  0.1085  0.5850  0.3619
 6868SOL    HW132237   2.054   3.389   4.914  1.4543 -0.7560  0.0077
 6868SOL    HW232238   1.912   3.389   4.847  0.1765  0.8345 -0.1241
 6869SOL     OW32239   0.469   0.291   6.509 -0.4647  0.7839  0.5770
 6869SOL    HW132240   0.497   0.250   6.591  1.4545  0.0207 -0.4631
 6869SOL    HW232241   0.543   0.334   6.467  0.1024 -0.9979 -0.2205
 6870SOL     OW32242   3.879   2.871   4.381  0.0319 -0.0757  0.1503
 6870SOL    HW132243   3.806   2.920   4.419  0.0543  1.3969 -1.7233
 6870SOL    HW232244   3.842   2.842   4.298 -0.9560  1.1181  0.1778
 6871SOL     OW32245   2.436   3.167   6.982  0.1857 -0.1127  0.6849
 6871SOL    HW132246   2.502   3.198   6.920  1.0315  1.1853  2.2102
 6871SOL    HW232247   2.476   3.082   7.001  1.0208  0.4302  1.3952
 6872SOL     OW32248   1.059   2.936   7.630  0.7291 -0.3008  0.1344
 6872SOL    HW132249   1.059   2.872   7.559 -1.7565 -0.8576  0.6269
 6872SOL    HW232250   1.010   2.888   7.697 -1.3963  0.7455 -0.6648
 6873SOL     OW32251   1.727   0.281   5.632  0.4718  0.5304  0.1445
 6873SOL    HW132252   1.784   0.206   5.612 -1.9700 -1.7309  1.6994
 6873SOL    HW232253   1.803   0.339   5.630 -1.3753  2.9013 -0.8216
 6874SOL     OW32254   4.522   1.280   4.344 -0.1806  0.3151  0.2807
 6874SOL    HW132255   4.440   1.311   4.308  0.6147  0.6003 -1.2756
 6874SOL    HW232256   4.501   1.216   4.412  0.0954 -2.2772 -2.0999
 6875SOL     OW32257   1.144   1.058  12.960  0.0310 -0.5434  0.0159
 6875SOL    HW132258   1.181   0.985  12.909  1.8043  0.1571  0.2975
 6875SOL    HW232259   1.051   1.043  12.945 -0.5049  1.5533  1.2035
 6876SOL     OW32260   1.833   2.386   4.147  0.0395  0.1140  0.2057
 6876SOL    HW132261   1.887   2.343   4.080 -0.1045  0.4914 -0.1545
 6876SOL    HW232262   1.810   2.309   4.197  1.5761  0.5898  1.6632
 6877SOL     OW32263   4.637   2.994   0.943  0.5926 -0.1903  0.4223
 6877SOL    HW132264   4.675   2.927   1.000 -0.8421  0.3264  1.9879
 6877SOL    HW232265   4.705   3.005   0.876 -0.1694  0.4676 -0.2429
 6878SOL     OW32266   4.378   2.307   5.249 -0.4165 -0.1545 -0.0109
 6878SOL    HW132267   4.296   2.355   5.237 -0.4413  0.0779  1.1197
 6878SOL    HW232268   4.357   2.234   5.191 -1.9073  1.2695 -1.2899
 6879SOL     OW32269   3.235   2.786   2.618  0.1804  0.3670  0.1591
 6879SOL    HW132270   3.157   2.795   2.672  0.4696  1.7392  0.3579
 6879SOL    HW232271   3.239   2.871   2.573 -1.3577  0.8226  0.9078
 6880SOL     OW32272   0.742   3.983   2.900 -0.1245  0.6732 -0.2393
 6880SOL    HW132273   0.659   4.031   2.897  0.2846  1.4967  1.3752
 6880SOL    HW232274   0.746   3.954   2.809 -0.6107  0.4623 -0.1928
 6881SOL     OW32275   1.656   2.528  12.739 -0.3618  0.1593 -0.4581
 6881SOL    HW132276   1.589   2.582  12.781  0.6214  0.7230  0.3964
 6881SOL    HW232277   1.740   2.570  12.760  0.2657 -0.9244 -0.8355
 6882SOL     OW32278   2.865   4.093   7.047  0.3450 -0.2542 -0.7340
 6882SOL    HW132279   2.772   4.096   7.067  0.6127  0.9183  0.3621
 6882SOL    HW232280   2.901   4.076   7.134 -1.4851  0.4292  0.1484
 6883SOL     OW32281   1.389   1.953   2.717 -0.0258 -0.4714 -0.0771
 6883SOL    HW132282   1.399   1.960   2.812  0.0527  0.0258 -0.1221
 6883SOL    HW232283   1.384   1.859   2.695  1.6143 -1.1887  2.5829
 6884SOL     OW32284   4.350   3.292   6.970 -0.0610  0.4570 -0.6001
 6884SOL    HW132285   4.381   3.246   7.048 -0.8717 -0.3527 -0.7566
 6884SOL    HW232286   4.268   3.328   7.004  0.4772  2.3225 -1.2830
 6885SOL     OW32287   1.164   0.305   2.380  0.6787 -0.0841 -1.1304
 6885SOL    HW132288   1.171   0.384   2.327  1.5416 -0.2911 -1.3166
 6885SOL    HW232289   1.069   0.291   2.374  1.0799 -3.0093 -0.6624
 6886SOL     OW32290   2.546   0.210   8.246 -0.4544 -0.5758 -0.3575
 6886SOL    HW132291   2.511   0.299   8.255 -0.0286 -0.4630  0.1693
 6886SOL    HW232292   2.619   0.215   8.307  0.6404  0.0294 -1.7119
 6887SOL     OW32293   3.741   1.786   3.587 -0.4140  0.1393  0.0199
 6887SOL    HW132294   3.815   1.794   3.647 -1.0476  1.5459  0.6294
 6887SOL    HW232295   3.669   1.802   3.648 -0.0328 -1.0264  0.7601
 6888SOL     OW32296   4.140   4.257   2.280 -0.2416 -0.0961  0.4083
 6888SOL    HW132297   4.154   4.351   2.280 -0.0072 -0.1290  0.2150
 6888SOL    HW232298   4.231   4.230   2.291 -0.4344  0.7129  3.7647
 6889SOL     OW32299   1.155   1.035  14.490  0.0706  0.1228  0.6207
 6889SOL    HW132300   1.088   1.072  14.432  1.6493  1.0357 -0.6035
 6889SOL    HW232301   1.229   1.034  14.430 -0.4440 -2.7786  0.0308
 6890SOL     OW32302   1.188   2.539   7.109 -0.1874 -0.2649 -0.0043
 6890SOL    HW132303   1.189   2.567   7.018  0.7759  0.0912  0.1187
 6890SOL    HW232304   1.162   2.620   7.153  2.1752 -0.7393  2.2803
 6891SOL     OW32305   0.207   2.291  17.067 -0.1554 -0.9220  0.4602
 6891SOL    HW132306   0.212   2.384  17.091  2.4909 -0.6703 -1.1018
 6891SOL    HW232307   0.143   2.295  16.996  2.4465  0.2211 -1.8166
 6892SOL     OW32308   3.409   1.097   5.095 -0.1664 -0.0796 -0.5008
 6892SOL    HW132309   3.379   1.070   5.182 -1.2919 -0.3866 -0.9804
 6892SOL    HW232310   3.323   1.120   5.061 -1.1053 -1.4362  0.9428
 6893SOL     OW32311   4.723   3.040   2.418 -1.2140 -0.3996  0.3231
 6893SOL    HW132312   0.039   2.958   2.428  0.0611  0.3510  0.2857
 6893SOL    HW232313   0.072   3.090   2.404 -1.1622 -0.2373  1.2392
 6894SOL     OW32314   3.892   2.679   8.533  0.2319 -0.4570 -0.4736
 6894SOL    HW132315   3.825   2.668   8.466  3.0413 -2.3467 -2.9966
 6894SOL    HW232316   3.886   2.593   8.576  0.0587  0.9201  2.2772
 6895SOL     OW32317   0.537   3.041   3.378  0.1987 -0.2233  0.9104
 6895SOL    HW132318   0.583   3.072   3.300  3.2909 -1.0556  2.3857
 6895SOL    HW232319   0.532   2.948   3.354 -0.5866  0.1566 -0.4043
 6896SOL     OW32320   1.542   0.067   8.804 -0.2866  0.3434 -0.0465
 6896SOL    HW132321   1.476   0.007   8.836 -0.6739  1.6246  1.5447
 6896SOL    HW232322   1.569   0.019   8.726 -0.7942  1.7601 -1.0991
 6897SOL     OW32323   4.217   4.058   1.536 -0.8218 -0.2065  0.3814
 6897SOL    HW132324   4.132   4.027   1.505  0.3663 -1.3039 -1.7282
 6897SOL    HW232325   4.211   4.038   1.630  0.3904 -0.8066  0.3357
 6898SOL     OW32326   1.075   2.369   5.441 -0.1109  0.4113  0.1915
 6898SOL    HW132327   0.994   2.318   5.445  0.2095 -0.0669  0.6076
 6898SOL    HW232328   1.134   2.329   5.506 -1.5144 -2.2716 -0.1892
 6899SOL     OW32329   0.017   0.151   4.448 -0.2087 -0.2138  0.2602
 6899SOL    HW132330   0.112   0.151   4.458 -0.3634 -0.8860  1.8038
 6899SOL    HW232331   0.005   0.073   4.393 -0.7828 -0.9478  1.4339
 6900SOL     OW32332   2.007   0.664  14.703 -0.2108 -0.6032  0.0999
 6900SOL    HW132333   2.012   0.718  14.782 -1.2432 -0.8405  0.3303
 6900SOL    HW232334   2.008   0.731  14.634  0.2902 -0.0325  0.6624
 6901SOL     OW32335   0.170   3.495   1.037  0.1184  0.3571 -0.0000
 6901SOL    HW132336   0.255   3.455   1.021 -0.6179 -0.6262 -1.5270
 6901SOL    HW232337   0.103   3.426   1.034  0.3822  0.0205  2.1051
 6902SOL     OW32338   2.191   2.499   7.723  0.1953  0.1721 -0.3848
 6902SOL    HW132339   2.109   2.464   7.688  2.4334 -3.2535 -2.1425
 6902SOL    HW232340   2.260   2.457   7.671  0.3768 -0.6031  0.4896
 6903SOL     OW32341   4.718   2.164  13.298 -0.0805 -0.2652 -0.0890
 6903SOL    HW132342   0.056   2.200  13.352 -2.0899  1.5320  1.3427
 6903SOL    HW232343   4.655   2.131  13.362 -0.8322 -1.7966 -1.6047
 6904SOL     OW32344   0.841   4.433   2.792 -0.2402  0.4851  0.6280
 6904SOL    HW132345   0.770   4.381   2.754 -1.0614  0.9164  1.5648
 6904SOL    HW232346   0.803   4.445   2.879 -0.8042 -0.5131  0.5191
 6905SOL     OW32347   0.838   1.267  12.353 -0.5801  0.3557  0.3736
 6905SOL    HW132348   0.831   1.307  12.440 -0.5533 -0.7699  0.8954
 6905SOL    HW232349   0.900   1.195  12.365 -1.2991 -0.1751  0.9078
 6906SOL     OW32350   4.444   1.248  11.480 -0.1987 -0.3186 -0.2406
 6906SOL    HW132351   4.469   1.317  11.419 -2.0255  0.1598 -0.4764
 6906SOL    HW232352   4.350   1.230  11.467 -0.2363 -0.2602 -0.0465
 6907SOL     OW32353   2.898   0.985   3.523 -0.0581  0.2408  0.0692
 6907SOL    HW132354   2.907   1.005   3.430 -0.2771  0.6119  0.1278
 6907SOL    HW232355   2.955   1.041   3.575 -0.6382  1.8469 -1.0107
 6908SOL     OW32356   4.152   4.717   2.644 -0.1784 -0.4715 -0.6370
 6908SOL    HW132357   4.134   4.631   2.682  0.5791  1.4121  4.0352
 6908SOL    HW232358   4.134   0.042   2.719  2.3316  0.1958 -0.5449
 6909SOL     OW32359   4.348   2.447   3.043 -0.4345  0.0207 -0.6001
 6909SOL    HW132360   4.418   2.385   3.062  1.3418  1.0799 -3.6706
 6909SOL    HW232361   4.284   2.409   3.103  0.5890  1.1674  1.2213
 6910SOL     OW32362   3.200   0.406   2.786  0.1235  0.5401 -0.6758
 6910SOL    HW132363   3.144   0.339   2.826 -0.0965  0.9746 -0.2674
 6910SOL    HW232364   3.217   0.466   2.858 -1.3925 -0.5882  0.6242
 6911SOL     OW32365   4.718   2.184  15.750 -0.0595  0.3928  0.1930
 6911SOL    HW132366   0.055   2.124  15.775  0.4042 -0.0802 -2.2447
 6911SOL    HW232367   4.643   2.125  15.742  2.0313 -2.3239  0.7897
 6912SOL     OW32368   0.180   2.285   7.162  0.1361 -0.3114 -0.4769
 6912SOL    HW132369   0.148   2.197   7.143 -1.8303  0.3427 -0.2880
 6912SOL    HW232370   0.249   2.263   7.224  1.0531  1.8279 -0.7362
 6913SOL     OW32371   1.954   3.305  13.022  0.0436 -0.1305  0.0192
 6913SOL    HW132372   1.983   3.384  13.068 -2.1097  0.1293  0.9446
 6913SOL    HW232373   1.944   3.355  12.941 -1.2403  0.2958  0.4310
 6914SOL     OW32374   0.220   3.941  14.139 -0.3771 -0.0842 -0.4128
 6914SOL    HW132375   0.200   3.867  14.196  1.2869  1.9905  2.9016
 6914SOL    HW232376   0.144   3.931  14.082 -0.8268  0.5505  0.0646
 6915SOL     OW32377   0.727   3.060   6.014 -0.3073 -0.0693  0.2416
 6915SOL    HW132378   0.656   3.071   6.078  0.8641 -2.5638  1.9806
 6915SOL    HW232379   0.804   3.059   6.071  0.4397  2.2850 -0.7134
 6916SOL     OW32380   1.850   0.849   9.133  0.8967 -0.1645 -0.4001
 6916SOL    HW132381   1.793   0.845   9.209  0.7938 -1.8888 -0.5768
 6916SOL    HW232382   1.870   0.943   9.129 -1.6256  0.3911 -0.1006
 6917SOL     OW32383   4.634   0.447  16.143 -0.1479 -0.4615  0.1439
 6917SOL    HW132384   4.691   0.496  16.084 -1.5189 -0.4364 -1.1348
 6917SOL    HW232385   4.560   0.427  16.086 -0.2409 -0.9371  0.4317
 6918SOL     OW32386   0.754   1.693   3.403 -0.2775 -0.9297 -0.1114
 6918SOL    HW132387   0.677   1.699   3.459  0.1195 -1.1750  0.4677
 6918SOL    HW232388   0.730   1.732   3.319  0.7136  0.9982  0.4895
 6919SOL     OW32389   0.498   1.808   1.695  0.2882 -0.1830 -0.1149
 6919SOL    HW132390   0.562   1.758   1.644 -0.0537 -0.4092 -0.3188
 6919SOL    HW232391   0.550   1.840   1.769 -0.1318  3.2763 -1.3451
 6920SOL     OW32392   1.141   3.450   6.635 -0.1341 -1.2416 -0.2118
 6920SOL    HW132393   1.137   3.364   6.679 -1.4679 -0.5703  1.0025
 6920SOL    HW232394   1.203   3.421   6.568  0.6689  3.3925 -1.4244
 6921SOL     OW32395   1.670   0.926   5.710 -0.3813  0.4203  0.2421
 6921SOL    HW132396   1.579   0.898   5.703 -0.6207  0.8309  1.7066
 6921SOL    HW232397   1.714   0.844   5.732 -0.3411  0.1664 -0.8058
 6922SOL     OW32398   2.252   2.488   3.320  0.1549 -0.1402 -0.6782
 6922SOL    HW132399   2.158   2.492   3.298  0.3462 -1.0794 -1.7086
 6922SOL    HW232400   2.275   2.425   3.251 -2.6533 -0.5638 -1.2352
 6923SOL     OW32401   0.011   4.729   6.514 -0.1888  0.1016 -0.6071
 6923SOL    HW132402   0.029   4.701   6.604 -0.0446  1.4967 -0.2055
 6923SOL    HW232403   4.702   4.648   6.484  1.1522 -0.5766 -0.6393
 6924SOL     OW32404   0.708   4.010   7.379  0.2588  0.5683 -0.0972
 6924SOL    HW132405   0.643   3.945   7.405  1.1954 -0.1143  0.5392
 6924SOL    HW232406   0.719   3.996   7.285  0.0480  0.8424 -0.1627
 6925SOL     OW32407   0.188   1.639   8.123  0.3066  0.4366 -0.3229
 6925SOL    HW132408   0.126   1.711   8.122  0.3622  0.4704 -1.1935
 6925SOL    HW232409   0.140   1.573   8.174  3.3000 -1.6516 -0.1730
 6926SOL     OW32410   2.916   4.125   9.646  0.0401  0.5351  0.2041
 6926SOL    HW132411   2.973   4.133   9.569  1.5674  3.0893  1.6147
 6926SOL    HW232412   2.974   4.100   9.718 -0.4872 -1.0351  0.0870
 6927SOL     OW32413   3.312   3.464   7.568  0.2159 -0.4618 -0.3400
 6927SOL    HW132414   3.324   3.470   7.663 -2.1927  2.0484 -0.1842
 6927SOL    HW232415   3.389   3.516   7.548  0.1776 -0.0725  0.5015
 6928SOL     OW32416   3.190   4.121  17.645  0.4980 -0.3411 -0.0844
 6928SOL    HW132417   3.205   4.041  17.595 -0.8987 -0.3595 -0.4714
 6928SOL    HW232418   3.266   4.114  17.703 -0.9462 -0.7545  1.7270
 6929SOL     OW32419   4.214   0.804   5.094  0.3912 -0.3972  0.3037
 6929SOL    HW132420   4.233   0.717   5.058  2.4492  0.3801 -0.4575
 6929SOL    HW232421   4.235   0.865   5.025  0.8838 -0.3838  0.4686
 6930SOL     OW32422   4.269   0.242   2.673  0.0155 -0.1876 -0.5567
 6930SOL    HW132423   4.221   0.303   2.617 -0.9132 -0.2448  0.1708
 6930SOL    HW232424   4.256   0.157   2.631  1.7601 -1.1751  0.9299
 6931SOL     OW32425   4.057   3.085   5.954 -0.2167  0.1682 -0.7007
 6931SOL    HW132426   4.004   3.152   5.910 -1.6114 -0.8073 -0.5028
 6931SOL    HW232427   4.049   3.109   6.046  1.2935 -0.0096 -0.5242
 6932SOL     OW32428   2.517   1.298   3.785  0.0514  0.3186 -0.0331
 6932SOL    HW132429   2.516   1.212   3.742 -0.2738  0.1798  0.2481
 6932SOL    HW232430   2.604   1.293   3.825  0.4672 -0.5255 -1.0461
 6933SOL     OW32431   0.950   4.731   7.034  0.3523  0.3272  0.2148
 6933SOL    HW132432   0.927   4.656   7.087 -2.4641  1.5480  0.7189
 6933SOL    HW232433   1.044   4.723   7.019  0.5318  2.9953 -0.1749
 6934SOL     OW32434   3.599   3.717   7.992 -0.1357 -0.0300 -0.5995
 6934SOL    HW132435   3.650   3.782   8.041 -0.9688 -0.4455  0.8241
 6934SOL    HW232436   3.535   3.688   8.058  2.5526 -0.9941  1.5852
 6935SOL     OW32437   1.931   2.504  12.880  0.4371  0.4546 -0.2350
 6935SOL    HW132438   1.987   2.495  12.957 -1.4673  0.0276  1.1197
 6935SOL    HW232439   1.913   2.598  12.881 -0.3544  0.3176 -1.0702
 6936SOL     OW32440   4.113   2.294   3.512  0.1617 -0.2414 -0.2312
 6936SOL    HW132441   4.072   2.358   3.570  1.6680  0.0773  0.4924
 6936SOL    HW232442   4.197   2.278   3.556  0.2972  0.4717 -0.2315
 6937SOL     OW32443   2.482   3.160  15.955 -0.6518  0.0432  0.3700
 6937SOL    HW132444   2.455   3.104  15.883 -0.8956  1.3222 -0.5414
 6937SOL    HW232445   2.502   3.245  15.915  1.6555  0.1220  1.6839
 6938SOL     OW32446   3.359   1.707  15.000  0.3474  0.2230 -0.5548
 6938SOL    HW132447   3.340   1.789  14.955  2.4452  0.5277 -0.8714
 6938SOL    HW232448   3.360   1.738  15.091 -2.4865  0.7646 -0.7079
 6939SOL     OW32449   4.374   1.824  13.533 -0.5412 -0.0159 -0.8519
 6939SOL    HW132450   4.444   1.806  13.470  1.8554 -1.5896  2.2560
 6939SOL    HW232451   4.356   1.915  13.508  0.4008  0.2165 -0.6720
 6940SOL     OW32452   3.745   4.204   8.835  0.1501  0.2683 -0.6715
 6940SOL    HW132453   3.700   4.129   8.797 -0.6537 -0.0753  0.9480
 6940SOL    HW232454   3.689   4.275   8.806 -0.1587 -0.0680 -0.8908
 6941SOL     OW32455   4.312   1.353   2.611  0.2920  0.2935  0.4470
 6941SOL    HW132456   4.260   1.340   2.690  1.5205 -2.8709  0.7473
 6941SOL    HW232457   4.275   1.417   2.550  0.1791  0.0211  0.2299
 6942SOL     OW32458   2.763   0.951   5.004 -0.2014 -0.6124 -0.1346
 6942SOL    HW132459   2.776   0.915   4.916  2.2024 -0.7462  0.2915
 6942SOL    HW232460   2.841   0.922   5.051 -1.6496 -0.8203  2.1902
 6943SOL     OW32461   3.343   4.708   6.137 -0.4861 -0.2520 -0.1487
 6943SOL    HW132462   3.429   4.708   6.094 -1.3747 -0.2019 -1.9074
 6943SOL    HW232463   3.336   4.617   6.166 -0.4165 -0.8758 -2.0649
 6944SOL     OW32464   0.586   2.397   4.266  0.7015  0.6750  0.6084
 6944SOL    HW132465   0.495   2.425   4.251  0.2476 -0.3842  1.4390
 6944SOL    HW232466   0.593   2.409   4.360 -0.3256 -0.2303  0.8042
 6945SOL     OW32467   1.154   1.635   5.994 -0.7746 -0.1778 -0.3875
 6945SOL    HW132468   1.150   1.568   6.062 -2.6019 -1.2495 -1.5406
 6945SOL    HW232469   1.143   1.586   5.912 -1.1691  1.8871 -1.5615
 6946SOL     OW32470   0.359   1.482   6.564  0.1579 -0.3003 -0.4466
 6946SOL    HW132471   0.429   1.463   6.627  0.2433  2.2845  0.2112
 6946SOL    HW232472   0.361   1.392   6.530  0.4166 -0.7045  0.6276
 6947SOL     OW32473   1.143   4.592   4.396  0.3698 -0.2754 -0.0236
 6947SOL    HW132474   1.200   4.530   4.351 -0.0029  0.4532 -1.5240
 6947SOL    HW232475   1.062   4.593   4.344 -0.1685 -1.1807  0.8051
 6948SOL     OW32476   1.520   0.349  14.125  0.1977 -0.4310 -0.2343
 6948SOL    HW132477   1.576   0.285  14.171 -0.2562  0.5748  1.7332
 6948SOL    HW232478   1.462   0.383  14.193  1.4316  0.1023  0.5491
 6949SOL     OW32479   1.948   1.146   8.601 -0.1087  0.1768  0.5438
 6949SOL    HW132480   1.962   1.075   8.664  0.7013  1.2931  1.6380
 6949SOL    HW232481   1.872   1.195   8.633  1.3916  1.8569  1.5768
 6950SOL     OW32482   0.610   0.990   0.475 -0.4734  0.0134  0.0613
 6950SOL    HW132483   0.687   0.933   0.480  0.7760  1.4688 -2.5438
 6950SOL    HW232484   0.540   0.925   0.481 -2.1952  1.8892  0.3373
 6951SOL     OW32485   3.106   3.497   5.913 -0.4633  0.4615 -0.3044
 6951SOL    HW132486   3.181   3.441   5.932  2.7954  4.0784 -2.4676
 6951SOL    HW232487   3.140   3.582   5.940  2.7911 -1.3245  1.1915
 6952SOL     OW32488   2.333   3.956  16.708 -0.5978  0.9119 -0.1290
 6952SOL    HW132489   2.241   3.971  16.689 -1.4447 -3.6423  0.4199
 6952SOL    HW232490   2.339   3.921  16.797  0.2638  2.1300  0.2936
 6953SOL     OW32491   0.321   0.937   0.289 -0.2336 -0.2058 -0.0105
 6953SOL    HW132492   0.237   0.981   0.299 -1.7084 -2.2206 -3.6520
 6953SOL    HW232493   0.328   0.865   0.352 -1.2675 -0.4006 -0.1249
 6954SOL     OW32494   0.887   4.317   5.385  0.1572 -0.5559 -0.0052
 6954SOL    HW132495   0.970   4.338   5.342  0.6601 -1.3120  0.5914
 6954SOL    HW232496   0.858   4.242   5.334 -1.9475 -1.3122  2.3038
 6955SOL     OW32497   2.675   1.909   7.346 -0.4824  0.1895 -0.2086
 6955SOL    HW132498   2.606   1.939   7.287 -1.0448  0.4338  0.5627
 6955SOL    HW232499   2.631   1.845   7.402 -1.4798  1.9115  0.9722
 6956SOL     OW32500   4.063   2.840   8.995 -0.9658 -0.4074  0.2573
 6956SOL    HW132501   4.147   2.814   8.957 -1.8118  0.0732 -1.9379
 6956SOL    HW232502   4.090   2.886   9.075 -2.5565  0.2643  0.4068
 6957SOL     OW32503   1.480   0.809   2.649 -0.5193 -0.0025 -0.2137
 6957SOL    HW132504   1.555   0.799   2.708  1.9672 -0.8546 -3.4993
 6957SOL    HW232505   1.403   0.815   2.706  1.2795  0.1051  2.2414
 6958SOL     OW32506   3.023   1.038   5.831  0.5070  0.5699  0.3072
 6958SOL    HW132507   3.053   0.949   5.849 -1.6457 -0.3683 -0.7199
 6958SOL    HW232508   3.024   1.077   5.918  0.5758 -0.2322  0.6548
 6959SOL     OW32509   3.627   1.351   5.565 -0.3591 -0.5461 -0.3083
 6959SOL    HW132510   3.682   1.278   5.594 -0.3206  0.0476  1.1068
 6959SOL    HW232511   3.584   1.310   5.490 -1.4668 -1.6126  0.9112
 6960SOL     OW32512   4.434   0.042   7.583 -0.3437 -0.4912 -0.6966
 6960SOL    HW132513   4.438   0.026   7.489  0.6980 -1.1144 -0.5455
 6960SOL    HW232514   4.358   0.100   7.593  1.1820  1.1784  1.1107
 6961SOL     OW32515   4.696   2.679   6.459  0.9537  0.4493  0.7900
 6961SOL    HW132516   4.683   2.742   6.388  0.6668  0.0231  0.4621
 6961SOL    HW232517   4.679   2.598   6.410 -2.0518  1.3120  0.3791
 6962SOL     OW32518   1.503   4.221   6.586 -1.0019 -0.4921 -0.1953
 6962SOL    HW132519   1.470   4.304   6.620  0.2431  0.2075 -0.6882
 6962SOL    HW232520   1.553   4.256   6.513 -1.7511 -0.2244 -0.5798
 6963SOL     OW32521   3.712   2.029   4.872 -0.5444 -0.1370  0.0118
 6963SOL    HW132522   3.623   2.058   4.851 -0.4334  1.4691  1.7545
 6963SOL    HW232523   3.750   2.032   4.784 -1.9978  0.0435 -0.6175
 6964SOL     OW32524   4.531   2.346   4.499  0.3305 -0.8879 -0.4272
 6964SOL    HW132525   4.463   2.380   4.556 -1.1165  0.0360 -2.7187
 6964SOL    HW232526   4.580   2.426   4.482 -1.2369  0.1488 -0.0381
 6965SOL     OW32527   3.879   2.057  17.545  0.3208 -0.1780 -0.3591
 6965SOL    HW132528   3.863   2.150  17.531  0.4434 -0.8281 -4.8232
 6965SOL    HW232529   3.835   2.020  17.468 -0.0771  2.1289 -1.2433
 6966SOL     OW32530   3.658   2.761  12.359 -0.4583 -0.1423 -0.0906
 6966SOL    HW132531   3.566   2.734  12.361 -0.5304 -0.0759 -2.9585
 6966SOL    HW232532   3.697   2.713  12.432 -0.2466  2.7066  1.6492
 6967SOL     OW32533   0.909   2.897   3.337  0.3738  0.1667  0.2087
 6967SOL    HW132534   0.883   2.812   3.300 -1.4770  0.8197  0.0145
 6967SOL    HW232535   0.824   2.938   3.321 -0.0361 -0.4836  0.7286
 6968SOL     OW32536   3.443   3.629  14.681 -0.7172  0.5091  0.1849
 6968SOL    HW132537   3.406   3.550  14.642 -0.4107 -0.2055  1.3245
 6968SOL    HW232538   3.532   3.599  14.699 -1.4063  0.3458  3.3782
 6969SOL     OW32539   1.343   3.263  13.751 -0.5330  0.6203 -0.2152
 6969SOL    HW132540   1.285   3.337  13.771 -0.3756  0.8933 -0.7491
 6969SOL    HW232541   1.422   3.300  13.790 -1.3833  1.6506  0.5547
 6970SOL     OW32542   1.344   3.308   6.995  0.0663  0.4937 -0.6124
 6970SOL    HW132543   1.408   3.351   7.052 -2.7443  0.1691  2.7629
 6970SOL    HW232544   1.407   3.285   6.926 -1.7286 -0.2894 -2.0079
 6971SOL     OW32545   3.264   1.064  16.373  0.2200 -0.0358  0.0254
 6971SOL    HW132546   3.282   1.111  16.454 -1.7272  0.2623  0.2810
 6971SOL    HW232547   3.294   0.977  16.400 -0.3114 -0.0207  0.6624
 6972SOL     OW32548   4.478   0.626  16.711  0.5499 -0.0725 -0.4268
 6972SOL    HW132549   4.389   0.592  16.700  0.3182 -0.0698  1.3932
 6972SOL    HW232550   4.485   0.677  16.630  1.0425 -2.1840 -1.7207
 6973SOL     OW32551   2.009   2.029  13.988  0.8596  0.5351 -0.9420
 6973SOL    HW132552   1.983   2.121  13.988  1.1027  0.6027 -1.5506
 6973SOL    HW232553   2.013   2.009  13.895 -0.8492  0.9944 -1.1097
 6974SOL     OW32554   4.451   0.161   3.506 -0.2064  0.7418  0.2086
 6974SOL    HW132555   4.500   0.156   3.588 -2.0150 -0.7316  1.1604
 6974SOL    HW232556   4.371   0.206   3.533 -0.7073  0.7018 -1.2064
 6975SOL     OW32557   0.450   0.999   1.417 -0.6342  0.8957  0.3138
 6975SOL    HW132558   0.480   0.977   1.505 -1.1778  0.3092  0.3567
 6975SOL    HW232559   0.371   0.945   1.419 -0.3175  0.4055 -0.1913
 6976SOL     OW32560   3.464   2.105   8.663  0.0802  0.2781  0.0223
 6976SOL    HW132561   3.489   2.092   8.755  2.8849 -3.6041 -1.2864
 6976SOL    HW232562   3.504   2.030   8.619 -1.4188 -0.8574  0.5725
 6977SOL     OW32563   3.588   3.524   1.998 -0.2906 -0.2118  0.2234
 6977SOL    HW132564   3.542   3.452   2.043  0.0619  0.5262  1.7391
 6977SOL    HW232565   3.538   3.525   1.916 -0.7178  0.8062  0.5014
 6978SOL     OW32566   3.401   1.116   6.231 -0.2829  0.0254  0.5626
 6978SOL    HW132567   3.358   1.091   6.150  0.4781 -1.6235  0.6664
 6978SOL    HW232568   3.461   1.186   6.202 -1.0659  0.2308 -0.5449
 6979SOL     OW32569   2.561   2.711   7.296 -0.5328 -0.2721  0.5568
 6979SOL    HW132570   2.624   2.748   7.358  1.7322 -1.7422 -0.8811
 6979SOL    HW232571   2.528   2.798   7.275  1.7214  1.0159  2.3430
 6980SOL     OW32572   0.354   0.409  15.816 -0.2784 -0.2746  0.0823
 6980SOL    HW132573   0.295   0.342  15.782 -0.4440 -0.9375  1.7043
 6980SOL    HW232574   0.426   0.389  15.756  0.1604 -1.0670  0.8786
 6981SOL     OW32575   1.268   1.078   5.653 -0.3495  0.2393 -0.7315
 6981SOL    HW132576   1.207   1.010   5.624 -0.9635  0.5000 -0.0406
 6981SOL    HW232577   1.333   1.032   5.708 -1.9795 -0.1578  0.8655
 6982SOL     OW32578   2.345   2.136   6.673 -0.0512 -0.9139  0.7672
 6982SOL    HW132579   2.373   2.227   6.668 -0.5501 -0.9107 -2.4437
 6982SOL    HW232580   2.388   2.108   6.754 -0.8780 -1.5679  0.9800
 6983SOL     OW32581   1.415   2.950   5.963  0.3863 -0.0032 -0.7217
 6983SOL    HW132582   1.378   2.980   5.880  0.0178  0.5607 -0.3524
 6983SOL    HW232583   1.465   2.871   5.943  1.2445  0.2166  0.5675
 6984SOL     OW32584   3.462   0.384   3.262  0.3275  0.0574  0.3909
 6984SOL    HW132585   3.486   0.445   3.332 -0.9163  0.0404  0.8284
 6984SOL    HW232586   3.472   0.303   3.313  0.3084  0.6559  1.3534
 6985SOL     OW32587   2.730   4.634   1.728 -0.6333  0.1822  0.6677
 6985SOL    HW132588   2.810   4.587   1.706 -1.5145 -0.9940 -0.0220
 6985SOL    HW232589   2.692   4.654   1.643  1.5359 -1.9257 -0.7960
 6986SOL     OW32590   1.138   4.156   5.233  0.4464 -0.0899  0.3061
 6986SOL    HW132591   1.125   4.219   5.162  1.9335  0.6872  0.7146
 6986SOL    HW232592   1.058   4.106   5.218 -1.0154  1.5861  2.4706
 6987SOL     OW32593   3.140   3.770   6.936 -0.2157 -0.2659  0.2454
 6987SOL    HW132594   3.177   3.694   6.891  0.1246  1.0794 -1.7292
 6987SOL    HW232595   3.097   3.824   6.869  1.5399  2.0714  0.9996
 6988SOL     OW32596   1.012   0.358   4.491  0.0500  0.0529 -0.1395
 6988SOL    HW132597   1.104   0.378   4.511  0.8886 -3.1256 -0.9012
 6988SOL    HW232598   0.963   0.351   4.573 -2.7136  0.4965 -1.7971
 6989SOL     OW32599   3.124   2.207  16.477  0.3978  0.3303 -0.2349
 6989SOL    HW132600   3.206   2.196  16.430 -0.3513  0.5755 -1.5926
 6989SOL    HW232601   3.117   2.302  16.472 -1.8920  0.2426  1.2391
 6990SOL     OW32602   3.830   3.812   2.578  0.0688  0.3298 -0.3887
 6990SOL    HW132603   3.830   3.731   2.627 -3.0767  0.1754 -0.6335
 6990SOL    HW232604   3.752   3.857   2.611  1.7050  2.1716  1.0073
 6991SOL     OW32605   1.536   2.022   8.091 -0.6082 -0.1881  0.4707
 6991SOL    HW132606   1.628   2.030   8.119 -0.3750  0.1504 -0.3851
 6991SOL    HW232607   1.532   1.932   8.059  1.4473 -0.5089  1.0873
 6992SOL     OW32608   2.126   4.027   3.813  0.5029 -0.4804 -0.2439
 6992SOL    HW132609   2.188   3.978   3.868 -0.2493 -2.1624 -0.8951
 6992SOL    HW232610   2.102   4.084   3.886  1.2925  1.7832 -1.7696
 6993SOL     OW32611   2.977   4.625   4.103  0.0202 -0.1654 -0.1903
 6993SOL    HW132612   3.059   4.597   4.063  1.0408  2.4273  0.0653
 6993SOL    HW232613   2.939   4.538   4.112  1.3093 -0.4860  2.1830
 6994SOL     OW32614   0.984   2.724   6.057  0.0358 -0.1916 -0.3838
 6994SOL    HW132615   0.963   2.662   5.987 -0.2831  1.4223 -1.7147
 6994SOL    HW232616   0.929   2.682   6.123  0.3624 -0.5969 -0.3684
 6995SOL     OW32617   4.420   4.446   1.640 -0.1778  0.2003 -0.0490
 6995SOL    HW132618   4.391   4.474   1.727  1.1282 -0.4309  0.5855
 6995SOL    HW232619   4.435   4.352   1.650  1.1271  0.2732 -1.3900
 6996SOL     OW32620   3.149   2.090   4.110 -0.4925  0.1052  0.2936
 6996SOL    HW132621   3.157   2.185   4.119  3.6087 -0.2110 -0.0890
 6996SOL    HW232622   3.063   2.085   4.067 -0.1543  0.1303 -0.3887
 6997SOL     OW32623   1.088   0.537   8.285 -0.1314 -0.4581 -0.3359
 6997SOL    HW132624   1.059   0.628   8.273 -1.6327 -1.0370 -1.0791
 6997SOL    HW232625   1.182   0.537   8.268 -0.2168 -1.1922 -0.8363
 6998SOL     OW32626   4.009   0.533   3.562 -0.3892  0.7089 -0.0595
 6998SOL    HW132627   4.074   0.529   3.493 -0.3445  0.1173  0.0161
 6998SOL    HW232628   3.933   0.491   3.522 -0.9370  2.3620 -0.7485
 6999SOL     OW32629   2.266   0.434   2.226 -0.0086  0.0944 -0.0925
 6999SOL    HW132630   2.299   0.355   2.183  1.6632  1.4890 -1.3557
 6999SOL    HW232631   2.311   0.501   2.175 -0.0770  0.6326  0.5502
 7000SOL     OW32632   0.276   3.577   3.427 -0.5040 -0.5825 -0.8368
 7000SOL    HW132633   0.352   3.518   3.422  0.9367  0.9782  3.0494
 7000SOL    HW232634   0.238   3.533   3.502 -1.3645  0.9099 -0.4094
 7001SOL     OW32635   4.120   0.962   1.687 -0.3403  0.0975  0.3727
 7001SOL    HW132636   4.083   1.035   1.738  1.7694  1.9606 -0.7480
 7001SOL    HW232637   4.037   0.940   1.644 -0.9400 -1.3188  2.2649
 7002SOL     OW32638   2.754   4.560   6.770 -0.1509  0.2697 -0.3636
 7002SOL    HW132639   2.756   4.563   6.866  0.4250  1.1985 -0.4055
 7002SOL    HW232640   2.717   4.645   6.747 -0.2049  0.8426  1.8577
 7003SOL     OW32641   1.343   2.181  11.748  0.5367  0.3388  0.5658
 7003SOL    HW132642   1.335   2.166  11.653  1.1415 -0.3555  0.6250
 7003SOL    HW232643   1.413   2.117  11.759 -1.4369 -1.7798  0.7546
 7004SOL     OW32644   3.319   1.143   3.729  0.0926  0.4092  0.1048
 7004SOL    HW132645   3.403   1.188   3.731 -0.6728  1.8200  0.4553
 7004SOL    HW232646   3.351   1.055   3.707 -3.1435 -0.8227  0.2577
 7005SOL     OW32647   2.588   0.649   0.563 -0.0409  0.1634 -0.4008
 7005SOL    HW132648   2.676   0.628   0.594 -0.6545  2.2809  2.7746
 7005SOL    HW232649   2.568   0.557   0.549 -2.5275  0.5563  0.7204
 7006SOL     OW32650   1.818   2.228  13.968 -0.3429 -0.0868  0.3983
 7006SOL    HW132651   1.762   2.278  13.909  0.7342  1.5516  0.7392
 7006SOL    HW232652   1.786   2.139  13.957  1.1181 -0.4726 -0.7120
 7007SOL     OW32653   4.618   1.605   7.709 -0.4192 -0.1773  0.2671
 7007SOL    HW132654   4.708   1.584   7.733  0.2498  2.5170  0.0795
 7007SOL    HW232655   4.637   1.638   7.621  1.7083 -0.0532  0.7653
 7008SOL     OW32656   2.585   1.477  16.095 -0.5052  0.0713 -0.4421
 7008SOL    HW132657   2.634   1.412  16.146  0.1250  2.4275  1.9658
 7008SOL    HW232658   2.606   1.460  16.003  1.3242  0.5356 -0.1098
 7009SOL     OW32659   1.259   4.390   7.884  0.1003  0.3530 -0.2429
 7009SOL    HW132660   1.275   4.484   7.894 -0.4298  0.4764 -0.5359
 7009SOL    HW232661   1.326   4.362   7.822  1.9373 -1.0729  2.4147
 7010SOL     OW32662   4.474   3.302  11.420  0.1048  0.0915 -0.1788
 7010SOL    HW132663   4.451   3.209  11.417  1.1324 -0.1526 -0.4806
 7010SOL    HW232664   4.455   3.327  11.511  0.3195  0.4980 -0.2443
 7011SOL     OW32665   3.837   1.645   9.083 -0.1145  0.1649 -0.2546
 7011SOL    HW132666   3.795   1.559   9.082 -0.7101  0.4678 -1.2042
 7011SOL    HW232667   3.906   1.635   9.149 -0.9235 -1.6975  0.3064
 7012SOL     OW32668   0.962   2.270   4.801 -0.5881  0.0433 -0.5312
 7012SOL    HW132669   0.996   2.190   4.840 -2.2303  0.5947  2.0012
 7012SOL    HW232670   1.044   2.300   4.761 -0.0706  0.8199  1.1314
 7013SOL     OW32671   3.390   4.169  10.933  0.2823  0.0010 -0.3962
 7013SOL    HW132672   3.355   4.254  10.907 -0.6094 -0.6595 -1.3573
 7013SOL    HW232673   3.359   4.116  10.859  0.6545  0.2352 -0.7237
 7014SOL     OW32674   3.060   1.344   2.770  0.3823 -0.2118 -0.2236
 7014SOL    HW132675   3.126   1.275   2.767  0.2761 -0.2388 -2.1186
 7014SOL    HW232676   2.996   1.313   2.834 -3.0649  3.0414 -2.1128
 7015SOL     OW32677   3.798   2.071  15.324 -0.2345 -0.4399  0.2734
 7015SOL    HW132678   3.809   1.990  15.374  0.3336  1.7086  3.6259
 7015SOL    HW232679   3.852   2.131  15.374 -1.4355 -0.0867  1.1488
 7016SOL     OW32680   4.608   1.101   5.908  0.3097 -0.1117 -0.1552
 7016SOL    HW132681   4.527   1.149   5.893 -1.2121 -2.4686  0.4415
 7016SOL    HW232682   4.590   1.037   5.839  0.0559 -1.7569  1.4383
 7017SOL     OW32683   4.314   0.761  17.601 -0.1459 -0.0274 -0.1886
 7017SOL    HW132684   4.240   0.723  17.555 -0.3387 -0.9726  0.9201
 7017SOL    HW232685   4.315   0.851  17.566  0.4666 -0.0911 -0.3459
 7018SOL     OW32686   2.176   2.414   4.189  0.1549 -0.6349  0.4829
 7018SOL    HW132687   2.206   2.352   4.255 -0.8090 -0.7915  0.7614
 7018SOL    HW232688   2.115   2.468   4.238  0.2657 -0.1616  0.1018
 7019SOL     OW32689   3.920   3.994   3.244  0.0516  0.4847  0.2960
 7019SOL    HW132690   4.002   3.949   3.266 -0.4504 -0.3433  0.4593
 7019SOL    HW232691   3.852   3.927   3.246  0.9757 -0.5079 -0.9291
 7020SOL     OW32692   3.811   1.993   9.492  0.1051 -0.0994 -1.1961
 7020SOL    HW132693   3.757   2.072   9.489  2.8223  1.7487 -0.8476
 7020SOL    HW232694   3.761   1.935   9.550  0.5349  0.4489 -0.2821
 7021SOL     OW32695   4.268   0.009   6.985 -0.0980  0.3981 -0.5696
 7021SOL    HW132696   4.227   0.096   6.983  1.7462  1.2574 -1.9545
 7021SOL    HW232697   4.283   0.009   7.079  1.0221 -2.1082 -0.7707
 7022SOL     OW32698   0.875   3.077  10.280  0.1385  0.0677 -0.0391
 7022SOL    HW132699   0.807   3.060  10.345 -0.1824 -3.4378 -1.2600
 7022SOL    HW232700   0.904   3.166  10.300  1.0434 -0.9553  3.1861
 7023SOL     OW32701   2.289   1.398   4.506 -0.3299 -0.3383  0.6371
 7023SOL    HW132702   2.218   1.448   4.465  0.4574  1.1550  1.1075
 7023SOL    HW232703   2.256   1.409   4.595  1.1184  1.0390  0.9933
 7024SOL     OW32704   3.665   2.291   3.988  0.0350  0.1254  0.3972
 7024SOL    HW132705   3.651   2.197   3.992  2.0021 -0.2057 -0.1389
 7024SOL    HW232706   3.584   2.317   4.031  0.2543  0.1283  0.8049
 7025SOL     OW32707   2.523   0.288   3.679  0.5726 -0.0849 -0.4373
 7025SOL    HW132708   2.568   0.272   3.761 -0.3596  1.3008  0.3466
 7025SOL    HW232709   2.458   0.219   3.694  0.5644 -0.0692 -0.4008
 7026SOL     OW32710   3.067   3.088   5.339  0.1613  0.2071 -0.0232
 7026SOL    HW132711   3.137   3.039   5.383  1.0191  1.3452 -0.1255
 7026SOL    HW232712   3.124   3.149   5.294  1.7321  0.0790  1.7785
 7027SOL     OW32713   0.172   0.945   4.464 -0.2683 -0.5581  0.1445
 7027SOL    HW132714   0.226   0.879   4.508  1.0453  0.5206  0.1420
 7027SOL    HW232715   0.122   0.971   4.542 -2.8968  1.7100 -2.2869
 7028SOL     OW32716   2.498   4.080   3.164 -0.0542  0.6565  0.1703
 7028SOL    HW132717   2.409   4.069   3.130  0.9573 -0.0721 -2.2205
 7028SOL    HW232718   2.497   3.999   3.215 -0.4113 -0.7330 -2.0524
 7029SOL     OW32719   1.504   3.640   6.229 -0.2106 -0.2994 -0.0525
 7029SOL    HW132720   1.527   3.571   6.167  0.0143  0.3250 -0.6588
 7029SOL    HW232721   1.455   3.702   6.175  0.6045  0.1883 -0.2339
 7030SOL     OW32722   2.888   2.690  12.863 -0.3255 -0.5152 -0.5152
 7030SOL    HW132723   2.827   2.760  12.885 -1.7600 -1.8349 -0.3257
 7030SOL    HW232724   2.879   2.693  12.768  0.0993  1.9564 -0.4815
 7031SOL     OW32725   0.204   0.127   3.813  0.1106 -0.2559  0.6424
 7031SOL    HW132726   0.204   0.202   3.872 -1.4251  0.1737  0.1139
 7031SOL    HW232727   0.219   0.173   3.730  1.2854  0.8258  1.4756
 7032SOL     OW32728   3.688   4.533   6.174 -0.4561  0.1499 -0.2143
 7032SOL    HW132729   3.764   4.556   6.228 -1.0065  1.3988  0.0240
 7032SOL    HW232730   3.642   4.616   6.169  0.7082  0.9297  1.8559
 7033SOL     OW32731   2.644   2.153  13.477  0.5637 -0.4298  0.0352
 7033SOL    HW132732   2.693   2.232  13.500  1.3959 -1.0602  0.4245
 7033SOL    HW232733   2.568   2.164  13.535 -0.2433  0.2108 -1.1513
 7034SOL     OW32734   2.700   1.688  16.959 -0.2596 -0.3116 -0.3560
 7034SOL    HW132735   2.673   1.655  17.045 -2.9960  1.4764 -0.5268
 7034SOL    HW232736   2.704   1.783  16.967 -1.3252 -0.3650  0.7724
 7035SOL     OW32737   0.678   3.697  17.176 -0.1252  0.8166 -0.0167
 7035SOL    HW132738   0.606   3.714  17.236  0.3584  0.7125  0.5910
 7035SOL    HW232739   0.750   3.721  17.235 -1.1956  0.8203  1.2800
 7036SOL     OW32740   0.010   2.674   3.024  0.0925  0.1686  1.1847
 7036SOL    HW132741   4.666   2.730   3.013 -0.3583 -0.2591  2.1526
 7036SOL    HW232742   4.707   2.603   3.078  1.7257 -1.0318  0.6820
 7037SOL     OW32743   3.633   3.549   4.081 -0.8319 -0.1718 -0.5162
 7037SOL    HW132744   3.541   3.574   4.072 -0.2067  1.9988 -0.8417
 7037SOL    HW232745   3.661   3.618   4.021  0.1458  0.1024  0.2596
 7038SOL     OW32746   0.998   2.618  17.294 -0.3920  0.3229 -0.3814
 7038SOL    HW132747   0.979   2.524  17.303  4.3139 -0.3809  1.9686
 7038SOL    HW232748   1.088   2.613  17.262 -0.9001 -2.3766 -1.4468
 7039SOL     OW32749   4.408   4.008   4.779 -0.5085  0.6134 -0.5463
 7039SOL    HW132750   4.392   3.937   4.717  1.5317 -1.1098  0.9319
 7039SOL    HW232751   4.423   3.949   4.853 -1.3330 -1.8602 -2.3597
 7040SOL     OW32752   2.694   4.061   4.928  0.0177 -0.3698  0.0401
 7040SOL    HW132753   2.759   3.992   4.935 -0.0493 -0.6252 -1.7628
 7040SOL    HW232754   2.672   4.084   5.018  0.5809 -0.2904  0.1580
 7041SOL     OW32755   4.471   2.729   5.490 -0.3302 -0.2419 -0.0606
 7041SOL    HW132756   4.487   2.698   5.400 -1.5736 -0.4133 -0.2111
 7041SOL    HW232757   4.504   2.660   5.547 -0.4603  0.4417  0.8288
 7042SOL     OW32758   3.375   2.790   5.991  0.2149 -0.4085 -0.2637
 7042SOL    HW132759   3.362   2.806   5.898  1.2009 -0.1550 -0.3515
 7042SOL    HW232760   3.360   2.695   5.990  0.4403 -0.4277 -1.7708
 7043SOL     OW32761   4.280   0.397  11.889 -0.0789  0.9656  0.5929
 7043SOL    HW132762   4.193   0.389  11.929 -0.2721 -0.2950 -0.0780
 7043SOL    HW232763   4.344   0.405  11.959  2.4358 -0.4598 -1.5160
 7044SOL     OW32764   3.899   3.937   2.949  0.3913  0.4157 -0.1584
 7044SOL    HW132765   3.915   3.843   2.955 -0.1784  0.4123  1.2290
 7044SOL    HW232766   3.959   3.972   3.016 -0.3118  2.9353 -0.8592
 7045SOL     OW32767   1.018   4.384   1.988 -0.7137  0.3952 -0.6419
 7045SOL    HW132768   1.064   4.468   1.981 -1.0283  0.5310 -1.0723
 7045SOL    HW232769   1.026   4.377   2.083 -3.1695  3.7842 -0.1923
 7046SOL     OW32770   1.404   2.664   6.346  0.1614 -0.2765  0.3763
 7046SOL    HW132771   1.346   2.663   6.270 -0.2420  0.5774  0.6812
 7046SOL    HW232772   1.434   2.573   6.353 -1.7331 -0.8083  1.8478
 7047SOL     OW32773   4.704   4.661   4.292  0.2904 -0.1433 -0.3343
 7047SOL    HW132774   4.616   4.626   4.309  0.6038 -1.0507 -0.5980
 7047SOL    HW232775   0.013   4.624   4.369  0.7912  2.5934  0.7283
 7048SOL     OW32776   3.280   1.524   7.613  0.6837  0.1956 -0.2627
 7048SOL    HW132777   3.235   1.532   7.529 -2.7211 -2.7742  1.3078
 7048SOL    HW232778   3.209   1.480   7.660  0.8566  0.1193 -0.0742
 7049SOL     OW32779   4.153   1.310   8.053 -0.3655 -0.3951  0.0798
 7049SOL    HW132780   4.096   1.239   8.083 -0.6792 -0.3247 -0.3512
 7049SOL    HW232781   4.088   1.349   7.995 -1.7836  0.3902  2.2394
 7050SOL     OW32782   1.114   1.728   6.637 -0.1161 -0.7377 -0.3754
 7050SOL    HW132783   1.110   1.823   6.645 -0.3720 -0.7574 -0.2794
 7050SOL    HW232784   1.206   1.705   6.647  0.0380  0.9430  1.9996
 7051SOL     OW32785   4.238   1.965  12.413  0.0104 -0.5995 -0.5126
 7051SOL    HW132786   4.188   1.950  12.493  1.6723 -1.6088  0.3225
 7051SOL    HW232787   4.282   1.881  12.401 -1.0169 -1.4465  1.5509
 7052SOL     OW32788   1.140   3.439   9.505 -0.2518  0.3390 -0.5777
 7052SOL    HW132789   1.090   3.387   9.567  0.2233  1.0755  0.4327
 7052SOL    HW232790   1.119   3.381   9.432  2.6049  0.5273 -1.5725
 7053SOL     OW32791   3.910   0.190   3.804  0.1438  0.2998  0.7926
 7053SOL    HW132792   3.911   0.242   3.724  0.3780 -0.7522  0.1057
 7053SOL    HW232793   3.836   0.129   3.796  1.7920 -1.5020 -0.7484
 7054SOL     OW32794   0.022   4.574   5.760 -0.0708 -0.0453  0.1242
 7054SOL    HW132795   0.053   4.610   5.843  1.0734  0.2449 -0.4290
 7054SOL    HW232796   0.068   4.627   5.694  0.1035 -0.6950 -0.2817
 7055SOL     OW32797   2.634   4.108  14.844  0.0999 -0.2923  0.0239
 7055SOL    HW132798   2.693   4.096  14.919  1.0642 -1.3587 -0.9086
 7055SOL    HW232799   2.672   4.061  14.770 -1.4791  0.9922 -1.5716
 7056SOL     OW32800   0.704   4.279  17.112  0.1874  0.2979  0.5014
 7056SOL    HW132801   0.610   4.292  17.125 -0.2478 -1.2443 -0.9783
 7056SOL    HW232802   0.742   4.359  17.146  1.0583  0.3389 -0.5764
 7057SOL     OW32803   2.578   1.770   6.495  0.2847  0.0012  0.2473
 7057SOL    HW132804   2.599   1.676   6.493  1.2259  0.2204 -0.0337
 7057SOL    HW232805   2.493   1.772   6.450 -0.0172  0.3262  0.8337
 7058SOL     OW32806   3.212   3.289   5.234 -0.4647 -0.1325  0.3101
 7058SOL    HW132807   3.142   3.339   5.276 -0.5834 -1.6455  1.8942
 7058SOL    HW232808   3.289   3.312   5.287 -0.9874  0.3967  0.8469
 7059SOL     OW32809   2.589   3.229   5.783  0.3383  0.1995  0.0738
 7059SOL    HW132810   2.641   3.245   5.861  1.9638  3.5431 -1.7239
 7059SOL    HW232811   2.526   3.162   5.810  1.9342 -2.1211 -1.9634
 7060SOL     OW32812   3.815   0.474  12.499 -0.5186 -0.5801  0.0381
 7060SOL    HW132813   3.881   0.406  12.487 -0.3484 -0.9198  2.9555
 7060SOL    HW232814   3.866   0.543  12.457  0.0888 -1.2966 -0.4102
 7061SOL     OW32815   4.255   0.036   4.011 -0.2801 -0.2479  0.0248
 7061SOL    HW132816   4.346   0.024   3.985 -0.5282 -1.0373 -0.4795
 7061SOL    HW232817   4.233   4.680   4.041 -1.5039 -0.1359 -0.5346
 7062SOL     OW32818   0.178   2.252   8.869  0.2045  0.0381  0.4150
 7062SOL    HW132819   0.100   2.246   8.924 -0.2316 -0.6094 -0.2711
 7062SOL    HW232820   0.192   2.344   8.845 -1.3446  0.1975  0.1261
 7063SOL     OW32821   0.220   4.456   3.826  0.1291 -0.1406 -0.6954
 7063SOL    HW132822   0.158   4.450   3.898 -0.7568  0.2821 -1.4339
 7063SOL    HW232823   0.211   4.546   3.795  1.6839  0.1222 -0.4042
 7064SOL     OW32824   0.972   3.654   5.110 -0.1848  0.3212  0.0114
 7064SOL    HW132825   1.057   3.615   5.091 -1.2454 -2.5345  1.0720
 7064SOL    HW232826   0.916   3.624   5.039  0.2118  1.7443 -0.9054
 7065SOL     OW32827   2.100   4.555   3.180  0.1934  0.8192  0.0556
 7065SOL    HW132828   2.018   4.543   3.134  0.5717  1.1892 -0.7060
 7065SOL    HW232829   2.118   4.649   3.173 -0.0236  1.0518  2.4767
 7066SOL     OW32830   4.463   0.345   3.914  0.1057 -0.4544 -0.4003
 7066SOL    HW132831   4.473   0.432   3.874 -0.1066  0.4158  1.4409
 7066SOL    HW232832   4.425   0.365   4.000  1.7994 -1.1408  0.5093
 7067SOL     OW32833   0.873   0.314   9.600 -0.4953 -0.2371  0.3775
 7067SOL    HW132834   0.943   0.249   9.612  0.6315  0.9323  0.0553
 7067SOL    HW232835   0.804   0.252   9.575 -2.9404  2.1681  1.1989
 7068SOL     OW32836   3.282   0.730   9.751  0.1961 -0.2792 -0.3356
 7068SOL    HW132837   3.357   0.751   9.807  2.2159 -2.7713 -2.0653
 7068SOL    HW232838   3.328   0.677   9.686  2.0130 -1.4769  1.9246
 7069SOL     OW32839   2.245   1.612   4.889  0.2440  0.5757  0.4201
 7069SOL    HW132840   2.307   1.622   4.961  2.1959 -1.5736 -0.9532
 7069SOL    HW232841   2.301   1.652   4.822 -0.2050 -0.3536 -0.5163
 7070SOL     OW32842   0.499   4.017  15.559  0.0017 -0.0830  0.0812
 7070SOL    HW132843   0.426   4.077  15.542  0.8900  1.2696  1.1100
 7070SOL    HW232844   0.446   3.938  15.571  1.4524 -0.7855  1.8803
 7071SOL     OW32845   1.981   3.299   9.302  0.2367  0.5037  0.2463
 7071SOL    HW132846   2.044   3.290   9.373  0.0734 -1.4179  0.1531
 7071SOL    HW232847   2.007   3.381   9.260 -0.3058 -0.2303 -1.5401
 7072SOL     OW32848   0.878   1.108   1.889  0.2303  0.9341  0.1009
 7072SOL    HW132849   0.899   1.059   1.810 -0.6453  1.3616 -0.3951
 7072SOL    HW232850   0.862   1.198   1.861  0.5612  0.5066 -1.4312
 7073SOL     OW32851   1.366   0.170  14.463 -0.3805 -0.4678  0.0023
 7073SOL    HW132852   1.438   0.142  14.406 -1.8607  0.0916 -2.1757
 7073SOL    HW232853   1.356   0.264  14.445  0.5552 -0.4424 -0.3684
 7074SOL     OW32854   2.002   3.131  11.834  0.3180  0.5448 -0.1379
 7074SOL    HW132855   2.050   3.062  11.879 -1.2795 -1.7309 -1.8995
 7074SOL    HW232856   1.990   3.098  11.745  0.1674 -1.8816  0.7707
 7075SOL     OW32857   4.499   4.093   0.016 -0.1537 -0.3986 -0.6126
 7075SOL    HW132858   4.460   4.133   0.094 -0.6995 -1.2764 -0.4310
 7075SOL    HW232859   4.510   4.164  17.683 -0.2219 -2.1911 -2.6672
 7076SOL     OW32860   2.113   2.185   8.205  0.1147 -0.6730  0.4153
 7076SOL    HW132861   2.167   2.191   8.284  0.2546  2.9442  0.0415
 7076SOL    HW232862   2.068   2.269   8.203  1.8625  0.2649  1.2222
 7077SOL     OW32863   3.644   3.240   1.886  0.1612 -0.4214 -0.2912
 7077SOL    HW132864   3.722   3.255   1.833 -0.0247 -0.5316 -0.5988
 7077SOL    HW232865   3.578   3.295   1.843  1.2125  1.7576  0.9270
 7078SOL     OW32866   1.879   3.358  16.157 -0.1051 -0.5644 -0.0159
 7078SOL    HW132867   1.921   3.296  16.217 -0.2511 -2.9530 -2.3937
 7078SOL    HW232868   1.814   3.387  16.221  1.4215 -0.8959  1.6841
 7079SOL     OW32869   2.050   3.910  12.567  0.4969 -0.3147  0.4228
 7079SOL    HW132870   1.975   3.874  12.519 -0.1445 -0.4438  1.5163
 7079SOL    HW232871   2.126   3.878  12.518  1.6803  1.7026  0.9461
 7080SOL     OW32872   0.637   1.164   3.130  0.0920 -0.0146  0.6230
 7080SOL    HW132873   0.604   1.132   3.214 -0.1903  1.2212  0.9920
 7080SOL    HW232874   0.550   1.192   3.099  0.2418  0.5882  0.7458
 7081SOL     OW32875   1.159   0.289   2.018  0.1315  0.2311 -0.1512
 7081SOL    HW132876   1.095   0.269   1.950  1.0822 -1.3625 -0.6039
 7081SOL    HW232877   1.136   0.213   2.071  0.2877  0.6659  0.5328
 7082SOL     OW32878   2.681   1.282   8.135 -0.1144  0.3531  0.1297
 7082SOL    HW132879   2.740   1.353   8.162 -0.1508  0.1564  0.7307
 7082SOL    HW232880   2.622   1.278   8.210  0.5130 -0.4933  0.5887
 7083SOL     OW32881   3.854   4.687   9.644 -0.9353  0.2929 -0.3496
 7083SOL    HW132882   3.902   0.036   9.632 -0.1497  0.3218  3.0516
 7083SOL    HW232883   3.928   4.630   9.665 -0.9044  0.8568  1.0555
 7084SOL     OW32884   0.255   2.519   8.853  0.1389 -0.3025 -0.5224
 7084SOL    HW132885   0.322   2.547   8.790  1.1170  0.2918  0.7639
 7084SOL    HW232886   0.215   2.604   8.872  0.6608  0.1088 -1.2562
 7085SOL     OW32887   0.716   4.730   5.674 -0.2394 -1.0820 -0.1723
 7085SOL    HW132888   0.812   0.006   5.676 -0.3832  0.8607 -0.7267
 7085SOL    HW232889   0.704   4.650   5.623 -1.4322 -0.0536 -1.5100
 7086SOL     OW32890   2.014   0.074   4.639  0.0716 -0.1871 -0.5211
 7086SOL    HW132891   2.036   0.086   4.547 -0.5973  1.0804 -0.5152
 7086SOL    HW232892   1.931   0.121   4.648  1.0143  1.6657 -1.4219
 7087SOL     OW32893   0.380   3.314  10.717 -0.6266 -0.4761  0.5153
 7087SOL    HW132894   0.395   3.321  10.811 -0.1384  0.3848  0.3749
 7087SOL    HW232895   0.359   3.401  10.684 -1.3373 -0.9543 -0.2859
 7088SOL     OW32896   1.506   2.666   9.037  0.0033  0.2926 -0.0048
 7088SOL    HW132897   1.443   2.725   8.996 -2.0382 -0.5097  1.9924
 7088SOL    HW232898   1.577   2.720   9.074  0.9202  0.3103 -1.8013
 7089SOL     OW32899   2.721   1.997  14.631  0.0187 -0.8370  0.8338
 7089SOL    HW132900   2.786   2.013  14.562 -1.6112 -0.3207 -0.5797
 7089SOL    HW232901   2.700   1.905  14.611 -0.6492 -0.4572 -0.2437
 7090SOL     OW32902   2.053   3.394   7.834  0.2378 -0.3397 -0.2353
 7090SOL    HW132903   2.011   3.476   7.806 -0.7205 -0.3939  1.0749
 7090SOL    HW232904   2.140   3.428   7.855  0.0442 -0.8159  1.2678
 7091SOL     OW32905   1.017   3.682   6.063  0.2609 -0.5186 -0.0038
 7091SOL    HW132906   0.990   3.643   6.147  0.2359 -0.3189  0.0795
 7091SOL    HW232907   0.933   3.694   6.018 -0.4532 -3.1286  0.5979
 7092SOL     OW32908   2.753   3.194   3.449 -0.4360  0.4239 -1.0016
 7092SOL    HW132909   2.694   3.139   3.501  1.7038 -1.3456 -0.4393
 7092SOL    HW232910   2.794   3.125   3.397  2.6155  1.5595 -0.1042
 7093SOL     OW32911   3.039   2.533   7.806  0.6699 -0.0985  0.0382
 7093SOL    HW132912   3.063   2.623   7.829  2.3644 -0.2711 -1.0583
 7093SOL    HW232913   3.128   2.499   7.801  0.4825 -0.4328 -0.8995
 7094SOL     OW32914   0.290   2.866   5.715  0.3973 -0.3713  0.1208
 7094SOL    HW132915   0.357   2.804   5.743  0.5997 -0.0217  0.4051
 7094SOL    HW232916   0.215   2.807   5.703  0.9013 -1.2389  1.3164
 7095SOL     OW32917   3.855   0.199  13.277  0.0503  0.1476 -0.3967
 7095SOL    HW132918   3.885   0.197  13.368  0.2633  0.9079 -0.4484
 7095SOL    HW232919   3.833   0.291  13.265  1.0002  0.4801  0.4693
 7096SOL     OW32920   0.067   0.146   3.366  0.6002 -0.4263  0.3250
 7096SOL    HW132921   0.053   0.105   3.281  0.4982  0.0581  0.1063
 7096SOL    HW232922   0.139   0.205   3.345 -0.6132  1.4167  1.3274
 7097SOL     OW32923   4.252   1.911   6.075 -0.2587  0.3856 -0.7582
 7097SOL    HW132924   4.253   1.816   6.084  0.7166  0.5003  0.3226
 7097SOL    HW232925   4.295   1.913   5.990  0.7922 -0.7650 -0.2473
 7098SOL     OW32926   2.068   3.439  15.982 -0.0003 -0.6908  0.0940
 7098SOL    HW132927   2.008   3.473  16.049 -0.7467 -0.0504 -0.9040
 7098SOL    HW232928   2.075   3.351  16.020  1.1244 -0.4012  0.5331
 7099SOL     OW32929   3.530   4.705   4.344  0.3051 -0.0758 -0.1867
 7099SOL    HW132930   3.566   0.047   4.296 -0.1552  1.9201  2.5756
 7099SOL    HW232931   3.469   0.014   4.405 -0.2750 -2.2252  0.7016
 7100SOL     OW32932   1.373   3.905  12.101  0.1108 -0.1448  0.3632
 7100SOL    HW132933   1.407   3.842  12.038 -0.8213 -0.3380  0.0543
 7100SOL    HW232934   1.381   3.980  12.042  0.3348 -0.4170  0.0505
 7101SOL     OW32935   2.558   0.357   6.599  0.0483  0.2694 -0.3897
 7101SOL    HW132936   2.554   0.414   6.675  0.3017 -1.8095  1.1846
 7101SOL    HW232937   2.522   0.276   6.635 -2.2557  1.1853 -0.6387
 7102SOL     OW32938   1.378   3.950   7.939  0.2844 -0.2494  0.0208
 7102SOL    HW132939   1.346   3.906   8.018  0.3007 -1.3038 -0.5714
 7102SOL    HW232940   1.426   3.880   7.895  0.1471  0.1102 -0.7040
 7103SOL     OW32941   3.782   3.909   9.200 -0.8652 -0.1844 -0.6614
 7103SOL    HW132942   3.838   3.862   9.262 -0.0397 -3.4579 -3.9499
 7103SOL    HW232943   3.761   3.984   9.256  0.2216  0.1969 -0.7719
 7104SOL     OW32944   0.900   1.128   7.955  0.0589 -0.1474 -0.4543
 7104SOL    HW132945   0.983   1.104   7.914  0.1209  0.2116 -0.5470
 7104SOL    HW232946   0.922   1.199   8.016  1.2500  0.2541 -1.3447
 7105SOL     OW32947   2.956   2.136   6.531  0.5274 -0.5258  0.0671
 7105SOL    HW132948   2.988   2.072   6.467 -0.2560 -1.1248  0.2768
 7105SOL    HW232949   3.028   2.124   6.593 -2.1329 -0.6040  3.1397
 7106SOL     OW32950   2.747   2.982   3.067 -0.3951  0.0125 -0.4094
 7106SOL    HW132951   2.815   3.037   3.107  0.4834 -1.1347 -0.2917
 7106SOL    HW232952   2.735   3.016   2.979  0.9982 -0.9633 -0.9846
 7107SOL     OW32953   1.743   3.947  14.888 -0.0555 -0.0434  0.1898
 7107SOL    HW132954   1.648   3.945  14.892 -0.1741  1.4216 -2.4025
 7107SOL    HW232955   1.756   3.943  14.983  1.6455 -1.0564 -0.0816
 7108SOL     OW32956   0.231   2.497  10.606  0.0334  0.1297 -0.0343
 7108SOL    HW132957   0.300   2.442  10.643 -0.4996  0.3575  1.2933
 7108SOL    HW232958   0.161   2.433  10.588 -1.9385  2.6006 -1.2309
 7109SOL     OW32959   0.303   2.959   8.306 -0.0516 -0.3605  0.3809
 7109SOL    HW132960   0.279   3.051   8.301  2.1822  0.1251 -0.9311
 7109SOL    HW232961   0.273   2.930   8.393 -0.2517  4.4819  1.9281
 7110SOL     OW32962   4.661   2.284   1.513  0.6427  0.2293 -0.5352
 7110SOL    HW132963   4.641   2.282   1.606  0.3058 -0.4749 -0.6207
 7110SOL    HW232964   4.586   2.238   1.474  0.6547 -0.7883  0.6423
 7111SOL     OW32965   2.541   2.770  15.419  0.2193  0.0387 -0.7133
 7111SOL    HW132966   2.526   2.844  15.360  2.6384  0.6047 -0.6125
 7111SOL    HW232967   2.636   2.776  15.429 -0.1502  1.4451  1.8730
 7112SOL     OW32968   3.243   0.589   2.252 -0.2672  0.1074  0.5107
 7112SOL    HW132969   3.154   0.552   2.255 -0.1188 -0.3019 -0.5235
 7112SOL    HW232970   3.296   0.511   2.267  2.2012  1.5788 -0.5740
 7113SOL     OW32971   0.954   3.068   1.437  0.8329  0.0296 -0.9842
 7113SOL    HW132972   1.005   3.144   1.406  0.4870 -0.4550 -2.7750
 7113SOL    HW232973   1.024   3.004   1.432  1.1090  0.3010 -0.6141
 7114SOL     OW32974   2.333   0.728   3.798 -0.2966  0.0353  0.0692
 7114SOL    HW132975   2.321   0.641   3.760 -1.0457 -0.2005  0.8463
 7114SOL    HW232976   2.386   0.714   3.876 -0.1408  0.4512  0.0370
 7115SOL     OW32977   3.629   3.225   0.726 -0.6154  0.8875  0.4761
 7115SOL    HW132978   3.709   3.261   0.765  0.6814 -0.9019 -0.4980
 7115SOL    HW232979   3.651   3.246   0.635  2.6936 -2.8992  0.3784
 7116SOL     OW32980   1.423   2.981  17.591 -0.1715 -0.3586  0.1301
 7116SOL    HW132981   1.517   2.968  17.577 -0.2526  0.8328 -1.5408
 7116SOL    HW232982   1.382   2.941  17.514 -0.0083  0.3728 -0.3454
 7117SOL     OW32983   3.681   3.118  13.067  0.3183 -0.4285  0.1574
 7117SOL    HW132984   3.684   3.030  13.104  0.8660  0.6985  2.7630
 7117SOL    HW232985   3.697   3.104  12.974  0.4027 -0.5140  0.1850
 7118SOL     OW32986   4.602   2.289   7.419 -0.3144 -0.6627 -0.2299
 7118SOL    HW132987   4.644   2.226   7.477  0.5456  0.0513 -0.0847
 7118SOL    HW232988   4.515   2.288   7.459 -0.8518  2.5077 -1.2888
 7119SOL     OW32989   1.226   4.520   7.415  0.0353  0.0677  0.0038
 7119SOL    HW132990   1.150   4.569   7.382  0.2273 -0.6412 -1.5272
 7119SOL    HW232991   1.292   4.588   7.404  0.0577  0.1203  0.4771
 7120SOL     OW32992   0.278   1.762  13.358  1.2048  0.0998 -0.2788
 7120SOL    HW132993   0.219   1.789  13.288  0.3449 -1.4096 -0.1647
 7120SOL    HW232994   0.302   1.671  13.339  1.0074 -0.0838  0.3409
 7121SOL     OW32995   0.879   0.989   1.641  0.0494  0.0480 -0.7404
 7121SOL    HW132996   0.956   1.012   1.589 -1.7782  1.4462 -2.7644
 7121SOL    HW232997   0.829   0.946   1.572  0.4391 -0.1606 -0.8967
 7122SOL     OW32998   2.694   1.273  12.221  0.9524  0.2152  0.4338
 7122SOL    HW132999   2.747   1.249  12.145 -2.0989  1.7101 -2.1948
 7122SOL    HW233000   2.756   1.270  12.293  0.7320 -0.2288  0.6069
 7123SOL     OW33001   0.142   4.347   4.187  0.3064  0.3680 -0.5174
 7123SOL    HW133002   0.228   4.363   4.227  0.8020 -2.2281 -0.5528
 7123SOL    HW233003   0.118   4.277   4.248 -0.7130  0.7883 -0.4462
 7124SOL     OW33004   2.337   3.958   8.803  0.4147 -0.0721 -0.3372
 7124SOL    HW133005   2.252   3.944   8.762  0.4531  1.8102 -1.0259
 7124SOL    HW233006   2.360   3.866   8.821  0.4438  0.0398  0.2102
 7125SOL     OW33007   1.285   3.924  13.189  0.4381 -0.1163 -0.3760
 7125SOL    HW133008   1.227   3.899  13.117  0.4916 -2.5810  0.4507
 7125SOL    HW233009   1.369   3.927  13.143  0.5031  1.8071 -0.1297
 7126SOL     OW33010   2.737   0.475   3.972 -0.4071  0.1520  0.4355
 7126SOL    HW133011   2.721   0.380   3.976  0.7221 -0.1299 -1.6729
 7126SOL    HW233012   2.831   0.475   3.952 -0.4798  0.9437  0.1151
 7127SOL     OW33013   1.971   4.245   3.303  0.1712 -0.0695  0.4016
 7127SOL    HW133014   1.888   4.197   3.298  0.1271  0.2155 -1.5811
 7127SOL    HW233015   1.986   4.257   3.210  1.0726  0.2446  0.5885
 7128SOL     OW33016   3.819   2.733   2.786  0.0974 -0.0596  0.1826
 7128SOL    HW133017   3.766   2.730   2.866  1.7986 -1.4100  1.2646
 7128SOL    HW233018   3.753   2.756   2.721  0.6270  0.6346 -0.1096
 7129SOL     OW33019   2.634   3.086   6.104 -1.1233  0.1746  0.5109
 7129SOL    HW133020   2.676   3.171   6.120  0.3976 -0.3004 -0.9199
 7129SOL    HW233021   2.602   3.061   6.191 -0.0219  0.1673  0.9271
 7130SOL     OW33022   4.592   0.601  15.764 -0.5249  0.4972 -0.2052
 7130SOL    HW133023   4.552   0.569  15.845 -0.0241  2.1100  0.6767
 7130SOL    HW233024   4.526   0.575  15.700 -1.9964 -0.3383  1.6640
 7131SOL     OW33025   0.756   2.092  13.817  0.3243 -0.2800 -0.0281
 7131SOL    HW133026   0.786   2.150  13.887  0.6322  1.7558 -1.8493
 7131SOL    HW233027   0.752   2.144  13.737  0.8220 -0.8645 -0.4205
 7132SOL     OW33028   3.007   3.363  11.916 -0.1345  0.4598  0.4368
 7132SOL    HW133029   3.007   3.394  12.007  2.1171  0.8777  0.2861
 7132SOL    HW233030   2.989   3.447  11.874 -0.7825 -0.2400 -0.6747
 7133SOL     OW33031   3.600   1.913   1.919  0.3897 -0.2386  0.2118
 7133SOL    HW133032   3.670   1.874   1.972  1.5605 -2.0355 -2.7024
 7133SOL    HW233033   3.649   1.924   1.838 -1.9640  1.3102 -0.9937
 7134SOL     OW33034   0.074   0.369   3.970 -0.0006 -0.2877 -0.1249
 7134SOL    HW133035   4.725   0.387   3.925  0.9596  1.3987 -1.1969
 7134SOL    HW233036   0.070   0.436   4.039  0.4216 -0.4348  0.0458
 7135SOL     OW33037   0.110   0.147   7.370  0.0504  0.4229  0.2461
 7135SOL    HW133038   0.082   0.233   7.339  0.5294 -0.0066 -1.4014
 7135SOL    HW233039   0.036   0.093   7.343 -0.6716  1.2581  0.5756
 7136SOL     OW33040   2.811   0.529   0.680  0.4965 -0.1559 -0.0990
 7136SOL    HW133041   2.846   0.448   0.641  1.3964 -0.3205  1.0742
 7136SOL    HW233042   2.837   0.527   0.772 -0.9064 -1.0555  0.2800
 7137SOL     OW33043   0.739   4.141   5.256  0.0824 -0.9656  0.3392
 7137SOL    HW133044   0.705   4.222   5.218 -2.4259 -2.6414 -0.9651
 7137SOL    HW233045   0.715   4.076   5.190 -0.8252 -0.9245  0.6166
 7138SOL     OW33046   3.953   3.932  16.712  0.8013 -0.2728 -0.0310
 7138SOL    HW133047   3.932   3.934  16.618 -0.5143 -0.5244  0.2598
 7138SOL    HW233048   4.045   3.959  16.707  0.4849  0.3441 -2.6287
 7139SOL     OW33049   0.852   4.301  10.117 -1.1188  0.2984 -0.3386
 7139SOL    HW133050   0.852   4.383  10.067  0.0779 -0.2151 -1.1836
 7139SOL    HW233051   0.759   4.304  10.140 -0.6104  1.4859  1.5848
 7140SOL     OW33052   1.448   2.540   2.653 -0.1616  0.2911  0.5182
 7140SOL    HW133053   1.444   2.562   2.560  1.6729 -0.1078  0.3446
 7140SOL    HW233054   1.477   2.449   2.645  0.5650  0.3591  2.3125
 7141SOL     OW33055   1.348   2.874   1.487 -0.2092 -0.2991 -0.2038
 7141SOL    HW133056   1.363   2.961   1.522 -1.3599 -1.0805  2.2473
 7141SOL    HW233057   1.427   2.847   1.440 -0.3590  0.7215 -1.0295
 7142SOL     OW33058   4.093   1.433   2.930  0.1972 -0.1670 -0.2511
 7142SOL    HW133059   4.040   1.460   2.854 -0.3257  0.8924  0.4823
 7142SOL    HW233060   4.183   1.457   2.910 -0.8415  1.2842 -3.3224
 7143SOL     OW33061   0.138   1.592   3.996 -0.2853 -0.0494  0.1119
 7143SOL    HW133062   0.226   1.563   3.971 -1.2232 -1.9431 -0.9571
 7143SOL    HW233063   0.130   1.590   4.092 -0.7969 -5.3433 -0.0550
 7144SOL     OW33064   4.008   2.636   5.882 -0.1604  0.7335  0.1660
 7144SOL    HW133065   4.021   2.567   5.947  0.3066  0.5078 -0.1681
 7144SOL    HW233066   3.989   2.592   5.799  1.0125  0.1548  0.2057
 7145SOL     OW33067   4.099   1.329   5.862  0.3878  0.0216  0.3247
 7145SOL    HW133068   4.023   1.309   5.808  0.6920  0.2499 -0.1889
 7145SOL    HW233069   4.086   1.423   5.877 -2.9815 -0.0698 -2.0133
 7146SOL     OW33070   1.467   4.455   8.628 -0.0279 -0.4702 -0.1750
 7146SOL    HW133071   1.538   4.399   8.596  0.7542  0.5973 -0.2698
 7146SOL    HW233072   1.399   4.471   8.562 -1.2344  1.8708  1.6537
 7147SOL     OW33073   2.811   0.487   4.575  0.6413 -0.6215 -0.0828
 7147SOL    HW133074   2.768   0.493   4.490 -0.0638 -0.1162  0.3152
 7147SOL    HW233075   2.733   0.472   4.629  0.1049  2.8544  0.0556
 7148SOL     OW33076   3.183   3.591   2.733  0.2626 -0.0975 -0.0759
 7148SOL    HW133077   3.209   3.534   2.806  0.2980  0.5571  0.4267
 7148SOL    HW233078   3.163   3.527   2.665  0.2797  0.5447 -0.6757
 7149SOL     OW33079   3.987   2.710   8.176 -0.4888 -0.2644  0.1460
 7149SOL    HW133080   3.995   2.640   8.241 -3.1552 -0.8520 -0.1331
 7149SOL    HW233081   4.081   2.710   8.158 -0.2667  0.6146  1.2967
 7150SOL     OW33082   1.028   4.603   9.992 -0.3942 -0.1252  0.2173
 7150SOL    HW133083   1.041   4.697  10.008 -0.9821 -0.4543  2.6110
 7150SOL    HW233084   1.066   4.582   9.907 -0.6373 -1.8240  0.5207
 7151SOL     OW33085   4.596   1.707   5.959 -0.3703  0.4069  0.3787
 7151SOL    HW133086   4.625   1.631   6.010 -2.7147 -1.5946 -1.3169
 7151SOL    HW233087   4.678   1.722   5.912 -0.3607 -1.0759 -0.0765
 7152SOL     OW33088   1.546   3.527   5.943  0.0139  0.4197 -0.6474
 7152SOL    HW133089   1.595   3.465   5.997 -1.8700  0.0577  0.6459
 7152SOL    HW233090   1.555   3.476   5.862  1.5751  1.8023 -1.3616
 7153SOL     OW33091   2.838   0.797  16.407 -0.8339 -0.0475  0.1502
 7153SOL    HW133092   2.801   0.749  16.333 -2.7795  1.0853  0.3916
 7153SOL    HW233093   2.932   0.799  16.389 -0.9285  0.1480 -0.3183
 7154SOL     OW33094   0.398   3.838   5.957  0.5512 -0.1009  0.2638
 7154SOL    HW133095   0.463   3.892   6.002  2.1862 -2.0597  0.2537
 7154SOL    HW233096   0.391   3.772   6.027 -0.1558 -2.6467 -2.2092
 7155SOL     OW33097   0.929   1.463   3.884 -0.0731 -0.2004 -0.8219
 7155SOL    HW133098   0.991   1.536   3.876  2.2793 -2.2579 -1.2764
 7155SOL    HW233099   0.975   1.386   3.850  0.2501 -0.2228 -0.3352
 7156SOL     OW33100   4.443   3.579   3.784 -0.5962  0.4671  0.3336
 7156SOL    HW133101   4.481   3.638   3.718 -1.9804  1.4106  0.3686
 7156SOL    HW233102   4.526   3.538   3.810  0.4407  1.0764 -1.9833
 7157SOL     OW33103   0.816   0.346  10.675  0.3933 -0.1447  0.7341
 7157SOL    HW133104   0.721   0.350  10.683  0.5466  1.0309  2.0612
 7157SOL    HW233105   0.841   0.268  10.724 -1.7089 -0.4852  1.2792
 7158SOL     OW33106   2.255   0.646   9.724  0.2775  0.0609 -0.2293
 7158SOL    HW133107   2.200   0.611   9.654  0.9882  0.4533 -0.9785
 7158SOL    HW233108   2.327   0.671   9.666 -0.6462 -1.4839 -2.0600
 7159SOL     OW33109   1.806   3.670   3.433 -0.6847  0.1837 -0.0142
 7159SOL    HW133110   1.710   3.665   3.437 -0.5805 -2.1127 -0.0462
 7159SOL    HW233111   1.831   3.579   3.416  3.7619  1.6056 -0.9384
 7160SOL     OW33112   4.533   0.603   5.190 -0.0651 -0.2087 -0.2116
 7160SOL    HW133113   4.496   0.621   5.104 -1.8186  0.8529  0.7637
 7160SOL    HW233114   4.603   0.539   5.175  0.9068  0.7567  0.2536
 7161SOL     OW33115   4.362   4.017   9.251  0.3010  0.3428  0.5347
 7161SOL    HW133116   4.311   4.072   9.191 -1.1687 -0.7645  0.7660
 7161SOL    HW233117   4.288   3.981   9.301  1.2917 -1.5341  0.6475
 7162SOL     OW33118   2.752   3.841  11.083  0.1797 -0.1320 -0.2442
 7162SOL    HW133119   2.814   3.822  11.012  1.4806  0.7369  0.6523
 7162SOL    HW233120   2.784   3.925  11.115  0.2113 -0.9610  1.9339
 7163SOL     OW33121   4.099   1.626  12.747 -0.0640  0.3295  0.1297
 7163SOL    HW133122   4.138   1.539  12.754  0.2744  0.2608 -2.7370
 7163SOL    HW233123   4.044   1.637  12.825  0.3991  0.8420  0.3835
 7164SOL     OW33124   1.734   3.770   2.452 -0.5171 -0.3308 -0.0861
 7164SOL    HW133125   1.823   3.736   2.443  0.9664  3.7574 -0.4046
 7164SOL    HW233126   1.701   3.743   2.366  0.0041  0.5176 -0.5467
 7165SOL     OW33127   3.085   0.564  14.573  0.0270  0.1061 -0.1429
 7165SOL    HW133128   3.165   0.556  14.521  0.0144 -1.3539  0.0667
 7165SOL    HW233129   3.125   0.615  14.643  2.0981 -3.1095  1.0172
 7166SOL     OW33130   4.503   0.458   7.392 -0.0782 -0.0134 -0.4786
 7166SOL    HW133131   4.410   0.478   7.400  0.0634  0.0522  0.9541
 7166SOL    HW233132   4.530   0.550   7.396 -1.8678  0.4737  0.1978
 7167SOL     OW33133   3.635   4.136   6.057  0.3710 -0.0177 -0.5224
 7167SOL    HW133134   3.594   4.064   6.011 -0.3927 -0.0206  0.1740
 7167SOL    HW233135   3.725   4.104   6.045  0.6642  0.1391  1.2262
 7168SOL     OW33136   1.839   3.993  12.144 -0.0057  0.1873 -0.1679
 7168SOL    HW133137   1.791   3.997  12.227  1.2433 -0.8940  0.6083
 7168SOL    HW233138   1.924   4.033  12.160 -0.9035  1.8375  0.4976
 7169SOL     OW33139   1.506   3.411   2.207 -0.3368  0.6189  0.4311
 7169SOL    HW133140   1.424   3.363   2.208 -1.0062  1.7400 -0.3003
 7169SOL    HW233141   1.558   3.373   2.136 -0.0627  3.5631 -0.9882
 7170SOL     OW33142   1.958   4.277   8.727  0.9466  0.5215  0.4181
 7170SOL    HW133143   1.933   4.321   8.808 -0.7924  0.4254 -0.0683
 7170SOL    HW233144   1.985   4.357   8.681 -0.4860  0.6265 -0.2455
 7171SOL     OW33145   3.068   0.564   4.190  0.2475  0.1321  0.2491
 7171SOL    HW133146   3.159   0.558   4.159 -0.1551 -1.3533 -0.6573
 7171SOL    HW233147   3.087   0.578   4.283  1.5879  2.3028 -0.3651
 7172SOL     OW33148   3.101   0.221   5.620  0.5750  0.0837  0.4087
 7172SOL    HW133149   3.097   0.305   5.575  1.8737 -1.0426 -1.8072
 7172SOL    HW233150   3.092   0.159   5.548  0.6304  0.3954  0.1337
 7173SOL     OW33151   3.237   1.568   4.891 -0.5829  0.0627  0.3588
 7173SOL    HW133152   3.311   1.508   4.901 -0.0176  0.9117  1.3217
 7173SOL    HW233153   3.251   1.606   4.804  2.1421  0.8349  1.1338
 7174SOL     OW33154   0.436   2.404   1.901  0.4966 -0.2396  0.0383
 7174SOL    HW133155   0.493   2.382   1.974  1.8627  1.3337 -0.5701
 7174SOL    HW233156   0.497   2.405   1.827  1.3515  1.0622  0.7651
 7175SOL     OW33157   0.795   2.331  15.311 -0.7730  0.4000  0.0385
 7175SOL    HW133158   0.780   2.296  15.223 -1.6635  0.0730  0.3166
 7175SOL    HW233159   0.758   2.419  15.303 -1.2393  0.0618 -1.5378
 7176SOL     OW33160   2.514   1.742   3.705 -0.0120  0.4354  0.0807
 7176SOL    HW133161   2.550   1.692   3.779  0.3961 -0.0483 -0.4478
 7176SOL    HW233162   2.589   1.801   3.700  1.5839 -1.5582  0.2733
 7177SOL     OW33163   1.379   1.213   8.368  0.3342  0.2942 -0.3297
 7177SOL    HW133164   1.401   1.287   8.425  0.0777  0.0226  0.1162
 7177SOL    HW233165   1.424   1.240   8.288  1.8064  2.3740  1.2052
 7178SOL     OW33166   0.581   1.243   3.701 -0.3779 -0.3531 -0.1003
 7178SOL    HW133167   0.616   1.285   3.622 -1.5197  1.9671  0.6268
 7178SOL    HW233168   0.487   1.261   3.693 -0.3284  0.2079  0.5678
 7179SOL     OW33169   0.741   4.263  12.791 -0.1042 -0.1244 -0.0474
 7179SOL    HW133170   0.788   4.337  12.828 -0.3097  0.7237 -1.4882
 7179SOL    HW233171   0.813   4.213  12.753 -0.2697  0.6800 -1.3933
 7180SOL     OW33172   2.171   0.829   7.977  0.1041 -0.4073  0.2884
 7180SOL    HW133173   2.139   0.744   8.007 -2.3441  0.8498  1.2565
 7180SOL    HW233174   2.266   0.815   7.971  0.3536  0.5610  1.9031
 7181SOL     OW33175   2.811   2.414  10.657 -0.6926 -0.3677  0.2748
 7181SOL    HW133176   2.822   2.468  10.735  1.4174  0.0143 -0.2961
 7181SOL    HW233177   2.719   2.433  10.639 -0.7991 -1.8832 -0.8166
 7182SOL     OW33178   3.912   0.281   9.510 -0.3466  1.0666  0.0265
 7182SOL    HW133179   3.920   0.214   9.442 -0.5686  0.8010  0.2634
 7182SOL    HW233180   3.820   0.304   9.500 -1.2165 -2.7284 -0.9582
 7183SOL     OW33181   3.462   3.842   4.832  0.1023 -0.5500  1.0518
 7183SOL    HW133182   3.543   3.879   4.866  0.6457 -1.3337  0.5932
 7183SOL    HW233183   3.395   3.838   4.900 -1.3074 -1.4062 -0.3716
 7184SOL     OW33184   0.502   1.823   2.189 -0.2584  0.8487 -0.2323
 7184SOL    HW133185   0.472   1.732   2.193  0.4866  0.5957 -0.5022
 7184SOL    HW233186   0.563   1.824   2.262 -0.9821  1.0530  0.3629
 7185SOL     OW33187   1.011   4.667   7.815  0.1926  0.8396 -0.2087
 7185SOL    HW133188   0.939   4.608   7.793  0.3948  0.7176 -0.5458
 7185SOL    HW233189   0.978   4.700   7.898  1.1564  1.8866 -0.2396
 7186SOL     OW33190   2.875   1.917   8.830 -0.4934  0.8793 -0.4146
 7186SOL    HW133191   2.948   1.871   8.788 -0.5581 -0.0584  0.4963
 7186SOL    HW233192   2.821   1.923   8.751 -0.5126  0.0748 -0.4624
 7187SOL     OW33193   3.347   0.384   8.029  0.1696 -0.3422  0.5915
 7187SOL    HW133194   3.387   0.327   7.963 -0.9886 -1.0008  0.4583
 7187SOL    HW233195   3.254   0.373   8.012  0.2900  0.9749 -0.9015
 7188SOL     OW33196   2.276   1.087  17.268  0.1578  0.0204 -0.6712
 7188SOL    HW133197   2.212   1.158  17.274  0.4616  0.3215 -0.9470
 7188SOL    HW233198   2.219   1.010  17.263  0.6110 -0.5375  3.2353
 7189SOL     OW33199   2.255   1.721   7.465  0.0054 -0.5232  0.2622
 7189SOL    HW133200   2.261   1.666   7.387  0.9901  0.6624 -0.4929
 7189SOL    HW233201   2.304   1.673   7.532 -2.4843  1.0804  3.2246
 7190SOL     OW33202   1.256   4.159   9.149 -0.1109 -0.1604 -0.6665
 7190SOL    HW133203   1.263   4.094   9.079 -0.2756 -1.3557  0.4339
 7190SOL    HW233204   1.174   4.201   9.121 -1.0243 -1.4782  0.0078
 7191SOL     OW33205   0.607   0.801   4.311  0.1735 -0.0240  0.0965
 7191SOL    HW133206   0.673   0.733   4.298  0.9861  0.5953  0.9547
 7191SOL    HW233207   0.585   0.792   4.404 -1.0725  1.1477 -0.0790
 7192SOL     OW33208   4.383   4.225   1.346  0.3538 -0.1342 -0.3474
 7192SOL    HW133209   4.333   4.305   1.366  2.2087  1.1748 -0.9678
 7192SOL    HW233210   4.344   4.160   1.406  1.9931 -0.4772  0.3433
 7193SOL     OW33211   3.243   2.057   2.829  0.3371 -0.0420  0.3346
 7193SOL    HW133212   3.331   2.033   2.799 -0.3753 -1.6599 -0.5039
 7193SOL    HW233213   3.248   2.032   2.921 -1.3111  0.1880  0.4835
 7194SOL     OW33214   2.951   2.303   8.836  0.1908 -0.0614  0.3501
 7194SOL    HW133215   2.991   2.306   8.750 -1.0408 -0.9518 -0.2498
 7194SOL    HW233216   2.993   2.224   8.869  0.7367  0.4400  0.8654
 7195SOL     OW33217   4.552   0.714   6.460 -0.2039  0.8695 -0.0626
 7195SOL    HW133218   4.473   0.699   6.511 -1.1394  3.6404 -0.6972
 7195SOL    HW233219   4.522   0.747   6.375 -2.9435 -1.1001  0.1653
 7196SOL     OW33220   4.373   3.877   7.154 -0.1983  0.0161  0.0768
 7196SOL    HW133221   4.407   3.965   7.139 -2.4409  0.8920  0.0677
 7196SOL    HW233222   4.341   3.868   7.244 -1.6475 -0.5638 -0.4814
 7197SOL     OW33223   4.456   3.111   3.080 -0.3126  0.1974  0.0374
 7197SOL    HW133224   4.417   3.026   3.061 -1.1445  0.3768  0.9364
 7197SOL    HW233225   4.373   3.158   3.083 -0.2977  0.1629  0.9663
 7198SOL     OW33226   1.251   0.101   3.299  0.8688  0.0839 -0.1791
 7198SOL    HW133227   1.168   0.149   3.291  1.6250  1.6150  1.1275
 7198SOL    HW233228   1.223   0.045   3.371 -0.2636  1.4303  0.4273
 7199SOL     OW33229   0.661   1.960   6.710 -0.4142  0.0084 -0.1091
 7199SOL    HW133230   0.726   2.007   6.762 -2.1834  0.8204  1.4065
 7199SOL    HW233231   0.599   2.030   6.691 -0.0816  0.5333  0.7445
 7200SOL     OW33232   3.415   0.736  14.645 -0.1782 -0.0916  0.0792
 7200SOL    HW133233   3.386   0.666  14.587  1.6851  0.6973 -1.7999
 7200SOL    HW233234   3.500   0.756  14.607 -0.1603 -0.6798 -0.1932
 7201SOL     OW33235   4.006   0.760   8.682  1.0207  0.1290  0.3738
 7201SOL    HW133236   3.937   0.827   8.677 -0.8795 -1.9180 -0.7906
 7201SOL    HW233237   4.010   0.769   8.777  0.1040 -2.2898  0.6362
 7202SOL     OW33238   2.854   0.185   8.982  0.6748 -0.1216  0.2462
 7202SOL    HW133239   2.766   0.188   9.019  0.5012  1.0109 -0.2577
 7202SOL    HW233240   2.892   0.136   9.055 -1.1388 -0.9132  0.6690
 7203SOL     OW33241   0.107   2.023  17.103  0.1383 -0.1459 -0.2368
 7203SOL    HW133242   0.031   2.062  17.061  0.3353 -0.5034 -0.9195
 7203SOL    HW233243   0.130   2.079  17.177  0.6779 -0.7113  0.0248
 7204SOL     OW33244   3.650   4.369   3.256 -0.0428  0.5402 -0.6355
 7204SOL    HW133245   3.604   4.287   3.276 -0.4352  1.2679  1.4984
 7204SOL    HW233246   3.737   4.338   3.234  0.2117  1.8914 -1.5200
 7205SOL     OW33247   2.234   2.939   8.157 -0.1779  0.0884  0.2002
 7205SOL    HW133248   2.232   3.020   8.105 -0.5932 -0.1162 -0.0977
 7205SOL    HW233249   2.329   2.925   8.148  0.1095  2.4050 -0.3767
 7206SOL     OW33250   3.137   0.732   3.573 -0.4924 -0.1795  0.3569
 7206SOL    HW133251   3.125   0.781   3.492  1.0401  0.1520  0.3393
 7206SOL    HW233252   3.111   0.647   3.537  0.4328 -0.2598 -0.1008
 7207SOL     OW33253   0.745   1.999  16.978 -0.1806 -0.3214 -0.2846
 7207SOL    HW133254   0.664   1.975  17.024  0.4635 -0.1044  0.9610
 7207SOL    HW233255   0.720   2.059  16.907 -1.5665 -0.2647  0.2458
 7208SOL     OW33256   0.109   2.641   5.425 -0.2153  0.0741  0.2204
 7208SOL    HW133257   0.098   2.552   5.457 -1.8279 -0.2799 -1.3582
 7208SOL    HW233258   0.062   2.688   5.494  0.7655  1.8341 -0.3073
 7209SOL     OW33259   4.169   4.625   3.729  0.8134  0.6049  0.2831
 7209SOL    HW133260   4.260   4.639   3.702 -0.2338 -0.7632 -3.9894
 7209SOL    HW233261   4.127   4.705   3.697 -3.7778 -1.3218  1.4352
 7210SOL     OW33262   1.943   0.462  14.925 -0.0218  0.6442 -0.0709
 7210SOL    HW133263   1.998   0.435  14.852 -0.4965 -2.0411  0.5497
 7210SOL    HW233264   1.915   0.546  14.890 -0.3577  0.2901 -0.6520
 7211SOL     OW33265   0.008   2.205  10.512 -0.6783  0.0103  0.3871
 7211SOL    HW133266   0.057   2.125  10.532 -0.6806 -0.1785 -0.3437
 7211SOL    HW233267   4.711   2.232  10.598 -1.6135  0.0690  0.0520
 7212SOL     OW33268   0.395   2.614   4.951  0.1718  0.1827 -0.4315
 7212SOL    HW133269   0.389   2.519   4.960  0.3738  0.0534 -1.6528
 7212SOL    HW233270   0.318   2.653   4.993 -0.5007 -0.6613 -0.8831
 7213SOL     OW33271   3.261   3.222   4.792  0.1744 -0.6672  0.1164
 7213SOL    HW133272   3.225   3.303   4.756  1.0828 -0.0272  0.6391
 7213SOL    HW233273   3.318   3.254   4.862  1.0258 -1.2013 -0.3212
 7214SOL     OW33274   0.349   2.828   1.483 -0.2329  0.3951  0.3142
 7214SOL    HW133275   0.329   2.804   1.574 -0.0012 -1.5642 -0.1437
 7214SOL    HW233276   0.442   2.805   1.483 -0.8606 -2.2545  1.3113
 7215SOL     OW33277   0.754   3.842   2.619  0.4660  0.1378  0.2076
 7215SOL    HW133278   0.771   3.772   2.682  0.3087  0.9622  1.1728
 7215SOL    HW233279   0.822   3.831   2.552 -1.2556  2.4830 -1.9324
 7216SOL     OW33280   0.921   3.306   3.085 -0.3943  0.3849  0.0255
 7216SOL    HW133281   0.860   3.325   3.014 -1.0350 -0.5580  0.3254
 7216SOL    HW233282   0.962   3.392   3.096 -0.5729  0.6447 -1.3947
 7217SOL     OW33283   4.074   1.834   0.741  0.3428 -0.5545  0.3771
 7217SOL    HW133284   4.169   1.844   0.753  0.2049  1.1646  0.1024
 7217SOL    HW233285   4.060   1.828   0.836 -3.7107  1.7632 -0.0716
 7218SOL     OW33286   3.043   2.752   3.917 -0.1566  0.0552  0.0070
 7218SOL    HW133287   3.005   2.840   3.917 -0.3248 -0.0190  0.7904
 7218SOL    HW233288   3.109   2.769   3.850 -0.5154 -0.9479 -0.6029
 7219SOL     OW33289   2.704   1.294  16.248 -0.0833  0.2086 -0.2088
 7219SOL    HW133290   2.785   1.320  16.291 -0.1441 -1.0760  0.6786
 7219SOL    HW233291   2.685   1.213  16.296  2.2282 -0.9864 -1.2588
 7220SOL     OW33292   1.382   0.767   5.015  0.1114  0.1801 -0.1644
 7220SOL    HW133293   1.294   0.728   5.010 -0.1558  0.4640  2.0903
 7220SOL    HW233294   1.427   0.723   5.087  0.9669  1.3167 -0.0136
 7221SOL     OW33295   2.271   4.129  14.243  0.3366  0.5445 -0.6449
 7221SOL    HW133296   2.292   4.160  14.331  1.7953  0.9435 -1.1373
 7221SOL    HW233297   2.190   4.177  14.225 -0.2878 -0.0267  0.6448
 7222SOL     OW33298   1.384   3.294   3.970 -0.5636  0.2087 -0.1350
 7222SOL    HW133299   1.301   3.263   4.006 -1.3535  2.6194  0.1576
 7222SOL    HW233300   1.373   3.390   3.969  0.8237  0.3705 -0.3171
 7223SOL     OW33301   2.447   4.095   0.190  0.1447 -0.1796  0.1293
 7223SOL    HW133302   2.524   4.149   0.208  0.1967  0.0910 -0.9130
 7223SOL    HW233303   2.401   4.097   0.274  0.8186 -2.2126  0.5476
 7224SOL     OW33304   3.323   1.643   3.103  0.1292 -0.6570  0.1639
 7224SOL    HW133305   3.245   1.638   3.158 -0.4444  2.4425 -0.3693
 7224SOL    HW233306   3.353   1.552   3.098 -2.6875 -1.7304  2.9470
 7225SOL     OW33307   2.869   1.556   7.499 -0.6267  0.0885 -0.4465
 7225SOL    HW133308   2.954   1.517   7.475 -0.5822 -0.8790  1.2389
 7225SOL    HW233309   2.816   1.542   7.421 -0.8402 -1.6263  0.0089
 7226SOL     OW33310   0.787   3.658   8.582  0.2463 -0.6390  0.3999
 7226SOL    HW133311   0.817   3.567   8.578 -1.9176 -1.4129  1.6093
 7226SOL    HW233312   0.838   3.696   8.511 -0.3457 -1.3540 -0.3952
 7227SOL     OW33313   2.058   4.490   3.446  0.3276  0.3761 -0.1452
 7227SOL    HW133314   2.051   4.400   3.414  3.0228 -0.0860  0.5766
 7227SOL    HW233315   2.108   4.527   3.373 -0.2435 -0.4966 -0.9687
 7228SOL     OW33316   1.613   0.874  10.198 -0.1684 -0.2016  0.3292
 7228SOL    HW133317   1.555   0.908  10.267 -0.7167  0.9409 -0.7011
 7228SOL    HW233318   1.564   0.793  10.181  0.6150 -0.6366  0.1585
 7229SOL     OW33319   2.337   1.831  10.129 -0.2006 -0.3254  0.3150
 7229SOL    HW133320   2.293   1.770  10.189 -1.7060 -0.0471 -0.5294
 7229SOL    HW233321   2.397   1.779  10.075 -0.3929 -0.4727  0.2423
 7230SOL     OW33322   1.190   4.508   5.365 -0.2272 -0.4359  0.5243
 7230SOL    HW133323   1.259   4.456   5.323  2.2574  1.7983  1.8128
 7230SOL    HW233324   1.249   4.571   5.406  0.8094 -1.2108  0.2143
 7231SOL     OW33325   3.697   1.996   2.869 -0.1598 -0.0359 -0.1183
 7231SOL    HW133326   3.745   1.919   2.839  1.3707  0.2882  1.4888
 7231SOL    HW233327   3.720   1.995   2.962 -0.9126 -0.1054  0.0636
 7232SOL     OW33328   3.882   3.898  11.734 -0.3915  0.6012 -0.1858
 7232SOL    HW133329   3.903   3.863  11.648 -2.1537 -1.3271  0.1848
 7232SOL    HW233330   3.893   3.824  11.793  0.7153 -0.9203 -2.3438
 7233SOL     OW33331   1.372   1.565   2.991 -0.1517  0.1777 -0.4602
 7233SOL    HW133332   1.344   1.537   3.078  1.9397 -0.2119  0.1008
 7233SOL    HW233333   1.369   1.660   2.997 -0.2810  0.1958 -0.8044
 7234SOL     OW33334   1.355   1.954  13.626 -0.5833  0.0294  0.2928
 7234SOL    HW133335   1.391   1.967  13.538 -0.7852 -0.2651  0.1686
 7234SOL    HW233336   1.413   1.883  13.654 -0.4794 -1.5040 -3.8177
 7235SOL     OW33337   0.324   3.755   7.518 -0.1577 -0.2609 -0.0769
 7235SOL    HW133338   0.415   3.763   7.489 -0.2282  0.6046 -0.0668
 7235SOL    HW233339   0.329   3.684   7.582 -1.4895 -0.8935 -0.6719
 7236SOL     OW33340   3.125   2.005   2.566 -0.0283 -0.6206 -0.2876
 7236SOL    HW133341   3.150   1.913   2.563 -2.0877 -1.1450 -1.1637
 7236SOL    HW233342   3.132   2.034   2.658  1.4439  3.5829 -1.7098
 7237SOL     OW33343   3.680   1.461  13.618 -0.6278  0.4009 -0.5398
 7237SOL    HW133344   3.650   1.543  13.577 -2.0294 -0.5860 -1.4639
 7237SOL    HW233345   3.627   1.464  13.698  0.9630 -2.6577  0.6046
 7238SOL     OW33346   1.106   0.175   4.241 -0.4290 -0.0779 -0.0004
 7238SOL    HW133347   1.079   0.241   4.177 -1.4479 -0.5180 -0.0280
 7238SOL    HW233348   1.080   0.221   4.321 -0.7693 -0.2813  0.0072
 7239SOL     OW33349   4.384   4.280   5.080 -0.0587  0.0912  0.1036
 7239SOL    HW133350   4.405   4.344   5.012  0.9920  1.1591  1.4296
 7239SOL    HW233351   4.294   4.295   5.110 -0.0471  2.3891 -1.0026
 7240SOL     OW33352   1.438   3.554  13.589 -0.0477 -0.2459 -0.4345
 7240SOL    HW133353   1.506   3.516  13.645 -1.7428 -1.0863  1.0459
 7240SOL    HW233354   1.390   3.613  13.647 -0.4343  1.0878 -2.0911
 7241SOL     OW33355   4.666   1.080  12.044 -0.0860 -0.5626 -0.4417
 7241SOL    HW133356   4.648   1.089  11.951  0.4223  2.0130 -0.3033
 7241SOL    HW233357   4.724   1.005  12.054 -1.2239 -1.3722  0.1866
 7242SOL     OW33358   4.387   3.398   2.825  0.3042 -0.8753 -0.0512
 7242SOL    HW133359   4.414   3.472   2.879  0.4004 -0.1905 -1.0481
 7242SOL    HW233360   4.305   3.375   2.869 -0.2770 -0.5931 -0.9947
 7243SOL     OW33361   0.881   3.689   5.358  0.2075  0.0262  0.2257
 7243SOL    HW133362   0.912   3.682   5.267  1.0062  1.0986  0.4110
 7243SOL    HW233363   0.789   3.668   5.347  0.0236  0.9966 -0.0748
 7244SOL     OW33364   1.422   2.545   4.760 -0.2263 -0.0870  0.5720
 7244SOL    HW133365   1.421   2.593   4.676  0.0119 -0.0490  0.5917
 7244SOL    HW233366   1.511   2.561   4.791  1.0637 -1.4239 -2.3979
 7245SOL     OW33367   1.329   3.374   1.574  0.0592 -0.0395  0.1527
 7245SOL    HW133368   1.303   3.435   1.643 -1.1839  0.0510 -0.4023
 7245SOL    HW233369   1.389   3.427   1.522 -0.6365  0.1925 -0.4108
 7246SOL     OW33370   3.056   2.806   7.241  0.8774 -0.1391 -0.5995
 7246SOL    HW133371   3.095   2.892   7.224  0.1494  0.3122  0.0397
 7246SOL    HW233372   3.032   2.799   7.148 -0.4940  1.7260 -0.3785
 7247SOL     OW33373   0.324   2.715   6.937 -0.0151  0.2684 -0.2962
 7247SOL    HW133374   0.402   2.668   6.964 -0.8890 -0.3324  1.1853
 7247SOL    HW233375   0.257   2.693   7.002  0.6405  0.2932  0.3908
 7248SOL     OW33376   2.883   3.345   5.604 -0.1690 -0.1232  0.3560
 7248SOL    HW133377   2.880   3.255   5.571 -1.7759  0.8683 -2.1858
 7248SOL    HW233378   2.844   3.341   5.692  0.4975  1.1458  0.7064
 7249SOL     OW33379   1.333   2.587   8.763  0.1428  0.2035  0.1275
 7249SOL    HW133380   1.427   2.586   8.747  0.0551  0.6373 -0.3963
 7249SOL    HW233381   1.326   2.678   8.789 -0.9134  0.9181 -2.6671
 7250SOL     OW33382   2.232   3.400   9.421 -0.5250  0.2617 -0.2931
 7250SOL    HW133383   2.283   3.369   9.346  0.5082  2.6996 -0.5968
 7250SOL    HW233384   2.305   3.401   9.483 -0.5086 -0.4547 -0.3065
 7251SOL     OW33385   4.027   0.275   4.837 -0.1039  0.1389 -0.0708
 7251SOL    HW133386   3.989   0.256   4.751 -0.5428  0.5304  0.0355
 7251SOL    HW233387   4.009   0.198   4.891 -0.4743  0.4702  0.2808
 7252SOL     OW33388   4.720   0.403   5.139 -0.0493  0.0492  0.3636
 7252SOL    HW133389   4.648   0.343   5.120 -0.1434 -0.3391  1.9326
 7252SOL    HW233390   0.043   0.351   5.197 -1.1705 -1.1700  0.3474
 7253SOL     OW33391   2.669   3.002   5.333 -0.2780  0.2249 -0.3533
 7253SOL    HW133392   2.617   3.078   5.310 -0.5856 -0.0544 -0.5784
 7253SOL    HW233393   2.700   2.969   5.248 -1.3624  0.9525 -1.0195
 7254SOL     OW33394   2.062   1.038   2.069  0.3954  0.2528  0.8109
 7254SOL    HW133395   2.099   1.120   2.102  0.1334 -0.2345  2.3362
 7254SOL    HW233396   1.967   1.051   2.068  0.6361  1.7267 -1.5443
 7255SOL     OW33397   1.278   0.207   5.863  0.1778  0.2306 -0.1195
 7255SOL    HW133398   1.336   0.238   5.793 -0.2491  1.9634  0.2835
 7255SOL    HW233399   1.320   0.127   5.892  1.2173  1.0794  0.7205
 7256SOL     OW33400   4.018   3.883   0.921  0.2893 -0.3935  0.2366
 7256SOL    HW133401   3.999   3.820   0.852 -1.6701 -1.9086  2.1776
 7256SOL    HW233402   4.012   3.966   0.874  0.6206 -0.9239 -0.7612
 7257SOL     OW33403   0.733   1.546   3.711  0.6400  0.3645  0.0509
 7257SOL    HW133404   0.787   1.494   3.769  0.5794 -1.3306 -1.4083
 7257SOL    HW233405   0.718   1.632   3.751  1.2306  1.5122 -2.1982
 7258SOL     OW33406   3.169   4.587   9.427  0.4156 -0.1691 -0.0762
 7258SOL    HW133407   3.244   4.542   9.464 -0.7213 -0.8546  1.3782
 7258SOL    HW233408   3.178   4.679   9.454 -0.6422  0.1564 -0.8193
 7259SOL     OW33409   0.554   2.699  13.669  0.2481 -0.2624  0.1437
 7259SOL    HW133410   0.574   2.611  13.700  1.8113  0.8910  2.4023
 7259SOL    HW233411   0.632   2.743  13.703 -0.9401  1.5893  0.4925
 7260SOL     OW33412   2.911   3.005  12.810 -0.6734 -0.3363 -0.8586
 7260SOL    HW133413   2.994   2.978  12.769 -0.7352 -0.2869 -1.0140
 7260SOL    HW233414   2.900   3.091  12.770 -2.9396 -0.6145 -0.8018
 7261SOL     OW33415   0.903   1.673   8.142 -0.8776 -0.0064 -0.4425
 7261SOL    HW133416   0.835   1.708   8.199  0.1625  0.6727  0.3825
 7261SOL    HW233417   0.921   1.753   8.093 -1.0057  0.4524  0.2594
 7262SOL     OW33418   3.809   4.717   2.167 -0.0946 -0.5343 -0.5018
 7262SOL    HW133419   3.730   4.679   2.206  1.4788 -3.9434 -0.6040
 7262SOL    HW233420   3.795   0.079   2.167 -0.7460 -0.6342 -1.3634
 7263SOL     OW33421   0.926   3.201   0.232 -0.0555 -0.1656  0.2563
 7263SOL    HW133422   0.865   3.223   0.162  0.6788  0.1504 -0.2802
 7263SOL    HW233423   0.994   3.154   0.184 -2.4631 -1.9469 -1.3974
 7264SOL     OW33424   1.592   3.890   2.785 -0.4736 -0.4143  0.7494
 7264SOL    HW133425   1.497   3.876   2.784 -0.5522  0.1340  0.5609
 7264SOL    HW233426   1.601   3.977   2.825 -2.9481  1.5079 -2.7983
 7265SOL     OW33427   1.983   3.563   9.180 -0.0827  0.0179 -0.1861
 7265SOL    HW133428   2.048   3.619   9.223 -0.1475  1.6616 -2.2511
 7265SOL    HW233429   2.014   3.565   9.090 -1.5160 -0.4387 -0.6865
 7266SOL     OW33430   3.307   1.829  12.147 -0.0808  0.0329  0.2958
 7266SOL    HW133431   3.316   1.734  12.152 -2.6490 -0.0929  2.3198
 7266SOL    HW233432   3.359   1.847  12.069 -1.1536 -0.7535 -0.5981
 7267SOL     OW33433   3.104   3.756  16.313 -0.3466 -0.0177 -0.5636
 7267SOL    HW133434   3.057   3.761  16.396  1.0757  3.3325  0.0658
 7267SOL    HW233435   3.025   3.770  16.260 -1.0970  2.5581  1.2075
 7268SOL     OW33436   0.154   4.151   9.965  0.1545 -0.2780  0.2199
 7268SOL    HW133437   0.248   4.142   9.983  0.7426  1.9690 -1.6502
 7268SOL    HW233438   0.136   4.106   9.883  0.0778  1.5368 -0.7683
 7269SOL     OW33439   3.165   3.510   2.256 -0.2550 -0.7665  0.4428
 7269SOL    HW133440   3.079   3.551   2.242  1.2140  1.9495 -0.7011
 7269SOL    HW233441   3.169   3.498   2.351 -0.9250 -0.3918  0.5162
 7270SOL     OW33442   1.704   0.675   6.299  0.1935 -0.3985 -0.1316
 7270SOL    HW133443   1.693   0.593   6.252 -1.1813  0.2678 -0.9664
 7270SOL    HW233444   1.706   0.645   6.389  0.9062  0.0108 -0.0070
 7271SOL     OW33445   3.543   2.987   6.476  0.2929 -0.1268 -0.0744
 7271SOL    HW133446   3.623   3.037   6.461 -1.5332  1.8738 -3.0558
 7271SOL    HW233447   3.572   2.898   6.499 -1.1644 -0.7787 -0.7588
 7272SOL     OW33448   2.049   2.644   2.521 -0.2779  0.4157 -0.4348
 7272SOL    HW133449   2.124   2.692   2.485  0.4634  0.0578  0.6297
 7272SOL    HW233450   2.052   2.553   2.491  1.0356  0.6245 -0.9143
 7273SOL     OW33451   0.353   1.788   4.272 -0.3154 -0.3516  0.3199
 7273SOL    HW133452   0.431   1.842   4.287 -1.8580  1.7781  0.6535
 7273SOL    HW233453   0.382   1.705   4.309 -0.8776 -0.8239 -0.3063
 7274SOL     OW33454   3.245   1.642   4.385 -0.0909  0.1910  0.8912
 7274SOL    HW133455   3.199   1.724   4.367 -0.1286 -0.6122 -2.6082
 7274SOL    HW233456   3.208   1.586   4.317 -0.3294  0.7175  0.5830
 7275SOL     OW33457   0.517   0.073   6.667 -0.0162 -0.5016 -0.5073
 7275SOL    HW133458   0.597   0.023   6.648  1.5780  1.2422  1.6007
 7275SOL    HW233459   0.464   0.007   6.712  1.7447 -0.5796  1.4406
 7276SOL     OW33460   2.026   0.943   1.701  0.1216 -0.5119 -0.0553
 7276SOL    HW133461   1.960   1.010   1.711 -0.5627 -1.1109 -0.5890
 7276SOL    HW233462   1.996   0.872   1.644 -0.5589 -0.1124 -0.1818
 7277SOL     OW33463   2.233   2.863   2.186  0.0840  0.0704  0.1120
 7277SOL    HW133464   2.278   2.786   2.151  0.5011  0.6684 -0.6500
 7277SOL    HW233465   2.147   2.831   2.214 -0.1355  0.4105 -0.1757
 7278SOL     OW33466   0.896   3.527  17.419 -0.1700 -0.4273  0.2476
 7278SOL    HW133467   0.879   3.618  17.394  0.7199  0.0379  1.3185
 7278SOL    HW233468   0.991   3.525  17.410 -0.2249 -0.4246 -0.3022
 7279SOL     OW33469   3.377   2.494   0.490  0.5070  0.1391  0.1899
 7279SOL    HW133470   3.437   2.429   0.453  0.1031 -0.4112  0.5020
 7279SOL    HW233471   3.323   2.521   0.416  0.7596  3.2001  1.1439
 7280SOL     OW33472   3.695   0.090   4.750  0.6230  0.1362 -0.1716
 7280SOL    HW133473   3.620   0.119   4.699 -0.6608  0.1374  1.7450
 7280SOL    HW233474   3.764   0.126   4.694  0.5339  0.1969 -0.2398
 7281SOL     OW33475   0.173   2.003  15.820  0.7454 -0.1233 -0.4095
 7281SOL    HW133476   0.169   1.997  15.916 -1.5118 -1.9838 -0.5934
 7281SOL    HW233477   0.218   1.923  15.793  1.0085 -0.4360  0.9407
 7282SOL     OW33478   3.804   1.128  12.913  0.7929 -0.2146 -0.7484
 7282SOL    HW133479   3.885   1.098  12.957  0.0720 -0.0175  0.7265
 7282SOL    HW233480   3.778   1.047  12.869 -0.7232 -0.2652  0.2291
 7283SOL     OW33481   0.660   1.616   3.026  0.5141  0.1893  0.7726
 7283SOL    HW133482   0.602   1.559   3.076  0.9009 -0.8482  0.0547
 7283SOL    HW233483   0.646   1.702   3.064  1.3972  1.0093 -0.7343
 7284SOL     OW33484   1.365   2.768   3.133  0.1411  0.1790  0.0678
 7284SOL    HW133485   1.287   2.758   3.079  0.4264 -1.7079  0.0002
 7284SOL    HW233486   1.400   2.854   3.111 -0.1471 -0.0678 -1.3847
 7285SOL     OW33487   1.342   1.361   4.479  0.5343  0.2748  0.2628
 7285SOL    HW133488   1.326   1.314   4.397  0.5451  0.6405  0.0495
 7285SOL    HW233489   1.252   1.393   4.488  0.1407 -0.5797 -0.6398
 7286SOL     OW33490   4.653   3.414  17.558 -0.3166 -0.3887 -0.1682
 7286SOL    HW133491   4.692   3.499  17.579 -2.0035  0.6955 -1.3802
 7286SOL    HW233492   4.590   3.411  17.630 -0.6046  0.5601 -0.3743
 7287SOL     OW33493   0.317   3.894  10.746 -0.2205 -0.0531 -0.2724
 7287SOL    HW133494   0.356   3.966  10.795  0.7544  0.1805 -1.3891
 7287SOL    HW233495   0.385   3.879  10.680 -0.3868  0.9715 -0.6740
 7288SOL     OW33496   1.921   4.641   1.937 -0.2056  0.1858  0.1909
 7288SOL    HW133497   1.965   4.720   1.966  0.0120  0.4261 -0.8198
 7288SOL    HW233498   1.841   4.662   1.985 -0.8783  2.0776 -1.7970
 7289SOL     OW33499   1.870   4.092   7.210 -0.4531 -0.7649 -0.1577
 7289SOL    HW133500   1.880   4.157   7.141 -0.2581  0.2388  0.8253
 7289SOL    HW233501   1.947   4.036   7.199  1.1864  1.1917  1.3578
 7290SOL     OW33502   4.220   3.042   5.680  0.5694 -0.4446 -0.0961
 7290SOL    HW133503   4.198   3.036   5.773 -0.1723 -0.5300 -0.2753
 7290SOL    HW233504   4.132   3.018   5.650  1.2846 -2.9187 -0.2702
 7291SOL     OW33505   4.596   4.369   2.239  0.3192 -0.2829  0.1149
 7291SOL    HW133506   4.683   4.408   2.247  0.3400 -0.6413  1.6613
 7291SOL    HW233507   4.593   4.386   2.145 -0.4116 -2.5118 -0.2855
 7292SOL     OW33508   0.283   3.401   5.201  0.0133 -0.0923 -0.0265
 7292SOL    HW133509   0.217   3.333   5.210  1.3577 -1.5441 -1.1423
 7292SOL    HW233510   0.243   3.475   5.247 -2.2831 -1.0694 -0.4990
 7293SOL     OW33511   0.310   0.886   2.392 -0.1388 -0.1696  0.3219
 7293SOL    HW133512   0.391   0.909   2.347  0.5530  1.0258  2.1677
 7293SOL    HW233513   0.260   0.858   2.315  1.4580  0.3606 -0.8979
 7294SOL     OW33514   2.704   2.638   5.833 -0.0515  0.4713  0.3389
 7294SOL    HW133515   2.713   2.732   5.851 -2.1375  0.5980  0.6482
 7294SOL    HW233516   2.784   2.609   5.877 -1.2032 -1.1237  1.3936
 7295SOL     OW33517   1.041   4.365   2.262  0.0142  0.6023 -0.3592
 7295SOL    HW133518   1.126   4.328   2.285 -0.0986 -1.0979 -2.6406
 7295SOL    HW233519   1.018   4.423   2.334 -0.2433  0.2999 -0.1942
 7296SOL     OW33520   4.644   0.942   0.517 -0.3180  0.1844 -0.0340
 7296SOL    HW133521   4.725   0.891   0.528  0.2951  1.3229  0.7572
 7296SOL    HW233522   4.671   1.024   0.477 -0.7539  0.3794  0.0795
 7297SOL     OW33523   2.941   2.310   7.945 -0.3853 -0.1580  0.2298
 7297SOL    HW133524   2.938   2.247   7.873 -0.7249  0.0118  0.0944
 7297SOL    HW233525   2.984   2.381   7.896 -2.4365  2.4741  2.2389
 7298SOL     OW33526   3.184   0.761  15.332  0.2410 -0.7291  0.5173
 7298SOL    HW133527   3.278   0.755  15.317 -0.2131  0.0924 -2.7606
 7298SOL    HW233528   3.154   0.846  15.300 -0.0782 -1.5557 -1.4046
 7299SOL     OW33529   1.914   1.167   8.114  0.1854 -0.2414  0.1506
 7299SOL    HW133530   1.940   1.259   8.115  0.0368 -0.2248  2.5412
 7299SOL    HW233531   1.925   1.140   8.206  3.4808 -0.3328 -0.2534
 7300SOL     OW33532   1.286   3.720   5.987  0.4559  0.1495 -0.1855
 7300SOL    HW133533   1.314   3.792   6.045  2.7298  0.3567 -1.5388
 7300SOL    HW233534   1.192   3.727   6.005  0.3605 -0.9037 -0.3126
 7301SOL     OW33535   3.808   2.707   8.988  0.1083 -0.2919  0.2198
 7301SOL    HW133536   3.764   2.769   9.047  1.2413  0.8904 -0.1879
 7301SOL    HW233537   3.884   2.756   8.958 -0.7671 -0.4211 -2.2023
 7302SOL     OW33538   0.269   1.987   8.264 -0.2425  0.5791 -0.1398
 7302SOL    HW133539   0.334   1.966   8.197  0.0779  1.6515 -0.1756
 7302SOL    HW233540   0.262   1.902   8.307  1.1551  0.9972  0.9271
 7303SOL     OW33541   0.537   2.230  16.333 -0.4908 -0.8307 -0.2072
 7303SOL    HW133542   0.623   2.188  16.332 -0.0871  0.0065 -0.3544
 7303SOL    HW233543   0.523   2.227  16.428 -1.2377 -1.2434 -0.3268
 7304SOL     OW33544   3.796   0.136   5.005  0.3718  0.1041  0.0556
 7304SOL    HW133545   3.725   0.110   5.064  1.6145 -1.2819  0.9416
 7304SOL    HW233546   3.763   0.122   4.916 -1.1868  1.3927  0.4268
 7305SOL     OW33547   0.162   4.632   4.724 -0.5073 -0.0303 -0.3992
 7305SOL    HW133548   0.212   4.559   4.759  0.1790  0.5884 -0.0964
 7305SOL    HW233549   0.202   4.641   4.637 -0.9888  0.6166 -0.5553
 7306SOL     OW33550   2.645   1.696   9.572 -0.5349  0.7037  0.3011
 7306SOL    HW133551   2.667   1.744   9.652  1.1653 -0.5147  0.5596
 7306SOL    HW233552   2.555   1.724   9.560  0.4238  2.6488 -2.2384
 7307SOL     OW33553   3.517   0.846   9.811  0.4212 -0.0675 -0.3760
 7307SOL    HW133554   3.596   0.838   9.757  1.6731  2.0543  1.1266
 7307SOL    HW233555   3.514   0.942   9.818  1.1017 -0.0572 -0.3053
 7308SOL     OW33556   2.661   4.520   7.922  0.1103 -0.3380 -0.0492
 7308SOL    HW133557   2.735   4.568   7.958  0.0648 -1.0975  1.0786
 7308SOL    HW233558   2.591   4.553   7.977  0.2678  0.8023 -0.5395
 7309SOL     OW33559   1.697   4.693   5.237  0.1281 -0.3090 -0.5990
 7309SOL    HW133560   1.792   4.693   5.245  0.2211  0.0802 -1.7368
 7309SOL    HW233561   1.673   4.615   5.288  0.4530 -2.4843 -3.7452
 7310SOL     OW33562   4.323   1.616   3.456 -0.4174 -0.4140 -0.3683
 7310SOL    HW133563   4.357   1.583   3.539  2.3911 -1.5819 -1.9775
 7310SOL    HW233564   4.353   1.706   3.470 -0.3028 -0.5257  0.1171
 7311SOL     OW33565   0.422   4.457   6.834 -0.5317  0.1647  0.4376
 7311SOL    HW133566   0.331   4.429   6.830 -1.1005  2.0466  0.0189
 7311SOL    HW233567   0.467   4.385   6.789 -1.5848  0.5594 -1.2487
 7312SOL     OW33568   0.556   0.013   8.246  0.5749  0.1131 -0.0162
 7312SOL    HW133569   0.500   0.047   8.176  3.9200  4.2208 -0.6720
 7312SOL    HW233570   0.622   0.081   8.236  0.9709 -0.0557  1.5015
 7313SOL     OW33571   1.836   3.293   1.454  0.2363 -0.0838  0.4276
 7313SOL    HW133572   1.897   3.357   1.418 -0.8796  0.3785 -0.6415
 7313SOL    HW233573   1.899   3.221   1.457 -0.9278 -1.1536 -0.6606
 7314SOL     OW33574   0.317   3.942   3.812 -0.4913 -0.6185 -0.5682
 7314SOL    HW133575   0.388   3.891   3.772 -2.3819 -0.8236 -3.6712
 7314SOL    HW233576   0.356   3.989   3.885  2.1162 -2.9022 -0.4696
 7315SOL     OW33577   0.976   4.616   8.263 -0.3344 -0.3050  0.0815
 7315SOL    HW133578   0.884   4.594   8.274 -0.6914  1.6940  1.2324
 7315SOL    HW233579   1.016   4.561   8.331  0.3179 -0.4899 -0.4532
 7316SOL     OW33580   0.306   1.709   3.660  0.1247 -0.1096 -0.4720
 7316SOL    HW133581   0.339   1.664   3.738 -1.7213  2.4750  1.8186
 7316SOL    HW233582   0.212   1.719   3.673  0.0445 -1.1647 -0.2102
 7317SOL     OW33583   3.169   0.776  10.090  0.2395 -0.2439  0.1327
 7317SOL    HW133584   3.114   0.716  10.040  0.9903  0.5679 -1.6589
 7317SOL    HW233585   3.252   0.730  10.083  0.4351 -0.2736  2.6002
 7318SOL     OW33586   1.120   1.651   3.832 -0.6644 -0.0171 -0.1864
 7318SOL    HW133587   1.135   1.708   3.756  1.4864 -2.8877 -1.8943
 7318SOL    HW233588   1.193   1.591   3.815 -0.4074  0.3214 -0.2923
 7319SOL     OW33589   1.041   3.843   5.805 -0.6159  0.4848  0.1488
 7319SOL    HW133590   1.059   3.880   5.718  0.9102  2.0680  1.1469
 7319SOL    HW233591   1.080   3.756   5.800  0.5797  1.1909 -3.3749
 7320SOL     OW33592   4.091   2.919   4.544  0.9071  0.1412  0.1646
 7320SOL    HW133593   4.076   3.009   4.513  0.9643  0.5478  1.3065
 7320SOL    HW233594   4.034   2.869   4.487 -0.1282 -1.1375  2.3395
 7321SOL     OW33595   0.260   1.170   2.803  0.3163  0.3201 -0.0442
 7321SOL    HW133596   0.208   1.140   2.728  0.9515 -0.0880 -0.3232
 7321SOL    HW233597   0.289   1.084   2.833  0.5104 -0.2420 -1.8208
 7322SOL     OW33598   2.313   3.087  15.758  0.0629  0.2676 -0.3554
 7322SOL    HW133599   2.267   3.010  15.726  0.8945 -0.3826  0.0160
 7322SOL    HW233600   2.246   3.137  15.804  0.3814 -0.0262  0.4208
 7323SOL     OW33601   2.408   2.402   6.736 -0.1139 -0.0850 -0.0969
 7323SOL    HW133602   2.381   2.494   6.734  2.9778  0.8624  1.2641
 7323SOL    HW233603   2.486   2.399   6.682  1.1457 -0.3471  1.7281
 7324SOL     OW33604   1.672   3.596  15.830  0.0642 -0.3547 -0.5480
 7324SOL    HW133605   1.647   3.689  15.827 -0.9807 -0.6492 -0.7589
 7324SOL    HW233606   1.666   3.579  15.924 -2.1583  0.9937 -0.4452
 7325SOL     OW33607   3.811   2.402   3.036  0.1441 -0.0908  0.2689
 7325SOL    HW133608   3.727   2.396   2.991 -0.5446  0.9673  1.4172
 7325SOL    HW233609   3.804   2.320   3.085 -0.8583 -0.5069 -0.5580
 7326SOL     OW33610   1.876   0.990  10.220  0.4107  0.4382 -0.0911
 7326SOL    HW133611   1.787   0.956  10.218  0.2311  0.8383  0.9885
 7326SOL    HW233612   1.910   0.959  10.304 -1.4655 -2.4554 -0.4083
 7327SOL     OW33613   4.396   1.507   5.131 -0.0380 -0.2177 -0.3310
 7327SOL    HW133614   4.343   1.577   5.169  0.4884  1.4798 -2.7397
 7327SOL    HW233615   4.431   1.456   5.204 -0.6936 -0.6127 -0.2901
 7328SOL     OW33616   0.195   0.219   5.231 -0.0508  0.4959  0.2935
 7328SOL    HW133617   0.234   0.150   5.178  0.0298 -0.2027  1.2721
 7328SOL    HW233618   0.122   0.172   5.270  0.7561  0.3624  1.6231
 7329SOL     OW33619   2.898   3.077   7.832 -0.3429 -0.8687 -0.2716
 7329SOL    HW133620   2.835   3.093   7.762 -1.5193 -3.6491  0.1883
 7329SOL    HW233621   2.929   2.991   7.806 -1.8190 -0.8739 -2.0160
 7330SOL     OW33622   4.415   0.531  10.028 -0.6144 -0.0986  0.2265
 7330SOL    HW133623   4.421   0.533  10.123  0.6297 -3.0324  0.1964
 7330SOL    HW233624   4.345   0.470  10.006 -1.0013  0.1672  0.7247
 7331SOL     OW33625   4.448   4.452   7.106  0.3137 -0.0002 -0.6206
 7331SOL    HW133626   4.358   4.476   7.086  0.0419 -0.8257 -0.3810
 7331SOL    HW233627   4.446   4.358   7.089  0.7626  0.1213 -1.3605
 7332SOL     OW33628   2.722   0.198  15.864  0.5759  0.2405  0.7857
 7332SOL    HW133629   2.736   0.290  15.843  0.5486 -0.2573 -1.5234
 7332SOL    HW233630   2.718   0.215  15.958 -0.0981  1.3443  0.5545
 7333SOL     OW33631   3.537   3.800  17.145  0.3628  0.8021 -0.2445
 7333SOL    HW133632   3.545   3.740  17.071  0.4712  0.1247  0.3134
 7333SOL    HW233633   3.563   3.885  17.109  2.7918 -0.0035 -0.3830
 7334SOL     OW33634   2.957   4.144  13.434 -0.1964 -0.1920 -0.0496
 7334SOL    HW133635   2.887   4.085  13.407 -1.1773  0.9637 -0.0035
 7334SOL    HW233636   2.990   4.097  13.510 -0.5240  0.3302  0.4072
 7335SOL     OW33637   1.998   1.530   3.331  0.0136 -0.6477 -0.3048
 7335SOL    HW133638   1.990   1.617   3.370  1.7076 -1.6908  2.3877
 7335SOL    HW233639   1.975   1.481   3.411 -0.8828 -0.0331 -0.1923
 7336SOL     OW33640   0.447   2.092  15.270 -0.0899 -0.4145 -0.0101
 7336SOL    HW133641   0.372   2.071  15.215 -0.8264 -1.3199  1.3412
 7336SOL    HW233642   0.503   2.014  15.269 -0.5822 -0.7757  0.8508
 7337SOL     OW33643   4.565   2.631  17.356  0.0964 -0.0028  0.2198
 7337SOL    HW133644   4.496   2.589  17.306  1.4861 -0.1254 -1.6100
 7337SOL    HW233645   4.636   2.567  17.352 -0.2666 -0.3885 -0.0091
 7338SOL     OW33646   4.650   0.947   7.003  0.6804 -0.2046 -0.4018
 7338SOL    HW133647   4.710   0.945   6.928  0.7817  3.2646 -0.4009
 7338SOL    HW233648   4.715   0.948   7.072 -1.7544 -0.2401  1.8779
 7339SOL     OW33649   2.320   3.733   4.517  0.0767  0.6443  0.0012
 7339SOL    HW133650   2.227   3.749   4.528  0.4552  2.9534 -0.2479
 7339SOL    HW233651   2.327   3.722   4.422 -2.4942  0.4682 -0.1542
 7340SOL     OW33652   2.940   0.945  11.321  0.0421  0.6347 -0.0075
 7340SOL    HW133653   2.942   0.927  11.227  0.6878  0.7511 -0.0139
 7340SOL    HW233654   2.924   1.039  11.328 -0.9706  0.3511  1.3631
 7341SOL     OW33655   3.677   2.714   2.554 -0.4877 -0.0075 -0.6421
 7341SOL    HW133656   3.726   2.664   2.489  1.5364  0.4131  0.5484
 7341SOL    HW233657   3.644   2.784   2.498 -0.3101 -0.7679 -1.6908
 7342SOL     OW33658   0.197   3.311  15.164  0.3019  0.2316  0.0418
 7342SOL    HW133659   0.106   3.281  15.164  0.3802 -0.0132  0.4202
 7342SOL    HW233660   0.208   3.294  15.071  0.3237  0.9217 -0.0840
 7343SOL     OW33661   1.523   3.599   6.698  0.0031  0.3186 -0.9812
 7343SOL    HW133662   1.595   3.641   6.746  0.1290 -0.0574 -0.8372
 7343SOL    HW233663   1.449   3.615   6.757  0.2362 -0.7934 -0.3807
 7344SOL     OW33664   3.674   2.297   6.522 -0.4062 -0.1268  0.3106
 7344SOL    HW133665   3.766   2.315   6.543 -0.6813  0.8229  0.6927
 7344SOL    HW233666   3.632   2.309   6.607  0.8812  0.9529  0.7918
 7345SOL     OW33667   4.464   3.068   2.414  0.0289 -0.0558 -0.4031
 7345SOL    HW133668   4.558   3.052   2.418  0.3117  1.7158 -0.0858
 7345SOL    HW233669   4.452   3.135   2.347  1.1944 -0.4476 -1.0072
 7346SOL     OW33670   2.733   0.345   0.318  0.0144 -0.5264 -0.0623
 7346SOL    HW133671   2.819   0.368   0.353 -0.2029 -0.5986  0.5070
 7346SOL    HW233672   2.697   0.277   0.374  2.9430 -0.5360  1.8058
 7347SOL     OW33673   1.631   0.307   8.331  0.5866 -0.1551 -0.1925
 7347SOL    HW133674   1.705   0.366   8.315  2.1867 -2.1627 -0.2029
 7347SOL    HW233675   1.565   0.366   8.369  1.4045 -1.3418  3.0529
 7348SOL     OW33676   3.587   4.378  17.703 -0.3807  0.0264  0.1485
 7348SOL    HW133677   3.650   4.349  17.637 -1.3353 -0.1360 -0.6886
 7348SOL    HW233678   3.578   4.471  17.681  0.0094  0.1107  0.3461
 7349SOL     OW33679   1.158   0.684   6.796 -0.0545 -0.3970  0.0162
 7349SOL    HW133680   1.214   0.688   6.873 -1.5361  3.8351  0.8901
 7349SOL    HW233681   1.224   0.668   6.728 -0.3250 -0.6329 -0.1867
 7350SOL     OW33682   0.652   0.738   7.475  0.0634 -0.0936  0.3161
 7350SOL    HW133683   0.673   0.673   7.542 -0.2086 -0.2883  0.2087
 7350SOL    HW233684   0.652   0.696   7.390 -1.2217  2.2790 -0.8566
 7351SOL     OW33685   0.097   3.550   0.132  0.3288 -0.3920 -0.2672
 7351SOL    HW133686   0.111   3.559   0.038 -0.8553 -3.2085 -0.7357
 7351SOL    HW233687   0.010   3.511   0.128 -0.0754  0.4535  0.4827
 7352SOL     OW33688   0.026   2.286  14.564  0.2988 -0.3631  0.5030
 7352SOL    HW133689   0.111   2.329  14.573 -0.8311  1.8704  0.3885
 7352SOL    HW233690   0.009   2.288  14.470 -0.2152 -1.8083  0.5604
 7353SOL     OW33691   2.087   3.362   5.293 -0.1406  0.2402  0.1139
 7353SOL    HW133692   1.993   3.364   5.279  0.3159 -0.1285 -3.0599
 7353SOL    HW233693   2.119   3.401   5.211 -0.0121  1.1584  0.6088
 7354SOL     OW33694   2.584   3.153  17.236  0.3419  0.0124  0.2280
 7354SOL    HW133695   2.561   3.092  17.166  0.5670 -1.0666  1.1082
 7354SOL    HW233696   2.661   3.192  17.196  0.5486  1.2106  1.7885
 7355SOL     OW33697   0.615   0.728  13.888  0.0391 -0.1303 -0.0666
 7355SOL    HW133698   0.519   0.729  13.895  0.0851 -0.9450  0.6327
 7355SOL    HW233699   0.629   0.644  13.844 -2.0760 -0.0088 -0.9814
 7356SOL     OW33700   2.063   1.378   3.065 -0.1439 -0.0902 -0.5500
 7356SOL    HW133701   2.046   1.440   3.136 -1.4881 -1.3527  0.2402
 7356SOL    HW233702   2.134   1.324   3.098  0.1408 -0.0691 -1.1336
 7357SOL     OW33703   2.665   4.544   2.660  0.3271  0.3588 -0.0338
 7357SOL    HW133704   2.622   4.529   2.745  0.2547  1.7071  0.1660
 7357SOL    HW233705   2.725   4.470   2.658 -2.3997 -1.9105  1.4505
 7358SOL     OW33706   1.478   4.083   1.470 -0.2493 -0.0245 -0.0662
 7358SOL    HW133707   1.500   4.092   1.378  0.2968 -0.0462  0.0626
 7358SOL    HW233708   1.447   3.992   1.473 -0.6046  0.0638 -1.2983
 7359SOL     OW33709   0.266   0.294   9.132 -0.3310 -0.5097 -0.3381
 7359SOL    HW133710   0.227   0.359   9.075 -0.5654 -0.5110 -0.1798
 7359SOL    HW233711   0.196   0.273   9.194 -1.9891  3.3641 -0.9642
 7360SOL     OW33712   1.978   2.404  17.634  0.6919 -0.0935 -0.0723
 7360SOL    HW133713   1.970   2.450  17.551  0.6007  2.2634  1.2469
 7360SOL    HW233714   2.053   2.346  17.620 -2.6092 -4.1199 -1.1194
 7361SOL     OW33715   0.854   3.740  13.956 -0.2907 -0.1020 -0.8156
 7361SOL    HW133716   0.797   3.674  13.916 -0.2132  0.7566 -2.3390
 7361SOL    HW233717   0.789   3.809  13.967 -1.1224 -0.7867 -1.4488
 7362SOL     OW33718   3.107   0.116   5.101 -0.5274 -0.3280  0.1996
 7362SOL    HW133719   3.120   0.205   5.131  1.5845 -0.6082  0.0904
 7362SOL    HW233720   3.072   0.131   5.013  1.4296 -4.5208 -1.2926
 7363SOL     OW33721   2.876   2.399  10.200  0.4369 -0.1643 -0.1572
 7363SOL    HW133722   2.931   2.394  10.278  1.8256  1.7558 -1.0119
 7363SOL    HW233723   2.912   2.323  10.153  1.2002  0.4340 -0.5288
 7364SOL     OW33724   2.540   1.335   6.009  0.3317 -0.4215  0.2243
 7364SOL    HW133725   2.484   1.266   5.971 -1.8297  1.1546  0.5612
 7364SOL    HW233726   2.482   1.349   6.084 -0.7406  2.3808 -1.1109
 7365SOL     OW33727   1.016   4.086  16.949  0.0215 -0.4791  0.8458
 7365SOL    HW133728   1.077   4.142  16.900  0.9622 -2.1328  0.1464
 7365SOL    HW233729   1.040   4.007  16.900  2.0501  1.0399 -0.6489
 7366SOL     OW33730   2.466   2.117  13.180  0.3823  0.3175 -0.7313
 7366SOL    HW133731   2.427   2.167  13.251 -0.2278 -3.0601  1.3353
 7366SOL    HW233732   2.558   2.140  13.193  0.7163 -0.2650 -2.0609
 7367SOL     OW33733   0.953   4.317   5.067 -0.0773 -0.5868 -0.1266
 7367SOL    HW133734   0.863   4.325   5.100  0.3876  2.8327  0.2575
 7367SOL    HW233735   0.945   4.340   4.975 -0.2877 -0.5264 -0.0947
 7368SOL     OW33736   4.064   0.006   8.880 -0.7202 -0.4325  0.1007
 7368SOL    HW133737   4.081   0.100   8.885  0.4365 -0.7838  2.7472
 7368SOL    HW233738   4.122   4.713   8.951  1.0843  1.3882 -0.7279
 7369SOL     OW33739   4.185   3.140  14.047 -0.0146  0.5567  0.0193
 7369SOL    HW133740   4.142   3.125  13.963  1.2888  0.1409 -0.5730
 7369SOL    HW233741   4.217   3.227  14.027  2.5981 -0.5294 -0.5645
 7370SOL     OW33742   0.297   4.143  16.476 -0.8367  0.8442 -0.3366
 7370SOL    HW133743   0.317   4.067  16.531  0.7181  2.2570  1.0308
 7370SOL    HW233744   0.256   4.195  16.545  0.2364 -0.5316  1.3559
 7371SOL     OW33745   4.006   3.661   0.743 -0.1649  0.3929  0.0148
 7371SOL    HW133746   4.067   3.703   0.682 -0.7636 -0.5159 -1.2121
 7371SOL    HW233747   3.953   3.619   0.675 -0.1649 -0.6253  0.6485
 7372SOL     OW33748   4.539   4.369   6.666 -0.3014  0.4620 -0.0059
 7372SOL    HW133749   4.447   4.391   6.683 -0.5252 -0.8262  0.4645
 7372SOL    HW233750   4.564   4.458   6.640 -2.8170  1.0238 -0.4772
 7373SOL     OW33751   1.270   3.183  11.974 -0.1194  0.1607  0.1141
 7373SOL    HW133752   1.252   3.270  12.009 -3.6645 -0.3630 -0.4742
 7373SOL    HW233753   1.366   3.187  11.978 -0.0213 -2.4357  0.0347
 7374SOL     OW33754   3.977   3.676  11.908  0.1282  0.2734  0.2660
 7374SOL    HW133755   3.980   3.613  11.837 -2.7554 -0.6960  1.0227
 7374SOL    HW233756   4.006   3.615  11.976 -1.2488  1.3363  1.8065
 7375SOL     OW33757   0.005   0.907   6.559  0.2098  0.1375 -0.4248
 7375SOL    HW133758   4.662   0.848   6.555  1.6589 -1.6203 -1.9178
 7375SOL    HW233759   0.080   0.851   6.580  0.9182  1.8296  1.5544
 7376SOL     OW33760   1.860   4.538   4.860  0.8066  0.0962 -0.5603
 7376SOL    HW133761   1.916   4.481   4.913  0.8357 -0.1651 -0.8671
 7376SOL    HW233762   1.858   4.619   4.910 -1.9178 -0.1531 -0.2418
 7377SOL     OW33763   4.059   4.723   0.137 -0.1585  0.0994 -0.9424
 7377SOL    HW133764   4.129   0.042   0.096  0.6541 -0.9988 -0.9607
 7377SOL    HW233765   4.018   0.067   0.177  2.1303  0.1074  1.4049
 7378SOL     OW33766   4.214   2.848   5.060 -0.3151 -0.4883 -0.6077
 7378SOL    HW133767   4.185   2.864   5.150  0.5388  0.5314 -0.4976
 7378SOL    HW233768   4.127   2.842   5.021 -1.8540  1.2832  2.4933
 7379SOL     OW33769   3.633   4.014   3.905 -0.1619  0.3902 -0.0776
 7379SOL    HW133770   3.560   4.068   3.934 -1.7364 -0.2616 -2.8716
 7379SOL    HW233771   3.703   4.080   3.900  1.2065 -0.8242  2.9866
 7380SOL     OW33772   2.427   1.781   8.587  0.2759  0.3806 -0.0526
 7380SOL    HW133773   2.399   1.690   8.581 -1.0492  1.1173 -4.9457
 7380SOL    HW233774   2.409   1.800   8.679 -1.5391  0.0284 -0.3349
 7381SOL     OW33775   2.956   4.254  16.115  0.0014 -0.0528 -0.7623
 7381SOL    HW133776   2.980   4.191  16.183 -3.7452  0.3453  0.9410
 7381SOL    HW233777   3.034   4.256  16.059  0.0497  0.9518 -0.6577
 7382SOL     OW33778   3.801   3.998   8.061 -0.8329  0.6069  0.6815
 7382SOL    HW133779   3.760   4.059   8.123 -0.4218 -0.1110  1.6733
 7382SOL    HW233780   3.831   4.046   7.984  0.3339  1.2412  1.5422
 7383SOL     OW33781   0.433   1.462   8.366 -0.0584 -0.0426  0.3282
 7383SOL    HW133782   0.398   1.403   8.300 -1.1382 -0.1187  0.9524
 7383SOL    HW233783   0.419   1.406   8.442  1.5015 -1.9481 -0.8060
 7384SOL     OW33784   2.287   3.108  13.805  0.1759  0.0545 -0.6649
 7384SOL    HW133785   2.361   3.083  13.860 -0.2943 -0.4059 -0.2436
 7384SOL    HW233786   2.281   3.203  13.814 -1.3388 -0.0897 -0.1207
 7385SOL     OW33787   1.423   1.833   7.903 -0.2050  0.2793  0.1588
 7385SOL    HW133788   1.366   1.779   7.957  0.5812 -2.5337 -1.8271
 7385SOL    HW233789   1.500   1.776   7.896 -0.8442 -0.8495  2.4462
 7386SOL     OW33790   1.107   3.580   5.761  0.9971 -0.6137  0.6713
 7386SOL    HW133791   1.134   3.511   5.821  0.1378 -1.8640 -0.3630
 7386SOL    HW233792   1.012   3.570   5.755  0.8994  1.2083 -0.8499
 7387SOL     OW33793   1.494   0.015   8.499  0.0231 -0.4044 -0.0667
 7387SOL    HW133794   1.581   4.709   8.488 -0.6732 -1.3805 -2.1371
 7387SOL    HW233795   1.450   4.669   8.468  0.7591  0.1577 -2.5309
 7388SOL     OW33796   4.129   0.035   3.319 -0.3230 -0.6993 -0.3075
 7388SOL    HW133797   4.197   4.700   3.317  1.7173  1.3512  0.2376
 7388SOL    HW233798   4.167   0.107   3.269  2.2736 -0.8161  1.5066
 7389SOL     OW33799   1.305   1.234   2.816  0.3548 -0.3578  0.0184
 7389SOL    HW133800   1.311   1.308   2.755  1.1091  2.2322  3.2127
 7389SOL    HW233801   1.398   1.215   2.824  0.0687 -1.2866  1.1428
 7390SOL     OW33802   3.372   1.048   5.946  0.0618  0.6937 -0.5201
 7390SOL    HW133803   3.400   1.029   5.856  0.2188 -0.6333 -0.1817
 7390SOL    HW233804   3.303   0.982   5.956  1.1507 -0.0769  1.8922
 7391SOL     OW33805   0.094   0.834   6.304 -0.3863  0.0876 -0.0015
 7391SOL    HW133806   0.048   0.868   6.227 -0.3100 -1.0771 -0.5643
 7391SOL    HW233807   0.024   0.842   6.368 -1.2304 -2.2362 -0.6047
 7392SOL     OW33808   2.276   3.890   2.276  0.7431 -0.4408 -0.3282
 7392SOL    HW133809   2.189   3.921   2.302  0.4412 -0.4249 -1.3342
 7392SOL    HW233810   2.289   3.942   2.196  2.2678  0.4394  0.5048
 7393SOL     OW33811   1.317   0.762  12.530  0.3462 -0.5636 -0.1815
 7393SOL    HW133812   1.222   0.775  12.530  0.2018 -1.5748  1.1024
 7393SOL    HW233813   1.343   0.853  12.542  0.7972 -0.6308 -0.6742
 7394SOL     OW33814   1.507   3.059   5.390 -0.3722  0.4573 -0.4353
 7394SOL    HW133815   1.471   3.146   5.403 -1.8626 -0.2909  0.3905
 7394SOL    HW233816   1.476   3.035   5.303  2.7446 -0.3339 -1.3452
 7395SOL     OW33817   3.615   0.859  12.354 -0.4123 -0.0630 -0.3265
 7395SOL    HW133818   3.694   0.885  12.402 -2.0332  2.0902  1.2128
 7395SOL    HW233819   3.606   0.765  12.368 -1.5211  0.0234 -0.4859
 7396SOL     OW33820   0.976   4.286  10.361  0.3954 -0.2307 -0.1877
 7396SOL    HW133821   0.953   4.297  10.269 -0.8968 -1.2912 -0.0021
 7396SOL    HW233822   0.929   4.359  10.401  0.2505  0.0301 -0.8484
 7397SOL     OW33823   2.945   0.175   7.790  0.2936 -0.3876 -0.0038
 7397SOL    HW133824   2.952   0.080   7.791  1.4903 -0.2846  1.5031
 7397SOL    HW233825   2.850   0.187   7.795  0.4062  0.0394  1.2756
 7398SOL     OW33826   1.507   4.097   5.122  0.5053 -0.4861 -0.3303
 7398SOL    HW133827   1.456   4.062   5.194  0.3090 -0.0889 -0.2783
 7398SOL    HW233828   1.541   4.018   5.079  0.7532  0.8682 -2.6310
 7399SOL     OW33829   0.984   0.587   2.001  0.2373 -0.1018  0.2227
 7399SOL    HW133830   0.933   0.514   1.965  2.2408 -0.3860 -2.0394
 7399SOL    HW233831   0.922   0.629   2.061  1.5362  2.5117 -0.2398
 7400SOL     OW33832   2.966   4.079   5.583 -0.1952 -0.3011  0.4821
 7400SOL    HW133833   2.913   4.012   5.626 -1.2363  0.6105  0.6248
 7400SOL    HW233834   3.052   4.038   5.574  0.8298  1.9278  0.0563
 7401SOL     OW33835   3.204   1.593  13.962 -0.0383  0.3798 -0.0962
 7401SOL    HW133836   3.204   1.573  13.869  1.0164  0.3947 -0.0925
 7401SOL    HW233837   3.121   1.557  13.994  2.0036 -1.8291  2.7544
 7402SOL     OW33838   0.019   0.291  17.034  0.1264  0.1298  0.1730
 7402SOL    HW133839   4.674   0.329  16.992 -0.0244 -1.7368 -1.2347
 7402SOL    HW233840   0.023   0.341  17.116  0.0504  3.6727 -1.9712
 7403SOL     OW33841   1.709   1.439   0.438 -0.5578  0.2998 -0.2033
 7403SOL    HW133842   1.753   1.368   0.391  1.3131  0.1714  1.7577
 7403SOL    HW233843   1.682   1.385   0.511 -0.0569 -0.4395 -0.5677
 7404SOL     OW33844   1.475   2.206  13.634  0.1437 -0.3664  0.2126
 7404SOL    HW133845   1.516   2.178  13.552 -0.2262  0.6696 -0.3214
 7404SOL    HW233846   1.430   2.126  13.662 -0.7576 -0.3901 -1.2922
 7405SOL     OW33847   3.080   2.876   3.132 -0.1526 -0.0391 -0.4739
 7405SOL    HW133848   3.169   2.910   3.120 -0.3701  0.2709 -1.2391
 7405SOL    HW233849   3.080   2.813   3.059 -1.0766 -0.4209 -0.1448
 7406SOL     OW33850   1.118   4.600   3.039 -0.0566  0.0995 -0.0530
 7406SOL    HW133851   1.056   4.585   3.110  1.4194 -1.1755  0.9764
 7406SOL    HW233852   1.173   4.522   3.053 -0.4413  0.0141  1.0130
 7407SOL     OW33853   1.220   2.408   2.880 -0.3851 -0.0327  0.8669
 7407SOL    HW133854   1.271   2.468   2.825 -0.7667 -0.3317  0.1842
 7407SOL    HW233855   1.201   2.463   2.955  1.3950 -1.1867  2.1516
 7408SOL     OW33856   4.597   2.114   2.318 -0.1220 -0.0475 -0.1967
 7408SOL    HW133857   4.658   2.182   2.290 -0.6381  0.2627 -0.5748
 7408SOL    HW233858   4.520   2.165   2.341 -0.9420 -1.5601  0.3775
 7409SOL     OW33859   0.025   0.388   7.297  0.5894 -0.0888  0.4564
 7409SOL    HW133860   4.678   0.422   7.338 -0.9850  0.7859 -3.3691
 7409SOL    HW233861   0.054   0.464   7.247 -1.5465  0.7236  0.4512
 7410SOL     OW33862   0.216   0.888   3.641 -0.6333  0.4256  0.1874
 7410SOL    HW133863   0.131   0.920   3.612 -0.8856 -2.1544 -1.9092
 7410SOL    HW233864   0.237   0.946   3.714 -0.8451  1.7831 -0.8346
 7411SOL     OW33865   0.753   3.723   3.099  0.2799  0.1658 -0.3761
 7411SOL    HW133866   0.745   3.817   3.084 -0.3120  0.2801  0.6647
 7411SOL    HW233867   0.670   3.707   3.145  0.1952 -0.1831 -0.6496
 7412SOL     OW33868   1.902   1.542   9.145  0.0862 -0.1841  0.1067
 7412SOL    HW133869   1.831   1.528   9.208  1.5810  1.9886  2.3218
 7412SOL    HW233870   1.882   1.477   9.078 -0.9291  0.0336  0.1986
 7413SOL     OW33871   3.452   0.013   0.449  0.3624 -0.4653  0.1820
 7413SOL    HW133872   3.434   0.104   0.473 -0.3272 -0.6706  0.4432
 7413SOL    HW233873   3.548   0.014   0.443  0.2004 -2.7424 -2.4444
 7414SOL     OW33874   2.947   4.724  11.946  0.2797  0.3333 -1.2177
 7414SOL    HW133875   2.853   0.003  11.932  0.2027 -0.0221 -0.9950
 7414SOL    HW233876   2.947   4.634  11.979  2.4761  2.0839  3.5017
 7415SOL     OW33877   0.432   1.679   3.436 -1.0067 -0.2433  0.3195
 7415SOL    HW133878   0.362   1.732   3.400 -1.7990 -0.2628  1.8387
 7415SOL    HW233879   0.413   1.686   3.529  0.6435 -1.0229  0.7302
 7416SOL     OW33880   2.413   1.111  14.577 -0.2930 -0.9223 -0.3856
 7416SOL    HW133881   2.383   1.032  14.623 -0.8426  0.4481  1.6243
 7416SOL    HW233882   2.501   1.117  14.614 -1.4625  1.0584  2.0547
 7417SOL     OW33883   3.588   1.956  15.600 -0.1259 -0.3007  0.5432
 7417SOL    HW133884   3.501   1.997  15.605 -0.6635 -1.5386  1.7547
 7417SOL    HW233885   3.644   2.021  15.642  0.0923  0.5459 -1.1048
 7418SOL     OW33886   0.375   2.658   8.210  0.2742 -0.2578 -0.2037
 7418SOL    HW133887   0.364   2.602   8.133  1.0253 -2.1360  1.0539
 7418SOL    HW233888   0.381   2.744   8.169 -0.1766  1.2065  2.8187
 7419SOL     OW33889   2.095   3.263  12.250 -0.1029 -0.5437 -0.3146
 7419SOL    HW133890   2.009   3.222  12.252 -0.3580  0.0799  1.1883
 7419SOL    HW233891   2.106   3.271  12.345 -2.9867 -1.2873  0.0751
 7420SOL     OW33892   0.563   2.968   9.355 -0.2625  1.0673  0.9562
 7420SOL    HW133893   0.603   2.884   9.334  0.6819  1.6278  0.4796
 7420SOL    HW233894   0.637   3.023   9.381  0.2574  0.5012  0.6749
 7421SOL     OW33895   0.576   3.222  16.631 -0.0837 -0.8340 -0.5600
 7421SOL    HW133896   0.597   3.287  16.698 -0.6704 -0.8172 -0.3906
 7421SOL    HW233897   0.660   3.177  16.626  0.6372  0.3029  1.5021
 7422SOL     OW33898   1.837   4.512   5.760 -0.0707  0.7664 -0.6578
 7422SOL    HW133899   1.917   4.504   5.811  0.0927 -0.1483 -1.0785
 7422SOL    HW233900   1.862   4.454   5.689  2.4228  2.2496 -1.0052
 7423SOL     OW33901   4.651   1.983   4.047 -0.2210  0.0980  0.5486
 7423SOL    HW133902   4.729   1.978   4.103  0.6392  0.3767 -0.6305
 7423SOL    HW233903   4.699   1.994   3.966 -1.4225 -3.4567 -0.6434
 7424SOL     OW33904   4.381   3.113   4.641  0.1506  0.0666  0.0580
 7424SOL    HW133905   4.389   3.094   4.735  0.4217  1.1867  0.2608
 7424SOL    HW233906   4.379   3.020   4.617 -0.1653  0.5453 -1.7268
 7425SOL     OW33907   3.850   3.334   5.247  0.9813 -0.6080  1.1259
 7425SOL    HW133908   3.817   3.379   5.325  0.3733  0.6572  0.1427
 7425SOL    HW233909   3.835   3.240   5.259 -0.3114 -0.7005 -1.3282
 7426SOL     OW33910   0.042   0.668  11.824  0.2620 -0.1529  0.2545
 7426SOL    HW133911   4.695   0.648  11.775 -0.2165  1.8984  0.1915
 7426SOL    HW233912   0.043   0.764  11.817  1.2135 -0.1346  0.6504
 7427SOL     OW33913   2.679   2.685   6.422  0.7761 -0.4274  0.2654
 7427SOL    HW133914   2.751   2.716   6.367 -0.0767  0.8138 -0.1580
 7427SOL    HW233915   2.648   2.604   6.383 -0.2492 -1.1636  2.6078
 7428SOL     OW33916   0.939   1.930   1.139  0.1179 -0.3167  0.6502
 7428SOL    HW133917   0.919   1.922   1.233 -0.0539 -0.0534  0.6384
 7428SOL    HW233918   1.031   1.955   1.141 -0.3514  1.2522  2.9511
 7429SOL     OW33919   2.568   1.685   5.903 -0.2692 -0.4387 -0.0821
 7429SOL    HW133920   2.561   1.684   5.998 -0.9349  0.2568 -0.1249
 7429SOL    HW233921   2.659   1.679   5.875 -0.5923 -0.5210 -1.1158
 7430SOL     OW33922   1.139   1.845   5.059 -0.3602  0.3899 -0.3501
 7430SOL    HW133923   1.214   1.905   5.060 -0.0283 -0.0266 -0.6001
 7430SOL    HW233924   1.188   1.768   5.089 -0.9617  0.0778 -0.1711
 7431SOL     OW33925   2.811   2.566   7.232 -0.5040 -0.1430 -0.4394
 7431SOL    HW133926   2.804   2.580   7.137  2.0142 -0.4304 -0.6827
 7431SOL    HW233927   2.775   2.647   7.269 -0.4049  0.0558 -0.7671
 7432SOL     OW33928   0.620   0.678   1.496 -0.0217  0.0233 -0.3409
 7432SOL    HW133929   0.690   0.628   1.536  0.2616  1.0011  0.3555
 7432SOL    HW233930   0.667   0.753   1.459 -3.2962  1.7210 -1.1194
 7433SOL     OW33931   0.152   0.138   6.358  0.7227  0.0517 -0.0389
 7433SOL    HW133932   0.230   0.084   6.368  1.5335  1.5300  1.5959
 7433SOL    HW233933   0.099   0.095   6.425 -0.4416 -0.9202 -1.5776
 7434SOL     OW33934   2.821   2.838  15.435  0.3902 -0.3457 -0.2936
 7434SOL    HW133935   2.897   2.779  15.434  2.0436  1.7672  0.1653
 7434SOL    HW233936   2.847   2.898  15.505 -2.2815  0.6861 -0.2085
 7435SOL     OW33937   2.156   0.002   9.467  0.0243 -0.2577  0.1438
 7435SOL    HW133938   2.152   0.002   9.562 -1.2601 -2.5219  0.0918
 7435SOL    HW233939   2.228   0.061   9.444 -0.5554  0.5886  0.4844
 7436SOL     OW33940   4.056   3.987   8.926 -0.1486  0.4754 -0.7699
 7436SOL    HW133941   4.057   4.081   8.942  0.0192  0.5393 -1.1490
 7436SOL    HW233942   4.112   3.973   9.003 -0.7579  1.7173 -0.1093
 7437SOL     OW33943   0.511   0.712  15.163  0.2976 -0.0346 -0.5119
 7437SOL    HW133944   0.516   0.732  15.070 -1.3300 -1.3028 -0.8797
 7437SOL    HW233945   0.421   0.678  15.167  1.1176 -2.3004 -1.9422
 7438SOL     OW33946   4.307   4.095   9.972  0.1689 -0.3828 -0.5264
 7438SOL    HW133947   4.254   4.152  10.028  1.6018  0.8609 -0.4439
 7438SOL    HW233948   4.369   4.053  10.032 -1.3861 -1.4855  0.3137
 7439SOL     OW33949   1.364   4.674   5.133 -0.0512  0.2665 -0.4903
 7439SOL    HW133950   1.280   4.655   5.090  0.8042 -1.4919 -1.3638
 7439SOL    HW233951   1.433   4.626   5.087  0.6896  0.7563  0.1066
 7440SOL     OW33952   1.621   1.269  14.710  0.3111  0.0916  0.4480
 7440SOL    HW133953   1.669   1.193  14.741 -1.3397 -1.9261 -1.9706
 7440SOL    HW233954   1.560   1.285  14.782 -0.2249 -0.9760  0.2274
 7441SOL     OW33955   2.984   3.797   0.769  0.5649 -0.0129  0.4293
 7441SOL    HW133956   2.998   3.733   0.699 -0.7976  1.9396 -1.6396
 7441SOL    HW233957   2.889   3.790   0.781  0.4632 -0.1430 -0.4766
 7442SOL     OW33958   2.496   3.172   3.190 -0.1415  0.2431 -0.5283
 7442SOL    HW133959   2.586   3.196   3.212 -0.1910  1.5608 -1.7131
 7442SOL    HW233960   2.518   3.103   3.128 -0.7601  0.6747 -1.2341
 7443SOL     OW33961   1.422   1.582   7.239  0.4551 -0.2428 -0.5751
 7443SOL    HW133962   1.449   1.602   7.328 -2.2410 -0.8824  0.3799
 7443SOL    HW233963   1.451   1.660   7.191  1.4730 -0.3394 -0.1169
 7444SOL     OW33964   3.240   4.285  15.552 -0.5202 -0.7169 -0.3158
 7444SOL    HW133965   3.178   4.250  15.616 -2.3870  0.6905 -1.3541
 7444SOL    HW233966   3.201   4.269  15.467 -0.6957  0.0942 -0.3922
 7445SOL     OW33967   0.947   1.987   8.737 -0.0469 -0.1946 -0.8047
 7445SOL    HW133968   0.991   2.061   8.779 -1.5311  1.1186 -1.5747
 7445SOL    HW233969   0.878   2.036   8.694  0.2371  3.1309  2.5012
 7446SOL     OW33970   4.444   1.237   6.754  0.4284  0.1912 -0.0034
 7446SOL    HW133971   4.516   1.200   6.704 -0.3256  1.0023 -1.6832
 7446SOL    HW233972   4.480   1.234   6.843 -1.5680 -1.5143  0.7352
 7447SOL     OW33973   0.299   4.074   0.344 -0.5006 -0.0523 -0.7417
 7447SOL    HW133974   0.387   4.092   0.312 -0.0022 -0.5808  0.3568
 7447SOL    HW233975   0.254   4.095   0.262 -2.6428 -0.6252  0.2940
 7448SOL     OW33976   2.229   0.786   4.485  0.9829  0.0529 -0.2213
 7448SOL    HW133977   2.288   0.828   4.548  0.3346  2.8940 -1.4855
 7448SOL    HW233978   2.180   0.727   4.542  2.6428 -1.6497 -0.5882
 7449SOL     OW33979   4.023   0.191   0.820  0.2045  0.1126  0.5659
 7449SOL    HW133980   3.983   0.146   0.894  2.2228  1.5993  2.5670
 7449SOL    HW233981   4.068   0.265   0.861 -1.3030  1.0440  0.5645
 7450SOL     OW33982   4.348   3.248   8.725 -0.9141 -0.1660 -0.1369
 7450SOL    HW133983   4.287   3.191   8.678 -2.8674  0.1474  2.0074
 7450SOL    HW233984   4.290   3.323   8.739  1.8552  1.9844 -0.2052
 7451SOL     OW33985   4.368   1.398   7.113  0.0053 -0.4440  0.0036
 7451SOL    HW133986   4.411   1.324   7.069  1.1702 -0.6363  1.4915
 7451SOL    HW233987   4.352   1.367   7.202  0.3784 -1.3427 -0.2428
 7452SOL     OW33988   1.188   1.065   4.522  0.1063  0.2248  0.4040
 7452SOL    HW133989   1.282   1.071   4.505 -0.0783  0.7564 -0.4205
 7452SOL    HW233990   1.208   1.022   4.605 -0.8002  0.7299  0.8715
 7453SOL     OW33991   4.634   1.998   2.556 -0.4916 -0.3417  0.5081
 7453SOL    HW133992   4.631   2.028   2.465  1.0657 -1.6157  0.0298
 7453SOL    HW233993   4.729   2.004   2.568 -0.6597  1.4867  0.8564
 7454SOL     OW33994   2.108   3.946   4.771  0.8955 -0.0066 -0.0930
 7454SOL    HW133995   2.148   3.915   4.690 -0.5160  0.4397 -0.9569
 7454SOL    HW233996   2.016   3.963   4.751  1.1791 -0.4607 -1.7694
 7455SOL     OW33997   3.814   3.162   9.141  0.4933 -0.5151  0.2695
 7455SOL    HW133998   3.861   3.084   9.170 -2.0432 -1.5040  1.8075
 7455SOL    HW233999   3.801   3.152   9.047  0.8119  0.6790  0.0966
 7456SOL     OW34000   4.130   2.312  11.229 -0.0660  0.1144 -0.1110
 7456SOL    HW134001   4.224   2.299  11.214  0.1912  3.6307 -1.6044
 7456SOL    HW234002   4.115   2.348  11.141  0.2845  3.0606  1.0283
 7457SOL     OW34003   0.812   0.552   0.211 -0.2465  0.1329  0.4303
 7457SOL    HW134004   0.844   0.463   0.200  2.5268  0.7180  3.4941
 7457SOL    HW234005   0.717   0.543   0.220 -0.4607  1.7646 -0.0458
 7458SOL     OW34006   4.251   1.647   6.106  0.4679  0.2639 -0.3892
 7458SOL    HW134007   4.299   1.641   6.188 -1.5932 -0.0934  0.7744
 7458SOL    HW234008   4.233   1.553   6.107 -0.4511  0.4459 -0.1256
 7459SOL     OW34009   3.825   3.206   2.304  0.2694  0.1995 -0.7989
 7459SOL    HW134010   3.876   3.190   2.224  1.4770 -2.1214  0.4562
 7459SOL    HW234011   3.735   3.192   2.277 -0.8859  3.2312  1.5280
 7460SOL     OW34012   3.699   0.292   9.817 -0.4319 -0.2202 -0.1634
 7460SOL    HW134013   3.708   0.224   9.884  0.3227 -0.3525 -0.4006
 7460SOL    HW234014   3.790   0.322   9.823 -0.4237 -0.6286  1.7858
 7461SOL     OW34015   4.360   3.721   2.491  0.5689 -0.1305 -0.2596
 7461SOL    HW134016   4.346   3.759   2.577  0.0143 -0.7267 -0.0847
 7461SOL    HW234017   4.276   3.682   2.465  0.4310  0.8299 -1.2590
 7462SOL     OW34018   1.170   3.569  17.325 -0.0478  0.1116  0.5518
 7462SOL    HW134019   1.188   3.575  17.419  0.1944 -3.1167  0.6960
 7462SOL    HW234020   1.232   3.503  17.293 -0.5906 -0.0459 -0.1700
 7463SOL     OW34021   0.951   0.057   8.047  0.1048 -0.2082 -0.1975
 7463SOL    HW134022   0.966   0.139   8.093  0.6542  0.3567 -1.3708
 7463SOL    HW234023   0.986   4.722   8.105 -0.2630 -0.3706 -0.1659
 7464SOL     OW34024   1.082   1.342   8.596  0.1486  0.2284 -0.1099
 7464SOL    HW134025   1.044   1.395   8.526  1.0172  0.8797 -0.0808
 7464SOL    HW234026   1.107   1.416   8.651 -1.0569  0.8322 -0.3701
 7465SOL     OW34027   2.815   2.830   7.386  0.4868  0.7351 -0.3478
 7465SOL    HW134028   2.891   2.796   7.339  0.4777 -1.0691  0.9366
 7465SOL    HW234029   2.856   2.916   7.396  2.3140 -0.4028  1.9438
 7466SOL     OW34030   3.767   1.911   7.571  0.1872 -0.2498 -0.6348
 7466SOL    HW134031   3.753   2.004   7.585 -0.6630 -0.4492 -0.1405
 7466SOL    HW234032   3.861   1.909   7.585 -0.0022  1.5098  0.8120
 7467SOL     OW34033   3.215   1.815   7.559 -0.4880  0.1400  0.8237
 7467SOL    HW134034   3.237   1.739   7.612  0.4806  0.2414  0.5521
 7467SOL    HW234035   3.120   1.825   7.567 -0.3680 -0.4426  3.1490
 7468SOL     OW34036   1.843   2.107  10.885  0.1374 -0.0608 -0.4583
 7468SOL    HW134037   1.937   2.103  10.904 -0.0071 -1.4514 -0.0410
 7468SOL    HW234038   1.845   2.123  10.791  0.3432  0.1920 -0.4094
 7469SOL     OW34039   1.228   2.998   6.155  0.0131 -0.0219  0.0797
 7469SOL    HW134040   1.290   2.972   6.086  1.5013  0.9060  1.0860
 7469SOL    HW234041   1.252   3.090   6.163  2.6525 -0.5368 -1.7562
 7470SOL     OW34042   2.702   2.005  12.655  0.2965  0.0406  0.4989
 7470SOL    HW134043   2.702   1.915  12.687 -0.1498  0.3129  1.2710
 7470SOL    HW234044   2.662   1.985  12.570 -1.2853 -1.3168  1.5545
 7471SOL     OW34045   2.807   2.350   5.486  0.3246 -0.4407 -0.5528
 7471SOL    HW134046   2.803   2.283   5.554 -2.8287  2.3217  1.9803
 7471SOL    HW234047   2.898   2.374   5.472  0.4198 -0.6419 -0.2827
 7472SOL     OW34048   2.527   0.224   3.312  0.8530  0.3281  0.5825
 7472SOL    HW134049   2.543   0.153   3.374 -1.3236 -1.4395 -0.8561
 7472SOL    HW234050   2.545   0.303   3.363  0.2196  0.9494 -0.1533
 7473SOL     OW34051   3.107   2.767  14.592  0.3683 -0.5384 -0.4516
 7473SOL    HW134052   3.023   2.751  14.549  0.6113 -1.2070 -0.6681
 7473SOL    HW234053   3.152   2.769  14.507 -0.0692 -0.1207 -0.6708
 7474SOL     OW34054   2.588   2.487  10.529  0.2561 -0.1250  0.3142
 7474SOL    HW134055   2.511   2.537  10.557 -1.0540 -1.2879 -1.2339
 7474SOL    HW234056   2.554   2.433  10.458 -1.2962  2.9162 -1.2330
 7475SOL     OW34057   1.247   3.221   3.293  0.1310 -0.0268 -0.2088
 7475SOL    HW134058   1.291   3.181   3.218 -0.9031  0.2129 -0.9473
 7475SOL    HW234059   1.308   3.294   3.297  0.2629 -0.0989 -0.8253
 7476SOL     OW34060   3.021   0.672   5.576  0.1277 -0.0435  0.4310
 7476SOL    HW134061   2.932   0.703   5.591 -0.2633 -1.0439  0.2141
 7476SOL    HW234062   3.010   0.606   5.507  1.9999  1.6486 -1.4613
 7477SOL     OW34063   2.487   3.323   5.549  0.2873  0.0400  0.7013
 7477SOL    HW134064   2.427   3.388   5.587  0.7232 -0.4273  2.1640
 7477SOL    HW234065   2.526   3.284   5.627  2.3416 -2.5771 -1.6508
 7478SOL     OW34066   1.042   3.880   2.977 -0.2035 -0.3957 -0.1717
 7478SOL    HW134067   0.961   3.921   2.945 -1.1006  0.5499  3.3419
 7478SOL    HW234068   1.102   3.934   2.925 -1.7956  0.4639 -1.1378
 7479SOL     OW34069   2.208   1.132  17.662  0.0440  1.0368 -0.0974
 7479SOL    HW134070   2.242   1.208  17.614 -1.9207  1.2467 -1.1786
 7479SOL    HW234071   2.282   1.092  17.707 -1.4884 -0.3051  1.2185
 7480SOL     OW34072   3.232   0.384   0.488  0.3988  0.0687 -0.1808
 7480SOL    HW134073   3.308   0.331   0.464  1.0059  0.1149  1.6143
 7480SOL    HW234074   3.205   0.417   0.403  1.3041  0.2411 -0.3981
 7481SOL     OW34075   1.232   4.041   2.892  0.8249 -0.2502  0.6793
 7481SOL    HW134076   1.240   4.042   2.988 -0.0623  0.1840  0.7450
 7481SOL    HW234077   1.322   4.030   2.860  0.3913 -0.1806 -0.5467
 7482SOL     OW34078   0.877   3.242  15.939 -0.1532 -0.0021  0.0970
 7482SOL    HW134079   0.869   3.215  16.030  2.2585 -2.6545 -0.4734
 7482SOL    HW234080   0.783   3.247  15.920 -0.5802  2.4898  2.8967
 7483SOL     OW34081   0.777   3.331   3.904 -0.9829 -0.2048 -0.3176
 7483SOL    HW134082   0.828   3.293   3.976 -0.7038  1.0298  0.1375
 7483SOL    HW234083   0.827   3.316   3.824  0.5098  0.6868  0.4348
 7484SOL     OW34084   2.697   2.785  11.563  0.2449  0.0965 -0.0371
 7484SOL    HW134085   2.742   2.865  11.591  0.2568 -0.1703  0.6915
 7484SOL    HW234086   2.636   2.825  11.502  0.8975 -0.6683 -1.1975
 7485SOL     OW34087   2.540   4.627   8.513  0.0924  0.2199  0.0711
 7485SOL    HW134088   2.470   4.571   8.546 -1.2079  1.0510 -1.3222
 7485SOL    HW234089   2.490   4.668   8.443 -2.1429 -0.0968  1.4999
 7486SOL     OW34090   0.576   4.262   3.850 -0.2428  0.6343 -0.0759
 7486SOL    HW134091   0.572   4.166   3.846 -2.9287  0.7986 -0.9698
 7486SOL    HW234092   0.496   4.272   3.799  0.1393  2.4536 -0.3108
 7487SOL     OW34093   2.936   1.759   8.175  0.1446 -0.5963  0.3249
 7487SOL    HW134094   2.913   1.852   8.173  0.4000 -0.5603 -1.0968
 7487SOL    HW234095   2.955   1.739   8.083  0.9177 -0.7751  0.5193
 7488SOL     OW34096   2.705   0.035   1.249  0.2156 -0.1606 -0.1050
 7488SOL    HW134097   2.632   0.036   1.312 -1.4936  1.2319 -2.0903
 7488SOL    HW234098   2.772   0.079   1.302  1.4772 -0.3282 -1.5822
 7489SOL     OW34099   1.625   2.778  12.989  0.1327 -0.3337  0.0379
 7489SOL    HW134100   1.661   2.694  13.019  0.0217 -0.6420 -0.6970
 7489SOL    HW234101   1.553   2.753  12.932  1.0088 -1.1946 -0.6975
 7490SOL     OW34102   4.000   1.132   1.899  0.2775  0.1344 -0.5440
 7490SOL    HW134103   4.027   1.048   1.935 -1.0318 -0.3280 -0.6094
 7490SOL    HW234104   4.051   1.188   1.956 -1.5281  0.4185  0.8137
 7491SOL     OW34105   4.017   3.885   6.300 -0.3181  0.0575 -0.1926
 7491SOL    HW134106   4.088   3.949   6.298  0.9720 -1.3606  0.2539
 7491SOL    HW234107   4.063   3.801   6.298 -0.8467 -0.2824  1.7547
 7492SOL     OW34108   2.717   3.747   1.108 -0.2086 -0.2363 -0.3101
 7492SOL    HW134109   2.756   3.835   1.109 -0.7483  0.0040 -0.8891
 7492SOL    HW234110   2.660   3.752   1.185 -1.5907  0.8404 -1.4028
 7493SOL     OW34111   0.179   2.538  11.933  0.6077 -0.1940  0.2026
 7493SOL    HW134112   0.257   2.550  11.879 -0.0356  0.9167 -0.4763
 7493SOL    HW234113   0.178   2.443  11.944  0.8614  0.0337  2.1822
 7494SOL     OW34114   4.686   3.455   8.199 -0.1688 -0.3156 -0.2394
 7494SOL    HW134115   0.050   3.452   8.194 -0.2401 -1.3938 -1.0178
 7494SOL    HW234116   4.669   3.372   8.154 -1.8897 -0.0131 -0.1432
 7495SOL     OW34117   2.887   0.813  15.618  0.4478 -0.4083  0.7095
 7495SOL    HW134118   2.857   0.746  15.556 -0.8521  1.5819 -0.7925
 7495SOL    HW234119   2.810   0.854  15.657  0.3003  0.2182 -0.2610
 7496SOL     OW34120   0.201   4.561  14.473 -0.3084 -0.2666  0.0355
 7496SOL    HW134121   0.135   4.608  14.422 -0.2916  2.5952  2.6386
 7496SOL    HW234122   0.221   4.488  14.414 -0.5216 -1.3521  1.3177
 7497SOL     OW34123   4.704   3.798  12.409  0.2659  0.4169  0.6173
 7497SOL    HW134124   4.718   3.853  12.331 -1.5207 -1.2628 -0.8807
 7497SOL    HW234125   4.676   3.870  12.466  0.0024  2.2097 -1.7538
 7498SOL     OW34126   0.979   0.189   2.925  0.1400 -0.0838  0.2759
 7498SOL    HW134127   1.022   0.172   3.009 -1.1974 -0.4207  0.8893
 7498SOL    HW234128   0.984   0.282   2.907  0.7894 -0.5025 -1.7527
 7499SOL     OW34129   3.673   3.559   8.403 -0.4063 -0.3943  0.1428
 7499SOL    HW134130   3.762   3.558   8.367 -0.6719  3.1819 -0.5953
 7499SOL    HW234131   3.628   3.547   8.320  0.9631 -0.3891 -0.6094
 7500SOL     OW34132   0.728   1.344   9.821 -0.5103 -0.1314  0.1120
 7500SOL    HW134133   0.680   1.415   9.778 -1.7731 -1.1704 -0.2012
 7500SOL    HW234134   0.816   1.378   9.840 -0.0738  0.4431 -2.8291
 7501SOL     OW34135   1.741   2.568   1.783  0.0761  0.1796 -0.1144
 7501SOL    HW134136   1.729   2.544   1.874  1.2800 -0.7590 -0.2052
 7501SOL    HW234137   1.835   2.549   1.776 -0.1070 -1.2003  1.3893
 7502SOL     OW34138   1.837   3.988   8.545  0.6112  0.0119  0.3211
 7502SOL    HW134139   1.903   3.994   8.476  0.3224  2.6095  0.2961
 7502SOL    HW234140   1.863   3.901   8.574 -1.7301 -0.5024  0.9252
 7503SOL     OW34141   0.519   3.367  13.303 -0.0203  0.5544  0.0943
 7503SOL    HW134142   0.452   3.430  13.278  1.5044  2.0219 -0.2449
 7503SOL    HW234143   0.586   3.421  13.345 -0.5653  1.0869  0.2821
 7504SOL     OW34144   4.695   1.725  14.358  0.5433  0.2932  0.4185
 7504SOL    HW134145   4.707   1.808  14.403 -1.1282  0.3936  0.6761
 7504SOL    HW234146   4.705   1.754  14.267  1.3603 -1.1471  0.0508
 7505SOL     OW34147   2.351   1.644   3.284 -0.2060  0.0905  0.7147
 7505SOL    HW134148   2.348   1.552   3.311  3.9179  0.3421  1.9351
 7505SOL    HW234149   2.270   1.675   3.326 -1.2624  0.7496 -1.7819
 7506SOL     OW34150   4.617   0.084  16.174  0.2244  0.1119 -0.0567
 7506SOL    HW134151   4.710   0.060  16.169  0.8063  2.3000  0.2785
 7506SOL    HW234152   4.592   0.081  16.082  1.2853  0.2455 -0.3520
 7507SOL     OW34153   1.737   0.583  14.245 -0.3752  0.0759  0.0348
 7507SOL    HW134154   1.678   0.645  14.201 -2.6776 -0.7132  2.0185
 7507SOL    HW234155   1.825   0.601  14.214 -0.2398 -2.1649 -0.8855
 7508SOL     OW34156   0.763   2.267  13.600 -0.3716  0.0627 -0.1942
 7508SOL    HW134157   0.668   2.259  13.586 -0.7781 -0.1147  2.5327
 7508SOL    HW234158   0.760   2.354  13.640  1.8073  1.5327 -3.2607
 7509SOL     OW34159   4.105   1.685   2.571  0.1618 -0.6319 -0.0758
 7509SOL    HW134160   4.153   1.646   2.498  0.8119  0.5741 -0.2920
 7509SOL    HW234161   4.127   1.777   2.583  0.6980 -0.6934 -0.6106
 7510SOL     OW34162   2.151   2.858   5.013 -0.1151  0.2255  0.1144
 7510SOL    HW134163   2.214   2.808   5.065  0.1034  1.0771  0.6642
 7510SOL    HW234164   2.095   2.895   5.080  1.3087 -0.0251  1.4429
 7511SOL     OW34165   0.666   2.756   6.797  0.1503 -0.1883 -0.4394
 7511SOL    HW134166   0.610   2.773   6.721 -0.9903 -0.8779  0.2475
 7511SOL    HW234167   0.617   2.811   6.858  1.0648 -0.2497  0.3364
 7512SOL     OW34168   2.757   1.600   9.860 -0.1068  0.4916 -1.0539
 7512SOL    HW134169   2.751   1.511   9.826 -2.2672  0.9457 -1.8483
 7512SOL    HW234170   2.802   1.585   9.943  0.3700 -0.0330 -1.4036
 7513SOL     OW34171   0.638   3.815   8.986  0.2503 -0.1664 -0.6573
 7513SOL    HW134172   0.703   3.771   8.930  0.2897 -2.2144  1.0086
 7513SOL    HW234173   0.615   3.755   9.056 -0.6562  3.9165  2.5005
 7514SOL     OW34174   4.214   0.618   4.876 -0.1926  0.0093 -0.1525
 7514SOL    HW134175   4.303   0.651   4.873  0.3250 -1.5544 -1.6559
 7514SOL    HW234176   4.178   0.641   4.791  1.6805  0.5392 -0.8009
 7515SOL     OW34177   3.363   2.449   3.407 -0.6059  0.0532 -0.3466
 7515SOL    HW134178   3.298   2.379   3.394 -0.1839 -0.5329  0.6435
 7515SOL    HW234179   3.441   2.401   3.435 -1.3754  0.1526  2.0266
 7516SOL     OW34180   4.081   2.215  13.360  0.0512 -0.0254  0.5450
 7516SOL    HW134181   4.093   2.303  13.324  1.0092 -0.8950 -1.2355
 7516SOL    HW234182   4.038   2.239  13.443  0.1440  0.3807  0.4775
 7517SOL     OW34183   1.836   1.714   5.214 -0.1836 -0.1820 -0.3366
 7517SOL    HW134184   1.898   1.724   5.142 -0.7800 -1.4364 -1.0317
 7517SOL    HW234185   1.779   1.787   5.194 -0.9236 -0.8619 -0.7130
 7518SOL     OW34186   1.227   0.628   4.351 -0.0221  0.4151 -0.6971
 7518SOL    HW134187   1.306   0.674   4.380  0.4782  0.3096 -1.8886
 7518SOL    HW234188   1.240   0.594   4.263  0.9972 -4.0025  1.1881
 7519SOL     OW34189   4.671   3.085   6.788 -0.4911 -0.5554 -0.8422
 7519SOL    HW134190   4.724   3.018   6.830 -1.3526 -0.6813  0.0420
 7519SOL    HW234191   4.585   3.063   6.825 -0.3401  1.1223  0.4975
 7520SOL     OW34192   4.055   4.459   3.307  0.0178 -0.7446  0.1098
 7520SOL    HW134193   4.101   4.440   3.226  0.4192 -0.6976  0.3307
 7520SOL    HW234194   3.991   4.388   3.297 -0.4587 -0.4563  1.1307
 7521SOL     OW34195   1.152   3.262   1.097  0.6066  0.0969  0.1682
 7521SOL    HW134196   1.155   3.184   1.152  1.4486  0.1968  0.2706
 7521SOL    HW234197   1.198   3.229   1.020 -1.6125  0.4617 -1.2970
 7522SOL     OW34198   1.232   1.447   5.373  0.2586  0.7015  0.1991
 7522SOL    HW134199   1.160   1.395   5.338  0.9545 -0.0598 -0.1227
 7522SOL    HW234200   1.294   1.378   5.398 -2.7813 -1.5141  1.6958
 7523SOL     OW34201   0.578   2.843   7.451  0.0616  0.7653 -0.2521
 7523SOL    HW134202   0.663   2.888   7.450  0.5303 -0.0954  1.4950
 7523SOL    HW234203   0.589   2.803   7.365 -0.1500 -1.8125  0.9241
 7524SOL     OW34204   1.408   3.800   1.464  0.0332 -0.7447 -0.3894
 7524SOL    HW134205   1.317   3.811   1.436 -0.6741  0.9664  2.5928
 7524SOL    HW234206   1.453   3.733   1.412 -2.0866 -2.8977  0.5303
 7525SOL     OW34207   4.624   0.642   8.991  0.6148  0.6873  0.0649
 7525SOL    HW134208   4.540   0.639   9.038 -0.7744 -1.4915 -2.5941
 7525SOL    HW234209   4.677   0.700   9.046 -0.3714  0.4033  1.3196
 7526SOL     OW34210   4.652   0.116   6.136 -0.0272  0.2198  0.2107
 7526SOL    HW134211   4.580   0.083   6.082  0.9725  1.3398 -1.8008
 7526SOL    HW234212   4.621   0.106   6.226  1.4332 -0.5151  0.6297
 7527SOL     OW34213   3.943   2.767   9.372  0.1269 -0.0552 -0.5888
 7527SOL    HW134214   4.003   2.795   9.442 -0.1390  3.0162 -1.5683
 7527SOL    HW234215   3.998   2.724   9.307  1.5287  1.2465 -0.2814
 7528SOL     OW34216   0.965   0.945  13.284 -0.3760 -0.1085 -0.6257
 7528SOL    HW134217   1.044   0.994  13.306 -0.6328 -0.3565  0.8512
 7528SOL    HW234218   0.942   0.912  13.371  0.5823  0.6745 -0.0771
 7529SOL     OW34219   0.019   3.074   4.806  0.3496  0.4825 -0.0189
 7529SOL    HW134220   0.077   3.092   4.881  2.1989 -1.5898 -0.9548
 7529SOL    HW234221   4.687   3.145   4.813  1.4507  1.3688  1.3184
 7530SOL     OW34222   4.451   3.207   2.127 -0.1835  0.1176 -0.0703
 7530SOL    HW134223   4.406   3.124   2.143  2.0235 -1.1040 -0.1662
 7530SOL    HW234224   4.403   3.236   2.050 -0.0358  0.4521 -0.0372
 7531SOL     OW34225   2.146   0.830   0.522  0.3806  0.6916 -0.7286
 7531SOL    HW134226   2.149   0.897   0.591 -0.7288 -0.1736  0.1624
 7531SOL    HW234227   2.170   0.754   0.575 -1.7334 -0.4404 -1.4296
 7532SOL     OW34228   3.760   2.324  16.338 -0.1657  0.3352 -0.1359
 7532SOL    HW134229   3.802   2.290  16.259  1.3416 -1.9874  1.6665
 7532SOL    HW234230   3.836   2.333  16.394  0.3838 -0.6668 -0.7233
 7533SOL     OW34231   1.922   3.134   7.865  0.3242 -0.5466  0.1498
 7533SOL    HW134232   1.933   3.227   7.845 -1.6561 -0.1521  0.8295
 7533SOL    HW234233   1.895   3.146   7.956 -0.5401 -0.3660 -0.1309
 7534SOL     OW34234   4.728   2.738   4.037  0.4120  0.1238 -0.2421
 7534SOL    HW134235   0.064   2.754   4.102  2.1674  1.5161 -2.4361
 7534SOL    HW234236   0.033   2.683   3.968 -1.0735 -3.4393  1.7658
 7535SOL     OW34237   0.831   3.392   8.872  0.5325  0.0596 -0.4616
 7535SOL    HW134238   0.878   3.325   8.821  2.0537  0.6438  0.1635
 7535SOL    HW234239   0.744   3.377   8.835 -0.3000  0.0933  1.4978
 7536SOL     OW34240   3.756   1.723   4.201 -0.4986 -0.0063  0.6147
 7536SOL    HW134241   3.691   1.690   4.263 -0.2357 -0.1682  0.8045
 7536SOL    HW234242   3.835   1.724   4.254 -0.2802 -2.6265  0.3375
 7537SOL     OW34243   1.102   2.468   8.720  0.0071  0.0691  0.0079
 7537SOL    HW134244   1.187   2.499   8.752 -1.3058  1.8483  1.7446
 7537SOL    HW234245   1.062   2.436   8.801 -0.2946  1.4872  0.4181
 7538SOL     OW34246   2.243   1.596  10.244  0.4201 -0.0588  0.1541
 7538SOL    HW134247   2.196   1.583  10.327  1.6481  0.5098  0.9358
 7538SOL    HW234248   2.172   1.577  10.183 -1.0598  1.2655  1.4364
 7539SOL     OW34249   3.446   2.880   8.726 -0.2315  0.0535 -0.4471
 7539SOL    HW134250   3.401   2.851   8.805  2.6429 -1.6595  0.5431
 7539SOL    HW234251   3.521   2.821   8.717  0.3918  0.9542 -1.2105
 7540SOL     OW34252   3.842   1.833   2.025 -0.4028 -0.6993 -0.2010
 7540SOL    HW134253   3.914   1.892   2.046 -2.1146  1.4081 -0.2873
 7540SOL    HW234254   3.831   1.780   2.104  0.8132  0.3967  0.7003
 7541SOL     OW34255   0.568   2.269   6.384 -1.0006  0.3599 -0.8691
 7541SOL    HW134256   0.541   2.284   6.294  0.2135 -1.1937 -1.4970
 7541SOL    HW234257   0.554   2.174   6.391  0.9129  0.2442  1.6990
 7542SOL     OW34258   2.228   2.176  14.682 -0.1813 -0.0026 -0.1727
 7542SOL    HW134259   2.257   2.256  14.726  0.1643 -1.0276  1.4356
 7542SOL    HW234260   2.199   2.208  14.596  2.1416  4.6724  0.7700
 7543SOL     OW34261   3.515   0.625   2.320 -0.0972 -0.8043 -0.2295
 7543SOL    HW134262   3.513   0.570   2.399  0.0499 -2.2153 -1.2057
 7543SOL    HW234263   3.421   0.628   2.302 -0.1258 -0.7747 -0.0796
 7544SOL     OW34264   1.153   1.566  14.319 -0.4983 -0.0803 -0.2439
 7544SOL    HW134265   1.137   1.504  14.247  3.5039 -0.7474 -0.5106
 7544SOL    HW234266   1.063   1.583  14.347  0.3983 -0.4308  2.8441
 7545SOL     OW34267   0.533   0.464  14.407 -0.4429  0.2769  0.4842
 7545SOL    HW134268   0.454   0.517  14.411 -1.2241 -0.7418 -1.8817
 7545SOL    HW234269   0.499   0.375  14.408  2.6996 -0.9446 -0.3771
 7546SOL     OW34270   4.116   4.016   8.150 -0.2773  0.0626 -0.5638
 7546SOL    HW134271   4.131   4.111   8.147  1.9625 -0.2273  1.0821
 7546SOL    HW234272   4.130   3.999   8.057 -2.4148  0.4211 -0.9421
 7547SOL     OW34273   1.690   2.272   2.344  0.5985 -0.4249 -0.4556
 7547SOL    HW134274   1.770   2.235   2.307  0.3136 -0.4128 -1.0913
 7547SOL    HW234275   1.629   2.232   2.282  0.5496  3.7329 -3.1410
 7548SOL     OW34276   3.622   0.864   5.229 -0.1611  0.1930  0.2688
 7548SOL    HW134277   3.657   0.894   5.145  0.0291 -0.2236  0.2016
 7548SOL    HW234278   3.683   0.901   5.293  0.9060 -1.9797  0.4975
 7549SOL     OW34279   2.110   2.550   4.461 -0.3730 -0.0739  0.6755
 7549SOL    HW134280   2.141   2.584   4.545  0.1061 -1.7357  1.1710
 7549SOL    HW234281   2.015   2.555   4.471 -0.3056  0.2084  1.1391
 7550SOL     OW34282   3.927   4.589   1.219 -0.4538 -0.0606 -0.1753
 7550SOL    HW134283   3.881   4.516   1.260 -0.4607  0.1654  0.2169
 7550SOL    HW234284   4.019   4.565   1.214 -0.5170 -0.0076 -1.6136
 7551SOL     OW34285   3.731   2.101   7.322  0.6586  0.0932 -0.1112
 7551SOL    HW134286   3.685   2.117   7.404  0.8920  1.4281 -0.2372
 7551SOL    HW234287   3.767   2.013   7.334  0.4270  0.3101  2.1765
 7552SOL     OW34288   3.938   1.508   2.726  0.8695 -0.2580 -1.0146
 7552SOL    HW134289   3.869   1.494   2.661 -0.9617 -2.3723  1.3709
 7552SOL    HW234290   4.000   1.560   2.675 -1.0164  1.3764 -1.6747
 7553SOL     OW34291   2.080   2.347  10.833  0.1133  0.2463  0.8355
 7553SOL    HW134292   2.026   2.299  10.771 -0.0577  0.3321  0.9167
 7553SOL    HW234293   2.128   2.396  10.766  1.2803  0.3176  1.7139
 7554SOL     OW34294   2.245   3.769  12.416  0.2248  0.2524  0.1371
 7554SOL    HW134295   2.340   3.763  12.409  0.1754 -0.1924 -0.2031
 7554SOL    HW234296   2.211   3.765  12.326 -2.6705 -0.8705  1.2543
 7555SOL     OW34297   3.351   1.018   1.668 -0.2187 -0.4257  0.4043
 7555SOL    HW134298   3.287   1.048   1.733  0.8044  1.3718  0.5766
 7555SOL    HW234299   3.305   1.014   1.583  2.1655  0.5195 -0.9344
 7556SOL     OW34300   3.354   3.412  14.553 -0.2876 -0.0025  0.0970
 7556SOL    HW134301   3.308   3.412  14.470  1.9655 -1.9938 -1.1471
 7556SOL    HW234302   3.308   3.338  14.591  0.2449  0.8049  2.3746
 7557SOL     OW34303   4.617   2.005   3.693  0.0451 -0.2118 -0.9082
 7557SOL    HW134304   4.663   2.064   3.634  0.5058 -0.0047 -0.3369
 7557SOL    HW234305   4.685   1.992   3.759 -0.7545  2.1570  0.3825
 7558SOL     OW34306   2.171   0.198   4.444 -0.5053 -0.5382  0.3605
 7558SOL    HW134307   2.130   0.215   4.360  0.9716 -0.0826 -0.2811
 7558SOL    HW234308   2.217   0.283   4.446  1.5408 -1.6344 -0.1498
 7559SOL     OW34309   1.016   4.310   7.180  0.6090  0.0960 -0.8989
 7559SOL    HW134310   0.985   4.401   7.181 -1.5209 -0.6662  0.0853
 7559SOL    HW234311   1.032   4.294   7.272 -1.5507 -0.5596 -0.6480
 7560SOL     OW34312   2.490   2.907  11.391  0.5840  0.5342 -0.7160
 7560SOL    HW134313   2.525   2.996  11.386 -0.2879  0.9485  0.6693
 7560SOL    HW234314   2.457   2.910  11.481  0.6628  0.2449 -0.6786
 7561SOL     OW34315   3.326   3.193   2.688  0.6005 -0.3545  0.6150
 7561SOL    HW134316   3.408   3.156   2.658  1.7884  2.6690  0.0933
 7561SOL    HW234317   3.264   3.133   2.647  0.5572  1.1226 -1.5187
 7562SOL     OW34318   1.048   1.655   5.444  0.0648 -0.0989  0.5061
 7562SOL    HW134319   1.089   1.584   5.396 -1.6387  0.0611 -1.1857
 7562SOL    HW234320   0.976   1.669   5.383 -1.0085  0.7322  1.9541
 7563SOL     OW34321   3.207   3.869  17.494 -0.0136  0.3488  0.3331
 7563SOL    HW134322   3.258   3.886  17.415 -0.3591 -0.6249 -0.0902
 7563SOL    HW234323   3.122   3.850  17.454  0.3763  0.6881 -0.6533
 7564SOL     OW34324   1.733   3.103  16.678  0.4564  0.3465  0.4426
 7564SOL    HW134325   1.727   3.046  16.756  2.6299  1.2685  1.2851
 7564SOL    HW234326   1.823   3.133  16.683  0.0038  1.7762 -0.1235
 7565SOL     OW34327   2.369   3.444   6.237  0.2650 -0.2543  0.7784
 7565SOL    HW134328   2.334   3.523   6.196  0.0358 -0.5629  0.3774
 7565SOL    HW234329   2.393   3.397   6.157  1.0944 -1.9901  2.0340
 7566SOL     OW34330   3.983   3.827  13.180  0.7906  0.2276  0.5681
 7566SOL    HW134331   3.978   3.904  13.237  0.1839 -1.1307  2.3375
 7566SOL    HW234332   4.020   3.764  13.242  1.7457  0.8869  0.6726
 7567SOL     OW34333   1.650   1.087   7.779  0.6411 -0.7524 -0.0910
 7567SOL    HW134334   1.683   1.142   7.708  0.0034 -0.3477 -0.0792
 7567SOL    HW234335   1.603   1.015   7.737  1.5833 -0.7801 -1.1082
 7568SOL     OW34336   4.636   0.655   2.879  0.0942 -0.0971 -0.2450
 7568SOL    HW134337   4.709   0.646   2.941 -0.6047  0.9103  0.7179
 7568SOL    HW234338   4.571   0.601   2.924  0.2931  0.1056  0.2853
 7569SOL     OW34339   4.232   3.443   6.360 -0.1515 -0.5399  0.9820
 7569SOL    HW134340   4.232   3.376   6.291 -0.3303 -0.8370  1.2683
 7569SOL    HW234341   4.171   3.502   6.316  0.8183  0.9147  1.6160
 7570SOL     OW34342   0.294   0.296   5.477  0.0486  0.1135  0.7492
 7570SOL    HW134343   0.290   0.268   5.386 -1.8754 -0.7366  1.1131
 7570SOL    HW234344   0.302   0.392   5.475  2.5176 -0.1011  0.4919
 7571SOL     OW34345   1.817   3.733   4.085  0.1071 -0.1288  0.0695
 7571SOL    HW134346   1.789   3.661   4.028  1.0074  0.9892 -1.7715
 7571SOL    HW234347   1.789   3.811   4.037  2.6030  0.0073 -1.1524
 7572SOL     OW34348   4.551   1.321   3.298  0.2007  0.0088 -0.6551
 7572SOL    HW134349   4.468   1.275   3.281  1.1298 -1.5773 -0.8967
 7572SOL    HW234350   4.612   1.255   3.264  1.5948  2.6232 -3.2261
 7573SOL     OW34351   1.571   1.681   5.010  0.5140 -0.1327 -0.4612
 7573SOL    HW134352   1.502   1.664   5.075 -1.4583 -0.2536 -2.5906
 7573SOL    HW234353   1.642   1.631   5.050 -1.1046 -1.5494  0.6874
 7574SOL     OW34354   0.958   4.231   6.654  0.0203  0.2120 -0.7439
 7574SOL    HW134355   1.043   4.219   6.697 -0.7473 -0.3624  0.6400
 7574SOL    HW234356   0.923   4.149   6.689 -0.2163  0.1386 -1.1537
 7575SOL     OW34357   3.937   2.185   8.756  0.1057  0.2948  0.7128
 7575SOL    HW134358   3.898   2.215   8.674 -0.2690 -1.7574  0.1245
 7575SOL    HW234359   3.974   2.099   8.736 -1.4283  0.0130 -0.9279
 7576SOL     OW34360   3.171   3.610   9.303  0.1184  0.3826 -0.0128
 7576SOL    HW134361   3.121   3.575   9.229  0.5686 -0.5029  0.0990
 7576SOL    HW234362   3.135   3.699   9.308 -0.6813  0.0581  0.1081
 7577SOL     OW34363   2.624   0.790   9.113  0.5978 -0.0059  0.4099
 7577SOL    HW134364   2.655   0.811   9.025  0.1344 -1.1894 -0.0390
 7577SOL    HW234365   2.662   0.868   9.154  2.0020 -0.8356  0.6579
 7578SOL     OW34366   3.937   0.399  16.776 -0.2241  0.0712 -0.0695
 7578SOL    HW134367   3.996   0.325  16.794  2.6533  2.3217 -0.3024
 7578SOL    HW234368   3.897   0.369  16.695 -0.8315 -0.4415  0.4172
 7579SOL     OW34369   1.220   4.408   8.155  0.7278  0.0066 -0.1825
 7579SOL    HW134370   1.249   4.381   8.068 -2.9679 -1.2365 -0.9944
 7579SOL    HW234371   1.126   4.405   8.142  0.4484  2.3166  1.3701
 7580SOL     OW34372   4.341   1.519   2.858  0.1678  0.1365 -0.1937
 7580SOL    HW134373   4.415   1.467   2.887 -0.9649  0.8828  4.0098
 7580SOL    HW234374   4.379   1.607   2.857  0.7316 -0.1111 -0.6167
 7581SOL     OW34375   3.256   1.081   3.117 -0.2270  0.3716 -0.6912
 7581SOL    HW134376   3.259   1.013   3.049 -1.7542  0.6769 -1.0608
 7581SOL    HW234377   3.214   1.146   3.060 -1.9983  0.2866  0.5128
 7582SOL     OW34378   2.746   2.306  15.995 -0.2667  0.1741 -0.1065
 7582SOL    HW134379   2.786   2.392  15.993  3.2610 -1.4371  1.0724
 7582SOL    HW234380   2.778   2.261  15.916  1.6343 -0.7653  1.1988
 7583SOL     OW34381   3.132   2.266  17.694 -0.2892  0.5412  0.1659
 7583SOL    HW134382   3.087   2.349  17.709 -1.1714  0.3849 -1.6465
 7583SOL    HW234383   3.143   2.243   0.057 -1.5543 -2.3328 -0.3659
 7584SOL     OW34384   2.589   1.295  14.785 -0.2766 -0.5705 -0.2013
 7584SOL    HW134385   2.576   1.243  14.865 -1.4382 -0.6987 -0.4756
 7584SOL    HW234386   2.537   1.374  14.796 -1.1675 -1.3857  1.4360
 7585SOL     OW34387   2.360   2.590  15.350  0.2806  0.6355  0.3934
 7585SOL    HW134388   2.395   2.517  15.401  0.6481  0.6814  0.2112
 7585SOL    HW234389   2.415   2.658  15.390  1.3264  0.0506 -0.0598
 7586SOL     OW34390   2.918   2.779   4.564 -0.3734 -0.1033 -0.0402
 7586SOL    HW134391   2.985   2.734   4.512 -1.2169 -1.3813 -0.0323
 7586SOL    HW234392   2.844   2.719   4.568  0.0154 -0.5446  0.4566
 7587SOL     OW34393   3.732   4.332   5.673 -0.2450 -0.2031  0.2279
 7587SOL    HW134394   3.682   4.358   5.751  2.3782  1.8894  1.2194
 7587SOL    HW234395   3.665   4.322   5.605 -0.4845  0.6132  0.3382
 7588SOL     OW34396   3.943   2.218   5.283 -0.8430  0.2132  0.0079
 7588SOL    HW134397   4.002   2.293   5.282  1.6102 -1.6520  1.9324
 7588SOL    HW234398   3.895   2.227   5.201 -1.3423  1.4634  0.4506
 7589SOL     OW34399   4.313   2.632   6.296 -0.3899 -0.2060  0.0536
 7589SOL    HW134400   4.329   2.539   6.277 -0.0079 -0.2111  0.3976
 7589SOL    HW234401   4.365   2.632   6.376  2.2097 -0.2420 -1.6412
 7590SOL     OW34402   1.132   3.277   1.408  0.2793 -0.3280  0.0995
 7590SOL    HW134403   1.159   3.291   1.317 -1.3987  1.7917 -0.0508
 7590SOL    HW234404   1.211   3.297   1.458  1.4115 -2.1922 -0.9428
 7591SOL     OW34405   2.180   4.629   4.898 -0.0447 -0.7129  0.3190
 7591SOL    HW134406   2.145   4.589   4.819  2.8085  0.6204 -1.6434
 7591SOL    HW234407   2.136   4.585   4.971 -1.3705  1.2642  0.7179
 7592SOL     OW34408   2.677   3.666   2.040  0.2328  0.2305  0.9197
 7592SOL    HW134409   2.585   3.691   2.038  0.4885  1.0334 -0.5653
 7592SOL    HW234410   2.713   3.755   2.045 -0.9045  0.8366 -1.8788
 7593SOL     OW34411   2.859   2.139   3.189  0.3157 -0.2832 -0.7187
 7593SOL    HW134412   2.822   2.065   3.237  1.4047 -0.7969 -0.6722
 7593SOL    HW234413   2.797   2.208   3.212  0.6302  0.1137 -1.0383
 7594SOL     OW34414   0.557   1.449  13.461  0.2483 -1.0677  0.5279
 7594SOL    HW134415   0.601   1.369  13.488  3.1139  0.2570 -0.1586
 7594SOL    HW234416   0.469   1.411  13.462  0.1620 -0.9516 -1.2998
 7595SOL     OW34417   4.194   1.573  12.234  0.1413 -0.1021  0.2975
 7595SOL    HW134418   4.161   1.624  12.308 -0.3231  1.3275 -0.8903
 7595SOL    HW234419   4.223   1.489  12.269 -2.1581 -1.0432 -0.0624
 7596SOL     OW34420   4.658   2.166   0.397  0.2010  0.1842 -0.4674
 7596SOL    HW134421   4.659   2.234   0.330  0.6048  1.2357  0.6012
 7596SOL    HW234422   4.673   2.083   0.351 -1.8725 -0.5244  0.1507
 7597SOL     OW34423   1.299   2.887   4.202 -0.6566 -0.0447  0.1909
 7597SOL    HW134424   1.234   2.823   4.172 -3.2484  2.5145  0.3248
 7597SOL    HW234425   1.266   2.905   4.290 -0.3409 -2.7406  0.8555
 7598SOL     OW34426   2.676   3.967  16.377  0.3739  0.0792 -0.2536
 7598SOL    HW134427   2.593   3.977  16.330  0.2187 -2.7349 -0.6240
 7598SOL    HW234428   2.655   3.950  16.469 -1.1215  1.8165 -0.2884
 7599SOL     OW34429   4.251   0.071   4.544  0.2956  0.0974 -0.2020
 7599SOL    HW134430   4.251   0.091   4.451  0.5642  1.2267  0.0361
 7599SOL    HW234431   4.296   0.148   4.580  2.2683 -1.1139 -0.0652
 7600SOL     OW34432   2.308   2.405   5.940 -0.1792  0.1816 -0.0009
 7600SOL    HW134433   2.345   2.317   5.934  1.2818  0.6549  2.0261
 7600SOL    HW234434   2.332   2.449   5.859 -0.6897 -3.1966 -2.0120
 7601SOL     OW34435   1.669   3.583   5.474 -0.0773  0.2348  0.9890
 7601SOL    HW134436   1.624   3.558   5.394 -0.1734 -0.2075  1.1796
 7601SOL    HW234437   1.642   3.511   5.531 -0.7427  0.7797  1.3661
 7602SOL     OW34438   4.325   4.478   2.223 -0.1432  0.2690 -0.8105
 7602SOL    HW134439   4.409   4.456   2.262 -0.0305 -1.1070 -1.8366
 7602SOL    HW234440   4.322   4.573   2.238 -0.1496 -0.0844  1.4379
 7603SOL     OW34441   3.934   3.944   1.457  0.1620  0.4923  0.0894
 7603SOL    HW134442   3.868   3.967   1.522 -0.2109  0.0783 -0.1412
 7603SOL    HW234443   3.922   4.026   1.408 -0.3395  0.3993  0.0551
 7604SOL     OW34444   3.126   3.843   8.950 -0.4165  0.1896  0.0126
 7604SOL    HW134445   3.170   3.847   8.866 -1.4317 -0.6871 -0.5545
 7604SOL    HW234446   3.055   3.906   8.937 -1.4376 -1.2033 -1.0500
 7605SOL     OW34447   1.803   3.324   5.274  0.2562  0.3525  0.4233
 7605SOL    HW134448   1.791   3.274   5.355  2.2778  0.1359  0.5830
 7605SOL    HW234449   1.767   3.266   5.207 -0.4979 -1.3847  2.3460
 7606SOL     OW34450   4.524   2.810  10.621 -0.0027 -0.1846  0.2003
 7606SOL    HW134451   4.490   2.817  10.532  1.3188 -0.9237 -0.3522
 7606SOL    HW234452   4.466   2.861  10.678 -1.3722 -1.5057 -0.0231
 7607SOL     OW34453   3.176   1.105   8.024  0.4486 -0.3256  0.2414
 7607SOL    HW134454   3.214   1.142   7.944 -0.5994 -0.0374 -0.1346
 7607SOL    HW234455   3.250   1.057   8.058  1.8624  2.1685  0.7125
 7608SOL     OW34456   1.894   0.525  15.797  0.0553  0.0329  0.2928
 7608SOL    HW134457   1.884   0.555  15.888 -0.4598 -0.0924  0.2781
 7608SOL    HW234458   1.978   0.565  15.775  0.4483 -0.2467  1.2801
 7609SOL     OW34459   4.112   2.715  14.850  0.3295 -0.7423  0.2022
 7609SOL    HW134460   4.036   2.712  14.909 -0.0056  0.5181 -0.1478
 7609SOL    HW234461   4.063   2.771  14.789 -0.9177 -1.5057  0.4964
 7610SOL     OW34462   2.642   2.681   3.412 -0.1851  0.3347  0.1566
 7610SOL    HW134463   2.554   2.694   3.378 -0.1511  0.7681  0.2354
 7610SOL    HW234464   2.697   2.687   3.334 -1.2253  2.0461 -0.4444
 7611SOL     OW34465   0.452   4.298  11.916  0.0751  0.2152  0.4145
 7611SOL    HW134466   0.459   4.373  11.857 -0.0990 -1.1151 -1.2776
 7611SOL    HW234467   0.445   4.226  11.854  0.4443  0.2213  0.3654
 7612SOL     OW34468   1.852   3.187   8.819 -0.1168 -0.1970 -0.3959
 7612SOL    HW134469   1.825   3.099   8.793 -0.4555 -0.8115  2.0260
 7612SOL    HW234470   1.887   3.172   8.906  0.6488  0.5246 -0.5776
 7613SOL     OW34471   2.221   1.919  12.213 -0.2081  0.4105  0.3489
 7613SOL    HW134472   2.139   1.928  12.262 -0.8107 -1.3204 -0.3304
 7613SOL    HW234473   2.265   1.859  12.272  1.8320  1.3671 -0.2141
 7614SOL     OW34474   4.100   0.670  17.445 -0.1674  0.1223 -0.1885
 7614SOL    HW134475   4.116   0.581  17.412 -1.3051  0.0593 -0.5663
 7614SOL    HW234476   4.076   0.700  17.357  1.2922  0.9419 -0.2953
 7615SOL     OW34477   3.136   2.038  12.178  0.2342 -0.6812  0.4907
 7615SOL    HW134478   3.202   1.971  12.163  0.7961 -0.1593  0.6028
 7615SOL    HW234479   3.186   2.089  12.242 -0.0819  1.0436 -0.6498
 7616SOL     OW34480   1.303   3.162   4.296  0.2630  0.4501  0.4941
 7616SOL    HW134481   1.296   3.087   4.236 -0.9676 -0.7004  2.0905
 7616SOL    HW234482   1.214   3.168   4.329  0.8843  1.0438  2.0693
 7617SOL     OW34483   3.763   0.084   8.215  0.2737 -0.2438 -0.2834
 7617SOL    HW134484   3.723   0.170   8.202  0.4723 -0.5138 -2.6416
 7617SOL    HW234485   3.831   0.117   8.273 -0.4691  0.2395  0.3221
 7618SOL     OW34486   2.101   4.641   7.448  0.4811  0.2276 -0.3533
 7618SOL    HW134487   2.076   4.726   7.412  0.5396  0.8442  1.0429
 7618SOL    HW234488   2.166   4.612   7.384  1.4141 -2.1283  1.6320
 7619SOL     OW34489   3.418   3.369   5.775  1.1862 -0.0704  0.3767
 7619SOL    HW134490   3.419   3.431   5.702  0.9890  0.6806  1.0132
 7619SOL    HW234491   3.484   3.309   5.740 -1.6579 -2.3109 -1.1216
 7620SOL     OW34492   4.286   2.932  15.644 -0.0321 -0.2510 -0.3665
 7620SOL    HW134493   4.347   2.922  15.717  0.2737 -1.2919 -0.7622
 7620SOL    HW234494   4.292   3.027  15.632 -0.7054 -0.3057 -1.1048
 7621SOL     OW34495   4.533   3.257   0.787 -0.3446  0.0462 -0.1118
 7621SOL    HW134496   4.578   3.293   0.864 -0.3298 -0.2812  0.0294
 7621SOL    HW234497   4.468   3.203   0.832 -2.5320  0.8632 -2.2851
 7622SOL     OW34498   3.763   1.983   3.139  0.2581  0.0898  0.1892
 7622SOL    HW134499   3.785   2.000   3.230 -0.2687  4.7161 -0.5838
 7622SOL    HW234500   3.748   1.889   3.149  0.6476 -0.1344 -1.3017
 7623SOL     OW34501   0.161   0.078  16.100 -0.0769 -0.3923 -0.1335
 7623SOL    HW134502   0.167   0.071  16.005 -3.5874  0.6487 -0.4324
 7623SOL    HW234503   0.194   0.168  16.104 -1.1993 -0.0553  1.4766
 7624SOL     OW34504   1.610   2.488   5.633 -0.3591  0.9164 -0.1185
 7624SOL    HW134505   1.519   2.475   5.658  0.0618 -0.2498  0.7842
 7624SOL    HW234506   1.653   2.409   5.664 -2.5707 -0.6608 -1.1112
 7625SOL     OW34507   1.569   1.542   0.738  0.1468  0.2980 -0.1231
 7625SOL    HW134508   1.599   1.630   0.713 -0.0217  0.5833  0.6615
 7625SOL    HW234509   1.491   1.565   0.789  0.2791  0.0246  0.1986
 7626SOL     OW34510   1.623   3.287  14.952 -0.3692 -0.4352 -0.6312
 7626SOL    HW134511   1.581   3.201  14.953 -1.4680  0.1119  0.5278
 7626SOL    HW234512   1.560   3.331  15.010  1.0598  2.7426 -1.4691
 7627SOL     OW34513   1.015   2.062   9.844  0.7537  0.4528  0.5590
 7627SOL    HW134514   0.951   2.130   9.864 -0.1699 -0.8978  2.1947
 7627SOL    HW234515   1.070   2.070   9.921  3.4606  0.6902 -1.4068
 7628SOL     OW34516   4.029   2.179  15.633  0.0876 -0.0469 -0.0633
 7628SOL    HW134517   3.938   2.199  15.652  0.1043  1.5163 -1.6654
 7628SOL    HW234518   4.031   2.207  15.542 -1.2839  0.1231 -0.0456
 7629SOL     OW34519   1.738   2.650   6.375  0.3532  0.2164 -0.1298
 7629SOL    HW134520   1.749   2.691   6.289 -1.3154  1.7794  0.3879
 7629SOL    HW234521   1.721   2.562   6.343  1.3075 -0.7407  2.0355
 7630SOL     OW34522   3.429   2.079   8.030 -0.4851 -0.2751 -0.1180
 7630SOL    HW134523   3.337   2.090   8.055 -0.9634 -1.3013 -1.4406
 7630SOL    HW234524   3.469   2.126   8.103  2.2338 -0.8454 -1.2510
 7631SOL     OW34525   1.612   3.356  17.519 -0.6950 -0.1807 -0.1326
 7631SOL    HW134526   1.604   3.448  17.497  2.3828  0.2016  0.3481
 7631SOL    HW234527   1.613   3.312  17.434 -0.9117  1.8229 -1.1600
 7632SOL     OW34528   4.427   3.599   3.251 -0.5701 -0.4419 -0.2433
 7632SOL    HW134529   4.447   3.692   3.244 -1.4427 -0.3985 -2.2603
 7632SOL    HW234530   4.349   3.590   3.196 -1.1228 -1.8631  0.7352
 7633SOL     OW34531   2.863   1.204  14.468 -0.6077 -0.7002 -0.4680
 7633SOL    HW134532   2.955   1.189  14.490  0.3412  1.4669 -2.8752
 7633SOL    HW234533   2.869   1.234  14.377 -2.6941  0.1508 -0.3294
 7634SOL     OW34534   2.025   0.015   5.217  0.2562 -0.5936  0.4019
 7634SOL    HW134535   2.116   0.010   5.245 -0.8293  1.0833  4.2421
 7634SOL    HW234536   2.025   0.103   5.180  2.8202 -0.7640  0.0148
 7635SOL     OW34537   1.268   2.914   6.413  0.9163 -0.0027 -0.0885
 7635SOL    HW134538   1.302   2.825   6.410  1.8161  0.3595 -0.9185
 7635SOL    HW234539   1.264   2.933   6.320  0.6646 -0.0167 -0.0807
 7636SOL     OW34540   1.593   0.227  12.643 -0.1509  0.2557 -0.3935
 7636SOL    HW134541   1.687   0.208  12.648 -0.4704 -1.6298 -1.2302
 7636SOL    HW234542   1.581   0.191  12.554  1.0126  0.4057 -0.6103
 7637SOL     OW34543   3.016   1.269   8.200 -0.8463  0.0468  0.0446
 7637SOL    HW134544   3.089   1.329   8.211 -0.9031 -0.0733  1.0847
 7637SOL    HW234545   3.036   1.224   8.118  2.1742  0.5577  0.5019
 7638SOL     OW34546   3.844   4.568   1.843 -0.2248  0.4471 -0.9516
 7638SOL    HW134547   3.871   4.659   1.833 -0.2671  0.5313 -0.2671
 7638SOL    HW234548   3.890   4.544   1.924  1.7288  0.2702 -2.0913
 7639SOL     OW34549   0.060   2.722   8.930 -0.0546 -0.5286  0.5642
 7639SOL    HW134550   0.140   2.752   8.974 -0.8678  3.1923 -0.5362
 7639SOL    HW234551   0.003   2.792   8.962  0.7289  0.0028  0.7884
 7640SOL     OW34552   0.656   3.217   6.672 -0.3858 -0.1344  0.2881
 7640SOL    HW134553   0.616   3.287   6.621  0.5926  0.5822  0.5002
 7640SOL    HW234554   0.691   3.264   6.748 -2.6031  1.6417  0.1918
 7641SOL     OW34555   4.080   0.031   2.280  0.5010  0.8515  0.1839
 7641SOL    HW134556   3.986   0.048   2.283  0.3180 -0.3711  1.4917
 7641SOL    HW234557   4.074   4.698   2.350  0.2822 -0.3641 -0.9609
 7642SOL     OW34558   0.429   2.059  12.385  0.3816  0.3139 -0.2783
 7642SOL    HW134559   0.493   2.015  12.328 -0.8708 -1.5143 -0.2611
 7642SOL    HW234560   0.386   2.125  12.331  0.9558  0.7222 -0.2480
 7643SOL     OW34561   4.605   3.416   3.340  1.0153  0.7247  0.0181
 7643SOL    HW134562   4.615   3.429   3.434  1.9457  2.5730 -0.3401
 7643SOL    HW234563   4.525   3.467   3.324  0.6717 -0.4122 -2.0060
 7644SOL     OW34564   0.556   4.532   2.619 -0.0943 -0.5077  0.9270
 7644SOL    HW134565   0.613   4.578   2.681 -0.9044 -0.5464  1.6971
 7644SOL    HW234566   0.471   4.565   2.649 -0.8993 -0.6119 -1.2331
 7645SOL     OW34567   1.987   2.839   8.450 -0.4637 -0.6467  0.0338
 7645SOL    HW134568   2.007   2.749   8.475 -0.9875 -1.6099 -2.9753
 7645SOL    HW234569   1.999   2.837   8.355  3.0610  1.0703  0.4402
 7646SOL     OW34570   3.347   2.602   4.949  0.3031 -0.3061 -0.0173
 7646SOL    HW134571   3.316   2.541   4.882 -0.7481 -0.3167  0.4768
 7646SOL    HW234572   3.375   2.669   4.886 -2.2426  1.8941  1.1974
 7647SOL     OW34573   4.184   4.520   8.611 -0.2031  0.2070  0.1113
 7647SOL    HW134574   4.121   4.516   8.683 -0.5392 -1.2087 -0.2479
 7647SOL    HW234575   4.245   4.578   8.657  1.5294 -1.4257 -0.1024
 7648SOL     OW34576   2.252   2.416   0.166 -0.0440 -0.7559 -0.7718
 7648SOL    HW134577   2.265   2.424   0.071  1.7173 -1.5289 -0.6050
 7648SOL    HW234578   2.343   2.401   0.193 -0.1221  0.2442  0.0476
 7649SOL     OW34579   1.126   2.696  16.473 -0.2195  0.0400  0.1299
 7649SOL    HW134580   1.036   2.719  16.448 -0.0917  0.5401  0.1207
 7649SOL    HW234581   1.159   2.728  16.389 -1.8993 -1.0114 -0.9360
 7650SOL     OW34582   1.593   2.526   7.176  0.2502 -0.1477 -0.1313
 7650SOL    HW134583   1.541   2.598   7.212  1.3267 -0.9358  2.9679
 7650SOL    HW234584   1.564   2.541   7.086  3.1406  1.2931 -0.8017
 7651SOL     OW34585   0.359   4.479   2.993 -0.2416 -0.4473 -0.4278
 7651SOL    HW134586   0.391   4.448   3.078  1.5562 -0.8662 -1.2615
 7651SOL    HW234587   0.372   4.404   2.935 -0.8439  0.3645 -1.6034
 7652SOL     OW34588   2.279   3.370  12.937 -0.1952  0.1033 -0.8557
 7652SOL    HW134589   2.237   3.454  12.953  2.6083  1.3402 -0.0156
 7652SOL    HW234590   2.370   3.396  12.952  0.0366  0.3755 -2.7438
 7653SOL     OW34591   4.299   4.488   1.949  0.4124  0.0667 -0.2721
 7653SOL    HW134592   4.253   4.571   1.950 -1.2269 -0.8632  1.5041
 7653SOL    HW234593   4.330   4.495   2.039 -0.2879  1.6925 -0.1557
 7654SOL     OW34594   2.448   3.709   8.887  0.2787 -0.1505  0.3513
 7654SOL    HW134595   2.445   3.616   8.909 -0.0737  0.3065  2.2397
 7654SOL    HW234596   2.514   3.717   8.817  0.7799  1.9998  1.0567
 7655SOL     OW34597   3.196   2.339   7.605 -0.4679  0.2221 -0.2123
 7655SOL    HW134598   3.100   2.337   7.615 -0.3703 -0.2865  0.6484
 7655SOL    HW234599   3.207   2.350   7.510  1.4457  0.9061  0.0964
 7656SOL     OW34600   0.188   3.748   5.039  0.3388 -0.1806  0.2514
 7656SOL    HW134601   0.243   3.693   4.984  1.0133 -0.3804  1.1321
 7656SOL    HW234602   0.100   3.734   5.003 -0.2391  2.0490  0.7971
 7657SOL     OW34603   1.173   1.425   3.541 -0.4621 -0.5366 -0.3918
 7657SOL    HW134604   1.132   1.456   3.460 -0.6735 -0.6023 -0.3093
 7657SOL    HW234605   1.241   1.373   3.499  0.3848  1.5026 -1.5940
 7658SOL     OW34606   1.269   1.820   2.243 -0.0361  0.7583  0.6948
 7658SOL    HW134607   1.233   1.895   2.290 -1.3961  1.1110 -0.8997
 7658SOL    HW234608   1.192   1.790   2.195 -0.7946  0.8099  1.8836
 7659SOL     OW34609   0.104   3.722   3.736  0.5260  0.1715  0.4638
 7659SOL    HW134610   0.159   3.798   3.752 -1.3161  1.4592  0.7148
 7659SOL    HW234611   0.102   3.686   3.824  1.4793  1.1954  0.8977
 7660SOL     OW34612   4.550   1.337   7.739 -0.9057 -0.4677  0.5530
 7660SOL    HW134613   4.562   1.408   7.677 -0.3889  2.7507  4.3046
 7660SOL    HW234614   4.511   1.390   7.809  1.1850  1.4572  0.2603
 7661SOL     OW34615   1.395   0.792   3.445 -0.0527  0.0195 -0.0645
 7661SOL    HW134616   1.399   0.885   3.421  2.5697 -0.0892 -0.0118
 7661SOL    HW234617   1.472   0.789   3.502 -0.0748 -2.3470 -0.1766
 7662SOL     OW34618   2.803   3.873  10.672 -0.3376 -0.3454 -0.0429
 7662SOL    HW134619   2.708   3.865  10.665 -0.4422  1.3886 -0.4829
 7662SOL    HW234620   2.827   3.893  10.581 -1.0583 -1.6727 -0.5409
 7663SOL     OW34621   1.197   3.247   5.268 -0.1630 -0.0712  0.2840
 7663SOL    HW134622   1.229   3.284   5.185 -0.8295 -5.2363 -2.2802
 7663SOL    HW234623   1.131   3.311   5.295 -0.3480 -0.5612  0.9921
 7664SOL     OW34624   3.562   4.329   9.687  0.0447 -0.4629 -0.0778
 7664SOL    HW134625   3.625   4.391   9.725  0.5908  1.3142 -3.8862
 7664SOL    HW234626   3.532   4.287   9.767 -1.6332 -0.4929 -0.7106
 7665SOL     OW34627   0.146   3.230   5.827 -0.5738 -0.0878 -0.6892
 7665SOL    HW134628   0.052   3.217   5.827 -0.6183  0.2550 -0.9286
 7665SOL    HW234629   0.169   3.230   5.734 -1.6764  0.2716 -0.9576
 7666SOL     OW34630   1.134   4.467  13.603 -0.4425  0.1952  0.0413
 7666SOL    HW134631   1.175   4.553  13.610  0.8333 -0.5654  1.9635
 7666SOL    HW234632   1.078   4.458  13.679  0.5660  1.9925  0.9902
 7667SOL     OW34633   1.308   0.701   7.037 -0.4216  0.2540  0.3299
 7667SOL    HW134634   1.262   0.784   7.050 -1.6623 -0.1147 -1.7096
 7667SOL    HW234635   1.326   0.677   7.128 -1.8455  0.5368  0.6735
 7668SOL     OW34636   3.237   2.311   1.722  0.5543 -0.4473 -0.6206
 7668SOL    HW134637   3.294   2.273   1.789 -2.5582 -2.5154  0.8461
 7668SOL    HW234638   3.205   2.390   1.764  0.7939 -0.2521 -0.8051
 7669SOL     OW34639   3.563   1.753   7.622  0.0651 -0.5851 -0.1769
 7669SOL    HW134640   3.641   1.805   7.602  0.2511 -0.7958  0.0059
 7669SOL    HW234641   3.500   1.819   7.594 -0.5971 -0.4332  1.6589
 7670SOL     OW34642   4.561   1.363   2.532  0.5625  0.3892  0.1694
 7670SOL    HW134643   4.569   1.270   2.554  0.1187  0.5243  0.8972
 7670SOL    HW234644   4.466   1.367   2.548  0.2521  0.5830 -1.6886
 7671SOL     OW34645   1.606   3.938  12.654 -0.6185 -0.0289 -0.5484
 7671SOL    HW134646   1.601   3.895  12.739  2.1293  1.3556  0.3428
 7671SOL    HW234647   1.660   4.017  12.665  0.0409 -0.7995  1.7292
 7672SOL     OW34648   2.685   4.563  11.865 -0.5551  0.1560  0.1930
 7672SOL    HW134649   2.683   4.628  11.935  0.3554  0.4631 -0.0687
 7672SOL    HW234650   2.597   4.578  11.830 -0.4213 -0.5920 -0.4527
 7673SOL     OW34651   0.411   2.763   3.594 -0.2812 -0.6278  0.2567
 7673SOL    HW134652   0.450   2.676   3.599  0.5167 -0.2439  0.6861
 7673SOL    HW234653   0.428   2.769   3.500 -0.0677  0.2116  0.3505
 7674SOL     OW34654   3.599   3.440   7.076 -0.0409 -0.2659 -0.0753
 7674SOL    HW134655   3.641   3.512   7.123  1.2194 -1.3952  0.5269
 7674SOL    HW234656   3.659   3.368   7.095  0.1208  0.1165  0.8449
 7675SOL     OW34657   4.684   3.298   1.014 -0.1042 -0.0952  0.6542
 7675SOL    HW134658   4.727   3.213   1.009  0.3496  0.0867  1.5266
 7675SOL    HW234659   4.654   3.312   1.104  1.1737 -0.2143  1.0907
 7676SOL     OW34660   4.001   2.405   3.822 -0.4438 -0.1598 -0.2301
 7676SOL    HW134661   3.972   2.422   3.911 -0.2045  1.4380 -0.4551
 7676SOL    HW234662   4.023   2.495   3.797  1.3422 -0.7140 -0.6555
 7677SOL     OW34663   0.545   2.630   9.289 -0.1616 -0.1965  0.2093
 7677SOL    HW134664   0.640   2.639   9.296  0.2826 -3.0756 -2.0162
 7677SOL    HW234665   0.531   2.615   9.195  0.8674  2.1611 -0.3259
 7678SOL     OW34666   1.694   1.013   1.827 -0.2807  0.0711  0.0547
 7678SOL    HW134667   1.715   0.920   1.824  1.8570  0.4801  2.3770
 7678SOL    HW234668   1.740   1.039   1.906  0.4282  0.0804 -0.3589
 7679SOL     OW34669   2.787   1.070  16.398 -1.3370 -0.2049 -0.1419
 7679SOL    HW134670   2.862   1.053  16.341 -1.5606 -0.5534 -0.3330
 7679SOL    HW234671   2.767   0.979  16.419 -0.4194 -0.2711  0.4225
 7680SOL     OW34672   4.071   1.323   3.257  0.2401 -0.2079 -0.0630
 7680SOL    HW134673   4.062   1.307   3.163  1.3970  2.0618 -0.5511
 7680SOL    HW234674   4.165   1.331   3.274  0.6421 -1.7562 -1.6286
 7681SOL     OW34675   0.850   0.757   8.359 -0.0804  0.1086 -0.4294
 7681SOL    HW134676   0.858   0.852   8.350  0.6918  0.2004  1.2573
 7681SOL    HW234677   0.763   0.752   8.399 -0.5815  0.3119 -1.4709
 7682SOL     OW34678   1.098   3.615   8.407 -0.3425  0.3077 -0.0398
 7682SOL    HW134679   1.134   3.565   8.479  0.1912  1.0556  0.2150
 7682SOL    HW234680   1.096   3.704   8.442  0.4875  1.4236 -2.7983
 7683SOL     OW34681   3.187   4.655   5.780 -0.5568 -0.2493 -0.0822
 7683SOL    HW134682   3.148   4.588   5.836  0.5862 -1.3384 -0.5934
 7683SOL    HW234683   3.278   4.633   5.799 -0.6309 -0.5772 -0.1075
 7684SOL     OW34684   3.893   2.880   2.329  0.5064 -0.3049 -0.0295
 7684SOL    HW134685   3.929   2.856   2.244  0.8871  0.5313 -0.1040
 7684SOL    HW234686   3.836   2.804   2.341 -1.3892  1.3272  1.3173
 7685SOL     OW34687   3.292   1.067   5.358 -0.3401  0.4111  0.5374
 7685SOL    HW134688   3.302   0.979   5.396 -0.9948  0.3230  0.5223
 7685SOL    HW234689   3.199   1.079   5.378 -0.2499  1.5021  0.2953
 7686SOL     OW34690   2.782   3.777   6.576 -0.0597  0.0764 -0.2574
 7686SOL    HW134691   2.861   3.729   6.603  1.7257  2.2178 -1.6765
 7686SOL    HW234692   2.754   3.723   6.502  0.5112 -0.5162 -0.0424
 7687SOL     OW34693   2.217   0.582   9.198 -0.4851 -0.2444  0.1938
 7687SOL    HW134694   2.195   0.673   9.217  0.3714  0.5067 -2.3193
 7687SOL    HW234695   2.150   0.530   9.242  1.2740 -1.0734  1.9022
 7688SOL     OW34696   4.241   3.322   1.142  0.7122 -0.4416 -0.3881
 7688SOL    HW134697   4.276   3.289   1.060 -0.3646  2.9377 -2.2142
 7688SOL    HW234698   4.275   3.257   1.204 -1.7275  0.4482  1.8991
 7689SOL     OW34699   4.056   2.144   2.414  0.1649  0.6671  0.3358
 7689SOL    HW134700   4.009   2.227   2.404 -0.0725  0.4844 -0.0348
 7689SOL    HW234701   4.032   2.103   2.331 -1.5831  0.1803  1.0758
 7690SOL     OW34702   2.535   2.389   3.737  0.3444  0.6599  0.2732
 7690SOL    HW134703   2.621   2.425   3.717  0.9814 -0.6014  0.7501
 7690SOL    HW234704   2.510   2.464   3.791  1.4143  1.7571 -0.7538
 7691SOL     OW34705   0.589   4.478  17.533 -0.4739 -0.5273  0.1292
 7691SOL    HW134706   0.599   4.525  17.451  0.3555 -1.2199 -0.1662
 7691SOL    HW234707   0.654   4.525  17.585  1.3838 -0.0804 -2.6022
 7692SOL     OW34708   1.981   2.039  13.727 -0.4792  0.1454 -0.2660
 7692SOL    HW134709   2.061   2.001  13.692 -2.0728 -2.2333 -1.3479
 7692SOL    HW234710   1.916   1.993  13.673 -0.6916 -0.5768  0.5905
 7693SOL     OW34711   0.863   3.082   6.543 -0.7016  0.2250  0.4091
 7693SOL    HW134712   0.814   3.147   6.593 -0.7362 -1.3352  2.3972
 7693SOL    HW234713   0.952   3.118   6.538 -0.2382 -0.9025  0.6887
 7694SOL     OW34714   4.575   0.570  11.687  0.0706  0.0152 -0.0999
 7694SOL    HW134715   4.493   0.556  11.641  0.0162  0.8420 -0.2628
 7694SOL    HW234716   4.645   0.539  11.629 -0.4380  0.5932 -1.0213
 7695SOL     OW34717   0.757   4.547   6.110 -0.3392 -0.2363  0.4153
 7695SOL    HW134718   0.847   4.531   6.083 -1.2739 -2.6353 -1.2717
 7695SOL    HW234719   0.725   4.586   6.029 -1.4389 -0.2772  0.8311
 7696SOL     OW34720   1.485   0.262   2.653 -0.1274 -0.0191 -0.1901
 7696SOL    HW134721   1.532   0.310   2.584 -0.0149  0.2836  0.0991
 7696SOL    HW234722   1.536   0.181   2.660  0.1000  0.2212  0.9011
 7697SOL     OW34723   1.944   1.772   4.717  0.6506 -0.0422 -0.1042
 7697SOL    HW134724   1.855   1.800   4.696  1.0619  0.1300 -1.5972
 7697SOL    HW234725   1.933   1.683   4.750 -0.2005  0.4453  0.9450
 7698SOL     OW34726   1.122   0.420  14.992  0.1822 -0.3578  0.0440
 7698SOL    HW134727   1.159   0.464  14.915  0.9381  0.9855  1.1725
 7698SOL    HW234728   1.067   0.354  14.950  1.0133 -0.9529 -0.1123
 7699SOL     OW34729   1.359   4.532   8.393 -0.3155 -0.2486  0.0343
 7699SOL    HW134730   1.342   4.502   8.304  1.7721  2.3642 -1.2463
 7699SOL    HW234731   1.268   4.554   8.414  0.4569  3.2258 -0.2597
 7700SOL     OW34732   0.971   0.393  12.396  0.5180  0.0106 -0.4538
 7700SOL    HW134733   0.895   0.343  12.426  0.1718  0.4452 -0.6122
 7700SOL    HW234734   1.041   0.329  12.390 -1.3706 -2.0975 -0.0001
 7701SOL     OW34735   4.343   1.288   7.388 -0.3806  0.2974  0.6532
 7701SOL    HW134736   4.433   1.267   7.415  0.3887  0.1515 -2.0328
 7701SOL    HW234737   4.305   1.200   7.396 -1.3418  0.6625  0.0552
 7702SOL     OW34738   2.622   3.054   8.652 -0.3180 -0.0646  0.0663
 7702SOL    HW134739   2.619   2.982   8.589  0.7018 -0.7643  0.8105
 7702SOL    HW234740   2.555   3.027   8.715 -0.6390 -0.0745 -0.2762
 7703SOL     OW34741   4.660   2.898  17.382  0.4275 -0.2198 -0.3023
 7703SOL    HW134742   4.614   2.815  17.371  0.4998 -0.2688 -0.2407
 7703SOL    HW234743   0.006   2.887  17.328 -0.0799 -1.2066 -0.8432
 7704SOL     OW34744   1.928   0.454   5.645 -0.2302 -0.1373  0.2249
 7704SOL    HW134745   1.943   0.486   5.734 -0.0593 -0.4696  0.3169
 7704SOL    HW234746   2.015   0.460   5.605 -0.2540  0.8070  0.3104
 7705SOL     OW34747   3.776   0.451   6.524  0.2783  0.2700  0.5300
 7705SOL    HW134748   3.747   0.407   6.604 -1.7806  0.2029 -0.2612
 7705SOL    HW234749   3.760   0.543   6.545 -1.1408  0.8017 -2.8428
 7706SOL     OW34750   2.387   4.114  15.492  0.0738  0.2905 -0.3857
 7706SOL    HW134751   2.322   4.153  15.551 -0.4602 -1.8173  0.4536
 7706SOL    HW234752   2.395   4.027  15.532 -1.2307 -0.3537 -1.5285
 7707SOL     OW34753   1.129   1.989   2.396  0.5705  0.7724  0.3268
 7707SOL    HW134754   1.084   2.063   2.355  1.0724  0.1020 -1.4335
 7707SOL    HW234755   1.089   1.974   2.481  1.9450  0.0074  0.8524
 7708SOL     OW34756   4.471   3.043   1.522 -0.0814 -0.0845  0.0188
 7708SOL    HW134757   4.518   2.961   1.510  0.6810  0.6166 -1.7213
 7708SOL    HW234758   4.394   3.021   1.575  0.3207  0.8816  1.0198
 7709SOL     OW34759   3.474   2.826   6.890 -0.1515 -0.0030 -0.1618
 7709SOL    HW134760   3.489   2.750   6.945 -2.2758 -0.1886  0.1841
 7709SOL    HW234761   3.544   2.887   6.911  1.4819 -1.0206 -2.6844
 7710SOL     OW34762   1.096   2.877   5.828  0.0383 -0.6792 -0.6118
 7710SOL    HW134763   1.053   2.828   5.899 -0.9919  0.9723 -0.1040
 7710SOL    HW234764   1.033   2.864   5.757 -0.5011 -2.2270  0.1289
 7711SOL     OW34765   1.530   1.529   1.765 -0.3872 -0.3952 -0.2053
 7711SOL    HW134766   1.556   1.579   1.687 -0.7707 -0.6164 -0.4778
 7711SOL    HW234767   1.611   1.536   1.815 -0.5530 -0.3306  0.0495
 7712SOL     OW34768   4.335   1.713  12.494 -0.5107 -0.3434  0.0837
 7712SOL    HW134769   4.246   1.677  12.497  0.1382 -1.8092  1.5595
 7712SOL    HW234770   4.381   1.637  12.529  0.0539  0.0682  0.2333
 7713SOL     OW34771   4.573   0.830   9.313  0.5473 -0.3273 -0.3909
 7713SOL    HW134772   4.633   0.756   9.319  0.9657 -0.0891 -1.8761
 7713SOL    HW234773   4.634   0.892   9.352  0.1553  0.4334 -0.9965
 7714SOL     OW34774   2.554   0.844   1.075 -0.1974 -0.5635  0.4117
 7714SOL    HW134775   2.595   0.886   0.999  0.9687  0.2823  1.5102
 7714SOL    HW234776   2.581   0.753   1.060  3.1336  0.2615  1.2636
 7715SOL     OW34777   0.004   0.446   9.537  0.6293  0.0503  0.0080
 7715SOL    HW134778   4.669   0.457   9.605  1.2589  1.4708  0.3909
 7715SOL    HW234779   0.017   0.352   9.521  0.6074  0.1893 -0.7753
 7716SOL     OW34780   1.871   0.392   8.238 -0.2821 -0.2473  0.3081
 7716SOL    HW134781   1.952   0.403   8.288 -0.8974 -2.3179  1.7653
 7716SOL    HW234782   1.895   0.413   8.148 -0.9645 -0.8072 -0.0085
 7717SOL     OW34783   4.144   1.556  10.730 -0.0875 -0.5851  0.5024
 7717SOL    HW134784   4.129   1.543  10.636  0.9491 -1.8449  0.5156
 7717SOL    HW234785   4.059   1.589  10.759 -0.1659  0.8907 -1.4332
 7718SOL     OW34786   4.324   0.028   2.227  0.2646  0.2239 -0.5622
 7718SOL    HW134787   4.245   0.037   2.281 -0.0393  2.6538 -1.3794
 7718SOL    HW234788   4.296   0.040   2.136 -0.7618 -0.0055 -0.2818
 7719SOL     OW34789   0.401   1.098   1.782 -0.2765 -0.2859 -0.1128
 7719SOL    HW134790   0.473   1.043   1.752 -0.3586 -2.6893  4.2795
 7719SOL    HW234791   0.393   1.155   1.705  1.2993 -0.3933 -0.3518
 7720SOL     OW34792   3.193   4.548   4.369  0.9845 -0.7434  0.3425
 7720SOL    HW134793   3.117   4.583   4.416  1.2656  1.1990 -0.6498
 7720SOL    HW234794   3.260   4.610   4.399  0.4111  0.6023 -1.1697
 7721SOL     OW34795   3.436   3.614   8.196 -0.3643  0.1596 -0.0795
 7721SOL    HW134796   3.345   3.621   8.167 -0.0143  0.0303 -1.2210
 7721SOL    HW234797   3.450   3.519   8.186 -0.7221  0.1238 -0.2664
 7722SOL     OW34798   2.381   0.183   2.442  0.0320  0.1800 -0.0386
 7722SOL    HW134799   2.343   0.095   2.439  2.1310 -0.7151  0.1011
 7722SOL    HW234800   2.388   0.195   2.347 -0.6507 -1.7240 -0.3361
 7723SOL     OW34801   2.091   1.370   9.351  0.1331  0.6834  0.0155
 7723SOL    HW134802   2.022   1.423   9.391  1.8268  1.1348  2.3577
 7723SOL    HW234803   2.166   1.412   9.393  0.2910  1.3067 -0.8755
 7724SOL     OW34804   1.467   4.244  16.496  0.0363  0.4407 -0.1371
 7724SOL    HW134805   1.454   4.305  16.568  1.3606  1.0633 -0.4178
 7724SOL    HW234806   1.474   4.308  16.425 -0.5803 -0.3229 -0.8837
 7725SOL     OW34807   2.634   0.931   5.959  0.1955  0.5711 -0.2821
 7725SOL    HW134808   2.674   0.859   5.911 -0.8170  0.7658 -1.4137
 7725SOL    HW234809   2.678   0.933   6.043 -0.6300  2.7932  0.0992
 7726SOL     OW34810   4.324   4.668  17.716  0.4361  0.0613  0.1056
 7726SOL    HW134811   4.413   4.678   0.020  0.6016 -0.4745 -0.1799
 7726SOL    HW234812   4.319   4.572  17.715 -2.4074  0.2187 -1.1240
 7727SOL     OW34813   1.364   4.339  12.943 -0.0669 -0.0104 -0.3849
 7727SOL    HW134814   1.409   4.383  13.015 -1.2019  0.0561  0.2834
 7727SOL    HW234815   1.309   4.413  12.916  0.5231 -0.0597 -1.7533
 7728SOL     OW34816   1.615   2.882   6.717 -0.1387  0.5562  0.3387
 7728SOL    HW134817   1.555   2.891   6.792 -1.3777  2.3092 -0.8698
 7728SOL    HW234818   1.566   2.937   6.656  2.4490  0.0612 -2.1471
 7729SOL     OW34819   3.469   2.887   8.231  0.0199  0.2556 -0.2952
 7729SOL    HW134820   3.428   2.925   8.309  0.7126 -1.2636  0.8048
 7729SOL    HW234821   3.485   2.957   8.168  1.7536 -0.5866 -0.7817
 7730SOL     OW34822   1.720   2.401   6.263 -0.4754  0.2297 -0.3936
 7730SOL    HW134823   1.750   2.312   6.281 -0.5276  0.9249  3.1719
 7730SOL    HW234824   1.656   2.368   6.200 -1.4422 -1.0315  1.2174
 7731SOL     OW34825   4.571   3.416   6.140  0.3120 -0.3804  0.3324
 7731SOL    HW134826   4.535   3.404   6.228  0.4764  1.3448  0.6316
 7731SOL    HW234827   4.593   3.332   6.100 -2.4024 -1.5515  1.2933
 7732SOL     OW34828   2.892   1.510  13.763 -0.5150  0.0363 -0.6508
 7732SOL    HW134829   2.835   1.453  13.712 -0.0613 -0.4607 -0.5974
 7732SOL    HW234830   2.974   1.512  13.713  0.2065  1.3919  0.5675
 7733SOL     OW34831   3.678   2.949   7.330  0.0599  0.1297 -0.8149
 7733SOL    HW134832   3.758   2.902   7.307 -0.0378  0.0396 -0.9632
 7733SOL    HW234833   3.632   2.966   7.248  1.5118 -0.3499 -1.7380
 7734SOL     OW34834   2.372   4.288   3.320  0.1465  0.3887  0.6534
 7734SOL    HW134835   2.425   4.210   3.336  0.4730 -0.2883 -3.5768
 7734SOL    HW234836   2.408   4.353   3.380  0.9477  1.1275 -0.6119
 7735SOL     OW34837   3.392   4.343   4.925  0.1254 -0.4477  0.0844
 7735SOL    HW134838   3.359   4.290   4.998 -0.2485  0.7138  0.7654
 7735SOL    HW234839   3.464   4.391   4.966 -0.1826 -0.3300  0.4864
 7736SOL     OW34840   1.994   3.325  10.420  0.1996  0.0664 -1.0526
 7736SOL    HW134841   1.917   3.339  10.476  0.5318  0.3601 -0.6714
 7736SOL    HW234842   1.952   3.344  10.336 -0.8372  0.9300 -0.3399
 7737SOL     OW34843   2.435   3.571  13.014 -0.1585  0.3861 -0.3169
 7737SOL    HW134844   2.490   3.637  12.972 -0.0370 -0.2267 -1.0989
 7737SOL    HW234845   2.467   3.581  13.104  3.8217 -0.6897 -1.6169
 7738SOL     OW34846   3.144   0.866   7.738  0.1027 -0.0467  0.0764
 7738SOL    HW134847   3.165   0.773   7.737 -1.3605 -0.3951  1.9776
 7738SOL    HW234848   3.204   0.893   7.807 -0.3122  1.1663 -0.0220
 7739SOL     OW34849   0.959   4.132  12.681 -0.0129 -1.0219 -0.3816
 7739SOL    HW134850   0.984   4.045  12.650  2.7296  0.1452 -1.4437
 7739SOL    HW234851   1.044   4.164  12.712  0.0343 -0.7908 -0.7494
 7740SOL     OW34852   3.966   0.329   3.294  0.4334 -0.2055 -0.0937
 7740SOL    HW134853   3.949   0.272   3.369 -2.2256  0.0271 -0.5235
 7740SOL    HW234854   3.994   0.263   3.231  3.2548  1.7510 -0.9184
 7741SOL     OW34855   4.010   3.943   0.360  0.4291 -0.2045 -0.4916
 7741SOL    HW134856   4.050   3.893   0.430 -2.3205 -0.9103  0.5569
 7741SOL    HW234857   4.046   3.907   0.278 -2.0339 -1.0272 -1.2022
 7742SOL     OW34858   4.610   4.584   1.793 -0.0947 -0.0928 -0.4591
 7742SOL    HW134859   4.567   4.669   1.803 -0.1779 -0.1488 -0.3490
 7742SOL    HW234860   4.575   4.557   1.708 -0.9732 -0.1569 -0.0713
 7743SOL     OW34861   4.565   3.123   8.842 -0.4880  0.0378 -0.4100
 7743SOL    HW134862   4.612   3.086   8.768  0.2663 -2.8534  1.5317
 7743SOL    HW234863   4.475   3.149   8.821  0.2968  2.2603 -1.0466
 7744SOL     OW34864   4.518   3.854   0.953  0.1776  0.7963 -0.2502
 7744SOL    HW134865   4.525   3.845   0.858 -1.6092 -1.9311 -0.1040
 7744SOL    HW234866   4.604   3.895   0.963 -0.1957  1.7105 -0.7260
 7745SOL     OW34867   1.862   2.881  17.320 -0.0619  0.3035  0.1254
 7745SOL    HW134868   1.778   2.864  17.279 -0.4361  1.1570  0.5388
 7745SOL    HW234869   1.847   2.970  17.352 -2.3482  0.2687 -0.8882
 7746SOL     OW34870   0.561   3.157   2.251  0.0612  0.0336  0.5142
 7746SOL    HW134871   0.529   3.165   2.161  0.8189 -0.3519  0.2076
 7746SOL    HW234872   0.568   3.250   2.274 -0.0778 -0.0536  0.9030
 7747SOL     OW34873   0.682   1.359   8.528 -0.0753  0.3842 -0.3738
 7747SOL    HW134874   0.590   1.345   8.548 -0.5496  2.9844 -0.6414
 7747SOL    HW234875   0.706   1.380   8.618 -0.4616 -1.0876  0.0547
 7748SOL     OW34876   4.138   3.625   2.374 -0.2275 -1.0167 -0.2058
 7748SOL    HW134877   4.066   3.590   2.426 -0.8026 -0.6627 -0.7618
 7748SOL    HW234878   4.129   3.573   2.295 -0.0366 -0.0672 -0.8484
 7749SOL     OW34879   4.183   0.835  12.320 -0.0896 -0.4938  0.0983
 7749SOL    HW134880   4.215   0.898  12.385  2.4056 -2.2718  0.5595
 7749SOL    HW234881   4.264   0.793  12.294 -0.5211 -1.4993  0.4023
 7750SOL     OW34882   1.707   3.112   3.702 -0.5005 -0.0134  0.2062
 7750SOL    HW134883   1.702   3.149   3.790  0.1815 -1.6874  0.9448
 7750SOL    HW234884   1.674   3.190   3.657  0.8011  0.0528 -0.6371
 7751SOL     OW34885   3.782   0.951  15.685  0.1128  0.1883 -0.3251
 7751SOL    HW134886   3.844   1.024  15.678  0.3021 -0.0847 -1.5692
 7751SOL    HW234887   3.818   0.907  15.608  0.4423  1.0225 -0.6404
 7752SOL     OW34888   0.860   1.634  16.421  0.1583 -0.7248 -0.3800
 7752SOL    HW134889   0.931   1.659  16.361  1.7032 -0.4663  1.5542
 7752SOL    HW234890   0.783   1.664  16.373 -0.9913 -0.4373  1.6667
 7753SOL     OW34891   1.182   4.048   7.711 -0.2381  0.2457  0.0151
 7753SOL    HW134892   1.192   4.025   7.803  0.9231 -0.6517 -0.3380
 7753SOL    HW234893   1.152   4.138   7.703 -0.4150  0.1902  0.0579
 7754SOL     OW34894   4.575   1.179   6.355  0.7522 -0.2374  0.4117
 7754SOL    HW134895   4.662   1.190   6.315 -0.2249  0.4091 -1.5238
 7754SOL    HW234896   4.579   1.251   6.417 -1.3656  0.9658 -0.8480
 7755SOL     OW34897   0.141   3.529  17.312  0.1603 -0.6383  0.2106
 7755SOL    HW134898   0.143   3.623  17.329 -3.3939 -0.3179 -1.0748
 7755SOL    HW234899   0.050   3.500  17.304  0.3570 -0.7454 -1.5295
 7756SOL     OW34900   2.517   1.430   0.884 -0.5745 -0.4151  0.4376
 7756SOL    HW134901   2.475   1.362   0.937 -0.2286 -0.4687  0.6392
 7756SOL    HW234902   2.607   1.398   0.884 -0.9333 -1.4483 -2.3404
 7757SOL     OW34903   4.335   1.972   6.318  0.3605  0.2469 -0.2398
 7757SOL    HW134904   4.303   1.980   6.228 -0.6680  1.2014  0.1990
 7757SOL    HW234905   4.418   2.020   6.315  0.1065  0.7033 -0.0886
 7758SOL     OW34906   2.572   1.297   7.332  0.2249 -0.7485  0.3734
 7758SOL    HW134907   2.496   1.260   7.287  1.4540 -2.6804 -0.1158
 7758SOL    HW234908   2.630   1.323   7.260 -1.1485 -3.1917 -1.6457
 7759SOL     OW34909   0.679   3.997   3.816  0.0297  0.1710 -0.6932
 7759SOL    HW134910   0.630   3.916   3.829  0.8195 -0.2303 -0.2103
 7759SOL    HW234911   0.734   3.975   3.741  0.2147  1.2832 -0.8908
 7760SOL     OW34912   1.418   4.263   9.343  0.2658  0.1919  0.1304
 7760SOL    HW134913   1.475   4.319   9.290  0.5544  0.8032  1.0852
 7760SOL    HW234914   1.360   4.225   9.276  2.0994  1.1316 -2.0130
 7761SOL     OW34915   3.191   0.678   7.286 -0.6756 -0.3480 -0.8921
 7761SOL    HW134916   3.105   0.635   7.276 -0.2268 -1.8551  1.6076
 7761SOL    HW234917   3.193   0.725   7.203 -0.8355  1.8699  0.3342
 7762SOL     OW34918   1.022   4.173   7.443 -0.2948 -0.5654  0.1884
 7762SOL    HW134919   1.058   4.208   7.524  1.1020  1.7731 -1.4756
 7762SOL    HW234920   0.944   4.228   7.433  1.4774  1.3594 -3.2132
 7763SOL     OW34921   0.841   0.300   4.260 -0.2489  0.2564 -0.1375
 7763SOL    HW134922   0.906   0.334   4.198 -2.3221  1.8565 -1.4548
 7763SOL    HW234923   0.887   0.318   4.342  1.7146 -2.1361 -0.7060
 7764SOL     OW34924   3.144   1.655   1.312 -0.0331 -0.2454 -0.1563
 7764SOL    HW134925   3.069   1.683   1.259 -1.1797  0.0034  1.6068
 7764SOL    HW234926   3.218   1.653   1.251 -0.8518 -1.8907 -1.1217
 7765SOL     OW34927   3.977   0.233  15.667 -0.4186  0.5115 -0.0542
 7765SOL    HW134928   4.002   0.226  15.759  0.4761  0.0989 -0.3277
 7765SOL    HW234929   3.896   0.283  15.673  1.0618  2.7704  1.2060
 7766SOL     OW34930   0.466   0.722  11.138 -0.2893 -0.2220  0.1624
 7766SOL    HW134931   0.539   0.774  11.104  0.5655 -0.0579  2.2554
 7766SOL    HW234932   0.453   0.752  11.228 -0.1883  1.9547 -0.5436
 7767SOL     OW34933   4.351   3.045   4.911 -0.3275  0.1696 -0.1228
 7767SOL    HW134934   4.287   2.985   4.950  0.7107 -0.2627  0.8852
 7767SOL    HW234935   4.326   3.128   4.952 -2.0164 -0.0825 -0.6460
 7768SOL     OW34936   2.075   2.557   5.042  0.0527 -0.0058  0.0605
 7768SOL    HW134937   2.014   2.628   5.023  0.2866 -0.1228 -1.1620
 7768SOL    HW234938   2.027   2.505   5.106 -1.4638  1.4410  0.1000
 7769SOL     OW34939   2.286   3.701   7.057 -0.1106 -0.6966  0.0104
 7769SOL    HW134940   2.278   3.773   7.119 -0.4865  1.3238 -2.3531
 7769SOL    HW234941   2.208   3.711   7.002  0.3360 -0.8529 -0.6589
 7770SOL     OW34942   3.604   3.284   4.495  0.3324 -0.1085 -0.2973
 7770SOL    HW134943   3.654   3.352   4.541 -1.6789  1.2470 -0.1109
 7770SOL    HW234944   3.619   3.305   4.403 -1.4294 -1.8416 -0.9780
 7771SOL     OW34945   0.728   2.516   2.111  0.9970 -0.8933  0.0314
 7771SOL    HW134946   0.682   2.436   2.087  0.0426 -1.1426  2.7825
 7771SOL    HW234947   0.812   2.495   2.071  0.2678  0.3240 -2.1802
 7772SOL     OW34948   3.612   3.309   5.087  0.1080  0.0106 -0.2157
 7772SOL    HW134949   3.636   3.245   5.021 -0.1293  0.2872 -0.5739
 7772SOL    HW234950   3.699   3.335   5.117  0.9292 -2.1121 -0.8235
 7773SOL     OW34951   4.545   1.514  11.858  0.7482 -0.1972 -0.3260
 7773SOL    HW134952   4.471   1.541  11.912  1.8529 -0.0433  1.1163
 7773SOL    HW234953   4.512   1.520  11.768 -1.7765  0.2710  0.6245
 7774SOL     OW34954   0.448   1.623   8.041 -0.3642  1.0874  0.0896
 7774SOL    HW134955   0.435   1.537   8.001 -1.7894  1.1221  0.4974
 7774SOL    HW234956   0.368   1.641   8.090 -0.0004  2.0163  0.3428
 7775SOL     OW34957   2.728   4.303   3.112  0.7327  0.0853 -0.2311
 7775SOL    HW134958   2.783   4.262   3.179  1.7617 -1.0538 -1.7560
 7775SOL    HW234959   2.702   4.231   3.054 -2.4630 -1.5144  3.2114
 7776SOL     OW34960   1.156   2.615   7.877  0.3072  0.2075  0.5876
 7776SOL    HW134961   1.163   2.623   7.972 -2.4403  0.1533  0.8105
 7776SOL    HW234962   1.219   2.546   7.854  0.3021  0.3682  0.1023
 7777SOL     OW34963   4.102   0.661  16.600 -0.5282  0.0396  0.3093
 7777SOL    HW134964   4.148   0.709  16.531  0.5376  0.3744  1.2565
 7777SOL    HW234965   4.157   0.583  16.608  1.1505  1.2587  0.6264
 7778SOL     OW34966   2.552   2.317   4.981  0.4565 -0.5701  0.1643
 7778SOL    HW134967   2.541   2.293   5.073  2.6452  2.8978  1.3274
 7778SOL    HW234968   2.461   2.343   4.964  0.2363 -2.0286 -0.9606
 7779SOL     OW34969   3.927   4.262   4.552 -0.3920  0.1793  0.1924
 7779SOL    HW134970   3.938   4.268   4.457 -2.8913 -0.9440 -0.1669
 7779SOL    HW234971   3.862   4.193   4.566  0.8891 -1.0915 -0.0964
 7780SOL     OW34972   3.608   4.648   9.540 -0.0019  0.0483  0.5698
 7780SOL    HW134973   3.681   4.624   9.597 -0.3880  0.1495  1.1078
 7780SOL    HW234974   3.648   4.644   9.454  1.2508  0.0139  1.1637
 7781SOL     OW34975   0.314   1.145  14.588  0.0981  0.0795 -0.3482
 7781SOL    HW134976   0.376   1.207  14.549  1.2247 -0.8951 -0.0749
 7781SOL    HW234977   0.261   1.208  14.637  0.0679  0.3572 -0.7359
 7782SOL     OW34978   4.173   2.337   0.876  0.0375  0.4743  0.3803
 7782SOL    HW134979   4.239   2.378   0.932  0.6146 -0.0214  0.0690
 7782SOL    HW234980   4.133   2.267   0.927  0.8503  0.2523  0.7163
 7783SOL     OW34981   3.406   2.383   9.149 -0.0553 -0.1133  0.0957
 7783SOL    HW134982   3.351   2.320   9.193 -0.7540  0.2358 -0.2830
 7783SOL    HW234983   3.377   2.461   9.196  0.0663 -0.4357  0.7083
 7784SOL     OW34984   0.895   1.430   4.742 -0.5237  0.1419  0.2031
 7784SOL    HW134985   0.842   1.509   4.742 -0.7554 -0.0031 -1.6931
 7784SOL    HW234986   0.838   1.375   4.688 -1.7426 -2.0798  3.7339
 7785SOL     OW34987   1.816   4.715   6.741 -0.0434 -0.1450 -0.0974
 7785SOL    HW134988   1.757   0.031   6.799  0.6756  1.0848 -0.3914
 7785SOL    HW234989   1.763   4.684   6.668 -0.0513 -1.0579  0.3009
 7786SOL     OW34990   3.588   0.338   2.831  0.3888  0.1481  0.6816
 7786SOL    HW134991   3.604   0.246   2.848  2.8810  0.2218 -1.1444
 7786SOL    HW234992   3.674   0.377   2.846  1.1179 -0.9491 -0.6141
 7787SOL     OW34993   1.245   0.205  15.546 -0.4158 -0.4558  0.1177
 7787SOL    HW134994   1.225   0.298  15.534  2.9535  0.1698 -0.5741
 7787SOL    HW234995   1.211   0.166  15.465 -0.3114 -1.2222  0.4431
 7788SOL     OW34996   0.287   0.558   4.445  0.3811  0.0318  0.0500
 7788SOL    HW134997   0.200   0.536   4.476 -0.0440 -2.0455 -2.6697
 7788SOL    HW234998   0.258   0.595   4.362  1.5953  0.6573 -0.1027
 7789SOL     OW34999   3.560   0.475   8.573  0.2368 -0.1356 -0.1482
 7789SOL    HW135000   3.506   0.455   8.496 -0.8105 -0.3444  0.6529
 7789SOL    HW235001   3.537   0.565   8.593 -0.5755 -0.6099  1.0102
 7790SOL     OW35002   1.899   4.555   8.215 -0.3348 -0.4635  0.1253
 7790SOL    HW135003   1.861   4.505   8.143 -3.4688  0.0128  1.4467
 7790SOL    HW235004   1.895   4.636   8.164  3.4632  1.1673  2.4217
 7791SOL     OW35005   1.053   0.519  14.695 -0.8496  0.1104 -0.4053
 7791SOL    HW135006   0.966   0.533  14.733 -0.7434 -1.8043  0.5646
 7791SOL    HW235007   1.085   0.601  14.660  4.2291 -2.9053 -2.7776
 7792SOL     OW35008   3.073   3.053  14.381  0.0943 -0.2031 -0.0398
 7792SOL    HW135009   3.127   3.097  14.316  0.0871 -0.0828  0.0364
 7792SOL    HW235010   3.121   2.971  14.389  0.5750  0.0998  0.1568
 7793SOL     OW35011   1.521   2.077   4.335  0.0250 -0.0463  0.9411
 7793SOL    HW135012   1.447   2.024   4.304  2.7773 -2.2936 -1.7716
 7793SOL    HW235013   1.516   2.141   4.265  0.4041 -0.3473  0.6378
 7794SOL     OW35014   3.481   2.326  16.001  0.3950  0.0355  0.4742
 7794SOL    HW135015   3.459   2.294  15.914 -0.1178  0.4135  0.4630
 7794SOL    HW235016   3.548   2.391  15.979 -0.0531  0.0742 -0.7838
 7795SOL     OW35017   3.677   3.940  13.422 -0.2029 -0.1687  0.2699
 7795SOL    HW135018   3.766   3.969  13.401  0.2398 -1.3621  0.5014
 7795SOL    HW235019   3.632   4.024  13.414  1.2809  0.5358 -0.8172
 7796SOL     OW35020   3.421   1.726  14.007 -0.2281 -0.2491 -0.0549
 7796SOL    HW135021   3.405   1.767  14.092  0.5014 -0.6078  0.2625
 7796SOL    HW235022   3.347   1.665  14.008 -1.3239  1.1105  0.9259
 7797SOL     OW35023   2.282   0.562  13.965  0.3915  0.3562  0.3982
 7797SOL    HW135024   2.249   0.590  13.879 -2.9710 -1.0983  1.2217
 7797SOL    HW235025   2.341   0.488  13.948  1.0882  1.1628 -0.6919
 7798SOL     OW35026   3.168   1.824   7.072 -0.5286  0.0831 -0.1604
 7798SOL    HW135027   3.079   1.840   7.105  0.3208 -0.4422  2.3206
 7798SOL    HW235028   3.219   1.895   7.109  0.8518 -1.3044  0.5942
 7799SOL     OW35029   2.442   2.659   2.479  0.1698 -0.1207 -0.7485
 7799SOL    HW135030   2.393   2.587   2.438  1.3471 -0.5930 -1.3156
 7799SOL    HW235031   2.448   2.624   2.568  1.1223 -0.4088 -0.9274
 7800SOL     OW35032   0.839   3.612   8.279 -0.0873 -0.3403  0.3025
 7800SOL    HW135033   0.933   3.605   8.296  0.0996 -0.0577 -0.6032
 7800SOL    HW235034   0.849   3.610   8.184  0.1078  0.0030  0.3133
 7801SOL     OW35035   4.616   2.526   6.221 -0.0231 -0.5303  0.2782
 7801SOL    HW135036   4.556   2.543   6.148 -0.8976  1.7629  1.5157
 7801SOL    HW235037   4.642   2.434   6.218 -0.1970 -0.5593 -0.3234
 7802SOL     OW35038   2.121   1.709   8.039  0.0862 -0.1257  0.2507
 7802SOL    HW135039   2.085   1.721   7.952 -0.8833  3.2189  1.1277
 7802SOL    HW235040   2.138   1.799   8.065 -2.4011  0.4039  0.0337
 7803SOL     OW35041   1.028   2.279  16.406  0.0405  0.0599  0.4140
 7803SOL    HW135042   0.958   2.214  16.399 -0.4633  0.7475 -0.8123
 7803SOL    HW235043   1.007   2.346  16.342  1.4548 -0.3015 -0.4217
 7804SOL     OW35044   3.829   0.319   5.346 -0.2584  0.4224  0.3609
 7804SOL    HW135045   3.806   0.411   5.332 -2.8161 -0.3639 -0.4969
 7804SOL    HW235046   3.800   0.287   5.432  1.9766 -0.5024  0.7783
 7805SOL     OW35047   2.786   1.041   4.481 -0.1737  0.2799  0.3984
 7805SOL    HW135048   2.781   0.949   4.455 -4.1784  0.5026  0.4410
 7805SOL    HW235049   2.711   1.077   4.435 -0.0185 -0.2787 -0.2979
 7806SOL     OW35050   0.997   0.075   2.482  0.7026 -0.9491  0.0276
 7806SOL    HW135051   1.082   0.080   2.439  0.9599  0.3703  0.6909
 7806SOL    HW235052   0.952   0.154   2.452  0.8018 -0.5346  0.9898
 7807SOL     OW35053   2.380   1.526   3.917  0.3610 -0.5273 -0.3275
 7807SOL    HW135054   2.421   1.468   3.853 -0.5226 -2.7675  1.1058
 7807SOL    HW235055   2.454   1.532   3.978 -1.6733  1.8660  1.9237
 7808SOL     OW35056   0.716   0.142   7.849  0.0988 -0.1752 -0.1449
 7808SOL    HW135057   0.730   0.099   7.765  1.6806  0.6978 -0.3367
 7808SOL    HW235058   0.768   0.090   7.910 -0.8949 -0.7070  0.2389
 7809SOL     OW35059   2.048   2.612   0.084 -1.1215 -0.5531  0.0964
 7809SOL    HW135060   2.126   2.576   0.128  0.3256  1.6977 -0.6038
 7809SOL    HW235061   2.027   2.541   0.023 -0.6287 -0.7602  0.1636
 7810SOL     OW35062   2.814   3.529   7.968 -0.9094  1.0884 -0.0593
 7810SOL    HW135063   2.873   3.468   7.924 -1.2084  1.5973 -1.1694
 7810SOL    HW235064   2.752   3.544   7.897 -1.2407 -0.9427 -0.1894
 7811SOL     OW35065   1.021   2.769   2.714 -0.0550  0.5245  0.2404
 7811SOL    HW135066   1.037   2.853   2.670  0.9422  1.0583  1.6483
 7811SOL    HW235067   1.032   2.714   2.636 -0.0530  0.7753  0.0627
 7812SOL     OW35068   4.599   0.934   7.552 -0.0105 -0.4353 -0.5694
 7812SOL    HW135069   4.550   1.011   7.522  0.8338  0.6310  0.7985
 7812SOL    HW235070   4.617   0.963   7.641  0.3920  0.0006 -0.7989
 7813SOL     OW35071   1.394   0.060  10.093 -0.8351  0.0526  0.0525
 7813SOL    HW135072   1.404   0.027  10.182 -0.5611 -1.3496 -0.4922
 7813SOL    HW235073   1.383   4.706  10.052 -2.4979  0.3328 -0.0622
 7814SOL     OW35074   2.588   1.413   9.112  0.9739 -0.3168  0.7612
 7814SOL    HW135075   2.667   1.368   9.083  0.1746 -1.9905  1.1734
 7814SOL    HW235076   2.542   1.336   9.147 -0.9733  0.2986 -0.4327
 7815SOL     OW35077   3.552   2.808  13.384  0.1248 -0.3547  0.9588
 7815SOL    HW135078   3.633   2.787  13.431  0.6785  1.5213  0.8142
 7815SOL    HW235079   3.590   2.818  13.297 -3.2946  0.5716 -0.4070
 7816SOL     OW35080   2.492   0.159   7.077 -0.1851  0.2078 -0.3345
 7816SOL    HW135081   2.576   0.136   7.117 -0.0781  1.9133  0.4327
 7816SOL    HW235082   2.445   0.217   7.137 -1.6206 -1.1852 -0.1208
 7817SOL     OW35083   1.190   4.695  14.801  0.0419 -0.5198  0.0625
 7817SOL    HW135084   1.150   4.643  14.732  0.5374 -0.0724 -0.5559
 7817SOL    HW235085   1.241   4.623  14.838 -0.7454 -1.0618  0.0965
 7818SOL     OW35086   2.624   1.915   3.114  0.3525  0.0690 -0.2257
 7818SOL    HW135087   2.664   1.835   3.147  0.4021  0.0849 -0.2477
 7818SOL    HW235088   2.541   1.880   3.081  0.1617  0.7744 -0.5048
 7819SOL     OW35089   4.134   2.654   9.248 -0.2879 -0.3059 -0.1011
 7819SOL    HW135090   4.157   2.571   9.206 -0.1226 -1.0337  1.4514
 7819SOL    HW235091   4.218   2.700   9.250  0.5904 -2.0031  1.2922
 7820SOL     OW35092   4.018   1.053  16.533 -0.1897 -0.2891  0.0235
 7820SOL    HW135093   4.049   1.137  16.565 -1.1704  1.3196 -3.1609
 7820SOL    HW235094   3.930   1.079  16.505 -0.7460 -1.5160  0.6431
 7821SOL     OW35095   2.207   3.463   4.176 -0.0129 -0.0088  0.3294
 7821SOL    HW135096   2.117   3.497   4.177  0.4401  1.2194 -0.3773
 7821SOL    HW235097   2.254   3.533   4.221  1.8551 -0.4133 -0.9631
 7822SOL     OW35098   1.071   0.909  16.506 -0.3196  0.3410  0.9535
 7822SOL    HW135099   1.106   0.956  16.581 -1.9456 -0.4514  2.2231
 7822SOL    HW235100   1.152   0.923  16.458  0.0607  2.3679  2.1818
 7823SOL     OW35101   1.214   3.637   4.272 -0.4644 -0.7457 -0.3097
 7823SOL    HW135102   1.151   3.706   4.249 -1.5038 -1.2955  0.9412
 7823SOL    HW235103   1.246   3.602   4.189 -0.8523 -1.3144 -0.2216
 7824SOL     OW35104   3.829   1.932   9.118  0.1704 -0.5009 -0.1183
 7824SOL    HW135105   3.831   1.838   9.135  2.4539 -0.6049 -0.9903
 7824SOL    HW235106   3.925   1.937   9.112  0.1197  1.5788  0.8577
 7825SOL     OW35107   1.638   2.321  13.792  0.0404 -0.0356  0.0552
 7825SOL    HW135108   1.719   2.326  13.742  0.4350 -0.2071  0.6800
 7825SOL    HW235109   1.575   2.268  13.743 -0.1183 -0.6402  0.9063
 7826SOL     OW35110   2.203   2.312   6.881  0.3179 -0.1592  0.4238
 7826SOL    HW135111   2.286   2.329   6.836  0.0005 -0.8926 -0.4366
 7826SOL    HW235112   2.216   2.343   6.971  2.7237  2.5948 -0.8852
 7827SOL     OW35113   1.567   3.357   3.653 -0.3685 -0.3231 -0.3203
 7827SOL    HW135114   1.546   3.314   3.736  3.2548  0.1104  0.8420
 7827SOL    HW235115   1.551   3.448   3.678 -0.3574 -0.4090 -0.0021
 7828SOL     OW35116   3.498   0.830   7.003  0.3304  0.3293 -0.2806
 7828SOL    HW135117   3.450   0.836   6.920  0.8651  0.8443 -0.5578
 7828SOL    HW235118   3.529   0.739   7.007 -0.9674 -0.1417 -1.2003
 7829SOL     OW35119   3.249   1.555  13.681 -0.3172  0.3905  0.6106
 7829SOL    HW135120   3.280   1.625  13.624  0.5405  0.2192  0.8621
 7829SOL    HW235121   3.215   1.493  13.616 -1.4972  0.5994  1.0167
 7830SOL     OW35122   4.454   0.671   7.795  0.4105  0.2422  0.2011
 7830SOL    HW135123   4.405   0.592   7.774  0.0034  0.8648 -1.2101
 7830SOL    HW235124   4.429   0.688   7.886  0.4681 -0.2447  0.3072
 7831SOL     OW35125   4.071   0.584  16.111 -0.6210  0.3371  0.0377
 7831SOL    HW135126   4.055   0.515  16.046  1.7080 -1.1453  1.0521
 7831SOL    HW235127   4.063   0.530  16.189 -2.1657  0.3801 -0.0781
 7832SOL     OW35128   4.204   4.534  12.723  0.3663  0.1979 -0.2865
 7832SOL    HW135129   4.249   4.601  12.672  3.1624 -1.7110 -0.3586
 7832SOL    HW235130   4.127   4.530  12.667  0.0651 -0.4113  0.1755
 7833SOL     OW35131   4.374   1.497   1.978 -0.4390 -0.0527  0.5250
 7833SOL    HW135132   4.390   1.585   1.944  0.0764 -0.2607  0.2311
 7833SOL    HW235133   4.459   1.462   1.952 -0.4103 -0.2132  0.8227
 7834SOL     OW35134   4.119   0.981   0.366 -0.1746 -0.0306  0.3706
 7834SOL    HW135135   4.037   0.934   0.347 -0.5775  0.6452  0.4420
 7834SOL    HW235136   4.136   1.019   0.280  1.3033  0.9545  1.1009
 7835SOL     OW35137   0.870   0.012  14.718 -0.3580 -0.4202 -0.3981
 7835SOL    HW135138   0.918   4.692  14.654 -0.2771 -1.2807  0.3623
 7835SOL    HW235139   0.883   4.678  14.786  0.7774 -0.7007 -0.8908
 7836SOL     OW35140   1.985   2.004   5.415  0.1890 -0.5162 -0.0759
 7836SOL    HW135141   2.013   1.924   5.370  0.9245  0.0376 -0.5901
 7836SOL    HW235142   1.959   2.054   5.338 -0.1890 -2.4702 -1.2238
 7837SOL     OW35143   2.430   1.096   5.892 -0.3293  0.4092  0.0238
 7837SOL    HW135144   2.372   1.051   5.953 -0.8451 -1.1633 -1.6345
 7837SOL    HW235145   2.512   1.051   5.910 -0.8064  0.3623  2.0803
 7838SOL     OW35146   0.200   2.353   5.505 -0.4354 -0.8632  0.2359
 7838SOL    HW135147   0.121   2.333   5.556 -0.4932 -1.3390 -0.0330
 7838SOL    HW235148   0.254   2.291   5.554 -0.0181  0.6501  1.6899
 7839SOL     OW35149   2.055   4.016   8.368  0.1157 -0.0022 -0.2128
 7839SOL    HW135150   2.024   4.103   8.342  0.1825 -0.1846 -0.9036
 7839SOL    HW235151   2.150   4.017   8.355  0.0532 -1.1783 -0.7573
 7840SOL     OW35152   1.964   0.976   8.814  0.3018  0.4001  0.5061
 7840SOL    HW135153   2.016   0.984   8.894 -0.4159  3.1008  0.6771
 7840SOL    HW235154   1.884   0.958   8.863 -0.0851 -0.2739 -0.3705
 7841SOL     OW35155   0.326   3.016  14.439  0.4427 -0.2445  0.0417
 7841SOL    HW135156   0.375   2.937  14.419 -1.9586 -0.8810 -3.4980
 7841SOL    HW235157   0.321   3.021  14.534  3.4372  1.9482  0.0594
 7842SOL     OW35158   1.600   1.700   4.651 -0.8189  0.1283  0.2835
 7842SOL    HW135159   1.582   1.623   4.705 -0.7667  1.5115  2.2500
 7842SOL    HW235160   1.565   1.769   4.707 -0.8166  0.3777 -0.0170
 7843SOL     OW35161   3.113   1.243   3.603  0.1641 -0.5484  0.5515
 7843SOL    HW135162   3.153   1.217   3.520 -2.8892 -0.3038 -1.0088
 7843SOL    HW235163   3.162   1.195   3.670  1.6953 -0.9188 -0.8277
 7844SOL     OW35164   1.420   4.676  11.749 -0.3729 -0.4211  0.9562
 7844SOL    HW135165   1.362   4.656  11.823 -0.1223  0.3406  1.3561
 7844SOL    HW235166   1.425   4.592  11.703  3.5513  0.4343 -0.1840
 7845SOL     OW35167   4.086   1.079   8.376 -0.2555  0.0569  0.1874
 7845SOL    HW135168   4.140   1.028   8.437  0.0554  1.3654  1.0085
 7845SOL    HW235169   4.062   1.153   8.432 -0.8801  1.2984 -1.7323
 7846SOL     OW35170   3.273   0.801   5.479  0.3383  0.2073 -0.2428
 7846SOL    HW135171   3.322   0.727   5.445 -1.3024  0.5855 -3.4285
 7846SOL    HW235172   3.201   0.747   5.512 -0.2106 -0.0813 -1.8896
 7847SOL     OW35173   1.111   3.691  11.063 -0.1874  0.2288 -0.0652
 7847SOL    HW135174   1.159   3.773  11.078  1.5028 -1.2238  2.4774
 7847SOL    HW235175   1.054   3.699  11.140 -0.4301 -2.0167 -0.0220
 7848SOL     OW35176   4.073   1.318  16.524 -0.0049 -0.1486 -0.0065
 7848SOL    HW135177   4.010   1.365  16.578 -2.2207 -3.1781  0.0374
 7848SOL    HW235178   4.142   1.384  16.520 -2.3527  2.2730 -0.2967
 7849SOL     OW35179   4.100   1.970   9.149  0.1705  0.4146 -0.0447
 7849SOL    HW135180   4.101   2.066   9.149  0.3777  0.4114  0.4461
 7849SOL    HW235181   4.183   1.951   9.192 -0.2202  0.6850  0.8240
 7850SOL     OW35182   0.255   3.260   0.261 -0.4503 -0.0855  0.4182
 7850SOL    HW135183   0.218   3.314   0.190 -0.1604  1.1957  1.2451
 7850SOL    HW235184   0.347   3.253   0.235  0.0131  2.2204  1.4802
 7851SOL     OW35185   0.812   0.194  12.553 -0.8365  0.0051  0.2784
 7851SOL    HW135186   0.819   0.155  12.641  0.3816 -2.9167 -1.1172
 7851SOL    HW235187   0.802   0.110  12.508 -1.2541 -1.0653  2.3381
 7852SOL     OW35188   3.630   2.408   3.533  0.8728 -0.1162 -0.4232
 7852SOL    HW135189   3.716   2.447   3.517  1.0417  0.3656  1.7117
 7852SOL    HW235190   3.587   2.458   3.602  1.0860 -1.1058  0.4334
 7853SOL     OW35191   2.748   2.330   5.858  0.3366  0.1672  0.5324
 7853SOL    HW135192   2.757   2.414   5.813 -0.0628 -0.0323  0.0930
 7853SOL    HW235193   2.679   2.354   5.920 -1.1008 -0.1221 -0.9731
 7854SOL     OW35194   1.569   3.253  13.215  0.1999  0.4785 -0.0331
 7854SOL    HW135195   1.552   3.346  13.228 -2.9551  0.0161 -0.8949
 7854SOL    HW235196   1.634   3.247  13.145  0.0456 -0.4929 -0.0991
 7855SOL     OW35197   1.215   4.611  14.101  0.0925  0.0402 -0.0856
 7855SOL    HW135198   1.207   4.518  14.123  0.2281 -0.5425 -2.4312
 7855SOL    HW235199   1.257   4.606  14.015  0.1216  0.4711 -0.0962
 7856SOL     OW35200   4.043   3.237  12.116 -0.1923  0.1004  0.2055
 7856SOL    HW135201   4.129   3.197  12.126  0.9442  2.8080  1.3456
 7856SOL    HW235202   3.996   3.159  12.089 -1.7078  1.2474 -0.4803
 7857SOL     OW35203   0.491   3.718   4.750  0.0083 -0.1235  0.0963
 7857SOL    HW135204   0.505   3.661   4.826 -2.7301 -0.6468  0.2065
 7857SOL    HW235205   0.522   3.666   4.676  1.7017 -0.5131  1.0943
 7858SOL     OW35206   2.753   0.806   1.793  0.0850 -0.6592  0.6680
 7858SOL    HW135207   2.712   0.784   1.709  0.7770 -1.2313  0.4795
 7858SOL    HW235208   2.768   0.715   1.820 -0.4251 -0.6247  1.0725
 7859SOL     OW35209   2.351   2.762   7.870  0.1504  0.1263  0.5960
 7859SOL    HW135210   2.439   2.800   7.879 -0.4144  1.6792 -0.5383
 7859SOL    HW235211   2.323   2.794   7.784  1.9778  0.3349  0.0567
 7860SOL     OW35212   1.063   4.562  14.609 -0.1279 -0.8416  0.3744
 7860SOL    HW135213   1.052   4.596  14.520 -1.5352 -0.7031  0.6046
 7860SOL    HW235214   1.112   4.481  14.591 -2.8869 -2.3760 -0.1161
 7861SOL     OW35215   3.109   4.168   3.325 -0.1528  0.1388 -0.0993
 7861SOL    HW135216   3.073   4.081   3.304  0.8258 -0.7458  1.8896
 7861SOL    HW235217   3.101   4.210   3.239 -2.2630  2.3891  1.2106
 7862SOL     OW35218   2.185   3.062   6.262 -0.3004  0.1177 -0.0298
 7862SOL    HW135219   2.089   3.058   6.267 -0.3445 -1.8990 -3.0784
 7862SOL    HW235220   2.208   2.971   6.246  2.0185 -0.0066  3.9814
 7863SOL     OW35221   3.585   0.545   7.695 -0.3419  0.7971  0.3899
 7863SOL    HW135222   3.641   0.470   7.677 -1.6603 -0.5186  1.6640
 7863SOL    HW235223   3.509   0.526   7.639  1.4616 -0.7180 -1.5246
 7864SOL     OW35224   2.019   4.101  13.637 -0.6468  0.2234 -0.5415
 7864SOL    HW135225   2.111   4.077  13.645 -1.2487 -2.1486 -0.7398
 7864SOL    HW235226   2.019   4.161  13.563 -0.9713  1.6399  0.6186
 7865SOL     OW35227   1.346   0.546   6.349 -0.6580 -0.0116 -0.2577
 7865SOL    HW135228   1.346   0.497   6.267  0.5707  0.4353 -0.5226
 7865SOL    HW235229   1.330   0.635   6.317 -0.8708 -1.1115 -3.2037
 7866SOL     OW35230   2.567   3.668   3.407  0.5680 -0.2273  0.5090
 7866SOL    HW135231   2.541   3.577   3.403 -1.4751  0.4553 -1.8507
 7866SOL    HW235232   2.551   3.678   3.501  1.7835  0.2172  0.6788
 7867SOL     OW35233   3.834   1.582  14.304  0.1519  0.6951 -0.5200
 7867SOL    HW135234   3.776   1.528  14.358  0.7266  0.0997 -0.4968
 7867SOL    HW235235   3.910   1.571  14.361 -1.0903  2.3437  1.4325
 7868SOL     OW35236   2.448   1.487   5.768  0.3310  0.2460  0.2148
 7868SOL    HW135237   2.498   1.547   5.823  2.6752 -1.1977 -0.3374
 7868SOL    HW235238   2.441   1.405   5.816  2.0271  0.3567  0.6360
 7869SOL     OW35239   3.702   4.207   8.187 -0.1191  0.5976  0.2452
 7869SOL    HW135240   3.772   4.266   8.158 -0.0496  0.5297  0.2714
 7869SOL    HW235241   3.686   4.255   8.268 -2.8371 -1.0521  0.6918
 7870SOL     OW35242   0.364   2.729   5.391  0.4843  0.0677 -0.3490
 7870SOL    HW135243   0.424   2.678   5.446 -0.6309 -0.0217  0.8080
 7870SOL    HW235244   0.288   2.671   5.385  0.1793  0.6767 -2.3509
 7871SOL     OW35245   3.648   2.329   8.820  0.4121 -0.0209  0.1869
 7871SOL    HW135246   3.631   2.237   8.838 -2.1893  0.2939 -0.5891
 7871SOL    HW235247   3.565   2.371   8.843  0.7400  0.4700  0.4847
 7872SOL     OW35248   1.085   2.303   7.233  0.0265  0.3218  0.3472
 7872SOL    HW135249   1.002   2.266   7.202  0.4628 -1.4099  1.2085
 7872SOL    HW235250   1.114   2.379   7.183  3.0689 -2.0711 -1.5765
 7873SOL     OW35251   2.652   4.705  10.747 -0.3721 -0.0373  0.7152
 7873SOL    HW135252   2.661   4.652  10.827 -1.1776 -3.4880 -1.5003
 7873SOL    HW235253   2.696   4.653  10.680 -1.7004 -1.7829  1.1921
 7874SOL     OW35254   1.492   4.216   3.158  0.1634 -0.0572 -0.6162
 7874SOL    HW135255   1.420   4.269   3.191  1.3744  1.8761 -1.0172
 7874SOL    HW235256   1.567   4.271   3.182  0.9971 -0.0275 -3.2076
 7875SOL     OW35257   1.240   4.393   5.056 -0.0422  0.0571  0.5131
 7875SOL    HW135258   1.152   4.428   5.073  0.1112  0.2811  0.8352
 7875SOL    HW235259   1.270   4.447   4.983  0.4381 -0.6551  0.1790
 7876SOL     OW35260   3.099   2.305   2.745  0.2656  0.3101 -0.0558
 7876SOL    HW135261   3.112   2.315   2.651 -0.3004 -2.5429 -0.4352
 7876SOL    HW235262   3.155   2.230   2.766  0.1254  0.5706  1.2348
 7877SOL     OW35263   0.297   0.459   2.552  0.2756  0.4264  0.1353
 7877SOL    HW135264   0.252   0.396   2.496  0.2836 -0.3550  1.0163
 7877SOL    HW235265   0.237   0.534   2.556  0.1597  0.3171  0.4221
 7878SOL     OW35266   1.939   1.562  14.703  0.1970  0.0709 -0.3824
 7878SOL    HW135267   1.959   1.563  14.610 -0.7587 -4.2140 -0.6442
 7878SOL    HW235268   1.979   1.645  14.729  0.6304 -0.0065 -0.8061
 7879SOL     OW35269   1.486   3.689  13.348 -0.7464  0.3901 -0.3186
 7879SOL    HW135270   1.491   3.626  13.419  1.7120  1.2193  0.2684
 7879SOL    HW235271   1.516   3.635  13.275 -0.8671  0.9811 -0.8085
 7880SOL     OW35272   0.421   0.962   0.711 -0.3377 -0.3275  0.8839
 7880SOL    HW135273   0.505   0.934   0.749  1.4056  0.5824 -2.2505
 7880SOL    HW235274   0.382   1.006   0.786 -0.6563 -2.6257  2.0902
 7881SOL     OW35275   1.897   4.243   5.645 -0.1037  0.1053  0.0376
 7881SOL    HW135276   1.897   4.148   5.631  0.8720  0.2126 -0.6892
 7881SOL    HW235277   1.991   4.250   5.628 -0.2788  0.3724 -0.7899
 7882SOL     OW35278   3.778   0.407   4.418 -0.6031 -0.1529 -0.8697
 7882SOL    HW135279   3.817   0.453   4.343 -1.1902  1.2724 -0.2974
 7882SOL    HW235280   3.702   0.373   4.371 -0.3468  0.4441 -1.7233
 7883SOL     OW35281   2.984   1.653  10.053  0.3201  0.1484 -0.1013
 7883SOL    HW135282   3.061   1.615  10.097  1.3931  0.6992 -1.5149
 7883SOL    HW235283   2.915   1.612  10.106  0.4212 -1.2384 -1.0609
 7884SOL     OW35284   1.095   4.633   4.981  0.3731  0.1013  0.0537
 7884SOL    HW135285   1.010   4.594   4.959  0.9741 -0.1095 -1.8671
 7884SOL    HW235286   1.094   4.701   4.915  0.9586  0.7982  0.7665
 7885SOL     OW35287   0.849   4.688  16.460 -0.3831 -0.3927 -0.1860
 7885SOL    HW135288   0.934   4.701  16.502 -0.2665  4.2038 -1.9127
 7885SOL    HW235289   0.863   4.613  16.402 -0.2158 -0.8006  0.3855
 7886SOL     OW35290   0.703   3.596   5.623 -0.2121  0.4657 -0.0836
 7886SOL    HW135291   0.729   3.561   5.538 -2.1004  1.1173 -0.9609
 7886SOL    HW235292   0.760   3.541   5.675 -2.0704  0.3724  1.8565
 7887SOL     OW35293   2.456   2.959   2.506  0.5453  0.0448  0.1775
 7887SOL    HW135294   2.498   2.946   2.591 -0.3858  0.3241  0.6696
 7887SOL    HW235295   2.451   2.867   2.480 -0.9114  0.9858 -2.8163
 7888SOL     OW35296   1.619   2.334   6.700 -0.1997  0.4733  0.4615
 7888SOL    HW135297   1.695   2.292   6.740 -0.1380 -1.8906 -2.1564
 7888SOL    HW235298   1.652   2.424   6.694 -0.3205  0.4294 -0.8583
 7889SOL     OW35299   1.968   3.595   6.138 -0.6046  0.0672  0.0440
 7889SOL    HW135300   1.956   3.525   6.203  1.9639 -0.8535 -0.4566
 7889SOL    HW235301   2.004   3.544   6.066  1.2981  0.1760  0.8983
 7890SOL     OW35302   4.399   0.996   8.480 -0.4410 -0.6921  0.1694
 7890SOL    HW135303   4.492   1.007   8.503 -0.0380  0.5892 -2.0144
 7890SOL    HW235304   4.418   0.968   8.390 -1.6917  2.0601 -0.9338
 7891SOL     OW35305   1.842   0.320  10.250  1.0731  0.2859 -0.4447
 7891SOL    HW135306   1.813   0.282  10.333 -0.8432  1.3675 -0.6109
 7891SOL    HW235307   1.826   0.254  10.183 -0.8980 -0.0702  0.3555
 7892SOL     OW35308   2.953   1.547  16.877 -0.0091  0.3577 -0.0973
 7892SOL    HW135309   2.942   1.641  16.861  0.2810  0.0494 -2.1068
 7892SOL    HW235310   2.865   1.519  16.902 -1.0644  1.5730 -2.4987
 7893SOL     OW35311   3.994   1.099   7.753  0.4887  0.0895 -0.1917
 7893SOL    HW135312   3.980   1.147   7.671 -0.8605  0.2552  0.1409
 7893SOL    HW235313   3.985   1.168   7.819  2.2419 -0.4683  0.6238
 7894SOL     OW35314   1.737   2.620   8.457  0.1690  0.5213  0.5850
 7894SOL    HW135315   1.811   2.560   8.450  0.0669  0.6382 -1.6223
 7894SOL    HW235316   1.715   2.641   8.366  3.4680 -0.6353 -0.4764
 7895SOL     OW35317   2.590   2.603   5.076 -0.1864 -0.2735 -0.5317
 7895SOL    HW135318   2.520   2.601   5.142 -0.2899  3.1792 -0.5194
 7895SOL    HW235319   2.630   2.520   5.103 -0.6676  0.1759  1.5884
 7896SOL     OW35320   1.121   2.482   7.536  0.4885 -0.3936  0.0027
 7896SOL    HW135321   1.128   2.396   7.495  2.8434 -1.0516  1.8460
 7896SOL    HW235322   1.063   2.481   7.612 -0.7898 -0.3807 -0.9536
 7897SOL     OW35323   4.225   0.978  16.709  0.2992 -0.3460 -0.2061
 7897SOL    HW135324   4.194   1.039  16.776 -0.1548 -0.2355 -0.5194
 7897SOL    HW235325   4.156   0.981  16.642  0.4672  0.4429 -0.3475
 7898SOL     OW35326   4.098   2.902   5.308  0.2855 -0.3181  0.0291
 7898SOL    HW135327   4.141   2.978   5.348  0.3067  0.1718 -0.9385
 7898SOL    HW235328   4.009   2.936   5.296  1.1035  1.8310 -0.0192
 7899SOL     OW35329   0.455   1.794  12.862  0.0385 -0.3152  0.6717
 7899SOL    HW135330   0.529   1.740  12.833 -1.0200 -2.3405  1.7351
 7899SOL    HW235331   0.417   1.738  12.930  0.8666  0.1759  1.5418
 7900SOL     OW35332   4.132   4.671  13.715 -0.0635 -0.0429  0.6467
 7900SOL    HW135333   4.200   4.708  13.771  3.2676 -1.0954 -2.6859
 7900SOL    HW235334   4.053   4.724  13.725  0.1349  0.3331  0.2534
 7901SOL     OW35335   2.677   3.522   2.387 -0.0002  0.0850  0.5732
 7901SOL    HW135336   2.644   3.520   2.297  1.1073  1.6413  0.1389
 7901SOL    HW235337   2.650   3.435   2.416  0.5934 -0.1491  0.4289
 7902SOL     OW35338   1.527   0.545  10.912 -0.0552  0.1267  0.3938
 7902SOL    HW135339   1.457   0.554  10.976 -0.2217  2.9367 -0.1909
 7902SOL    HW235340   1.511   0.616  10.850  0.9563 -0.0663 -0.0949
 7903SOL     OW35341   3.965   0.508  11.359  0.0032 -0.0561 -0.0316
 7903SOL    HW135342   3.909   0.559  11.300 -0.8124 -2.1067 -1.0432
 7903SOL    HW235343   3.973   0.563  11.437 -0.0995  0.8911 -0.6899
 7904SOL     OW35344   1.747   2.874   4.429  0.0059  0.2006  0.3826
 7904SOL    HW135345   1.807   2.948   4.426 -1.1245  1.0664 -0.5523
 7904SOL    HW235346   1.691   2.897   4.355 -0.4269  2.3437  1.3941
 7905SOL     OW35347   2.995   3.252  16.413 -0.0406 -0.4738  0.0540
 7905SOL    HW135348   3.062   3.315  16.439  0.2415 -1.2347  1.1275
 7905SOL    HW235349   3.033   3.164  16.415 -0.2888 -0.5424  1.1703
 7906SOL     OW35350   3.716   3.651   1.528  0.5268  0.0715  0.3787
 7906SOL    HW135351   3.659   3.613   1.461 -0.0512 -0.6062  1.2549
 7906SOL    HW235352   3.800   3.614   1.501 -0.5222 -1.6540 -0.5309
 7907SOL     OW35353   4.469   4.568   4.053  0.7438 -0.1385  0.5325
 7907SOL    HW135354   4.447   4.549   4.144  1.2015  2.2936  1.1334
 7907SOL    HW235355   4.510   4.488   4.020  0.6807  0.7239 -1.6608
 7908SOL     OW35356   0.149   2.413   3.657 -0.3736  0.1713  0.2401
 7908SOL    HW135357   0.231   2.413   3.608  0.5486  0.9482  1.7922
 7908SOL    HW235358   0.118   2.502   3.638  0.9869  0.9653  1.7444
 7909SOL     OW35359   0.040   3.087   0.185 -0.1152  0.2107  0.3167
 7909SOL    HW135360   0.030   3.102   0.091 -1.9828 -1.3003  0.2728
 7909SOL    HW235361   0.120   3.138   0.199 -0.0279  0.2888 -0.4758
 7910SOL     OW35362   1.906   2.559   3.530  0.5650  0.0063  0.1947
 7910SOL    HW135363   1.924   2.540   3.438 -2.0413 -1.0360 -0.1020
 7910SOL    HW235364   1.826   2.506   3.535  0.1413  0.6253  0.0154
 7911SOL     OW35365   1.918   4.313   5.234 -0.4434 -0.4810  0.0073
 7911SOL    HW135366   1.977   4.286   5.304  1.4763 -0.1903 -1.4944
 7911SOL    HW235367   1.846   4.355   5.281  0.9833  0.4461  1.3625
 7912SOL     OW35368   3.531   2.585   7.445  0.6821  0.3144  0.9170
 7912SOL    HW135369   3.571   2.549   7.367 -3.1220 -0.1551 -0.8334
 7912SOL    HW235370   3.445   2.606   7.409  0.4778 -0.1603  1.1298
 7913SOL     OW35371   0.467   3.620   1.434 -0.0443  0.5324 -0.0671
 7913SOL    HW135372   0.524   3.639   1.509  0.7894 -2.0759 -0.0474
 7913SOL    HW235373   0.407   3.694   1.442  0.9172  1.1409  1.4662
 7914SOL     OW35374   1.099   0.558   9.269  0.3486  0.3318 -0.1306
 7914SOL    HW135375   1.023   0.588   9.318  0.4564  1.7183 -0.8023
 7914SOL    HW235376   1.149   0.639   9.285  0.1659  0.7076 -1.4067
 7915SOL     OW35377   2.278   3.671   6.114 -0.6012 -0.2481 -0.1248
 7915SOL    HW135378   2.234   3.637   6.036  0.2929  1.0665 -1.2024
 7915SOL    HW235379   2.208   3.718   6.158  0.5744  0.3640  1.0939
 7916SOL     OW35380   2.006   3.470   7.183  0.0889  0.1575 -0.1787
 7916SOL    HW135381   2.077   3.410   7.203 -0.8971  0.0643  2.9602
 7916SOL    HW235382   2.014   3.472   7.087 -1.5878 -0.7835 -0.3301
 7917SOL     OW35383   2.585   1.154   1.127 -0.3403 -0.1673 -0.2001
 7917SOL    HW135384   2.507   1.209   1.116 -1.6548 -2.1449 -0.7422
 7917SOL    HW235385   2.542   1.077   1.165 -1.3607  0.7187  0.4446
 7918SOL     OW35386   3.595   0.294   3.704 -0.6868  0.3497 -0.4029
 7918SOL    HW135387   3.508   0.331   3.689 -0.4076  1.0884 -0.2144
 7918SOL    HW235388   3.579   0.242   3.783  1.5646 -0.2809 -0.3541
 7919SOL     OW35389   2.881   0.619   6.227 -0.2715 -0.2159  0.3794
 7919SOL    HW135390   2.969   0.584   6.237 -0.3571 -0.6826 -0.4687
 7919SOL    HW235391   2.852   0.595   6.315 -2.2628 -1.5425 -0.6293
 7920SOL     OW35392   0.763   1.780   8.474 -0.0564  0.5066  0.1309
 7920SOL    HW135393   0.721   1.737   8.400 -2.2323  2.6395  0.1274
 7920SOL    HW235394   0.683   1.826   8.501 -0.4719 -0.5183  0.6510
 7921SOL     OW35395   1.288   3.690   2.384 -0.1258  0.1325 -0.1855
 7921SOL    HW135396   1.357   3.650   2.438  1.1948 -1.6918 -3.1905
 7921SOL    HW235397   1.256   3.761   2.439 -0.3808 -0.8020  0.8848
 7922SOL     OW35398   1.623   2.660   5.203 -0.3941  0.2486  0.3115
 7922SOL    HW135399   1.536   2.679   5.238 -1.0486 -0.0824 -1.1557
 7922SOL    HW235400   1.591   2.581   5.161  0.3985 -0.4182  0.9645
 7923SOL     OW35401   3.678   3.316   4.229  0.4629  0.5944 -0.2731
 7923SOL    HW135402   3.648   3.400   4.195 -0.0734  0.4717 -0.1074
 7923SOL    HW235403   3.670   3.268   4.146 -1.3583  1.5235 -0.6288
 7924SOL     OW35404   3.706   0.279  15.425  0.6931 -0.0647 -0.1659
 7924SOL    HW135405   3.654   0.231  15.361  0.2986  0.8831 -0.5493
 7924SOL    HW235406   3.741   0.348  15.370  0.9964  1.0179  1.3714
 7925SOL     OW35407   3.284   1.836   0.695 -0.1510  0.3382 -0.0605
 7925SOL    HW135408   3.255   1.782   0.769 -0.4771 -1.3810 -1.4588
 7925SOL    HW235409   3.280   1.930   0.713 -1.0623  0.3740 -0.4608
 7926SOL     OW35410   4.054   1.665  12.473 -0.2258  0.3154  0.0187
 7926SOL    HW135411   3.982   1.728  12.475 -0.2097  0.3192  0.4391
 7926SOL    HW235412   4.055   1.653  12.568  0.3005 -2.3373 -0.3391
 7927SOL     OW35413   2.877   4.614  15.187 -0.4328  0.5281 -0.7645
 7927SOL    HW135414   2.872   4.518  15.186  1.0703  0.4778 -2.3819
 7927SOL    HW235415   2.823   4.628  15.265  1.5488 -0.1298  0.7507
 7928SOL     OW35416   4.070   0.464   7.527 -0.1114 -0.3987  0.3091
 7928SOL    HW135417   4.134   0.513   7.475 -1.1885  0.3958 -0.2683
 7928SOL    HW235418   4.063   0.527   7.599  0.8671  3.0819 -2.6412
 7929SOL     OW35419   4.234   3.872   5.655  0.2339 -0.3140 -0.2932
 7929SOL    HW135420   4.264   3.859   5.745 -0.5992  2.3189  0.3725
 7929SOL    HW235421   4.256   3.965   5.646  0.2370 -0.2028  0.7993
 7930SOL     OW35422   4.449   0.034   8.011 -0.4090 -0.4147  0.2638
 7930SOL    HW135423   4.491   4.711   7.945  0.8587 -0.5752  1.1867
 7930SOL    HW235424   4.408   4.702   8.069  1.1288 -3.0943 -1.5896
 7931SOL     OW35425   3.231   4.250   7.116 -0.7524  0.8000 -0.0064
 7931SOL    HW135426   3.180   4.266   7.195 -2.1521 -0.9092 -0.5466
 7931SOL    HW235427   3.301   4.315   7.119  0.5585 -0.6147 -0.0093
 7932SOL     OW35428   3.418   0.366   5.119 -0.1418 -0.1550 -0.0057
 7932SOL    HW135429   3.434   0.412   5.037 -1.0077  1.2831  0.6352
 7932SOL    HW235430   3.491   0.303   5.119 -0.9401 -1.0874  0.9060
 7933SOL     OW35431   3.862   0.377   2.881 -0.1551 -0.0504 -0.0688
 7933SOL    HW135432   3.903   0.361   2.796 -2.3488  0.9417 -1.3128
 7933SOL    HW235433   3.928   0.429   2.926  0.0471 -1.1146  0.8621
 7934SOL     OW35434   2.033   2.761   7.282  0.0433  0.1588 -0.5207
 7934SOL    HW135435   1.993   2.725   7.204 -0.9314  0.6756 -0.2538
 7934SOL    HW235436   2.045   2.684   7.338 -0.3674 -0.2268 -0.9656
 7935SOL     OW35437   2.370   0.508   6.420 -0.1478 -0.1519 -0.3601
 7935SOL    HW135438   2.385   0.471   6.333  1.4871  3.0191 -1.4696
 7935SOL    HW235439   2.428   0.456   6.476 -0.4837 -0.7497 -0.5790
 7936SOL     OW35440   0.257   4.649   9.012 -0.9657  0.4638  0.3425
 7936SOL    HW135441   0.173   4.614   9.043 -0.9801 -0.4767 -0.7555
 7936SOL    HW235442   0.260   4.618   8.922 -1.0657  1.7221 -0.0930
 7937SOL     OW35443   2.556   0.104   8.758 -0.7027  0.1770 -0.1787
 7937SOL    HW135444   2.488   0.093   8.825  0.4060 -0.2413  0.8577
 7937SOL    HW235445   2.559   0.017   8.719  0.7813  0.2170 -0.1369
 7938SOL     OW35446   4.391   1.578   3.158  0.2038 -0.0877  0.1151
 7938SOL    HW135447   4.374   1.555   3.249 -1.0213 -3.5903 -0.9990
 7938SOL    HW235448   4.438   1.502   3.125 -0.2867 -0.4313  0.2215
 7939SOL     OW35449   3.670   2.844   9.570  0.7845 -0.2842 -0.4705
 7939SOL    HW135450   3.658   2.775   9.505  0.0195  1.1208 -1.8344
 7939SOL    HW235451   3.590   2.897   9.565  0.8191 -0.1083  0.7770
 7940SOL     OW35452   0.634   4.471  15.173 -0.3229 -0.3647 -0.2622
 7940SOL    HW135453   0.666   4.383  15.150 -1.0422 -0.8250  0.4684
 7940SOL    HW235454   0.645   4.472  15.268  1.4880 -2.8601 -0.4367
 7941SOL     OW35455   4.544   2.362   8.401 -0.1611  0.3796  0.1542
 7941SOL    HW135456   4.637   2.382   8.408  0.4787 -2.1502 -1.0196
 7941SOL    HW235457   4.518   2.399   8.485 -0.6576  1.2424 -0.3816
 7942SOL     OW35458   2.316   3.272   1.852  0.1849 -0.1505 -0.2150
 7942SOL    HW135459   2.329   3.208   1.923  0.6573  2.6312  2.1804
 7942SOL    HW235460   2.267   3.223   1.786 -2.2444  1.4474  0.4140
 7943SOL     OW35461   1.007   0.873   6.930 -0.0938  0.1402  0.6262
 7943SOL    HW135462   1.074   0.901   6.993  0.5484  0.5731 -0.2457
 7943SOL    HW235463   1.043   0.791   6.898  0.0114 -0.0100  1.1296
 7944SOL     OW35464   3.499   3.535  10.417  0.0931 -0.5922 -0.6248
 7944SOL    HW135465   3.421   3.493  10.453  1.0215 -0.0995  1.9871
 7944SOL    HW235466   3.503   3.522  10.322 -1.2020 -0.8787 -0.6359
 7945SOL     OW35467   4.433   3.939   0.516 -0.2503 -0.1228  0.2420
 7945SOL    HW135468   4.441   3.875   0.446 -1.3717  0.6211 -0.5727
 7945SOL    HW235469   4.523   3.942   0.548 -0.1012 -2.5666  0.0465
 7946SOL     OW35470   0.982   3.954  15.265  0.4158 -0.2386  0.1101
 7946SOL    HW135471   1.005   4.046  15.255  1.0041 -0.4077 -0.0806
 7946SOL    HW235472   0.915   3.948  15.197 -0.3166  0.3672  0.7840
 7947SOL     OW35473   1.355   3.120  15.051 -0.2541  0.4475 -0.7121
 7947SOL    HW135474   1.372   3.045  15.109  0.3164  1.6738  0.6911
 7947SOL    HW235475   1.331   3.192  15.109 -0.8075  0.7533 -1.3144
 7948SOL     OW35476   2.660   0.275  16.141  0.3235  0.1747  0.3715
 7948SOL    HW135477   2.699   0.294  16.226  0.9155 -1.1119  0.3815
 7948SOL    HW235478   2.613   0.194  16.159  2.3092 -0.7008  1.5857
 7949SOL     OW35479   1.729   4.500   6.890 -0.0975  0.1135  0.7228
 7949SOL    HW135480   1.775   4.573   6.930 -0.8023 -0.6370  2.8934
 7949SOL    HW235481   1.717   4.531   6.800  2.4189  0.4137  0.4940
 7950SOL     OW35482   2.722   1.593   7.759 -0.3009 -0.3672  0.2234
 7950SOL    HW135483   2.730   1.524   7.693  0.0162  1.1059 -1.2774
 7950SOL    HW235484   2.655   1.547   7.810  2.2028 -2.7203  1.3954
 7951SOL     OW35485   2.280   2.904   5.485  0.3535  0.2347 -0.0811
 7951SOL    HW135486   2.199   2.861   5.455 -0.3598  2.1565 -0.8876
 7951SOL    HW235487   2.270   2.996   5.462  0.3454  0.2182 -0.1454
 7952SOL     OW35488   4.436   0.577   8.389  0.0528  0.2631  0.6517
 7952SOL    HW135489   4.366   0.644   8.386  0.3537  0.4815 -1.4865
 7952SOL    HW235490   4.509   0.607   8.335 -0.4562 -3.2519 -1.9863
 7953SOL     OW35491   3.821   4.563   5.014 -0.2168  0.0738 -0.4731
 7953SOL    HW135492   3.861   4.502   4.952  0.7005 -1.0917  1.2840
 7953SOL    HW235493   3.856   4.647   4.983 -0.1607 -0.1785 -1.0927
 7954SOL     OW35494   0.215   2.547   1.798  1.1644 -0.0896  0.3414
 7954SOL    HW135495   0.297   2.510   1.831  1.4030  1.6568  1.7154
 7954SOL    HW235496   0.238   2.538   1.706 -1.7619 -1.2547 -0.2694
 7955SOL     OW35497   2.400   4.186   5.286 -0.5135 -0.4762  0.5074
 7955SOL    HW135498   2.447   4.269   5.282  0.7383 -1.2176  0.0035
 7955SOL    HW235499   2.469   4.140   5.333  0.2740 -2.1016 -2.2185
 7956SOL     OW35500   0.326   0.760   2.005  0.1610  0.6171  0.4421
 7956SOL    HW135501   0.251   0.735   2.058 -1.0771 -0.4268 -1.8252
 7956SOL    HW235502   0.283   0.804   1.932 -3.8406 -0.0526  2.4281
 7957SOL     OW35503   2.695   1.959  16.390 -0.1857  0.8934  0.3544
 7957SOL    HW135504   2.702   1.885  16.450 -0.3971 -0.9606 -1.9101
 7957SOL    HW235505   2.717   1.924  16.304  2.5433  1.5983  0.7596
 7958SOL     OW35506   1.161   0.007   4.020  0.0201  0.4610  0.1233
 7958SOL    HW135507   1.148   0.044   4.108  0.0148  0.2707  0.2019
 7958SOL    HW235508   1.240   4.686   4.022 -0.5294 -0.3517  0.2997
 7959SOL     OW35509   1.181   3.638   7.084 -0.2763  0.2745  0.6770
 7959SOL    HW135510   1.258   3.691   7.103 -0.1586  0.0457  0.8383
 7959SOL    HW235511   1.116   3.709   7.086 -1.4407 -0.7395 -1.2235
 7960SOL     OW35512   3.334   4.600   4.818  0.0129  0.4057  0.2273
 7960SOL    HW135513   3.312   4.636   4.904  0.8346 -0.0519  0.6207
 7960SOL    HW235514   3.354   4.508   4.833  4.1678  1.3951  0.7821
 7961SOL     OW35515   1.449   1.464  15.401 -0.2337 -0.3446 -0.1035
 7961SOL    HW135516   1.377   1.494  15.456 -1.0437  0.1605 -1.4375
 7961SOL    HW235517   1.411   1.488  15.316  1.9781  3.2509 -0.0620
 7962SOL     OW35518   1.653   2.458   3.534  0.3385  0.1480 -0.5966
 7962SOL    HW135519   1.619   2.432   3.620 -0.9903  0.4829 -1.0171
 7962SOL    HW235520   1.647   2.377   3.484  0.3984  0.4407 -1.0778
 7963SOL     OW35521   3.864   3.266   8.205 -0.3617  0.0256  0.6504
 7963SOL    HW135522   3.915   3.201   8.155 -0.6024  1.3781 -1.3397
 7963SOL    HW235523   3.883   3.222   8.288 -1.9335  0.2732  1.1232
 7964SOL     OW35524   2.625   4.003   8.887  0.1122 -0.2916  0.1808
 7964SOL    HW135525   2.695   3.942   8.865 -0.5315  0.0653 -2.8479
 7964SOL    HW235526   2.547   3.951   8.866  1.8026 -2.1157 -1.5632
 7965SOL     OW35527   4.129   0.827  10.421  0.7789 -0.0722 -0.5889
 7965SOL    HW135528   4.188   0.772  10.472  0.1506 -1.4988 -1.4070
 7965SOL    HW235529   4.052   0.831  10.479  0.2974  0.0329 -1.2356
 7966SOL     OW35530   1.392   2.451   7.813  0.1437 -0.4083 -0.4656
 7966SOL    HW135531   1.426   2.466   7.901 -0.5247 -0.3678 -0.2157
 7966SOL    HW235532   1.392   2.355   7.808  1.4343 -0.3581 -1.6877
 7967SOL     OW35533   2.024   1.290   2.790 -0.2138  0.6193 -0.2928
 7967SOL    HW135534   2.016   1.293   2.885  2.9057  1.7920 -0.0602
 7967SOL    HW235535   2.088   1.360   2.777  2.6094 -1.6097  1.4671
 7968SOL     OW35536   1.063   3.024   0.050 -0.0189  0.6393 -0.0733
 7968SOL    HW135537   0.984   2.970   0.046  1.4669 -1.5310 -0.0598
 7968SOL    HW235538   1.127   2.954   0.061 -1.1197 -0.4630 -0.5682
 7969SOL     OW35539   2.394   3.335  17.249  0.1527  0.4254  0.2849
 7969SOL    HW135540   2.461   3.268  17.237 -0.6525 -0.8834  3.2799
 7969SOL    HW235541   2.420   3.378  17.331 -1.8313 -1.5537  1.9408
 7970SOL     OW35542   3.627   4.398   9.327 -0.3074 -0.0610  0.8318
 7970SOL    HW135543   3.603   4.470   9.269  2.9523  1.3672  1.2926
 7970SOL    HW235544   3.541   4.361   9.347 -1.0668  1.9361  1.2766
 7971SOL     OW35545   3.711   0.841   2.426 -0.2916  0.0091  0.3120
 7971SOL    HW135546   3.675   0.799   2.504 -1.9988 -2.4380 -1.8106
 7971SOL    HW235547   3.805   0.836   2.444 -0.3127  1.5651  0.8356
 7972SOL     OW35548   0.674   3.273   1.039  0.5081 -0.0102 -0.5590
 7972SOL    HW135549   0.750   3.327   1.060  1.2988 -2.1149  2.0156
 7972SOL    HW235550   0.656   3.243   1.129  0.6461  1.1535 -0.1472
 7973SOL     OW35551   4.341   1.642   7.703 -0.5412 -0.6502 -0.3239
 7973SOL    HW135552   4.432   1.625   7.678 -0.8847 -1.8889 -0.7039
 7973SOL    HW235553   4.326   1.595   7.784  0.1841 -1.2577 -0.5409
 7974SOL     OW35554   3.238   1.778   9.538 -0.0383 -0.0572 -0.2595
 7974SOL    HW135555   3.285   1.742   9.614 -1.3713 -1.0441  0.1063
 7974SOL    HW235556   3.215   1.689   9.511 -2.8183  0.7476 -0.4903
 7975SOL     OW35557   2.074   3.026   9.440 -0.1696  0.3058 -0.2791
 7975SOL    HW135558   2.056   2.934   9.462 -2.4727  0.3210 -2.1368
 7975SOL    HW235559   1.994   3.048   9.393 -0.6140 -2.2598 -0.7723
 7976SOL     OW35560   4.037   2.503   4.465 -0.0933  0.2010 -0.2039
 7976SOL    HW135561   4.073   2.499   4.377 -1.3260  0.0147 -0.7124
 7976SOL    HW235562   4.006   2.414   4.483 -2.6457  1.4071  1.4266
 7977SOL     OW35563   1.059   3.532   7.394 -0.4887  0.4258 -0.3465
 7977SOL    HW135564   0.983   3.556   7.341 -0.8041  1.6865  0.6643
 7977SOL    HW235565   1.043   3.586   7.472 -0.6470  0.3421 -0.3229
 7978SOL     OW35566   2.456   4.503   2.475  0.0246 -0.2036 -0.0078
 7978SOL    HW135567   2.376   4.517   2.526  0.2588 -1.1526  0.6211
 7978SOL    HW235568   2.527   4.503   2.540  1.8802  0.1235 -2.0317
 7979SOL     OW35569   0.780   0.596  14.832  0.0525 -0.2308 -0.1488
 7979SOL    HW135570   0.702   0.642  14.861  1.1642  1.4940  0.1167
 7979SOL    HW235571   0.750   0.569  14.745  0.4465  0.4343 -0.5017
 7980SOL     OW35572   1.356   1.830  12.762 -0.5632  0.0566 -0.5399
 7980SOL    HW135573   1.421   1.792  12.703  0.3211  0.6273  0.0598
 7980SOL    HW235574   1.390   1.919  12.772 -2.6988  0.8354 -0.2611
 7981SOL     OW35575   2.124   0.938   5.098  0.4251  0.1365  0.1550
 7981SOL    HW135576   2.142   0.892   5.017  0.5470 -0.5217  0.5577
 7981SOL    HW235577   2.214   0.965   5.117 -0.0458  0.8379  1.4478
 7982SOL     OW35578   3.499   3.316   0.442  0.5248 -0.1795  0.1728
 7982SOL    HW135579   3.409   3.284   0.439  0.8745 -1.2817  1.6870
 7982SOL    HW235580   3.528   3.269   0.364 -1.2656  0.4579 -0.8908
 7983SOL     OW35581   0.834   3.169  15.104  0.1893  0.1525 -0.6267
 7983SOL    HW135582   0.913   3.205  15.146  0.1711 -0.3862 -0.1324
 7983SOL    HW235583   0.770   3.225  15.148  0.6629  0.3176 -0.1412
 7984SOL     OW35584   0.742   0.464  12.000  0.3078  0.3084 -0.3268
 7984SOL    HW135585   0.797   0.416  11.938 -1.6428  0.3475 -2.0851
 7984SOL    HW235586   0.804   0.528  12.036 -1.0653  1.1445  0.5748
 7985SOL     OW35587   2.204   1.747  14.802  0.5350  0.1368 -0.2122
 7985SOL    HW135588   2.204   1.842  14.813  0.9713 -0.1039  1.9524
 7985SOL    HW235589   2.263   1.725  14.730 -1.9018  0.3895 -2.2841
 7986SOL     OW35590   0.237   4.291  11.529 -0.5744  0.1451 -0.0695
 7986SOL    HW135591   0.170   4.359  11.526  2.2693  3.0668  2.3749
 7986SOL    HW235592   0.323   4.330  11.510 -1.0857  2.3278  2.1146
 7987SOL     OW35593   1.818   1.491   7.156 -0.0328 -0.1203  0.0511
 7987SOL    HW135594   1.890   1.554   7.160  0.4220 -0.4943 -2.2942
 7987SOL    HW235595   1.766   1.524   7.083 -0.1811 -1.6399 -0.5299
 7988SOL     OW35596   3.900   0.128   6.657  0.0134  0.0045  0.4665
 7988SOL    HW135597   3.879   0.041   6.691 -0.0661  0.3693  1.3638
 7988SOL    HW235598   3.983   0.151   6.699 -0.6931  2.1698  0.6447
 7989SOL     OW35599   3.038   2.564  10.010  0.0939 -0.2904 -0.5710
 7989SOL    HW135600   2.997   2.512  10.079  1.8971  0.4605  1.0428
 7989SOL    HW235601   3.046   2.502   9.937  0.2748  0.0450 -0.8331
 7990SOL     OW35602   2.465   0.850   3.165 -0.3530 -0.1610  0.2430
 7990SOL    HW135603   2.380   0.806   3.156  0.4212 -1.5485 -0.2986
 7990SOL    HW235604   2.446   0.943   3.160  1.7438  0.2359  0.0446
 7991SOL     OW35605   1.206   1.297   2.367 -0.4463  0.5916 -0.0126
 7991SOL    HW135606   1.186   1.360   2.297  1.4823 -0.5820 -1.6473
 7991SOL    HW235607   1.293   1.335   2.381  0.5185 -1.1799 -1.1410
 7992SOL     OW35608   3.324   0.637   8.795  0.7443 -0.0121  0.4899
 7992SOL    HW135609   3.275   0.620   8.714  1.7929 -1.1223  0.0789
 7992SOL    HW235610   3.372   0.557   8.820  1.0801 -0.4270 -1.4377
 7993SOL     OW35611   0.788   1.060   5.793 -0.3568  0.5192 -0.1594
 7993SOL    HW135612   0.818   1.034   5.880  2.1357  0.4785 -1.0325
 7993SOL    HW235613   0.868   1.091   5.751  0.1955  2.4459  2.2649
 7994SOL     OW35614   3.495   4.121   9.871  0.2183  0.0301 -0.4684
 7994SOL    HW135615   3.574   4.075   9.900 -0.0585 -0.0544  0.1519
 7994SOL    HW235616   3.456   4.165   9.947 -0.1340  0.7514 -1.0666
 7995SOL     OW35617   3.395   4.478   9.544  0.1761  0.1912 -0.8035
 7995SOL    HW135618   3.464   4.539   9.521 -0.9421  1.6281 -0.3208
 7995SOL    HW235619   3.435   4.416   9.604 -1.4495  4.3037  4.4709
 7996SOL     OW35620   0.999   3.571  15.525 -0.6310 -0.0528  0.2439
 7996SOL    HW135621   0.974   3.611  15.608 -4.1363 -2.7250  0.5017
 7996SOL    HW235622   1.066   3.629  15.489 -2.5718  1.0479 -1.6035
 7997SOL     OW35623   2.860   3.628   7.562 -0.2017  0.1055  0.1258
 7997SOL    HW135624   2.951   3.648   7.584  0.3182 -1.6256 -0.4055
 7997SOL    HW235625   2.847   3.665   7.475  2.2914 -0.0248 -0.2991
 7998SOL     OW35626   3.325   1.136  11.131  0.2806  0.1408  0.2509
 7998SOL    HW135627   3.352   1.226  11.145 -0.4990  0.5162 -0.6349
 7998SOL    HW235628   3.341   1.134  11.036  0.6135 -1.7601  0.3362
 7999SOL     OW35629   0.525   4.693   6.925  0.2103  0.9813 -0.3201
 7999SOL    HW135630   0.558   4.652   7.005  0.0008  0.9693 -0.2406
 7999SOL    HW235631   0.486   4.612   6.893  0.7547 -0.4018  2.4645
 8000SOL     OW35632   1.505   4.437   2.457  0.9145  0.2550 -0.3075
 8000SOL    HW135633   1.536   4.405   2.542 -1.8992  0.6216  0.8322
 8000SOL    HW235634   1.438   4.488   2.502 -2.8328 -2.4473 -2.9137
 8001SOL     OW35635   2.878   0.157   4.602  0.1004 -0.3692  0.5474
 8001SOL    HW135636   2.919   0.076   4.571  0.5537 -0.1542  0.5876
 8001SOL    HW235637   2.849   0.192   4.518  0.8692  0.9492  0.8299
 8002SOL     OW35638   0.674   4.409   8.036  0.5898 -0.3771 -0.1040
 8002SOL    HW135639   0.682   4.426   8.129  2.2242  0.9214 -0.4938
 8002SOL    HW235640   0.580   4.399   8.024  0.6814 -1.3735 -0.0441
 8003SOL     OW35641   0.248   3.555  12.173  0.2988  0.2417 -0.2355
 8003SOL    HW135642   0.292   3.632  12.208 -2.6739  2.2532 -0.9658
 8003SOL    HW235643   0.297   3.543  12.091  1.3730  0.6423  0.3570
 8004SOL     OW35644   2.651   3.542   1.336  0.1485 -0.1741  0.0599
 8004SOL    HW135645   2.626   3.634   1.334 -0.6444 -0.4175 -1.3924
 8004SOL    HW235646   2.745   3.557   1.323 -0.1349  1.0508 -0.5668
 8005SOL     OW35647   0.727   1.470   8.762 -0.0722 -0.0297 -0.0816
 8005SOL    HW135648   0.741   1.438   8.851  0.4167  2.3101  0.6813
 8005SOL    HW235649   0.796   1.537   8.763 -0.0474 -0.0792  1.7985
 8006SOL     OW35650   2.700   2.874   2.223 -0.2062  0.3727  0.4410
 8006SOL    HW135651   2.653   2.947   2.263 -0.9250  0.4958 -0.6376
 8006SOL    HW235652   2.715   2.908   2.135 -0.1362 -2.0767 -0.4918
 8007SOL     OW35653   2.019   3.855   6.174 -0.3889  0.3988 -0.3385
 8007SOL    HW135654   1.979   3.769   6.184 -0.9982  0.7643  0.3720
 8007SOL    HW235655   2.010   3.862   6.079  1.4074 -2.2387 -0.7185
 8008SOL     OW35656   2.096   3.360   2.001  0.2196 -0.0442 -0.6748
 8008SOL    HW135657   2.171   3.331   1.949 -1.2838  0.7404 -3.2924
 8008SOL    HW235658   2.025   3.330   1.944 -1.0647  4.5698 -1.5227
 8009SOL     OW35659   4.511   0.408   8.927  0.2817 -0.0248 -0.0427
 8009SOL    HW135660   4.573   0.480   8.938  1.8144 -1.1778 -1.0769
 8009SOL    HW235661   4.459   0.445   8.855 -0.1522 -0.9057 -0.1846
 8010SOL     OW35662   2.326   3.299   9.181  0.4169 -0.1854  0.5749
 8010SOL    HW135663   2.317   3.234   9.112  0.9237  0.5748 -0.2133
 8010SOL    HW235664   2.409   3.268   9.217  0.2153 -1.0916  0.2558
 8011SOL     OW35665   2.212   2.735   3.481 -0.0572 -0.1852  0.4992
 8011SOL    HW135666   2.239   2.723   3.572  2.0757 -0.2560 -0.1365
 8011SOL    HW235667   2.254   2.657   3.443 -1.8765 -1.3543  0.8773
 8012SOL     OW35668   2.830   3.828  12.518 -0.2989  0.0336  0.4514
 8012SOL    HW135669   2.784   3.866  12.443 -1.3009 -1.4791  0.3074
 8012SOL    HW235670   2.903   3.889  12.529  0.4123 -1.0595  1.7697
 8013SOL     OW35671   0.946   2.470   4.279 -0.2576 -0.3154 -0.1490
 8013SOL    HW135672   1.000   2.462   4.357 -0.9552 -0.9099  0.2798
 8013SOL    HW235673   0.899   2.551   4.302  2.6385  2.2651 -3.3703
 8014SOL     OW35674   3.751   1.039   6.327 -0.1922 -0.1328  0.6175
 8014SOL    HW135675   3.687   0.982   6.284  0.1569  0.2230 -0.3693
 8014SOL    HW235676   3.794   0.978   6.386  2.0680  1.3669  0.5130
 8015SOL     OW35677   0.486   2.902   3.081 -0.4416  0.0100  0.4893
 8015SOL    HW135678   0.413   2.840   3.082  1.8802 -2.6899  1.7411
 8015SOL    HW235679   0.560   2.849   3.110  1.9257  1.0249 -3.7250
 8016SOL     OW35680   0.113   2.668   2.765 -0.3278  0.2361 -0.3753
 8016SOL    HW135681   0.082   2.633   2.849  1.8480 -0.7726 -0.0100
 8016SOL    HW235682   0.191   2.615   2.749  0.7485  1.6730  0.1434
 8017SOL     OW35683   1.472   0.945   7.406  0.0540  0.5010 -0.0625
 8017SOL    HW135684   1.418   0.977   7.477 -0.7522  0.8695 -0.8480
 8017SOL    HW235685   1.433   0.986   7.329 -4.4557 -1.5949  1.1441
 8018SOL     OW35686   0.655   3.876  15.312  0.3005 -0.0079 -0.0979
 8018SOL    HW135687   0.594   3.929  15.363  2.6209  0.6887  1.9541
 8018SOL    HW235688   0.696   3.825  15.382 -2.0256 -1.1298  0.4414
 8019SOL     OW35689   1.229   0.359  17.632  0.3587 -0.3489  0.2422
 8019SOL    HW135690   1.138   0.339  17.611  0.3482  0.8635 -0.8175
 8019SOL    HW235691   1.278   0.297  17.577 -3.4484 -0.3842 -3.0825
 8020SOL     OW35692   1.722   1.185  15.283  0.5234 -0.1723  0.1992
 8020SOL    HW135693   1.774   1.265  15.285  0.0667  0.0722  2.0778
 8020SOL    HW235694   1.653   1.206  15.220  0.0846  0.8662  1.0346
 8021SOL     OW35695   4.280   0.117   8.378  0.0476 -0.1524 -0.1771
 8021SOL    HW135696   4.305   0.153   8.464 -0.7492 -1.0360  0.4229
 8021SOL    HW235697   4.312   0.193   8.329  1.5131 -0.3457  0.4727
 8022SOL     OW35698   1.419   4.144  12.334 -0.6699  0.7624  0.3288
 8022SOL    HW135699   1.415   4.068  12.277 -0.2721 -0.5874  2.0973
 8022SOL    HW235700   1.496   4.193  12.308 -0.3545  1.8358  3.2337
 8023SOL     OW35701   3.513   3.413   1.015  0.0684  0.0878 -0.5342
 8023SOL    HW135702   3.575   3.345   0.989  0.9489  0.7794 -0.2515
 8023SOL    HW235703   3.499   3.463   0.934 -1.3875  0.7302  0.1113
 8024SOL     OW35704   4.088   3.768   3.669  0.2869  0.0181 -0.1291
 8024SOL    HW135705   3.996   3.789   3.683 -0.5667 -2.9316 -1.3201
 8024SOL    HW235706   4.107   3.679   3.700  2.7595  0.8556  0.7621
 8025SOL     OW35707   2.110   4.678  11.583 -0.4443  0.3246  0.3464
 8025SOL    HW135708   2.023   4.651  11.554 -0.8780  0.3533  1.6322
 8025SOL    HW235709   2.090   0.033  11.615 -1.0113  1.3634 -2.7870
 8026SOL     OW35710   1.392   1.969   3.762 -0.3534 -0.8145 -0.1118
 8026SOL    HW135711   1.377   1.894   3.820 -1.7063 -1.0601 -0.7754
 8026SOL    HW235712   1.311   1.965   3.711 -1.5298  4.6023  1.3170
 8027SOL     OW35713   3.912   4.361   6.340  0.1555 -0.6297  0.1377
 8027SOL    HW135714   3.849   4.341   6.271  0.1197 -2.8686  0.8438
 8027SOL    HW235715   3.988   4.305   6.324 -0.2847 -2.0354  2.9345
 8028SOL     OW35716   2.293   3.113   8.947  0.4282 -0.0130 -0.0686
 8028SOL    HW135717   2.268   3.038   9.002  1.8629  1.2265  2.2567
 8028SOL    HW235718   2.357   3.066   8.894 -1.3671 -1.2376 -1.1529
 8029SOL     OW35719   3.411   1.559   6.043  0.1383  0.1222 -0.1291
 8029SOL    HW135720   3.469   1.593   5.975  1.0121 -2.1067 -0.4626
 8029SOL    HW235721   3.459   1.590   6.120  1.4846  1.5850 -1.5519
 8030SOL     OW35722   4.120   0.291  11.369 -0.3531 -0.3061 -0.4517
 8030SOL    HW135723   4.071   0.261  11.445  1.7986  1.5880  1.6847
 8030SOL    HW235724   4.067   0.369  11.355  0.7258  0.5480  0.2499
 8031SOL     OW35725   1.128   2.167   2.023  0.3879 -0.7743 -0.1973
 8031SOL    HW135726   1.195   2.192   2.086 -0.1067 -0.7635  0.3193
 8031SOL    HW235727   1.144   2.236   1.959 -2.0305  1.5804  1.7598
 8032SOL     OW35728   2.827   0.831  15.060  0.8328  0.5620 -0.8647
 8032SOL    HW135729   2.736   0.839  15.031  0.8670 -0.3219 -1.2407
 8032SOL    HW235730   2.868   0.917  15.051  0.2799  0.8135 -0.9783
 8033SOL     OW35731   0.486   1.148  16.522  0.0715 -0.3506  0.8776
 8033SOL    HW135732   0.504   1.231  16.566  1.9755 -0.6720  0.7135
 8033SOL    HW235733   0.396   1.159  16.494  0.8435  1.2177 -1.0036
 8034SOL     OW35734   0.182   2.421   2.047  0.4935 -0.4213 -0.2739
 8034SOL    HW135735   0.193   2.493   1.985  0.6578 -1.1742 -1.1248
 8034SOL    HW235736   0.269   2.382   2.046 -0.5138 -2.5706 -3.3198
 8035SOL     OW35737   2.824   1.810   6.096  0.9678  0.1410 -0.4749
 8035SOL    HW135738   2.801   1.721   6.068 -1.6867  0.9359 -0.8521
 8035SOL    HW235739   2.909   1.794   6.137  1.4207  1.1387 -1.0265
 8036SOL     OW35740   0.536   1.737   6.238  0.0848  0.2648  0.1265
 8036SOL    HW135741   0.574   1.787   6.310  0.9615 -0.1664 -0.0381
 8036SOL    HW235742   0.610   1.680   6.217 -0.9816 -0.9112 -0.4785
 8037SOL     OW35743   3.016   2.905   4.223 -0.0684  0.1004  0.4746
 8037SOL    HW135744   3.005   2.922   4.130  0.6866  0.4045  0.4419
 8037SOL    HW235745   3.033   2.986   4.271  0.5240 -0.8584  1.9027
 8038SOL     OW35746   4.605   2.468  16.815  0.1295  0.0319  0.2993
 8038SOL    HW135747   4.639   2.519  16.741  1.0407 -0.1779  0.5679
 8038SOL    HW235748   4.538   2.528  16.848  2.9094  3.4372 -0.1746
 8039SOL     OW35749   1.530   0.026   5.518 -0.2897  0.7281  0.0235
 8039SOL    HW135750   1.510   4.666   5.535 -1.2005  1.0125  0.5011
 8039SOL    HW235751   1.621   0.022   5.546 -0.5302  0.4403  0.7683
 8040SOL     OW35752   3.623   2.264   2.853 -0.3095  0.3141  0.1541
 8040SOL    HW135753   3.556   2.229   2.794  0.1436  0.1647 -0.2742
 8040SOL    HW235754   3.646   2.182   2.897 -0.5248  0.0293 -0.2678
 8041SOL     OW35755   2.951   2.305   3.465 -0.0922 -0.6372  0.0383
 8041SOL    HW135756   3.011   2.258   3.407 -1.1146 -0.8140 -0.8551
 8041SOL    HW235757   2.903   2.231   3.503 -0.3097 -1.4892 -1.9223
 8042SOL     OW35758   2.119   0.244   6.457  0.0998 -0.7686 -0.1502
 8042SOL    HW135759   2.045   0.284   6.412 -0.1964 -1.8549 -0.6297
 8042SOL    HW235760   2.076   0.234   6.542  0.4781  0.7353  0.2103
 8043SOL     OW35761   0.912   3.277   5.271  0.1856  0.3075  0.2344
 8043SOL    HW135762   0.955   3.192   5.269 -0.9616 -0.2740 -0.5334
 8043SOL    HW235763   0.871   3.279   5.184 -0.5571  0.7696  0.5943
 8044SOL     OW35764   4.672   2.887   6.260  0.4848  0.6027 -0.8007
 8044SOL    HW135765   4.698   2.852   6.174 -3.4245 -0.8588 -1.3690
 8044SOL    HW235766   4.730   2.963   6.272  0.7253  0.5821 -1.7685
 8045SOL     OW35767   3.042   3.210   8.481  0.1663  0.2534 -0.2515
 8045SOL    HW135768   2.949   3.191   8.486  0.5240 -1.5796 -0.7402
 8045SOL    HW235769   3.067   3.180   8.393 -1.7531  1.3830 -1.1888
 8046SOL     OW35770   2.426   1.941   5.852 -0.7046  0.1805  0.4488
 8046SOL    HW135771   2.466   1.859   5.882 -0.4141 -1.3302 -4.1036
 8046SOL    HW235772   2.503   1.991   5.825 -0.6126  0.5017  1.3147
 8047SOL     OW35773   3.210   4.546   3.962  0.2424 -0.3888 -0.1229
 8047SOL    HW135774   3.246   4.522   3.876 -0.5103  2.3422 -1.1917
 8047SOL    HW235775   3.284   4.531   4.021 -0.1707  4.1261  1.5074
 8048SOL     OW35776   1.209   2.914  10.049  0.1081  0.1709 -0.5576
 8048SOL    HW135777   1.165   2.860  10.115  0.3490 -1.1265 -1.4444
 8048SOL    HW235778   1.136   2.953  10.001 -1.5828 -0.9882  1.0532
 8049SOL     OW35779   0.295   2.783   9.040  0.5427  0.4491 -0.7830
 8049SOL    HW135780   0.386   2.798   9.017  1.2536  0.9675  2.2943
 8049SOL    HW235781   0.302   2.774   9.135  1.1597 -0.0404 -0.8752
 8050SOL     OW35782   0.842   2.962   7.370  0.5730 -0.3033 -0.0607
 8050SOL    HW135783   0.880   3.016   7.300  1.1806 -2.1385 -1.1463
 8050SOL    HW235784   0.906   2.896   7.394 -0.2956 -0.2594  2.3612
 8051SOL     OW35785   2.016   4.268  14.153  0.2272 -0.3640 -0.6913
 8051SOL    HW135786   1.968   4.343  14.119 -0.9063 -1.9596 -2.5383
 8051SOL    HW235787   1.967   4.246  14.232  0.4749  0.7225 -0.2300
 8052SOL     OW35788   0.235   3.163   8.681 -0.1898 -0.7666  0.3252
 8052SOL    HW135789   0.206   3.123   8.599 -0.8147 -0.3018  0.3157
 8052SOL    HW235790   0.244   3.256   8.660 -0.2316 -0.9896 -0.7078
 8053SOL     OW35791   3.740   2.356  17.132  0.0167 -0.9933  0.4291
 8053SOL    HW135792   3.746   2.438  17.180  2.2484 -0.0169 -1.5502
 8053SOL    HW235793   3.824   2.316  17.155  2.2019  2.2803 -1.9156
 8054SOL     OW35794   3.105   1.766   2.865  0.7296 -0.1010  0.2874
 8054SOL    HW135795   3.079   1.840   2.920 -0.7068 -0.4492  0.0744
 8054SOL    HW235796   3.199   1.761   2.885  0.6115 -1.6236  0.4331
 8055SOL     OW35797   1.440   3.107   8.801  0.2959 -0.6692 -0.0759
 8055SOL    HW135798   1.489   3.147   8.873 -2.8774 -0.3021  1.8976
 8055SOL    HW235799   1.513   3.086   8.742  1.9486  0.7472  1.4590
 8056SOL     OW35800   3.198   0.472   0.221 -0.2219  0.2210  0.1842
 8056SOL    HW135801   3.117   0.498   0.178 -1.4341 -1.5291  1.4069
 8056SOL    HW235802   3.273   0.498   0.167 -0.6020 -0.7957 -0.8036
 8057SOL     OW35803   2.520   0.951  10.551  0.3974 -0.3962 -0.3898
 8057SOL    HW135804   2.436   0.952  10.506 -0.6960  0.1418  1.6378
 8057SOL    HW235805   2.526   0.856  10.565  0.9564 -0.1148  1.3191
 8058SOL     OW35806   1.187   1.801  10.190  0.3313  0.1571 -0.0410
 8058SOL    HW135807   1.265   1.800  10.244 -0.0247  2.8314  0.5396
 8058SOL    HW235808   1.119   1.808  10.257  0.3976 -0.1469  0.0595
 8059SOL     OW35809   1.726   2.058   6.654 -1.0985 -0.6223  0.2165
 8059SOL    HW135810   1.784   2.118   6.606 -0.8041 -0.3521  0.9059
 8059SOL    HW235811   1.791   1.988   6.651  1.1396  1.4508  0.1582
 8060SOL     OW35812   2.882   3.648  12.895  0.6284  0.1230 -0.2399
 8060SOL    HW135813   2.893   3.564  12.938  0.5688  0.1159 -0.2383
 8060SOL    HW235814   2.968   3.685  12.913  0.0001  0.5145  1.9769
 8061SOL     OW35815   2.063   3.690  17.710  0.3761 -0.2675 -0.1116
 8061SOL    HW135816   1.976   3.662  17.681  0.0707  1.0083 -0.4586
 8061SOL    HW235817   2.114   3.614  17.682 -0.0593 -0.8246  0.6090
 8062SOL     OW35818   0.774   3.523   9.829 -0.0578  0.1887 -0.8318
 8062SOL    HW135819   0.700   3.506   9.771  1.2608 -2.8365 -1.5932
 8062SOL    HW235820   0.832   3.584   9.784 -0.2914  0.9144 -0.1590
 8063SOL     OW35821   3.290   3.558   4.824 -0.0136 -0.3743  0.1351
 8063SOL    HW135822   3.229   3.580   4.895 -0.0059  0.2984 -0.0656
 8063SOL    HW235823   3.344   3.495   4.872  1.5120  1.3594  0.6724
 8064SOL     OW35824   0.604   1.157   6.489  0.1421 -0.2709 -0.4277
 8064SOL    HW135825   0.696   1.179   6.476 -0.7586  1.7904 -3.3829
 8064SOL    HW235826   0.608   1.113   6.574  1.2664  3.1853  1.3229
 8065SOL     OW35827   1.132   4.618   6.768  0.1063 -0.1739  0.4542
 8065SOL    HW135828   1.123   4.565   6.847 -0.7283 -0.0960  0.4096
 8065SOL    HW235829   1.048   4.619   6.722 -0.1845 -1.1352  0.9792
 8066SOL     OW35830   3.248   3.153   3.261  0.3329  0.4126 -0.1946
 8066SOL    HW135831   3.264   3.116   3.174 -1.8316 -1.0555  0.0327
 8066SOL    HW235832   3.326   3.208   3.265  0.8910 -0.6381  2.6739
 8067SOL     OW35833   0.909   2.235   2.543 -0.0863 -0.3305 -0.3537
 8067SOL    HW135834   0.941   2.267   2.628  0.6931 -0.5458 -0.5628
 8067SOL    HW235835   0.993   2.253   2.500  0.4839 -1.2111  0.3887
 8068SOL     OW35836   1.187   2.845  15.089  0.3750  0.2229 -0.1087
 8068SOL    HW135837   1.267   2.816  15.045  1.0448  0.7972  0.7362
 8068SOL    HW235838   1.120   2.804  15.034 -0.9881 -0.3019  1.9791
 8069SOL     OW35839   2.295   4.431   8.949  1.0164 -0.3474 -0.3824
 8069SOL    HW135840   2.303   4.350   8.898 -2.4475 -1.4308  0.8579
 8069SOL    HW235841   2.239   4.481   8.889  0.7082  0.3739  0.5090
 8070SOL     OW35842   4.037   2.009   6.170 -0.1220 -0.5353  0.4148
 8070SOL    HW135843   4.115   1.955   6.158  0.7646  1.0367 -0.7870
 8070SOL    HW235844   4.014   2.031   6.080 -1.1911  2.2110  1.3557
 8071SOL     OW35845   1.867   0.697  17.515  0.1983 -0.2239 -0.3001
 8071SOL    HW135846   1.900   0.624  17.463  0.7651  1.2107 -1.9357
 8071SOL    HW235847   1.924   0.774  17.510  0.1224 -0.2573 -1.5394
 8072SOL     OW35848   4.413   2.041   9.374  0.2312  0.0479 -0.8827
 8072SOL    HW135849   4.499   2.048   9.334  0.1987 -0.1201 -0.9820
 8072SOL    HW235850   4.405   2.132   9.402  1.2633 -0.4696  1.1722
 8073SOL     OW35851   0.008   3.557   0.610 -0.2276  0.0409  0.0083
 8073SOL    HW135852   0.026   3.570   0.516  2.4892  0.1398  0.5471
 8073SOL    HW235853   0.034   3.466   0.623 -3.8518 -0.8892  0.7211
 8074SOL     OW35854   1.647   4.566  12.851  0.0896 -0.4929 -0.3409
 8074SOL    HW135855   1.588   4.620  12.903  2.0681 -0.2830  1.6815
 8074SOL    HW235856   1.605   4.565  12.765 -2.0124 -0.3429  0.7044
 8075SOL     OW35857   4.343   2.342   2.101  0.2165  0.3035  0.7607
 8075SOL    HW135858   4.316   2.334   2.192 -0.4499  2.3524  0.7490
 8075SOL    HW235859   4.430   2.304   2.105  0.8718  1.7324  0.1820
 8076SOL     OW35860   1.398   0.368   2.105  0.4146 -0.0812 -0.4134
 8076SOL    HW135861   1.377   0.387   2.196  0.7665  0.1903 -0.3881
 8076SOL    HW235862   1.318   0.343   2.059  1.3901 -1.6278 -1.3081
 8077SOL     OW35863   3.676   2.351   9.193  0.2386 -0.0364 -0.0218
 8077SOL    HW135864   3.586   2.373   9.172 -0.2407 -2.0560 -0.1044
 8077SOL    HW235865   3.668   2.256   9.203  2.3383 -0.2183  0.0439
 8078SOL     OW35866   1.712   2.557  15.018 -0.1074 -0.4182 -0.4094
 8078SOL    HW135867   1.723   2.530  15.109 -1.5247 -1.8719 -0.6708
 8078SOL    HW235868   1.623   2.526  15.003 -0.5310  1.1374 -1.1068
 8079SOL     OW35869   4.720   2.318   2.191  0.0158 -0.1146  0.2420
 8079SOL    HW135870   4.692   2.401   2.230 -0.8146 -0.2379 -0.0917
 8079SOL    HW235871   0.056   2.349   2.132  0.1748 -2.0389 -0.5616
 8080SOL     OW35872   0.512   3.145   8.634 -0.8026 -0.1854 -0.8108
 8080SOL    HW135873   0.539   3.226   8.678  0.4009 -1.5922  1.0242
 8080SOL    HW235874   0.433   3.121   8.681 -0.6718 -0.1414 -0.5672
 8081SOL     OW35875   3.075   0.891   4.618  0.3827  0.3558  0.1489
 8081SOL    HW135876   3.062   0.986   4.622 -1.3700  0.1716 -1.3114
 8081SOL    HW235877   3.090   0.877   4.524  0.8697 -0.6276  0.3728
 8082SOL     OW35878   0.746   4.566  10.077  0.8918  1.0278 -0.4484
 8082SOL    HW135879   0.831   4.609  10.070  0.2552  2.4889  0.7505
 8082SOL    HW235880   0.697   4.641  10.111  0.9235 -0.1826  2.3319
 8083SOL     OW35881   1.335   1.246  16.891 -0.0225  0.5821  0.1660
 8083SOL    HW135882   1.367   1.323  16.844  0.5183  0.0757 -0.2914
 8083SOL    HW235883   1.371   1.246  16.980 -1.5892  1.8125  0.7942
 8084SOL     OW35884   1.626   3.859   7.033  0.1036  0.2314  0.3004
 8084SOL    HW135885   1.705   3.804   7.036 -2.2091 -3.0050  1.3859
 8084SOL    HW235886   1.667   3.943   7.014  1.0750 -0.5223 -0.9307
 8085SOL     OW35887   1.171   3.888  16.768  0.6133  0.3614 -0.4945
 8085SOL    HW135888   1.120   3.867  16.690  0.9775 -0.0463 -0.6260
 8085SOL    HW235889   1.235   3.945  16.727  0.3400  1.7703  1.0077
 8086SOL     OW35890   0.041   3.287   0.618  0.2177  0.0179  0.5050
 8086SOL    HW135891   4.684   3.259   0.636  0.0719 -0.6839 -1.3583
 8086SOL    HW235892   0.074   3.233   0.547 -0.6746 -0.3292  0.3588
 8087SOL     OW35893   1.495   0.601   5.219  0.0830  0.2142 -0.0982
 8087SOL    HW135894   1.493   0.534   5.287  1.3902  2.5196  2.2723
 8087SOL    HW235895   1.532   0.676   5.267 -1.8694 -0.0378  1.7666
 8088SOL     OW35896   3.134   2.706   1.204  0.6976  0.2424  0.5063
 8088SOL    HW135897   3.162   2.784   1.253  0.7753  0.3703  0.2572
 8088SOL    HW235898   3.042   2.706   1.232  0.7912  0.0404  0.8152
 8089SOL     OW35899   3.979   2.670   1.940  0.8286 -0.4195  0.4632
 8089SOL    HW135900   3.954   2.742   1.998  1.0911  0.5313 -0.5858
 8089SOL    HW235901   4.062   2.640   1.976  0.4399 -2.0884 -0.0740
 8090SOL     OW35902   0.029   3.109   7.244 -0.0217  0.2713  0.3234
 8090SOL    HW135903   0.087   3.042   7.281 -1.2320  0.4550  2.5570
 8090SOL    HW235904   4.722   3.051   7.178  0.1213  1.2627 -0.6303
 8091SOL     OW35905   3.510   2.328   4.643 -0.1082  0.1548  0.3842
 8091SOL    HW135906   3.581   2.329   4.706 -2.4819  2.1683  3.0017
 8091SOL    HW235907   3.474   2.240   4.657 -2.6359  0.9167 -1.2997
 8092SOL     OW35908   0.556   0.703   4.858  0.9700  0.2283 -0.2035
 8092SOL    HW135909   0.636   0.654   4.875 -0.0855 -0.2413  3.3303
 8092SOL    HW235910   0.520   0.718   4.945 -0.5767 -1.2997 -0.5858
 8093SOL     OW35911   3.030   3.019   1.819 -0.2301  0.4161  0.4323
 8093SOL    HW135912   2.939   3.043   1.800 -0.3258 -0.5935 -0.3933
 8093SOL    HW235913   3.029   2.951   1.751  0.1994  2.3253 -1.4676
 8094SOL     OW35914   2.276   4.551   5.709 -0.6160  0.3768  0.6278
 8094SOL    HW135915   2.340   4.567   5.778 -0.9259 -3.4187  1.7854
 8094SOL    HW235916   2.307   4.613   5.644 -1.8102  2.5116  2.0878
 8095SOL     OW35917   2.940   3.779  16.525  0.1340  0.3012 -0.1832
 8095SOL    HW135918   2.861   3.746  16.481  0.7439 -1.0961 -0.2610
 8095SOL    HW235919   2.912   3.798  16.614  1.0259  1.6651 -0.2058
 8096SOL     OW35920   2.069   4.572   8.821  0.4901  0.1805  0.2209
 8096SOL    HW135921   2.031   4.659   8.833 -0.6391  0.0869 -2.6895
 8096SOL    HW235922   2.021   4.520   8.885  0.3684 -3.5606 -2.8964
 8097SOL     OW35923   4.697   3.180   8.100  0.3415  0.4211  0.1160
 8097SOL    HW135924   4.606   3.149   8.104 -0.1808  2.0435  0.5838
 8097SOL    HW235925   4.712   3.159   8.008 -1.8037  0.6276 -0.2875
 8098SOL     OW35926   1.814   0.207   7.095  0.1683  0.2689  0.0159
 8098SOL    HW135927   1.889   0.234   7.043 -1.2628 -0.2256 -2.3115
 8098SOL    HW235928   1.836   0.228   7.186  0.1606  1.3624 -0.2350
 8099SOL     OW35929   1.777   4.407   0.803 -0.2205  0.0389 -0.1526
 8099SOL    HW135930   1.767   4.424   0.897  0.2590 -2.1355  0.3075
 8099SOL    HW235931   1.763   4.312   0.800  0.1082 -0.0064 -0.1755
 8100SOL     OW35932   2.362   0.076   8.978  0.3240 -0.4844 -0.2918
 8100SOL    HW135933   2.274   0.046   9.004  0.6000  1.5936  3.1315
 8100SOL    HW235934   2.343   0.168   8.960 -0.8302 -0.8892 -1.1814
 8101SOL     OW35935   0.528   3.736  14.649  0.2301  0.5554  0.4949
 8101SOL    HW135936   0.583   3.772  14.580  1.1001  2.0920  1.9774
 8101SOL    HW235937   0.490   3.805  14.704 -1.2904  2.0382 -2.3883
 8102SOL     OW35938   0.979   0.710   1.261  0.2087  0.2193  0.4259
 8102SOL    HW135939   1.057   0.734   1.311  0.8004 -0.2854 -0.2657
 8102SOL    HW235940   1.008   0.623   1.233 -0.1589 -0.1632  1.2077
 8103SOL     OW35941   0.475   0.016   8.753 -0.3636 -0.4464  0.3144
 8103SOL    HW135942   0.421   4.678   8.789  0.8087 -1.3295  0.3615
 8103SOL    HW235943   0.501   4.701   8.673  0.6786 -1.1520  1.0810
 8104SOL     OW35944   4.511   1.946   4.654 -0.3790 -0.0977 -0.3634
 8104SOL    HW135945   4.514   1.990   4.569  1.1167 -2.6449 -1.6544
 8104SOL    HW235946   4.527   2.022   4.708  1.3756 -0.2893 -0.6186
 8105SOL     OW35947   1.383   3.805   2.158  0.1687 -0.0279  0.0697
 8105SOL    HW135948   1.374   3.899   2.174  2.8145  0.1666  0.4671
 8105SOL    HW235949   1.348   3.772   2.241 -0.6501  3.0370  0.9273
 8106SOL     OW35950   0.235   4.002  12.504  0.1771  0.0966  0.2658
 8106SOL    HW135951   0.257   3.909  12.506 -0.8364 -0.1814 -1.6482
 8106SOL    HW235952   0.302   4.029  12.442 -0.6200  0.4928 -0.4330
 8107SOL     OW35953   3.094   3.990  13.609  0.1855 -0.9156 -0.4142
 8107SOL    HW135954   3.072   3.921  13.671  0.1157  0.2813  0.9124
 8107SOL    HW235955   3.181   3.958  13.586 -0.2633 -1.6453 -1.0581
 8108SOL     OW35956   0.503   1.696  11.442 -0.0762  0.3554  0.0392
 8108SOL    HW135957   0.576   1.694  11.504 -1.7300 -1.3735  1.9138
 8108SOL    HW235958   0.559   1.698  11.364  1.3811  1.7499  1.1116
 8109SOL     OW35959   2.033   3.428   6.826  1.0455  0.1652  0.6227
 8109SOL    HW135960   1.949   3.382   6.821  1.0391  0.1913  0.5018
 8109SOL    HW235961   2.088   3.390   6.757  1.0989 -0.6874  1.1341
 8110SOL     OW35962   1.454   0.804   5.476  0.2156 -0.0715  0.2782
 8110SOL    HW135963   1.374   0.811   5.528  0.2900 -0.5023  0.4447
 8110SOL    HW235964   1.469   0.710   5.480  0.1243 -0.0402  1.2565
 8111SOL     OW35965   0.196   3.604   1.986  0.0146  0.5110 -0.0408
 8111SOL    HW135966   0.113   3.588   2.032  0.1672  0.7913  0.3316
 8111SOL    HW235967   0.262   3.573   2.047  1.7030  1.1662 -1.5224
 8112SOL     OW35968   2.875   3.364   4.573 -0.0004 -0.2195 -0.2761
 8112SOL    HW135969   2.850   3.363   4.665  0.1651  2.6942 -0.1763
 8112SOL    HW235970   2.963   3.401   4.571 -0.1314  0.1378  0.6940
 8113SOL     OW35971   3.200   2.761   0.425 -0.2701  0.2866  0.1754
 8113SOL    HW135972   3.290   2.764   0.457  0.1646 -1.6108 -0.8716
 8113SOL    HW235973   3.206   2.704   0.348  3.0952 -0.2792  0.8664
 8114SOL     OW35974   3.773   3.980   5.507 -0.7486  0.7990 -0.3616
 8114SOL    HW135975   3.763   4.000   5.414  0.6893  0.2312 -0.6435
 8114SOL    HW235976   3.848   4.035   5.530 -0.4766 -0.0381  0.7467
 8115SOL     OW35977   3.654   2.935   5.094  0.4336 -0.0810 -0.2012
 8115SOL    HW135978   3.579   2.894   5.135 -0.6579  0.4700 -1.6510
 8115SOL    HW235979   3.627   2.936   5.002  0.2428 -0.4913 -0.1501
 8116SOL     OW35980   0.859   2.646   3.632  0.0553  0.2061  0.2362
 8116SOL    HW135981   0.937   2.701   3.631  0.4415 -0.3654 -1.4352
 8116SOL    HW235982   0.889   2.571   3.682  2.1917  0.9685  0.0744
 8117SOL     OW35983   4.191   0.805   3.547 -0.0083  0.1771  0.3250
 8117SOL    HW135984   4.206   0.755   3.627 -2.6136 -0.4645  0.4076
 8117SOL    HW235985   4.126   0.752   3.502 -0.6379 -0.4497  1.9898
 8118SOL     OW35986   3.306   1.769  14.241 -0.2151 -0.3415  0.5390
 8118SOL    HW135987   3.248   1.706  14.283  1.1017 -2.5190 -0.9619
 8118SOL    HW235988   3.388   1.738  14.280  0.0260  0.2406  0.4961
 8119SOL     OW35989   0.685   1.364   6.103  0.0159  0.6828  0.6131
 8119SOL    HW135990   0.665   1.280   6.144  1.0432 -0.6219 -1.5400
 8119SOL    HW235991   0.710   1.334   6.015  1.2474  1.2523  0.7610
 8120SOL     OW35992   0.844   1.730   5.290 -0.6409  0.3360  0.2245
 8120SOL    HW135993   0.819   1.701   5.202 -0.5427 -2.1072  1.0078
 8120SOL    HW235994   0.818   1.822   5.283 -0.7659  0.2555 -0.4024
 8121SOL     OW35995   3.121   0.711  16.345  0.1213 -0.0539  0.0485
 8121SOL    HW135996   3.140   0.674  16.431  0.7813  1.7092  0.6594
 8121SOL    HW235997   3.205   0.732  16.306 -0.7850 -0.0002 -1.8909
 8122SOL     OW35998   1.391   0.898  11.418  0.0170 -0.3978 -0.1405
 8122SOL    HW135999   1.449   0.868  11.347  0.0367 -0.4934 -0.0831
 8122SOL    HW236000   1.303   0.896  11.380 -0.7521  0.2762  1.6244
 8123SOL     OW36001   1.324   3.497   6.404 -0.4678 -0.1331 -0.4605
 8123SOL    HW136002   1.393   3.523   6.342 -0.0211 -0.5220 -0.1210
 8123SOL    HW236003   1.276   3.578   6.388  1.5855  1.2983  0.6580
 8124SOL     OW36004   1.661   4.231  12.585  0.4135 -0.2593  0.5417
 8124SOL    HW136005   1.686   4.299  12.523 -0.8686  2.3080  2.8190
 8124SOL    HW236006   1.566   4.234  12.573  0.3869 -0.7423  0.6402
 8125SOL     OW36007   4.360   3.532   4.760 -0.0886 -0.3402 -0.0175
 8125SOL    HW136008   4.366   3.539   4.665  1.3070  0.2364  0.1143
 8125SOL    HW236009   4.308   3.454   4.782  0.2568 -0.5442  0.0738
 8126SOL     OW36010   3.388   3.972  11.154  0.0017 -0.1719  0.2281
 8126SOL    HW136011   3.396   3.985  11.060  2.3538 -0.2349  0.4115
 8126SOL    HW236012   3.402   4.060  11.190 -1.5990  0.3031 -0.3380
 8127SOL     OW36013   3.969   2.614   2.571  0.0227  0.1504 -0.4009
 8127SOL    HW136014   3.921   2.659   2.640 -0.6054 -1.7005  0.3639
 8127SOL    HW236015   4.022   2.687   2.538  0.3038  0.9180  1.7713
 8128SOL     OW36016   4.193   0.102  16.264 -0.8760 -0.0590 -0.5312
 8128SOL    HW136017   4.233   0.098  16.176 -2.6341 -1.7827 -1.2441
 8128SOL    HW236018   4.257   0.155  16.312 -0.0715 -0.3410 -1.2871
 8129SOL     OW36019   0.633   4.044   0.557  0.0483  0.1339  0.4089
 8129SOL    HW136020   0.616   4.066   0.465  1.0294  2.9714  0.9164
 8129SOL    HW236021   0.660   3.952   0.558 -0.0951  0.0798 -0.3400
 8130SOL     OW36022   1.574   2.364  16.924 -0.5731 -0.1507 -0.1469
 8130SOL    HW136023   1.648   2.394  16.976  1.4190 -1.8041 -1.9525
 8130SOL    HW236024   1.525   2.446  16.925  1.2847  0.9731 -0.8407
 8131SOL     OW36025   2.505   1.679  16.295 -0.0537  0.3432  0.4142
 8131SOL    HW136026   2.434   1.621  16.325  1.5373 -2.0617 -0.4075
 8131SOL    HW236027   2.533   1.628  16.218  0.3899  0.3157  0.5964
 8132SOL     OW36028   2.309   3.056   2.029  0.3696 -0.0211 -0.5656
 8132SOL    HW136029   2.291   2.984   2.090 -0.9976  0.1228 -0.8012
 8132SOL    HW236030   2.399   3.085   2.046  0.2816 -0.0395 -0.0520
 8133SOL     OW36031   2.890   4.355  10.908  0.8040 -0.6836 -0.5954
 8133SOL    HW136032   2.889   4.265  10.878  3.5634 -0.2472 -2.0422
 8133SOL    HW236033   2.935   4.397  10.834 -0.1651  0.6644 -0.4325
 8134SOL     OW36034   2.839   0.781   6.878  0.1650 -0.5967  0.3747
 8134SOL    HW136035   2.932   0.773   6.856 -0.3025 -1.7692 -1.2008
 8134SOL    HW236036   2.821   0.689   6.897  0.9180 -0.9492 -0.6038
 8135SOL     OW36037   1.891   1.205  13.121 -0.3454  0.4894  0.4535
 8135SOL    HW136038   1.868   1.277  13.180 -1.7042 -0.9841  1.6971
 8135SOL    HW236039   1.830   1.133  13.137  1.5164 -1.1206  0.2153
 8136SOL     OW36040   0.193   4.399   7.884  0.2360  0.1355 -0.3618
 8136SOL    HW136041   0.152   4.428   7.803  0.6962 -1.1714 -1.0695
 8136SOL    HW236042   0.196   4.305   7.863 -1.3163  0.2733 -1.1652
 8137SOL     OW36043   2.796   1.845  11.258  0.4659  0.2947 -0.8554
 8137SOL    HW136044   2.712   1.838  11.303 -0.4131 -1.7372 -2.8139
 8137SOL    HW236045   2.777   1.897  11.180  1.1531  1.2792 -0.3655
 8138SOL     OW36046   2.581   0.323   5.631 -0.3938 -0.3713 -0.2094
 8138SOL    HW136047   2.493   0.304   5.663 -0.3104  0.7845  0.7025
 8138SOL    HW236048   2.594   0.267   5.554  0.8950 -0.5176  0.1141
 8139SOL     OW36049   0.226   3.495   8.173 -0.4086  0.0597 -0.2783
 8139SOL    HW136050   0.265   3.421   8.219 -0.2168  0.3849  0.0817
 8139SOL    HW236051   0.255   3.566   8.231 -0.8547 -0.8784  1.0979
 8140SOL     OW36052   1.539   3.753   7.805  0.4200  0.5310  0.3163
 8140SOL    HW136053   1.562   3.732   7.714 -0.7821 -3.1423  0.8435
 8140SOL    HW236054   1.505   3.666   7.828 -0.1095  0.4175 -0.8647
 8141SOL     OW36055   1.431   0.572   2.510 -0.5628 -0.0291 -0.0979
 8141SOL    HW136056   1.458   0.637   2.574 -1.2162 -0.9916  1.1606
 8141SOL    HW236057   1.431   0.620   2.427 -3.7784 -0.0428 -0.1366
 8142SOL     OW36058   1.033   2.744   7.431 -1.0852 -0.2939  0.2138
 8142SOL    HW136059   1.022   2.650   7.445 -0.8953 -0.2909  0.3889
 8142SOL    HW236060   1.066   2.739   7.342 -0.6552 -0.8815  0.4024
 8143SOL     OW36061   4.148   3.768   3.060 -0.3325  0.4425 -0.0014
 8143SOL    HW136062   4.162   3.812   3.144 -2.3468  1.4677 -0.2338
 8143SOL    HW236063   4.234   3.781   3.019 -0.5198 -0.1292 -0.5689
 8144SOL     OW36064   3.894   0.233   9.128 -0.1974  0.4843 -0.3630
 8144SOL    HW136065   3.933   0.203   9.046 -0.2263 -1.4608  0.3503
 8144SOL    HW236066   3.888   0.327   9.113 -1.2136  0.2546 -1.3617
 8145SOL     OW36067   1.475   1.334   8.798  0.1554  0.0789  0.1203
 8145SOL    HW136068   1.472   1.393   8.722 -0.6549  0.3268  0.3526
 8145SOL    HW236069   1.410   1.272   8.765 -0.3683  0.7688 -0.1271
 8146SOL     OW36070   2.056   3.697   6.879  0.0412 -0.0739  0.0143
 8146SOL    HW136071   2.041   3.719   6.787  1.1069 -0.1486 -0.1804
 8146SOL    HW236072   2.067   3.603   6.860 -0.2446 -0.5176  2.0994
 8147SOL     OW36073   1.797   2.188  15.909 -0.2725  0.3889  0.2187
 8147SOL    HW136074   1.864   2.222  15.968 -0.3316 -1.2607  1.2391
 8147SOL    HW236075   1.732   2.162  15.975  0.9634  0.3096  1.4094
 8148SOL     OW36076   2.660   0.679   2.351  0.3411  0.2638  0.5250
 8148SOL    HW136077   2.683   0.617   2.282 -0.3625  0.6469 -0.0611
 8148SOL    HW236078   2.625   0.749   2.295 -0.8994 -0.5566  0.2712
 8149SOL     OW36079   4.554   0.295   9.185  0.6182 -0.4880  0.4448
 8149SOL    HW136080   4.489   0.359   9.213  0.4132 -0.4854 -0.0447
 8149SOL    HW236081   4.560   0.310   9.091 -2.4199  0.0945  0.3513
 8150SOL     OW36082   3.776   3.739   1.206 -0.1750 -0.5056 -0.6356
 8150SOL    HW136083   3.844   3.725   1.140  0.6978 -1.4355  0.4639
 8150SOL    HW236084   3.823   3.791   1.270 -1.5458 -1.0334  0.7851
 8151SOL     OW36085   2.103   3.752   2.573 -0.3004  0.1098  0.2420
 8151SOL    HW136086   2.052   3.735   2.493 -1.5103  0.3341  0.9725
 8151SOL    HW236087   2.192   3.722   2.555  0.2163  0.0533  2.9255
 8152SOL     OW36088   1.834   1.724   6.636  0.3114 -0.3418  0.1288
 8152SOL    HW136089   1.767   1.657   6.647 -1.0059  1.0888  0.9237
 8152SOL    HW236090   1.918   1.680   6.648  0.7697 -0.0192 -1.8393
 8153SOL     OW36091   2.937   0.250   3.566  0.5319 -0.4527 -0.1077
 8153SOL    HW136092   2.853   0.203   3.570 -1.4227  3.0482 -0.1678
 8153SOL    HW236093   2.985   0.203   3.498 -1.3592 -0.9305 -1.1135
 8154SOL     OW36094   4.308   3.451   8.441  0.0146  0.0141 -0.3585
 8154SOL    HW136095   4.234   3.413   8.395 -0.8291  0.6448  0.4679
 8154SOL    HW236096   4.264   3.517   8.496 -2.3376 -2.4279  0.6659
 8155SOL     OW36097   2.729   4.171   4.404  0.1033 -0.1621 -0.5868
 8155SOL    HW136098   2.805   4.114   4.418  0.0579 -0.0373  0.1713
 8155SOL    HW236099   2.666   4.142   4.471 -0.0413 -1.4726 -1.2870
 8156SOL     OW36100   2.256   3.434  12.665 -0.3576 -0.3248 -0.3427
 8156SOL    HW136101   2.302   3.515  12.685  0.3840 -0.6735 -0.6513
 8156SOL    HW236102   2.260   3.384  12.746 -0.0727 -0.9847 -0.7644
 8157SOL     OW36103   1.241   0.708   8.791 -0.1105  0.3461  0.7179
 8157SOL    HW136104   1.276   0.633   8.741  0.2593 -0.4713  2.1956
 8157SOL    HW236105   1.160   0.722   8.742  0.7190 -0.3922 -0.8877
 8158SOL     OW36106   3.289   1.413  10.107 -0.0078 -0.0254  0.3147
 8158SOL    HW136107   3.352   1.368  10.052 -2.1627 -0.2700 -1.9896
 8158SOL    HW236108   3.345   1.486  10.134 -1.0403  0.5318  0.9702
 8159SOL     OW36109   4.407   4.187   2.354 -0.2772 -0.2474  0.1520
 8159SOL    HW136110   4.447   4.247   2.291  0.1478 -0.7115 -0.0206
 8159SOL    HW236111   4.463   4.110   2.354 -2.5267 -1.8661  1.1355
 8160SOL     OW36112   4.376   4.144  11.033 -0.0691  0.1265  0.0892
 8160SOL    HW136113   4.343   4.134  11.122  0.9796 -0.5582  0.4032
 8160SOL    HW236114   4.464   4.106  11.035  0.1008  0.5759  1.3798
 8161SOL     OW36115   2.898   0.675  15.258 -0.3396  0.9241 -0.2142
 8161SOL    HW136116   2.987   0.707  15.273 -0.3189  1.4545 -1.5057
 8161SOL    HW236117   2.873   0.729  15.183 -1.2705  0.8739  0.0568
 8162SOL     OW36118   3.142   3.504   6.414  0.2496 -0.4219  0.5068
 8162SOL    HW136119   3.198   3.450   6.469  0.9217 -0.9956 -0.7573
 8162SOL    HW236120   3.208   3.525   6.348  2.3351 -0.6692  2.5305
 8163SOL     OW36121   2.109   1.846   8.400  0.4151 -0.2265  0.0716
 8163SOL    HW136122   2.154   1.930   8.390  1.3301 -0.5620  1.4534
 8163SOL    HW236123   2.111   1.844   8.496  0.6517  0.1469  0.0750
 8164SOL     OW36124   2.247   1.853  14.109 -0.2970  0.2713  0.3297
 8164SOL    HW136125   2.259   1.934  14.059 -0.7614 -0.1370 -0.4498
 8164SOL    HW236126   2.275   1.787  14.045 -1.7726 -2.1740  2.2018
 8165SOL     OW36127   4.013   3.024   6.998  0.3876  0.2945  0.0643
 8165SOL    HW136128   4.085   2.962   6.987  0.2496  0.2650 -0.6962
 8165SOL    HW236129   4.021   3.035   7.093  0.5622 -2.3960  0.3620
 8166SOL     OW36130   3.655   2.063  10.858 -0.1564 -0.2403  0.2037
 8166SOL    HW136131   3.700   2.141  10.825 -0.0384 -0.2361  0.3760
 8166SOL    HW236132   3.583   2.105  10.904 -0.7266 -0.3627 -0.5706
 8167SOL     OW36133   0.318   3.043   5.938  0.0023 -0.2904 -0.3055
 8167SOL    HW136134   0.322   2.984   5.863  0.2254 -3.1624  1.9500
 8167SOL    HW236135   0.257   3.115   5.922  0.3566  0.2279  0.6882
 8168SOL     OW36136   0.674   3.137   4.764 -0.3411  0.5413 -0.1838
 8168SOL    HW136137   0.621   3.065   4.798 -0.8008  0.4115 -1.1477
 8168SOL    HW236138   0.670   3.208   4.828  2.5123  0.5889 -0.0849
 8169SOL     OW36139   1.826   0.587   9.905 -0.5451 -0.0651  0.1151
 8169SOL    HW136140   1.741   0.555   9.876 -1.5768  0.1840  2.9412
 8169SOL    HW236141   1.822   0.576  10.000  0.4789 -2.7757 -0.1723
 8170SOL     OW36142   2.149   3.963   5.177  0.5227  0.3449  0.3091
 8170SOL    HW136143   2.060   3.989   5.150  1.0283 -0.5594 -2.1771
 8170SOL    HW236144   2.161   4.035   5.240 -1.1393  0.7704  0.1631
 8171SOL     OW36145   3.142   2.662  11.699  0.5293  0.4204  0.2000
 8171SOL    HW136146   3.201   2.588  11.715  0.8128  0.4066 -0.9249
 8171SOL    HW236147   3.117   2.671  11.791 -1.3653  2.9975 -0.5831
 8172SOL     OW36148   4.025   4.533  12.513 -0.1968 -0.2471 -0.6139
 8172SOL    HW136149   4.045   4.473  12.440 -0.7832 -1.5796  0.3293
 8172SOL    HW236150   3.930   4.529  12.507 -0.2881 -1.9628  2.3388
 8173SOL     OW36151   3.655   3.537   2.520 -0.2028 -0.2516  0.2576
 8173SOL    HW136152   3.610   3.465   2.475  0.7517 -1.6504  1.5101
 8173SOL    HW236153   3.585   3.601   2.509 -0.7524 -0.6577  1.3342
 8174SOL     OW36154   2.723   0.101   6.761 -0.2394 -0.1677 -0.4716
 8174SOL    HW136155   2.632   0.113   6.733 -0.2641  0.4115 -0.1381
 8174SOL    HW236156   2.707   0.151   6.841  1.6868  0.0832 -0.2354
 8175SOL     OW36157   1.678   4.678   6.350 -0.2210 -0.3032  0.3415
 8175SOL    HW136158   1.758   4.633   6.377  1.7027  2.4066 -0.8816
 8175SOL    HW236159   1.640   4.659   6.436 -2.9447  0.8791 -0.6074
 8176SOL     OW36160   3.703   1.019   8.888  0.2197  0.1699  0.6460
 8176SOL    HW136161   3.701   0.984   8.799  0.8721  2.0836 -0.1356
 8176SOL    HW236162   3.696   0.936   8.935 -0.8276  0.8078  1.6025
 8177SOL     OW36163   0.425   1.860   6.776  0.3382 -0.3772 -0.4623
 8177SOL    HW136164   0.397   1.835   6.688 -0.8928 -0.7520  0.0345
 8177SOL    HW236165   0.518   1.875   6.760  0.5642 -1.5861 -0.3323
 8178SOL     OW36166   2.126   3.509   3.110  0.0816 -0.3022  0.2254
 8178SOL    HW136167   2.097   3.418   3.105 -2.5652  0.6787 -1.9673
 8178SOL    HW236168   2.220   3.489   3.111 -0.3360 -2.2061  1.8454
 8179SOL     OW36169   1.468   1.798  13.274  0.0715 -0.3195  0.1033
 8179SOL    HW136170   1.401   1.730  13.268  0.8820 -1.0864 -0.4771
 8179SOL    HW236171   1.508   1.805  13.187 -0.3859 -0.6949 -0.1389
 8180SOL     OW36172   3.885   0.247   4.612  0.1035 -0.4629  0.2769
 8180SOL    HW136173   3.941   0.192   4.556 -0.3601  0.0541 -0.6949
 8180SOL    HW236174   3.858   0.311   4.546  1.0620  0.0335  0.3688
 8181SOL     OW36175   0.623   3.180  15.648 -0.5365  0.3431 -0.2136
 8181SOL    HW136176   0.529   3.167  15.642 -0.5872 -0.8730  3.3765
 8181SOL    HW236177   0.643   3.111  15.711 -1.2573  0.0787 -0.2842
 8182SOL     OW36178   4.600   1.684   8.646  0.2390  0.6181  0.1282
 8182SOL    HW136179   4.527   1.735   8.610 -0.2044  0.0600  0.2348
 8182SOL    HW236180   4.565   1.615   8.703  1.3533 -0.9766 -1.1006
 8183SOL     OW36181   0.677   1.287   2.718 -0.4712 -0.3757 -0.5831
 8183SOL    HW136182   0.617   1.242   2.658 -0.4917  0.7522 -1.3961
 8183SOL    HW236183   0.731   1.211   2.741  0.2211  0.6977  1.3128
 8184SOL     OW36184   1.533   1.702   6.452  0.0668  0.4772 -0.1658
 8184SOL    HW136185   1.591   1.678   6.380 -0.4894  2.5269 -1.3195
 8184SOL    HW236186   1.572   1.662   6.530 -3.2461 -1.1769  0.6462
 8185SOL     OW36187   2.719   3.066  16.170  0.5612  0.2314  0.8319
 8185SOL    HW136188   2.673   3.137  16.125 -4.0756 -2.2087  1.6830
 8185SOL    HW236189   2.758   3.035  16.088 -0.7646  1.1782 -0.1509
 8186SOL     OW36190   2.394   0.583   5.588  0.0613 -0.3517  0.4893
 8186SOL    HW136191   2.485   0.554   5.589  0.5710  1.2515  1.1880
 8186SOL    HW236192   2.403   0.645   5.661 -0.0178  2.8766 -2.2433
 8187SOL     OW36193   0.354   3.807   4.242 -0.5937 -0.4062  0.3827
 8187SOL    HW136194   0.349   3.869   4.315  1.6858  0.3403 -0.0923
 8187SOL    HW236195   0.350   3.730   4.298 -0.7802 -0.0969  0.7975
 8188SOL     OW36196   2.311   1.011   6.107  0.1687 -0.4508  0.4721
 8188SOL    HW136197   2.337   1.019   6.199 -0.7668 -0.2822  0.7234
 8188SOL    HW236198   2.222   1.046   6.116 -0.9268 -3.7814  2.6806
 8189SOL     OW36199   1.146   2.585   4.917  0.0863 -0.0136 -0.4456
 8189SOL    HW136200   1.139   2.674   4.882 -1.1624 -0.1666 -0.5819
 8189SOL    HW236201   1.150   2.534   4.836  0.3927 -4.2001  2.1855
 8190SOL     OW36202   3.780   4.539   7.365  0.5688  0.0482  0.6949
 8190SOL    HW136203   3.789   4.613   7.426 -0.0563 -0.7956  1.8180
 8190SOL    HW236204   3.773   4.460   7.418 -2.0138  0.1981  0.5727
 8191SOL     OW36205   3.133   0.077  13.286  0.1835 -0.2447 -0.3658
 8191SOL    HW136206   3.106   0.059  13.376  0.9177 -0.5272 -0.2008
 8191SOL    HW236207   3.050   0.081  13.238 -0.5501  2.1036  1.0772
 8192SOL     OW36208   3.003   2.977   7.519 -0.1160  0.0199 -0.0647
 8192SOL    HW136209   2.959   2.922   7.584  0.8832  0.0635  0.6313
 8192SOL    HW236210   3.077   2.920   7.500 -1.5740 -2.0407  0.3953
 8193SOL     OW36211   1.669   2.041   7.227  0.0345  0.3090 -0.2311
 8193SOL    HW136212   1.702   2.084   7.306 -2.8645 -0.7733  1.5690
 8193SOL    HW236213   1.626   2.118   7.191 -0.4818  0.3931  0.5841
 8194SOL     OW36214   3.797   1.592   6.757 -0.1569  0.1504 -0.0313
 8194SOL    HW136215   3.784   1.529   6.828 -1.5088 -1.0901 -1.3634
 8194SOL    HW236216   3.865   1.639   6.804  0.8380 -0.9855 -0.3309
 8195SOL     OW36217   1.428   3.801   3.105  0.2478 -0.1429 -0.2767
 8195SOL    HW136218   1.504   3.849   3.137  0.4617 -1.2003  0.8117
 8195SOL    HW236219   1.362   3.869   3.097 -1.8457 -2.3300 -1.8149
 8196SOL     OW36220   1.333   0.197   7.125  0.2345  0.1899 -0.2926
 8196SOL    HW136221   1.416   0.243   7.136  1.3269 -2.1813  1.3404
 8196SOL    HW236222   1.272   0.239   7.186  2.8891  0.2964  2.3157
 8197SOL     OW36223   3.067   3.581   3.221  0.4364  0.1549  0.9296
 8197SOL    HW136224   3.047   3.509   3.281  0.2308 -0.6022 -0.0419
 8197SOL    HW236225   2.977   3.607   3.204  0.6173 -0.1169 -0.4701
 8198SOL     OW36226   3.098   2.499   5.799 -0.3697  0.2134 -0.6750
 8198SOL    HW136227   3.038   2.514   5.873  0.8858 -0.1295  0.4016
 8198SOL    HW236228   3.050   2.432   5.751  0.3021 -0.2529 -0.6925
 8199SOL     OW36229   1.488   2.349  14.041 -0.3921  0.4229  0.1530
 8199SOL    HW136230   1.544   2.308  13.975 -2.1481 -0.1153 -1.0000
 8199SOL    HW236231   1.547   2.390  14.104 -1.1592 -1.3698  2.0449
 8200SOL     OW36232   1.210   2.486   3.907 -0.1652  0.0819 -0.1581
 8200SOL    HW136233   1.243   2.399   3.887  0.0290 -0.1586  1.1599
 8200SOL    HW236234   1.196   2.531   3.824  0.6319 -0.5880 -0.6504
 8201SOL     OW36235   2.982   1.457   4.421 -0.0920  0.2343  0.5083
 8201SOL    HW136236   2.984   1.483   4.329  0.6374  0.8909  0.7031
 8201SOL    HW236237   2.972   1.542   4.464  0.1451  1.2607 -1.4893
 8202SOL     OW36238   2.224   2.212  12.833 -0.2412 -0.1585 -0.2533
 8202SOL    HW136239   2.234   2.255  12.748  1.9066 -3.1585 -1.5107
 8202SOL    HW236240   2.240   2.281  12.898  1.8191 -0.5621 -0.3283
 8203SOL     OW36241   1.701   1.303   7.581  0.0819  0.1811  0.4790
 8203SOL    HW136242   1.724   1.253   7.503 -2.8835  0.6577 -0.6823
 8203SOL    HW236243   1.789   1.338   7.597  0.3517 -0.6358  0.7980
 8204SOL     OW36244   3.791   4.233  16.607 -0.5779 -0.0920  0.0433
 8204SOL    HW136245   3.845   4.160  16.577  0.5547  1.0013 -0.5707
 8204SOL    HW236246   3.836   4.313  16.578  0.3647 -0.8464 -0.5993
 8205SOL     OW36247   0.164   1.095   7.605  0.6632  0.8844  0.0739
 8205SOL    HW136248   0.217   1.048   7.671  0.0697 -0.2805 -0.2802
 8205SOL    HW236249   0.202   1.073   7.520 -0.6206  2.8255 -0.9857
 8206SOL     OW36250   0.742   2.508   2.585  0.1127  0.3861 -0.4266
 8206SOL    HW136251   0.802   2.442   2.619 -1.1017  0.1926  1.3724
 8206SOL    HW236252   0.697   2.525   2.668 -2.0872  0.5945 -1.6560
 8207SOL     OW36253   3.203   2.741   6.549 -0.1005 -0.3727  0.1085
 8207SOL    HW136254   3.220   2.772   6.460  0.0201  1.9671  0.9512
 8207SOL    HW236255   3.123   2.787   6.573 -0.0780 -0.1286 -0.2854
 8208SOL     OW36256   3.738   2.174   2.224 -0.4358  0.0405  0.2124
 8208SOL    HW136257   3.683   2.096   2.217 -2.3025  1.3222  0.4486
 8208SOL    HW236258   3.818   2.138   2.184 -1.1316  1.6596 -2.6919
 8209SOL     OW36259   0.520   0.228   8.491 -0.4926 -0.0331  0.2063
 8209SOL    HW136260   0.519   0.141   8.532  0.0598 -0.2952 -0.3437
 8209SOL    HW236261   0.611   0.251   8.511  0.6309 -2.8146 -1.7866
 8210SOL     OW36262   2.769   2.170  15.754 -0.0010  0.3127  0.2263
 8210SOL    HW136263   2.805   2.175  15.665 -1.4998 -2.7018 -0.5396
 8210SOL    HW236264   2.678   2.184  15.729 -0.1114 -2.6362 -1.0002
 8211SOL     OW36265   1.964   0.869   2.572 -0.4056  0.3577  0.1311
 8211SOL    HW136266   1.896   0.937   2.569 -0.0344  0.7540  0.8506
 8211SOL    HW236267   1.916   0.795   2.608 -0.4771  0.6261  0.5826
 8212SOL     OW36268   4.652   4.324   4.020 -0.1694 -0.4024 -0.3941
 8212SOL    HW136269   4.730   4.378   4.027 -2.3125  2.5801  0.7783
 8212SOL    HW236270   4.698   4.241   4.027  0.5175 -0.0473 -0.6501
 8213SOL     OW36271   0.857   1.605   5.644  0.6143  0.4096 -0.2306
 8213SOL    HW136272   0.917   1.643   5.580  0.4592  0.4712 -0.3412
 8213SOL    HW236273   0.910   1.589   5.721 -1.3714 -0.8981  0.8812
 8214SOL     OW36274   3.858   4.017   5.966 -0.4307  0.2093 -0.2661
 8214SOL    HW136275   3.932   4.077   5.963  1.0387 -1.4822  2.2101
 8214SOL    HW236276   3.871   3.969   6.048 -0.6696  0.0676 -0.3111
 8215SOL     OW36277   2.680   2.961   4.536 -0.0867  0.1460 -0.2201
 8215SOL    HW136278   2.767   2.922   4.545 -0.6486 -1.5424 -2.1839
 8215SOL    HW236279   2.705   3.034   4.479  3.4773  2.3538  4.1977
 8216SOL     OW36280   3.035   4.576  13.072  0.4373 -0.0099 -0.5071
 8216SOL    HW136281   3.117   4.602  13.029  0.6378 -3.3786 -2.1795
 8216SOL    HW236282   3.047   4.619  13.156  1.2004 -0.6303 -0.3070
 8217SOL     OW36283   4.033   3.569   6.220 -0.4026 -0.1556 -0.9617
 8217SOL    HW136284   3.998   3.598   6.136 -0.9493  2.4468  0.1606
 8217SOL    HW236285   3.953   3.542   6.266 -0.7109  0.9814 -0.8292
 8218SOL     OW36286   3.648   2.882   9.113 -0.3612  0.2625  0.2712
 8218SOL    HW136287   3.558   2.908   9.133  0.1510  1.6289  0.7803
 8218SOL    HW236288   3.686   2.969   9.100 -2.7717  1.2515 -0.1530
 8219SOL     OW36289   2.732   1.073   7.994 -0.2999 -0.1354 -0.2511
 8219SOL    HW136290   2.678   1.015   8.048 -0.0834  0.8997  1.0793
 8219SOL    HW236291   2.729   1.155   8.044  1.7157  0.8667 -1.7800
 8220SOL     OW36292   1.741   1.280   8.719  0.0919  0.2686  0.2783
 8220SOL    HW136293   1.725   1.366   8.680 -0.4072  0.5521  1.1116
 8220SOL    HW236294   1.659   1.273   8.769 -1.1860 -0.9167 -1.9597
 8221SOL     OW36295   2.293   0.243   8.739  0.2353 -0.2187  0.0270
 8221SOL    HW136296   2.200   0.225   8.746  0.0462  0.7085 -0.0757
 8221SOL    HW236297   2.326   0.185   8.671  2.0366  1.4884 -0.5804
 8222SOL     OW36298   2.862   0.858   9.841  0.1298 -0.1585 -0.0829
 8222SOL    HW136299   2.923   0.790   9.870  3.3032  1.9485 -1.8290
 8222SOL    HW236300   2.843   0.884   9.931  2.4508  1.4298 -0.0584
 8223SOL     OW36301   0.176   0.173   2.088 -0.2345 -0.0503 -0.5559
 8223SOL    HW136302   0.187   0.138   2.000 -0.6285  0.0980 -0.6646
 8223SOL    HW236303   0.098   0.227   2.080  0.3955  0.8079 -0.8865
 8224SOL     OW36304   2.116   1.960   4.532 -0.5726  0.2725 -0.0180
 8224SOL    HW136305   2.153   1.897   4.593 -0.4674 -0.8996 -1.2926
 8224SOL    HW236306   2.116   1.898   4.460 -2.0176  1.2254 -0.8533
 8225SOL     OW36307   1.375   2.819  14.867 -0.1238  0.2481  0.2584
 8225SOL    HW136308   1.338   2.848  14.784 -1.4955  1.7364  1.4184
 8225SOL    HW236309   1.434   2.751  14.833 -0.8353 -1.5704  2.6872
 8226SOL     OW36310   4.414   2.279  16.815  0.3440  0.5133  0.3028
 8226SOL    HW136311   4.355   2.307  16.886 -0.3389  1.3592 -0.5956
 8226SOL    HW236312   4.467   2.358  16.804 -0.7964  1.2686  0.1546
 8227SOL     OW36313   1.501   0.197   4.680  0.1328 -0.0502 -0.2003
 8227SOL    HW136314   1.463   0.188   4.768  0.3653  0.0855 -0.0855
 8227SOL    HW236315   1.499   0.108   4.645 -3.4529 -0.1865  0.3341
 8228SOL     OW36316   1.175   0.086  11.153 -0.1924  0.0311 -0.6784
 8228SOL    HW136317   1.246   0.150  11.150 -0.4108  0.2465 -1.2281
 8228SOL    HW236318   1.185   0.046  11.239 -0.9372  0.7279 -0.2628
 8229SOL     OW36319   2.703   2.357  17.168  0.0021  0.3269  0.4928
 8229SOL    HW136320   2.608   2.351  17.159  0.0342  1.3588 -0.5370
 8229SOL    HW236321   2.742   2.297  17.105  1.8862  1.5609  0.4812
 8230SOL     OW36322   4.129   1.375   9.779 -0.2405 -0.1666 -0.6452
 8230SOL    HW136323   4.097   1.332   9.858 -0.3897 -2.2262 -1.8473
 8230SOL    HW236324   4.127   1.467   9.808  0.6523 -0.3594  0.0532
 8231SOL     OW36325   0.031   1.312   5.607 -0.1609 -0.3815 -0.3154
 8231SOL    HW136326   0.066   1.307   5.696  1.7221 -0.8974 -1.0721
 8231SOL    HW236327   4.730   1.224   5.591 -0.9205 -0.3173  0.9707
 8232SOL     OW36328   0.988   3.710  12.688 -0.1784 -0.0682  0.5095
 8232SOL    HW136329   0.998   3.783  12.627 -1.5252 -0.9342 -0.7371
 8232SOL    HW236330   0.907   3.739  12.732 -0.8181 -0.0343 -0.6964
 8233SOL     OW36331   0.251   2.478   2.411  0.0208 -0.7296  0.1807
 8233SOL    HW136332   0.305   2.506   2.337 -1.3172 -1.8119 -1.2027
 8233SOL    HW236333   0.203   2.558   2.432 -1.1143 -1.3086 -0.2150
 8234SOL     OW36334   2.033   0.358   9.297  0.0614 -0.2129 -0.2724
 8234SOL    HW136335   1.983   0.397   9.225  0.4361  1.0160  0.1380
 8234SOL    HW236336   1.964   0.299   9.327  0.1970 -0.2387 -0.0164
 8235SOL     OW36337   3.952   2.886  10.404 -0.7094 -0.0111  0.1788
 8235SOL    HW136338   3.877   2.831  10.424  1.5949 -2.0601  3.0719
 8235SOL    HW236339   3.912   2.972  10.385 -0.7326  0.1174  0.8114
 8236SOL     OW36340   0.197   3.174   1.611  0.3650  0.5946 -0.6745
 8236SOL    HW136341   0.184   3.118   1.534  1.0180 -1.4762  0.7325
 8236SOL    HW236342   0.106   3.203   1.618  0.0921 -0.4865  0.3487
 8237SOL     OW36343   4.669   4.403  13.061 -0.3151  0.3921  0.1337
 8237SOL    HW136344   4.685   4.315  13.095  1.3323 -0.4449 -2.8270
 8237SOL    HW236345   0.013   4.457  13.076  2.1915 -2.8982 -0.8727
 8238SOL     OW36346   3.511   1.515   7.725  0.3380 -0.2277 -0.0633
 8238SOL    HW136347   3.531   1.605   7.696  1.4457 -0.3452  0.3169
 8238SOL    HW236348   3.422   1.519   7.689 -0.0484 -1.6242  0.7792
 8239SOL     OW36349   1.847   1.884   6.358  0.7621  0.1531  0.6723
 8239SOL    HW136350   1.818   1.851   6.443 -2.0125  0.8218 -0.0033
 8239SOL    HW236351   1.921   1.831   6.329  0.0917 -0.0302 -0.7289
 8240SOL     OW36352   4.702   3.643   5.790  0.5747 -0.4695 -0.1177
 8240SOL    HW136353   0.002   3.610   5.874 -0.1206 -0.8292  0.0125
 8240SOL    HW236354   4.611   3.614   5.794  0.0644  1.0010 -1.1788
 8241SOL     OW36355   2.311   2.347   6.237 -0.3969 -0.0526  0.2433
 8241SOL    HW136356   2.262   2.266   6.251 -2.4839  1.3242  0.9581
 8241SOL    HW236357   2.321   2.344   6.142 -1.6504 -0.0027  0.1076
 8242SOL     OW36358   3.584   0.697   8.937  0.4417  0.2875  0.5083
 8242SOL    HW136359   3.532   0.689   8.856  1.0203  0.4829  0.1196
 8242SOL    HW236360   3.546   0.762   8.995  0.4683 -0.5726  1.4885
 8243SOL     OW36361   4.317   3.772   9.096 -0.4537 -0.4157  0.1251
 8243SOL    HW136362   4.359   3.856   9.118  1.0737 -1.0897 -0.1782
 8243SOL    HW236363   4.230   3.774   9.136  0.3906  1.6036  1.8465
 8244SOL     OW36364   0.814   3.841   4.730  0.4384  0.6410 -0.0598
 8244SOL    HW136365   0.767   3.783   4.791  3.3810 -1.6645  0.0087
 8244SOL    HW236366   0.855   3.896   4.797  0.4775  2.6501 -1.7376
 8245SOL     OW36367   2.605   3.893   9.189 -0.4174  0.7492  0.6234
 8245SOL    HW136368   2.647   3.975   9.165  0.1762 -0.6257 -3.0295
 8245SOL    HW236369   2.656   3.823   9.148 -0.9273  0.0676  1.1481
 8246SOL     OW36370   3.645   0.333   8.158 -0.4310 -0.0570 -0.8367
 8246SOL    HW136371   3.641   0.419   8.117 -0.9619  0.1203 -0.4080
 8246SOL    HW236372   3.566   0.327   8.211  0.2645  0.8076  0.3155
 8247SOL     OW36373   2.793   1.488   5.548 -0.0025  0.0265 -0.2573
 8247SOL    HW136374   2.826   1.416   5.493 -0.3202  0.6179 -1.2281
 8247SOL    HW236375   2.847   1.476   5.626 -0.2265  1.8572  0.1756
 8248SOL     OW36376   2.404   2.663   6.718 -0.2213  0.2217 -0.3250
 8248SOL    HW136377   2.322   2.705   6.691  0.2606  1.5372  0.2601
 8248SOL    HW236378   2.446   2.734   6.767  0.0534 -0.3588  0.2841
 8249SOL     OW36379   0.216   3.969   6.419 -0.3475  0.1669 -0.9894
 8249SOL    HW136380   0.134   4.017   6.408  0.4453  2.0291  1.4829
 8249SOL    HW236381   0.275   4.028   6.373 -0.7546  0.5415 -1.0290
 8250SOL     OW36382   2.461   2.337  10.302 -0.3601 -0.1798 -0.2741
 8250SOL    HW136383   2.374   2.349  10.265 -0.9560  0.8575  1.4855
 8250SOL    HW236384   2.474   2.243  10.290 -0.6437 -0.3605  0.8776
 8251SOL     OW36385   0.909   1.283   3.172 -0.7438  0.1258  0.2084
 8251SOL    HW136386   0.964   1.244   3.104 -1.4348  1.7240 -1.2706
 8251SOL    HW236387   0.820   1.274   3.139 -0.3721 -0.0326 -0.7504
 8252SOL     OW36388   0.837   1.346   4.112  0.5301  0.1852 -0.0632
 8252SOL    HW136389   0.835   1.263   4.065 -0.8723 -0.4474  1.0713
 8252SOL    HW236390   0.874   1.406   4.048  0.3769 -0.0036 -0.3278
 8253SOL     OW36391   1.467   0.011   7.636  0.4594 -0.4848  0.0652
 8253SOL    HW136392   1.485   0.090   7.686  0.7021 -1.1358  1.0191
 8253SOL    HW236393   1.394   4.702   7.684  0.7926  0.1486  1.1272
 8254SOL     OW36394   1.706   3.192  10.383 -0.2717  0.4644  0.1798
 8254SOL    HW136395   1.674   3.125  10.323  2.1724 -1.2910  0.8647
 8254SOL    HW236396   1.703   3.274  10.334 -0.9380 -0.2173 -0.9264
 8255SOL     OW36397   2.335   2.819   9.571 -0.2349 -0.2377 -0.1762
 8255SOL    HW136398   2.297   2.861   9.648  0.0678 -2.5332  1.2218
 8255SOL    HW236399   2.392   2.752   9.610  0.2087  0.1387 -0.1753
 8256SOL     OW36400   1.979   0.896   3.086 -0.1106  0.1966  0.1962
 8256SOL    HW136401   2.004   0.878   2.995 -0.4690 -1.2211  0.3794
 8256SOL    HW236402   2.056   0.860   3.130 -0.0767  0.4737  0.3677
 8257SOL     OW36403   0.877   4.090   3.981 -0.0477  0.6474 -0.0023
 8257SOL    HW136404   0.909   4.083   3.891 -1.8249 -0.0970 -0.5914
 8257SOL    HW236405   0.788   4.059   3.962  0.2518 -0.3187  0.1562
 8258SOL     OW36406   3.621   3.716   3.009  0.1448 -0.2564 -0.7940
 8258SOL    HW136407   3.667   3.682   2.932  2.0600  0.3553  0.0801
 8258SOL    HW236408   3.532   3.706   2.975 -0.6396  0.2844  1.1106
 8259SOL     OW36409   0.365   4.254   2.572  0.4394  0.1540  0.2865
 8259SOL    HW136410   0.318   4.323   2.524  2.0997 -0.5457 -2.3298
 8259SOL    HW236411   0.309   4.180   2.548  1.1930 -0.5028  0.5688
 8260SOL     OW36412   0.304   0.460   8.031 -0.0627  0.4032  0.3744
 8260SOL    HW136413   0.241   0.388   8.029 -1.1403  1.4300 -2.7601
 8260SOL    HW236414   0.353   0.434   7.953  0.0208  1.5004  0.0691
 8261SOL     OW36415   1.588   4.555   2.747  0.0616 -0.9004  0.0641
 8261SOL    HW136416   1.650   4.627   2.731  0.3237 -1.0161  0.5496
 8261SOL    HW236417   1.528   4.567   2.674  1.0749  2.3402 -0.2542
 8262SOL     OW36418   2.010   4.455   2.506 -0.3078  0.2701 -0.2608
 8262SOL    HW136419   1.993   4.362   2.496  1.7452 -0.2536  1.0942
 8262SOL    HW236420   1.926   4.489   2.476 -1.4156 -0.5492  1.8943
 8263SOL     OW36421   3.045   1.966  16.422 -0.1751 -0.3538  0.1049
 8263SOL    HW136422   3.029   2.058  16.442  0.9486 -0.1202 -0.0966
 8263SOL    HW236423   3.132   1.953  16.460  0.5374 -0.0288 -1.3865
 8264SOL     OW36424   1.875   0.244   1.733 -0.1644 -0.0916 -0.0212
 8264SOL    HW136425   1.847   0.171   1.678  0.7028  0.0147 -0.5913
 8264SOL    HW236426   1.842   0.318   1.682  3.9095  0.0809 -2.3502
 8265SOL     OW36427   2.821   3.834   9.641 -0.5303 -0.3209  0.0447
 8265SOL    HW136428   2.816   3.813   9.547 -0.8602  1.1315 -0.2674
 8265SOL    HW236429   2.798   3.926   9.629  0.8119  0.2736  2.0368
 8266SOL     OW36430   2.887   2.053   4.026 -0.7847  0.0371  0.3542
 8266SOL    HW136431   2.840   2.131   4.057  0.6526  0.8987  0.3660
 8266SOL    HW236432   2.829   1.982   4.053  0.1187 -0.5301  0.7977
 8267SOL     OW36433   3.034   0.953   4.321  0.1319  0.7439  0.1184
 8267SOL    HW136434   2.951   0.955   4.370 -0.9288 -2.8027 -1.5755
 8267SOL    HW236435   3.016   0.904   4.240  0.1700 -1.0886  1.2265
 8268SOL     OW36436   1.968   0.978   7.240 -0.6658  0.0555  0.2788
 8268SOL    HW136437   2.035   1.041   7.212 -1.0749  1.0274  1.5534
 8268SOL    HW236438   1.961   0.999   7.333 -1.7145 -3.1550  0.9228
 8269SOL     OW36439   2.646   2.528   4.132 -0.2559  0.1123 -0.0612
 8269SOL    HW136440   2.619   2.499   4.219  0.7620 -0.3760  0.0862
 8269SOL    HW236441   2.686   2.614   4.148  0.5439 -0.6528  2.0197
 8270SOL     OW36442   4.278   0.418   3.610  0.5038 -0.2002 -0.1579
 8270SOL    HW136443   4.241   0.337   3.646 -1.2618  0.4183 -0.5730
 8270SOL    HW236444   4.250   0.480   3.678 -0.1957  0.5256 -1.1099
 8271SOL     OW36445   3.116   1.527   3.285 -0.5330  0.3787  0.0791
 8271SOL    HW136446   3.043   1.588   3.278 -0.8426 -0.0206 -0.2034
 8271SOL    HW236447   3.083   1.449   3.239  0.6854  1.1582 -2.1219
 8272SOL     OW36448   1.712   0.818   7.331 -0.7778  1.0751  0.0121
 8272SOL    HW136449   1.768   0.858   7.398  1.6044 -1.3603 -0.5225
 8272SOL    HW236450   1.626   0.855   7.353 -0.4824  1.3315  0.7512
 8273SOL     OW36451   2.139   2.136  11.003 -0.2759 -0.0903  0.5323
 8273SOL    HW136452   2.170   2.174  11.085  1.6809  0.6835 -0.5436
 8273SOL    HW236453   2.134   2.216  10.951 -1.6401 -1.6008 -1.6264
 8274SOL     OW36454   0.577   1.886  13.877 -0.3944  0.1148 -0.0693
 8274SOL    HW136455   0.645   1.935  13.832 -2.2373 -0.3473 -3.3244
 8274SOL    HW236456   0.559   1.934  13.958 -0.5516  0.2750 -0.2004
 8275SOL     OW36457   1.594   3.440   1.484  0.1846  0.3937  0.7086
 8275SOL    HW136458   1.674   3.389   1.470 -0.0232  0.2341  0.0757
 8275SOL    HW236459   1.616   3.467   1.573  0.1170  0.0390  0.8326
 8276SOL     OW36460   0.893   0.048   2.721  0.2657  0.0213 -0.4035
 8276SOL    HW136461   0.934   0.086   2.798 -1.7986  1.4006  0.0357
 8276SOL    HW236462   0.921   0.088   2.639  2.3197 -0.1658  0.2169
 8277SOL     OW36463   2.693   3.062   9.084  0.3173  0.0042  0.3979
 8277SOL    HW136464   2.716   3.073   9.176 -1.4366 -1.5588  1.0267
 8277SOL    HW236465   2.614   3.008   9.089  1.7053 -2.0746 -0.4652
 8278SOL     OW36466   0.798   0.392   7.880 -0.2922  0.4693  0.0893
 8278SOL    HW136467   0.747   0.315   7.855  0.6029 -0.7672  2.1483
 8278SOL    HW236468   0.781   0.398   7.974 -0.1700  1.6734  0.0328
 8279SOL     OW36469   4.586   1.610   7.418  0.1190 -0.1084 -0.2174
 8279SOL    HW136470   4.511   1.667   7.437 -0.1512  0.0680 -1.7605
 8279SOL    HW236471   4.586   1.624   7.323  2.3600  0.9605 -0.0628
 8280SOL     OW36472   3.274   3.842   8.698  0.0883 -0.1495 -0.0143
 8280SOL    HW136473   3.324   3.779   8.750 -1.9936 -0.8455  1.0974
 8280SOL    HW236474   3.313   3.821   8.612  1.6741  0.9850  0.4239
 8281SOL     OW36475   2.554   3.791   5.603 -0.3610 -0.0786 -0.1257
 8281SOL    HW136476   2.594   3.715   5.643  0.9717  0.4133 -0.5168
 8281SOL    HW236477   2.484   3.808   5.666 -0.9123  1.1745 -1.0634
 8282SOL     OW36478   2.917   3.989   4.428  0.3505 -0.1839 -0.4430
 8282SOL    HW136479   2.908   3.896   4.451  0.6628  0.1016  0.8266
 8282SOL    HW236480   3.003   4.011   4.466  0.5197 -1.8552  0.1702
 8283SOL     OW36481   3.906   4.468   5.504  0.0932  0.0002  0.3047
 8283SOL    HW136482   3.925   4.546   5.556 -0.6124 -0.6012  1.4706
 8283SOL    HW236483   3.857   4.423   5.573 -1.0140 -0.2730 -0.6492
 8284SOL     OW36484   1.294   0.340   6.163  0.6103 -0.1987 -0.0534
 8284SOL    HW136485   1.203   0.352   6.135  1.4057  0.2582 -2.3915
 8284SOL    HW236486   1.318   0.255   6.127  2.8764 -0.4721  2.0590
 8285SOL     OW36487   1.108   1.902   5.991  0.0153 -0.3591  0.0247
 8285SOL    HW136488   1.129   1.812   6.017  0.0706  0.3963  2.6886
 8285SOL    HW236489   1.014   1.913   6.005  0.3879  2.0252  0.5465
 8286SOL     OW36490   0.978   0.804  17.328 -0.0425  0.4267 -0.0171
 8286SOL    HW136491   1.034   0.834  17.399  2.2982 -0.1566 -1.6062
 8286SOL    HW236492   1.040   0.774  17.261  0.5231 -1.8916  1.5511
 8287SOL     OW36493   2.908   1.097   8.818  0.1796  0.0982 -0.0488
 8287SOL    HW136494   2.884   1.005   8.825 -0.4118  0.1947 -0.9156
 8287SOL    HW236495   2.894   1.112   8.725  1.5989  0.4334 -0.2058
 8288SOL     OW36496   1.693   2.200   8.967  0.0943  0.1064  0.7721
 8288SOL    HW136497   1.653   2.276   9.010  1.0283  1.2569 -0.4070
 8288SOL    HW236498   1.762   2.171   9.027  1.2775 -0.1241 -0.6851
 8289SOL     OW36499   1.376   1.522   4.776  0.5485  0.3731 -0.0103
 8289SOL    HW136500   1.345   1.467   4.704  1.5201 -0.0858 -0.0785
 8289SOL    HW236501   1.372   1.474   4.858 -0.4693 -0.6315 -0.6545
 8290SOL     OW36502   3.545   2.597   4.379 -0.3960  0.4389 -0.0028
 8290SOL    HW136503   3.487   2.553   4.317 -1.1189  0.3718  0.7042
 8290SOL    HW236504   3.481   2.662   4.408 -1.2655  1.6539 -4.6891
 8291SOL     OW36505   0.527   3.955   6.804  0.5651 -0.2907  0.1558
 8291SOL    HW136506   0.476   3.922   6.730 -0.9512  2.2185  0.0508
 8291SOL    HW236507   0.585   4.009   6.751 -1.8751  1.2493 -0.9847
 8292SOL     OW36508   1.594   2.992   7.788 -0.0087  0.0350 -0.5333
 8292SOL    HW136509   1.621   2.989   7.696 -0.0971  1.1001 -0.5930
 8292SOL    HW236510   1.501   2.976   7.773 -0.9511  3.9964  1.2967
 8293SOL     OW36511   2.190   1.919  12.632 -0.0294  0.0085  0.1470
 8293SOL    HW136512   2.215   1.879  12.549 -1.0686 -0.8863  0.2549
 8293SOL    HW236513   2.209   2.011  12.612 -0.0543  0.0365  0.2505
 8294SOL     OW36514   3.156   3.648   7.883  0.1992 -1.0351 -0.8088
 8294SOL    HW136515   3.114   3.717   7.935  2.1609  0.5942 -1.3973
 8294SOL    HW236516   3.079   3.594   7.866  0.5873 -2.2606  1.3450
 8295SOL     OW36517   3.081   2.595   5.102 -0.5582  0.3990  0.2640
 8295SOL    HW136518   3.026   2.651   5.048 -0.3268  0.7547  0.3953
 8295SOL    HW236519   3.172   2.606   5.074 -1.1352 -1.2214 -2.1663
 8296SOL     OW36520   0.812   2.372   7.388  0.1678  0.2635 -0.4789
 8296SOL    HW136521   0.807   2.419   7.471  0.0538 -0.4653 -0.0693
 8296SOL    HW236522   0.754   2.299   7.411  1.9040 -0.5312  1.3529
 8297SOL     OW36523   1.546   1.742   0.178 -0.3604 -0.1548 -0.4870
 8297SOL    HW136524   1.631   1.698   0.175 -1.2466 -2.0283  1.9048
 8297SOL    HW236525   1.512   1.726   0.266 -0.5318 -1.8818 -0.8517
 8298SOL     OW36526   1.481   2.250   4.912  0.3214 -0.0770  0.0417
 8298SOL    HW136527   1.572   2.251   4.944  0.0975 -0.8484  0.7045
 8298SOL    HW236528   1.483   2.322   4.848 -0.6700 -2.1800 -2.3417
 8299SOL     OW36529   2.905   4.696   4.416  0.2426  0.2924 -0.2463
 8299SOL    HW136530   2.850   4.731   4.345  2.1044  1.3605 -1.1797
 8299SOL    HW236531   2.878   4.605   4.411 -1.0406  0.6429  0.4466
 8300SOL     OW36532   3.699   0.278  14.618 -0.3094  0.1138 -0.0555
 8300SOL    HW136533   3.708   0.311  14.528 -2.4680 -1.5713 -0.8851
 8300SOL    HW236534   3.783   0.248  14.652 -0.3158 -0.3123 -0.4269
 8301SOL     OW36535   3.415   0.536  16.692 -0.0605 -0.3774  0.2127
 8301SOL    HW136536   3.377   0.485  16.764 -0.5860  3.9044  2.9871
 8301SOL    HW236537   3.507   0.543  16.718  0.2040  0.3781 -0.9611
 8302SOL     OW36538   2.639   2.374   2.644 -0.2325  0.2209  0.6365
 8302SOL    HW136539   2.709   2.419   2.597  0.6183 -0.3220  1.3950
 8302SOL    HW236540   2.686   2.351   2.724  1.0261  2.7361  0.6139
 8303SOL     OW36541   3.751   1.347   7.753 -0.0167  0.1325 -0.5222
 8303SOL    HW136542   3.814   1.393   7.806  1.7777 -0.1692 -2.3896
 8303SOL    HW236543   3.678   1.407   7.739 -0.0601  0.1678 -0.1473
 8304SOL     OW36544   3.537   0.029  14.673 -0.0484 -0.0122 -0.2820
 8304SOL    HW136545   3.525   4.694  14.606 -1.2313 -0.6766  0.6074
 8304SOL    HW236546   3.601   0.091  14.639  1.3335 -1.0265  0.4853
 8305SOL     OW36547   1.757   1.144  16.605 -0.2597 -0.3262  0.1717
 8305SOL    HW136548   1.790   1.072  16.550 -0.7098  0.3280 -0.9537
 8305SOL    HW236549   1.827   1.209  16.594  1.1112 -1.4598  2.2212
 8306SOL     OW36550   4.552   2.981   8.260  0.2610  0.1757 -0.3742
 8306SOL    HW136551   4.575   2.897   8.300 -0.1110  0.4337  0.3889
 8306SOL    HW236552   4.571   3.047   8.327 -0.5686 -0.5276  0.5511
 8307SOL     OW36553   0.121   4.500   6.136  0.0037  1.2171 -0.3085
 8307SOL    HW136554   0.149   4.544   6.216 -1.6373 -0.2792  1.0998
 8307SOL    HW236555   0.147   4.557   6.063  1.2742  0.1552 -0.6834
 8308SOL     OW36556   3.826   3.438   1.221  0.5360 -0.4342  0.1343
 8308SOL    HW136557   3.909   3.437   1.174  0.3490  1.7865 -0.2213
 8308SOL    HW236558   3.802   3.530   1.223  3.0094  0.2137 -0.4721
 8309SOL     OW36559   2.070   1.037   9.332 -0.8608 -0.2324 -0.1600
 8309SOL    HW136560   2.139   1.079   9.384  0.4813 -3.0107  0.3539
 8309SOL    HW236561   2.030   1.107   9.280  1.2167  0.6534 -0.5627
 8310SOL     OW36562   1.148   0.845   8.220  0.7092 -0.2948  0.1330
 8310SOL    HW136563   1.152   0.923   8.276 -0.3036  1.0600 -1.6650
 8310SOL    HW236564   1.138   0.880   8.132 -0.4182 -2.2283 -0.4977
 8311SOL     OW36565   4.646   3.860   0.711  0.4618  0.6350  1.0385
 8311SOL    HW136566   4.671   3.771   0.685 -1.5438  0.1834  0.7187
 8311SOL    HW236567   4.730   3.904   0.698  0.9807 -1.2496 -1.9402
 8312SOL     OW36568   4.605   2.316   7.140 -0.0346  0.4224  0.2856
 8312SOL    HW136569   4.530   2.375   7.136 -0.1634  0.4206  2.7112
 8312SOL    HW236570   4.598   2.286   7.231  3.5161  1.2512  0.8254
 8313SOL     OW36571   2.725   3.398   0.827 -0.4941  0.0316 -0.2336
 8313SOL    HW136572   2.643   3.444   0.808 -1.6670 -0.9690  2.4183
 8313SOL    HW236573   2.688   3.316   0.859  0.5585 -0.3147  0.1252
 8314SOL     OW36574   0.451   4.510   3.523  0.4747  0.2420  0.0877
 8314SOL    HW136575   0.368   4.556   3.510  0.9496  1.0693 -0.0514
 8314SOL    HW236576   0.419   4.432   3.568 -0.4114  0.0784 -0.8250
 8315SOL     OW36577   4.514   0.389   1.767 -0.5438 -0.0377  0.3916
 8315SOL    HW136578   4.578   0.420   1.703  0.2552  0.0461  1.2402
 8315SOL    HW236579   4.540   0.425   1.852 -1.3085 -1.7085  1.3295
 8316SOL     OW36580   1.083   3.006   2.609  0.0204  0.6012 -0.4879
 8316SOL    HW136581   1.058   3.097   2.597  0.4055  1.1916  3.2718
 8316SOL    HW236582   1.175   3.020   2.633 -0.6859  3.0676  0.6448
 8317SOL     OW36583   1.694   1.417  13.443  0.2191 -0.3094  0.3069
 8317SOL    HW136584   1.736   1.411  13.357 -2.6154 -2.0491 -0.9593
 8317SOL    HW236585   1.732   1.337  13.481 -0.1313 -0.1391  1.0125
 8318SOL     OW36586   1.105   4.183   8.732 -0.1176 -0.4188 -0.3618
 8318SOL    HW136587   1.169   4.252   8.750 -1.1209  0.5617 -0.5596
 8318SOL    HW236588   1.091   4.147   8.820  3.2131  0.9783  0.7350
 8319SOL     OW36589   1.226   1.296   4.255 -0.0932 -0.4807 -0.2087
 8319SOL    HW136590   1.158   1.229   4.251  0.4489 -1.1208  1.4059
 8319SOL    HW236591   1.272   1.288   4.171 -0.8433 -0.5712 -0.6047
 8320SOL     OW36592   3.139   2.859   7.844 -0.3677  0.0727  0.3110
 8320SOL    HW136593   3.213   2.917   7.857  0.5807 -0.9854 -0.3801
 8320SOL    HW236594   3.118   2.836   7.934 -1.2179 -3.0141 -0.6445
 8321SOL     OW36595   1.984   1.637   6.280 -0.5544  0.1322 -0.1636
 8321SOL    HW136596   2.043   1.645   6.355  0.2140 -2.3679 -0.4913
 8321SOL    HW236597   2.013   1.554   6.242  1.1716 -0.2668  2.0287
 8322SOL     OW36598   1.690   3.189   4.616  0.2593  0.3625 -0.1726
 8322SOL    HW136599   1.762   3.128   4.602 -1.5464 -1.9619  0.5669
 8322SOL    HW236600   1.658   3.196   4.526  0.6808 -1.6348 -0.4595
 8323SOL     OW36601   2.074   2.607   7.939  0.1936 -0.3364 -0.0224
 8323SOL    HW136602   2.095   2.700   7.926  0.5292 -0.2108  1.3952
 8323SOL    HW236603   2.122   2.571   7.865 -0.9486 -1.4963 -0.2029
 8324SOL     OW36604   3.464   0.734   1.603 -0.6521  0.2207 -0.0761
 8324SOL    HW136605   3.517   0.813   1.615  1.3131 -1.1827  0.6242
 8324SOL    HW236606   3.476   0.693   1.689  1.0561 -0.2704 -0.5293
 8325SOL     OW36607   3.589   3.108   2.575  0.6126 -0.6222  0.3534
 8325SOL    HW136608   3.619   3.182   2.522  0.5104 -1.0250 -0.2650
 8325SOL    HW236609   3.576   3.039   2.510 -1.0048 -1.1357  1.2214
 8326SOL     OW36610   3.308   1.274   9.737 -0.3580  0.4673 -0.0253
 8326SOL    HW136611   3.300   1.363   9.771  2.0934  1.3579 -1.8176
 8326SOL    HW236612   3.236   1.267   9.674 -1.3495  1.2317  1.0068
 8327SOL     OW36613   2.409   2.946   7.249 -0.3304 -0.2523  0.0879
 8327SOL    HW136614   2.355   2.938   7.170 -0.1790  0.3463 -0.0819
 8327SOL    HW236615   2.359   3.004   7.306 -0.8363  1.6361 -2.2714
 8328SOL     OW36616   4.590   3.815   4.309  0.0389 -0.1885  0.4209
 8328SOL    HW136617   4.535   3.869   4.366 -2.4011  0.1256 -2.2412
 8328SOL    HW236618   4.580   3.855   4.223 -0.9730 -3.8086 -1.1489
 8329SOL     OW36619   2.878   2.303   7.155 -0.3082 -0.3181 -0.0935
 8329SOL    HW136620   2.855   2.387   7.195  2.8149 -1.0064  3.1826
 8329SOL    HW236621   2.969   2.321   7.133 -0.3630 -1.0105 -0.8971
 8330SOL     OW36622   4.559   2.280   7.734  0.0172  0.1846  0.5944
 8330SOL    HW136623   4.603   2.219   7.794 -0.4796 -0.1566  0.6116
 8330SOL    HW236624   4.628   2.343   7.713 -0.9861  2.0095  2.7835
 8331SOL     OW36625   4.238   1.011   9.305 -0.3349 -0.2491 -0.1129
 8331SOL    HW136626   4.289   0.952   9.251 -2.1238 -3.3686  1.5849
 8331SOL    HW236627   4.292   1.043   9.377  1.3620  0.2849 -1.6335
 8332SOL     OW36628   2.582   0.880   2.167  0.1568  0.0642  0.3579
 8332SOL    HW136629   2.635   0.900   2.089  0.7684 -0.8629  0.5313
 8332SOL    HW236630   2.494   0.870   2.132  0.9161 -0.7349 -1.3003
 8333SOL     OW36631   3.119   4.071   8.103 -0.4348 -0.9706  0.2904
 8333SOL    HW136632   3.114   4.162   8.075  0.6849 -0.8393  0.4875
 8333SOL    HW236633   3.130   4.084   8.197  0.4122  3.7911 -0.4978
 8334SOL     OW36634   0.766   3.016   4.410 -0.3993 -0.1821  0.4587
 8334SOL    HW136635   0.724   2.970   4.483  0.2281  0.1825  1.0580
 8334SOL    HW236636   0.815   2.945   4.369 -0.2050  0.7907 -0.9863
 8335SOL     OW36637   1.144   4.148  13.796  0.4675 -0.1571  0.6423
 8335SOL    HW136638   1.097   4.083  13.848  0.4436 -2.4890 -2.2846
 8335SOL    HW236639   1.195   4.084  13.747  2.5328  0.8160  1.4907
 8336SOL     OW36640   1.432   0.858   3.019  0.5541 -0.1759  0.0894
 8336SOL    HW136641   1.414   0.772   3.057  1.0104 -0.4205 -0.2433
 8336SOL    HW236642   1.348   0.887   2.984  1.5696  0.1712 -2.0269
 8337SOL     OW36643   1.557   1.757   9.142  0.7609  0.2083 -0.0002
 8337SOL    HW136644   1.572   1.682   9.199 -0.1058 -0.5770 -0.8311
 8337SOL    HW236645   1.500   1.811   9.197 -0.7986 -0.8850 -0.5489
 8338SOL     OW36646   4.509   2.680   7.021 -0.1859  0.2302 -0.6582
 8338SOL    HW136647   4.548   2.641   6.942  3.2441  1.5080  0.3998
 8338SOL    HW236648   4.556   2.764   7.026 -0.4681  0.4093 -1.0438
 8339SOL     OW36649   4.413   4.712  12.500  0.5102  0.0501  0.1891
 8339SOL    HW136650   4.336   0.034  12.485  0.3567 -0.0198  0.7393
 8339SOL    HW236651   4.398   4.644  12.434  0.9265 -0.5692  0.7302
 8340SOL     OW36652   4.299   3.632   4.114 -0.3645 -0.1987  0.2241
 8340SOL    HW136653   4.385   3.623   4.073 -1.3510 -2.4957 -1.3306
 8340SOL    HW236654   4.266   3.689   4.044  0.8232  0.5132  0.2502
 8341SOL     OW36655   3.306   0.988   8.602 -0.2810 -0.5363  0.6756
 8341SOL    HW136656   3.259   0.968   8.521  1.3865 -0.9799 -0.1851
 8341SOL    HW236657   3.309   1.084   8.604 -0.5239 -0.4850 -1.4508
 8342SOL     OW36658   3.426   1.583  12.077  0.6592  0.1723 -0.7993
 8342SOL    HW136659   3.505   1.630  12.106 -0.1727  0.4100  1.1028
 8342SOL    HW236660   3.441   1.586  11.983 -0.1175 -1.8655 -0.9933
 8343SOL     OW36661   0.622   2.635  10.580 -0.2735 -0.1603  0.3066
 8343SOL    HW136662   0.672   2.656  10.659  2.6062  0.7284 -1.7621
 8343SOL    HW236663   0.692   2.614  10.518 -1.2292 -0.5140 -0.6460
 8344SOL     OW36664   3.732   1.832  15.019  0.5232  0.2259  0.3233
 8344SOL    HW136665   3.673   1.795  14.954 -2.0197  0.7053  2.3438
 8344SOL    HW236666   3.705   1.773  15.090  0.8871 -0.6232 -0.2426
 8345SOL     OW36667   2.872   3.045   6.949  0.1720  0.0400 -0.3404
 8345SOL    HW136668   2.803   3.033   7.015  0.0149  1.5239 -0.2184
 8345SOL    HW236669   2.816   3.070   6.876  0.3914  0.5568 -0.3316
 8346SOL     OW36670   0.831   0.745  15.593 -0.2661  0.1258 -0.1554
 8346SOL    HW136671   0.832   0.720  15.501  1.7603  0.4904 -0.2375
 8346SOL    HW236672   0.847   0.838  15.577 -0.6739  0.5579  1.9649
 8347SOL     OW36673   1.706   3.060   2.540  0.2492 -0.5676  0.4226
 8347SOL    HW136674   1.785   3.056   2.594  0.2846 -1.0402  0.3408
 8347SOL    HW236675   1.750   3.034   2.459 -2.5643 -2.0361 -0.6451
 8348SOL     OW36676   0.081   3.715  14.252 -0.3452 -0.2473 -0.2807
 8348SOL    HW136677   0.002   3.682  14.210 -1.7357  3.4631 -0.5832
 8348SOL    HW236678   0.041   3.730  14.338  0.4991  1.1280 -0.1116
 8349SOL     OW36679   1.865   0.085   8.123 -0.0613 -0.2586  0.0392
 8349SOL    HW136680   1.849   0.152   8.056 -1.2164  0.1549  0.7350
 8349SOL    HW236681   1.873   0.134   8.205  0.1693 -1.6147  0.8186
 8350SOL     OW36682   3.102   1.773   8.764 -0.1051 -0.0641  0.3009
 8350SOL    HW136683   3.195   1.796   8.762 -0.6259  2.1062  0.7559
 8350SOL    HW236684   3.095   1.686   8.725 -2.1013 -0.9192  2.6101
 8351SOL     OW36685   2.953   0.809   2.824 -0.3793  0.0526 -0.2529
 8351SOL    HW136686   2.925   0.725   2.789  2.0609 -1.4487  1.4125
 8351SOL    HW236687   2.892   0.865   2.776  0.5172 -1.0207 -2.6011
 8352SOL     OW36688   3.652   1.916   8.573  0.5369  0.3153  0.0407
 8352SOL    HW136689   3.646   1.831   8.531  0.8326  1.4612 -2.3224
 8352SOL    HW236690   3.701   1.905   8.655 -0.0690  0.0277  0.3703
 8353SOL     OW36691   0.613   1.537   7.173 -0.1886 -0.2114  0.0017
 8353SOL    HW136692   0.691   1.508   7.125  0.8008  0.8833  0.9563
 8353SOL    HW236693   0.556   1.461   7.183 -0.5528  0.1226  0.4246
 8354SOL     OW36694   0.522   4.552   1.715  0.8524  0.3479  0.4385
 8354SOL    HW136695   0.558   4.560   1.626  1.0026 -1.1497  0.3557
 8354SOL    HW236696   0.502   4.458   1.718 -0.4155  0.4670 -3.9099
 8355SOL     OW36697   0.355   3.871   0.726 -0.2911  0.3065  0.3575
 8355SOL    HW136698   0.439   3.884   0.770 -0.0785  0.0303  0.0238
 8355SOL    HW236699   0.357   3.776   0.720  0.5014  0.1584  2.6471
 8356SOL     OW36700   2.998   3.177  10.253  0.5354  0.6938 -0.3934
 8356SOL    HW136701   3.009   3.136  10.338 -0.7930 -1.0777 -1.0778
 8356SOL    HW236702   2.975   3.102  10.199  0.1428  0.7418 -0.2940
 8357SOL     OW36703   0.175   4.071   6.045 -0.1192 -0.5494 -0.4283
 8357SOL    HW136704   0.119   4.001   6.079  1.8129 -1.9302 -0.0778
 8357SOL    HW236705   0.253   4.078   6.100  0.1880 -0.5005 -0.8651
 8358SOL     OW36706   2.859   1.600  10.395 -0.0432 -0.4436 -0.1588
 8358SOL    HW136707   2.906   1.535  10.342  1.3108 -0.0589  0.5764
 8358SOL    HW236708   2.777   1.557  10.417  0.3119 -0.5839  0.8494
 8359SOL     OW36709   1.335   0.338  15.125  0.0090  0.5621 -0.8465
 8359SOL    HW136710   1.399   0.391  15.079 -2.1315  1.9853 -2.1935
 8359SOL    HW236711   1.252   0.374  15.094  0.0802  1.8753  0.4461
 8360SOL     OW36712   1.057   4.323  13.189  0.0634 -0.2991 -0.0074
 8360SOL    HW136713   1.095   4.283  13.267  1.5158  2.0004  0.4871
 8360SOL    HW236714   1.000   4.386  13.233 -0.3445 -1.3287  0.9260
 8361SOL     OW36715   0.618   2.981  15.038 -0.1843  0.6923 -0.9054
 8361SOL    HW136716   0.694   3.039  15.047  2.0111 -1.8904 -2.6689
 8361SOL    HW236717   0.651   2.925  14.968  1.5104 -0.3228  0.7040
 8362SOL     OW36718   4.678   2.888   9.873 -0.1571  0.4287  0.2846
 8362SOL    HW136719   4.698   2.794   9.880  3.5281  1.2281  0.5549
 8362SOL    HW236720   4.641   2.900   9.960  2.5944  2.4914  1.1584
 8363SOL     OW36721   3.918   1.160   3.796  0.4241  0.2243  0.3055
 8363SOL    HW136722   3.955   1.165   3.884 -1.8636 -0.6285  1.3277
 8363SOL    HW236723   3.896   1.252   3.785  0.4461  0.1896 -0.0384
 8364SOL     OW36724   4.111   4.369   8.823  0.1318 -0.1993  0.1932
 8364SOL    HW136725   4.026   4.354   8.781 -1.5318  0.7701  3.2451
 8364SOL    HW236726   4.099   4.392   8.915  2.3820 -0.4213  0.5399
 8365SOL     OW36727   1.798   4.311   7.357  0.0269  0.1986 -0.1245
 8365SOL    HW136728   1.864   4.357   7.306  0.3192  0.4230  0.4607
 8365SOL    HW236729   1.809   4.221   7.327  0.1954  0.3186 -0.4321
 8366SOL     OW36730   1.343   2.936   6.838  0.2657  0.0660  0.0373
 8366SOL    HW136731   1.249   2.921   6.827  0.1714 -1.4260  2.6440
 8366SOL    HW236732   1.358   2.877   6.913 -0.6047  1.5012  1.3421
 8367SOL     OW36733   0.050   1.067   0.272  0.3260  0.1729  0.1358
 8367SOL    HW136734   0.063   1.113   0.189 -0.4108  0.7708  0.3504
 8367SOL    HW236735   0.036   1.139   0.334  2.8085 -0.1221  1.0053
 8368SOL     OW36736   3.484   0.264   0.512  0.5138  0.6514  0.0174
 8368SOL    HW136737   3.530   0.322   0.572  1.5348  1.3572 -1.4271
 8368SOL    HW236738   3.522   0.308   0.436 -0.5971  0.6092 -0.5649
 8369SOL     OW36739   4.697   2.081   6.554  0.4865 -0.4909 -0.1452
 8369SOL    HW136740   0.048   2.127   6.563  1.4207 -2.3196  0.4559
 8369SOL    HW236741   4.655   2.124   6.628 -1.0939 -2.0452 -0.1246
 8370SOL     OW36742   4.726   0.890  10.010 -0.4026 -0.1720 -0.1691
 8370SOL    HW136743   0.051   0.823   9.970  0.0515 -0.5421  1.1188
 8370SOL    HW236744   0.054   0.962  10.028  0.3613 -1.2589  1.5800
 8371SOL     OW36745   1.893   3.558   8.855  0.8239 -0.2164 -0.7222
 8371SOL    HW136746   1.982   3.583   8.879  0.2940 -1.3620  2.3510
 8371SOL    HW236747   1.924   3.476   8.816  3.2471  0.5120 -0.3372
 8372SOL     OW36748   3.729   0.498   2.168  0.6565  0.2084 -0.0329
 8372SOL    HW136749   3.732   0.585   2.127  0.3107  1.2425  2.1357
 8372SOL    HW236750   3.670   0.522   2.240 -0.6709  0.4737 -1.2086
 8373SOL     OW36751   3.656   1.710  15.567  0.0380  0.2699  0.3789
 8373SOL    HW136752   3.631   1.802  15.561 -2.8118 -0.5594 -0.4029
 8373SOL    HW236753   3.617   1.689  15.652 -1.3575 -0.0549 -0.3391
 8374SOL     OW36754   0.749   2.786   2.052 -0.5409 -0.1065  0.1236
 8374SOL    HW136755   0.657   2.812   2.046 -1.0830 -1.9965  0.3945
 8374SOL    HW236756   0.743   2.698   2.089  0.2248 -1.1874 -2.3106
 8375SOL     OW36757   4.120   4.454   6.683  0.4065 -0.3988  0.1722
 8375SOL    HW136758   4.031   4.485   6.698  0.6883  0.4145  0.1212
 8375SOL    HW236759   4.166   4.537   6.672 -1.7118  0.7744  0.1772
 8376SOL     OW36760   1.474   2.944   5.142 -0.5602  0.0377  0.5456
 8376SOL    HW136761   1.416   2.868   5.145  1.4331 -1.5231  0.1215
 8376SOL    HW236762   1.483   2.949   5.046 -0.6759  2.4661  0.6827
 8377SOL     OW36763   4.342   1.845   2.845 -0.0930 -0.5537 -0.6337
 8377SOL    HW136764   4.273   1.835   2.910  0.6727  3.1570  0.7149
 8377SOL    HW236765   4.364   1.937   2.859 -0.4072 -0.2968 -1.7967
 8378SOL     OW36766   1.671   3.880   4.303  0.6046 -0.7942 -0.0977
 8378SOL    HW136767   1.705   3.849   4.219 -0.1836 -0.9312 -0.3579
 8378SOL    HW236768   1.731   3.955   4.309 -0.2961  0.0434 -1.7327
 8379SOL     OW36769   3.153   2.991   9.762 -0.3287  0.1843 -0.5046
 8379SOL    HW136770   3.104   2.945   9.694  1.2141 -1.7600 -0.3103
 8379SOL    HW236771   3.168   3.072   9.712  1.3137  0.7299  0.8757
 8380SOL     OW36772   3.772   2.420   0.484 -0.5807  0.4715  0.3246
 8380SOL    HW136773   3.849   2.389   0.532 -0.8690  0.7765  0.9850
 8380SOL    HW236774   3.766   2.511   0.513  0.2837  0.7680 -0.4219
 8381SOL     OW36775   1.414   0.475  14.891  0.2449  0.2822  0.2465
 8381SOL    HW136776   1.503   0.491  14.860  0.3481  0.7214  0.7587
 8381SOL    HW236777   1.376   0.561  14.874 -1.2813 -0.4029  0.2254
 8382SOL     OW36778   2.873   3.076  14.564 -0.0286  0.5792  0.3993
 8382SOL    HW136779   2.913   3.077  14.651  0.4396  2.5490  0.1451
 8382SOL    HW236780   2.952   3.052  14.516 -0.2942  0.1690  0.1660
 8383SOL     OW36781   4.481   4.207   1.086 -0.2569 -0.4000 -0.3391
 8383SOL    HW136782   4.481   4.223   1.181  1.4254 -2.3055 -0.0236
 8383SOL    HW236783   4.522   4.121   1.080 -0.1559 -0.1986 -2.6342
 8384SOL     OW36784   0.135   4.380  14.696  0.1907  0.1871  0.1383
 8384SOL    HW136785   0.040   4.385  14.685  0.3366  1.3941 -0.4255
 8384SOL    HW236786   0.165   4.412  14.612  3.3764 -2.0645  0.4210
 8385SOL     OW36787   3.811   2.356   5.482  0.2523 -0.6881 -0.4701
 8385SOL    HW136788   3.880   2.308   5.437 -0.3106 -0.8572 -1.1552
 8385SOL    HW236789   3.745   2.361   5.413  0.6718  1.6337 -0.7133
 8386SOL     OW36790   1.483   1.818   7.140  0.1160  0.5289 -0.2380
 8386SOL    HW136791   1.541   1.893   7.126  3.9674 -2.0494  1.7711
 8386SOL    HW236792   1.451   1.841   7.227  2.1763  1.7325  0.1929
 8387SOL     OW36793   4.595   4.134   7.870  0.2500 -0.0629 -0.0264
 8387SOL    HW136794   4.662   4.156   7.805 -0.3319 -0.8220 -0.8778
 8387SOL    HW236795   4.579   4.220   7.910  0.2050 -1.0081  1.9469
 8388SOL     OW36796   1.775   0.524  16.849 -0.1201  0.0780 -0.2468
 8388SOL    HW136797   1.867   0.496  16.851  0.0371  0.3129 -4.2311
 8388SOL    HW236798   1.773   0.571  16.766  1.6464  2.9847  1.3435
 8389SOL     OW36799   2.973   4.527  12.494 -0.2821 -0.0489 -0.3032
 8389SOL    HW136800   3.031   4.499  12.565  0.3979 -0.4876 -1.0352
 8389SOL    HW236801   2.925   4.447  12.472  0.1092 -0.2798 -0.3156
 8390SOL     OW36802   1.021   1.290   2.608 -0.1976 -0.6801  0.0867
 8390SOL    HW136803   0.945   1.261   2.559 -1.0285 -0.3555  1.1792
 8390SOL    HW236804   1.079   1.314   2.535 -0.5453 -1.4868 -0.4491
 8391SOL     OW36805   1.010   2.394   9.250  0.0090 -0.3008 -0.2528
 8391SOL    HW136806   1.050   2.307   9.241 -0.0421 -0.5811  2.1796
 8391SOL    HW236807   0.944   2.371   9.315  0.5999  0.1192  0.4977
 8392SOL     OW36808   4.113   0.401   3.975  0.2304  0.1675 -0.0831
 8392SOL    HW136809   4.139   0.352   3.898 -0.5058 -0.8127  0.2875
 8392SOL    HW236810   4.059   0.467   3.932  0.5921 -0.1858 -1.0592
 8393SOL     OW36811   3.530   1.444   8.018 -0.3294  0.8291  0.2645
 8393SOL    HW136812   3.511   1.359   7.978 -1.4751  1.7714 -1.2098
 8393SOL    HW236813   3.516   1.509   7.949  0.8195 -0.4144 -1.1376
 8394SOL     OW36814   2.236   0.877  10.792 -0.8337  0.0377 -0.2467
 8394SOL    HW136815   2.259   0.887  10.885  1.6375  0.1579 -0.8734
 8394SOL    HW236816   2.145   0.856  10.810 -0.6824 -0.4651 -0.0887
 8395SOL     OW36817   2.236   3.357   0.833  0.3647 -0.3121  0.7398
 8395SOL    HW136818   2.167   3.292   0.848 -1.2311  1.2741  0.3090
 8395SOL    HW236819   2.192   3.436   0.865 -0.9249 -0.1701 -1.3656
 8396SOL     OW36820   4.106   3.576   7.819  0.0415  0.1419  0.1596
 8396SOL    HW136821   4.186   3.620   7.848 -0.2893  0.7631  0.1281
 8396SOL    HW236822   4.107   3.512   7.890  2.6744  0.8496  0.7522
 8397SOL     OW36823   2.028   3.877   7.328  0.1189 -0.2987 -0.3976
 8397SOL    HW136824   2.102   3.902   7.274  0.9266 -1.3569  0.2070
 8397SOL    HW236825   2.058   3.798   7.374  1.0609  0.1496 -0.2475
 8398SOL     OW36826   3.275   3.912  17.216  0.4446  0.2377 -0.9121
 8398SOL    HW136827   3.324   3.994  17.222  1.2881 -0.3445  0.0252
 8398SOL    HW236828   3.346   3.855  17.186 -0.1813 -0.1309 -1.7090
 8399SOL     OW36829   0.296   1.005   5.919  0.0079 -0.0750  0.2854
 8399SOL    HW136830   0.210   0.976   5.950  1.1837 -1.5557  2.1787
 8399SOL    HW236831   0.330   0.926   5.876 -0.4244  0.8279 -1.7177
 8400SOL     OW36832   4.304   0.697   1.991 -0.1054  0.4677  0.5270
 8400SOL    HW136833   4.355   0.724   2.067 -0.4293  1.7807  0.2850
 8400SOL    HW236834   4.263   0.613   2.013  2.2529 -0.5828  0.8857
 8401SOL     OW36835   2.252   2.533  15.962  0.2010  0.0351 -0.2773
 8401SOL    HW136836   2.338   2.523  15.923 -1.1170 -0.0660 -3.1339
 8401SOL    HW236837   2.200   2.501  15.888 -0.4836  0.8286 -0.1357
 8402SOL     OW36838   2.043   4.275   7.781 -0.0138  0.3260 -0.3288
 8402SOL    HW136839   2.083   4.362   7.791  2.4356 -1.2305  3.0127
 8402SOL    HW236840   2.061   4.267   7.687  1.2970  0.3235 -0.0769
 8403SOL     OW36841   4.135   1.307  11.409 -0.2947  0.1159  0.4869
 8403SOL    HW136842   4.156   1.383  11.465  1.2518  1.8672 -2.4697
 8403SOL    HW236843   4.187   1.334  11.333 -0.3334  1.4021  0.9086
 8404SOL     OW36844   0.905   0.537  17.353  0.1398 -1.0075 -0.8125
 8404SOL    HW136845   0.935   0.626  17.335  2.8548 -1.8863 -0.5637
 8404SOL    HW236846   0.813   0.551  17.373  0.6382  1.2369 -0.1542
 8405SOL     OW36847   3.084   1.463   1.919  0.8432  0.2055  0.2053
 8405SOL    HW136848   3.054   1.448   2.009  2.4042 -1.7315  0.4137
 8405SOL    HW236849   3.076   1.375   1.882  0.7162 -1.0466  3.2445
 8406SOL     OW36850   1.515   4.147   8.040 -0.4864 -0.0514 -0.1035
 8406SOL    HW136851   1.553   4.180   7.959 -1.2759  0.3418 -0.3092
 8406SOL    HW236852   1.463   4.072   8.013  0.2461 -0.7616  0.4346
 8407SOL     OW36853   2.802   2.197  12.930 -0.5386  0.0220  0.3511
 8407SOL    HW136854   2.749   2.188  13.010 -1.6742 -1.8881 -0.6120
 8407SOL    HW236855   2.851   2.275  12.956  1.4902 -1.2892  0.4739
 8408SOL     OW36856   1.757   3.262   8.563 -0.5715  0.9409  0.2735
 8408SOL    HW136857   1.748   3.168   8.545  1.4019  0.5814  1.1452
 8408SOL    HW236858   1.765   3.269   8.658 -0.8723  1.7455  0.2367
 8409SOL     OW36859   4.139   1.621   4.575  0.3662  0.2166 -0.0481
 8409SOL    HW136860   4.212   1.655   4.627  0.0546  1.0657 -0.1573
 8409SOL    HW236861   4.095   1.564   4.638 -2.0471  1.7468 -0.3526
 8410SOL     OW36862   0.841   2.517   6.203 -0.2514 -0.3022  0.3093
 8410SOL    HW136863   0.753   2.489   6.178  0.8987 -2.0055 -1.8645
 8410SOL    HW236864   0.901   2.468   6.146 -1.9910 -2.6554  0.4868
 8411SOL     OW36865   2.923   3.612   5.727 -0.0163  0.2321  0.1608
 8411SOL    HW136866   2.944   3.535   5.674  1.4319 -0.0633  1.1628
 8411SOL    HW236867   2.982   3.593   5.799  0.8182 -0.7005 -0.7571
 8412SOL     OW36868   1.935   3.331  14.570 -0.1954 -0.5055  0.2887
 8412SOL    HW136869   1.888   3.407  14.537  1.6905  1.9509  3.2591
 8412SOL    HW236870   1.886   3.298  14.645 -2.1083  0.9705 -0.3145
 8413SOL     OW36871   1.231   4.092   4.952  0.1179  0.8639  0.4721
 8413SOL    HW136872   1.241   4.039   5.032  2.6337 -2.2945 -1.9426
 8413SOL    HW236873   1.291   4.164   4.975 -0.3959  0.9383  1.5873
 8414SOL     OW36874   0.844   0.846   8.003 -0.6493  0.1573 -0.0264
 8414SOL    HW136875   0.840   0.941   7.994  0.4001  0.3221  1.2443
 8414SOL    HW236876   0.938   0.831   7.997 -0.6434  0.3385 -0.3819
 8415SOL     OW36877   0.258   3.919   2.186  0.5750 -0.2766 -0.7202
 8415SOL    HW136878   0.241   3.882   2.099  0.9576  0.6874 -1.2020
 8415SOL    HW236879   0.180   3.883   2.228  1.7644 -0.5033  1.3072
 8416SOL     OW36880   3.884   1.348  11.864 -0.4132 -0.2478 -0.1866
 8416SOL    HW136881   3.877   1.399  11.944 -0.0548 -0.8765  0.2465
 8416SOL    HW236882   3.961   1.389  11.826 -0.6403 -0.6308 -1.0667
 8417SOL     OW36883   4.237   3.592  11.471 -0.1639 -0.2157 -0.1121
 8417SOL    HW136884   4.196   3.658  11.416 -0.1538  1.3549  1.7701
 8417SOL    HW236885   4.276   3.537  11.403 -1.0352 -0.1925 -0.6307
 8418SOL     OW36886   2.075   2.832   6.055 -0.0088 -0.4595 -0.4222
 8418SOL    HW136887   2.168   2.825   6.075 -0.8383 -1.7379  2.9439
 8418SOL    HW236888   2.079   2.822   5.960 -1.8928 -0.4382 -0.5231
 8419SOL     OW36889   1.840   4.002   7.488 -0.2271 -0.2520  0.3261
 8419SOL    HW136890   1.864   3.909   7.488  2.9033  0.5413  2.3381
 8419SOL    HW236891   1.884   4.026   7.407 -0.9245 -0.0917 -0.0042
 8420SOL     OW36892   4.315   3.235   1.882 -0.1116 -0.0656 -0.8844
 8420SOL    HW136893   4.369   3.295   1.831  1.8280 -0.4275  0.7685
 8420SOL    HW236894   4.234   3.286   1.894  2.1753  3.3385 -0.0639
 8421SOL     OW36895   2.232   1.623   9.656 -0.4194 -0.5527 -0.7058
 8421SOL    HW136896   2.169   1.573   9.708 -0.5962  2.4144  1.9758
 8421SOL    HW236897   2.269   1.559   9.596 -0.7240 -0.2179 -1.2553
 8422SOL     OW36898   0.730   3.428   8.063 -0.2078 -0.1875  0.4603
 8422SOL    HW136899   0.660   3.484   8.096  0.0249 -0.8528  2.0831
 8422SOL    HW236900   0.711   3.441   7.971  2.1610  0.6784  0.0846
 8423SOL     OW36901   4.676   1.989   8.370  0.1159 -0.3620 -0.1160
 8423SOL    HW136902   4.714   1.938   8.441 -0.1987 -0.5557 -0.0869
 8423SOL    HW236903   4.677   2.074   8.414  3.0763  0.2498 -1.3977
 8424SOL     OW36904   4.723   0.590   9.322 -0.9177  0.2438  0.5144
 8424SOL    HW136905   0.001   0.548   9.408  2.7644  0.0429  0.0021
 8424SOL    HW236906   0.079   0.570   9.289 -1.0401  0.7327 -0.1073
 8425SOL     OW36907   1.494   2.381   6.446  0.2002  0.4890 -0.4045
 8425SOL    HW136908   1.512   2.361   6.538 -0.6869 -0.0288 -0.3482
 8425SOL    HW236909   1.584   2.368   6.416  0.1240 -2.1313  0.4414
 8426SOL     OW36910   3.149   0.744  14.767 -0.1642  0.3610 -0.0231
 8426SOL    HW136911   3.084   0.813  14.752 -0.4453  0.3151  0.9691
 8426SOL    HW236912   3.221   0.789  14.722  0.1067 -0.1404 -0.0831
 8427SOL     OW36913   4.259   2.261   4.401 -0.0643 -0.3509 -0.4008
 8427SOL    HW136914   4.255   2.337   4.343  1.1403 -2.1419 -2.8548
 8427SOL    HW236915   4.337   2.278   4.454  0.2457 -0.3142 -0.8713
 8428SOL     OW36916   2.516   3.221   9.798  0.2537  0.9493 -0.6844
 8428SOL    HW136917   2.567   3.189   9.723 -0.3258 -0.0887 -0.6282
 8428SOL    HW236918   2.428   3.185   9.785  0.3105  0.1193  1.3074
 8429SOL     OW36919   1.674   3.409   3.147 -0.1528  0.2109  0.5663
 8429SOL    HW136920   1.719   3.471   3.204 -0.4672  0.9525  0.0051
 8429SOL    HW236921   1.666   3.460   3.066 -0.5268 -2.9367 -1.3830
 8430SOL     OW36922   2.331   2.036   7.414 -0.3087  0.2343 -0.5705
 8430SOL    HW136923   2.299   1.954   7.452 -0.1472  0.4927  0.1266
 8430SOL    HW236924   2.371   2.026   7.328  0.4886  0.4814 -0.2338
 8431SOL     OW36925   4.557   3.428   8.516  0.0475  0.3201  0.4898
 8431SOL    HW136926   4.550   3.481   8.596 -3.5111 -2.5198  2.0380
 8431SOL    HW236927   4.468   3.438   8.482 -0.3586 -1.7898  0.9335
 8432SOL     OW36928   2.810   0.770  17.447  0.1266 -0.9394 -0.1872
 8432SOL    HW136929   2.763   0.757  17.529 -1.9639  0.7835 -1.0990
 8432SOL    HW236930   2.820   0.865  17.446 -0.0563 -0.9136  1.0518
 8433SOL     OW36931   1.751   0.723   4.083  0.0092 -0.4278 -0.5595
 8433SOL    HW136932   1.705   0.769   4.153  0.3388 -0.8098 -0.0899
 8433SOL    HW236933   1.795   0.790   4.031 -0.7096  1.2668  1.0047
 8434SOL     OW36934   3.793   1.014  17.445  0.6788 -0.2842  0.3021
 8434SOL    HW136935   3.836   0.976  17.368  1.7640  0.6337  0.4441
 8434SOL    HW236936   3.871   1.033  17.498 -0.7788 -0.4442  2.5104
 8435SOL     OW36937   0.071   2.934   7.607  0.1780 -0.3691  0.2010
 8435SOL    HW136938   0.102   3.010   7.557 -0.3116 -0.5712 -0.4087
 8435SOL    HW236939   0.155   2.896   7.630 -0.0385 -2.5495 -2.6601
 8436SOL     OW36940   1.915   4.328  11.884 -0.3788  0.1880 -0.6953
 8436SOL    HW136941   1.980   4.318  11.814  0.9795 -0.2480  0.6114
 8436SOL    HW236942   1.894   4.419  11.863 -0.2380  0.2649 -0.5053
 8437SOL     OW36943   4.396   1.939   2.083 -0.2804 -0.0767 -0.6453
 8437SOL    HW136944   4.438   2.016   2.046  0.6910 -0.5395 -0.4946
 8437SOL    HW236945   4.452   1.863   2.065  0.3617 -0.1994  1.9050
 8438SOL     OW36946   0.221   2.507   7.393  0.0850  0.8000  0.5911
 8438SOL    HW136947   0.180   2.457   7.323  0.2628  0.7447  0.5272
 8438SOL    HW236948   0.301   2.538   7.352  0.2638  0.3074  0.5672
 8439SOL     OW36949   0.033   4.351   5.314 -0.2575 -0.0831 -0.1781
 8439SOL    HW136950   0.011   4.259   5.327 -0.4624 -0.2870 -1.8540
 8439SOL    HW236951   0.120   4.356   5.352 -0.4757 -0.8171  0.4057
 8440SOL     OW36952   0.590   2.072   7.207  0.2899  0.0942  0.3772
 8440SOL    HW136953   0.579   2.167   7.200  1.3929  0.3322  1.9978
 8440SOL    HW236954   0.561   2.036   7.123  1.4897 -1.2856  0.5456
 8441SOL     OW36955   4.283   1.291  17.651  0.5152  0.1426 -0.3354
 8441SOL    HW136956   4.278   1.370  17.705  0.0502 -1.0223  1.3114
 8441SOL    HW236957   4.200   1.287  17.604  1.1408 -0.7731 -1.3649
 8442SOL     OW36958   1.024   4.267   9.072  0.6452 -0.0015 -0.0610
 8442SOL    HW136959   0.996   4.350   9.032 -0.5535 -0.4866 -0.2411
 8442SOL    HW236960   0.947   4.211   9.061  0.4611  0.1410  0.5479
 8443SOL     OW36961   3.930   2.331   0.708  0.5955 -0.3026  0.0862
 8443SOL    HW136962   3.922   2.239   0.733 -1.0208  0.1304  1.1497
 8443SOL    HW236963   4.017   2.338   0.747  0.9985 -0.4821 -0.7762
 8444SOL     OW36964   3.067   1.658  12.885 -0.0007  0.3073 -0.3115
 8444SOL    HW136965   3.133   1.589  12.880 -0.0821  0.0748  1.5525
 8444SOL    HW236966   2.983   1.611  12.889 -0.0494  0.4392  0.2212
 8445SOL     OW36967   2.779   2.158   6.888  0.3033 -0.0844 -0.8341
 8445SOL    HW136968   2.855   2.145   6.945 -0.2103 -1.3711 -0.4579
 8445SOL    HW236969   2.821   2.139   6.804  0.6205 -1.1781 -0.4314
 8446SOL     OW36970   1.109   1.311  12.840 -0.3105  0.6431  0.1042
 8446SOL    HW136971   1.067   1.357  12.913 -0.7066  0.1414  0.1938
 8446SOL    HW236972   1.160   1.247  12.890 -1.4926  0.4603  1.0901
 8447SOL     OW36973   3.366   2.986   7.383  0.2369 -0.3525  0.7763
 8447SOL    HW136974   3.393   2.999   7.473 -1.4262  0.0226  1.2142
 8447SOL    HW236975   3.328   3.071   7.361  1.0324 -0.5251 -1.3462
 8448SOL     OW36976   4.351   3.954   5.259 -0.5066 -0.2850  0.0928
 8448SOL    HW136977   4.308   3.902   5.191 -0.1313 -0.2366 -0.1823
 8448SOL    HW236978   4.281   3.996   5.307  1.2436  1.3302  1.2047
 8449SOL     OW36979   2.099   0.927   9.039  0.1196 -0.3421  0.1812
 8449SOL    HW136980   2.090   0.919   9.134 -0.8393 -1.4849  0.0026
 8449SOL    HW236981   2.186   0.890   9.024 -0.0905 -0.6107 -0.3942
 8450SOL     OW36982   2.228   0.876   0.867 -0.3833 -0.4283 -0.3046
 8450SOL    HW136983   2.177   0.931   0.807 -2.0031 -3.1724 -1.4368
 8450SOL    HW236984   2.315   0.878   0.825 -0.2555  0.9991  0.0027
 8451SOL     OW36985   0.387   2.432   3.505  0.2651 -0.1530  0.7529
 8451SOL    HW136986   0.391   2.346   3.465  0.0575  0.2974 -0.2465
 8451SOL    HW236987   0.478   2.451   3.530  0.6585 -1.3944  0.2236
 8452SOL     OW36988   1.849   0.577   7.237 -0.1557 -0.1082 -0.0546
 8452SOL    HW136989   1.826   0.662   7.274  2.0626  0.2813  0.4920
 8452SOL    HW236990   1.853   0.604   7.146 -3.7259  0.5047 -0.0027
 8453SOL     OW36991   0.077   2.456   8.290 -0.2270  0.4248  0.2522
 8453SOL    HW136992   0.081   2.364   8.265  1.3858  0.9316 -1.2953
 8453SOL    HW236993   0.157   2.480   8.243 -1.2392 -0.4633 -1.9262
 8454SOL     OW36994   2.505   1.760   7.157 -0.1110  0.5703  0.7007
 8454SOL    HW136995   2.421   1.767   7.111  0.1881 -0.8499 -0.0474
 8454SOL    HW236996   2.562   1.810   7.099 -0.3774 -1.2661 -1.1430
 8455SOL     OW36997   0.363   4.240   2.859  0.0995  0.8193  0.2065
 8455SOL    HW136998   0.343   4.263   2.768  2.5360  0.4541 -0.4289
 8455SOL    HW236999   0.428   4.172   2.838 -0.2182  0.0580  1.6767
 8456SOL     OW37000   4.210   3.787   5.088 -0.5387  0.0723  0.5030
 8456SOL    HW137001   4.141   3.813   5.026 -0.1572  0.0008  0.0481
 8456SOL    HW237002   4.277   3.747   5.032 -1.6436  0.7979 -1.3312
 8457SOL     OW37003   3.486   3.925   5.844 -0.0618  0.0942  0.1983
 8457SOL    HW137004   3.550   3.888   5.784 -0.8746 -1.0627  0.0262
 8457SOL    HW237005   3.491   3.864   5.918 -0.3991  1.8425  1.6445
 8458SOL     OW37006   2.747   0.244   8.402  0.5299  0.5764  0.0415
 8458SOL    HW137007   2.797   0.162   8.401 -0.3402  0.0671 -1.1456
 8458SOL    HW237008   2.712   0.249   8.491  0.8894  0.1597  0.2068
 8459SOL     OW37009   2.962   3.404   2.749 -0.1917 -0.1086 -0.6325
 8459SOL    HW137010   2.943   3.448   2.666  0.4992 -0.1320 -0.8011
 8459SOL    HW237011   2.885   3.431   2.800  0.3421 -1.4932  0.8779
 8460SOL     OW37012   0.689   4.372   5.110  0.1687  0.5442  0.4137
 8460SOL    HW137013   0.618   4.381   5.046 -0.3595 -0.6291  0.8189
 8460SOL    HW237014   0.671   4.453   5.157 -0.7867 -0.1100  1.1904
 8461SOL     OW37015   0.916   0.568   5.519 -0.0803  0.2902  0.0659
 8461SOL    HW137016   0.926   0.472   5.518 -1.5442  0.1490 -0.2313
 8461SOL    HW237017   0.883   0.576   5.430 -0.0055 -0.6469 -0.0538
 8462SOL     OW37018   0.998   3.472   2.719 -0.5141  0.0191 -0.0925
 8462SOL    HW137019   0.942   3.543   2.750  2.0911  0.9090  2.5879
 8462SOL    HW237020   1.081   3.517   2.734 -0.8858  1.5576 -2.6814
 8463SOL     OW37021   2.596   0.166   5.146 -0.4431 -0.5016  0.0602
 8463SOL    HW137022   2.576   0.250   5.106  0.1001 -0.2943  0.2235
 8463SOL    HW237023   2.516   0.126   5.179  1.3422 -1.6227  3.1300
 8464SOL     OW37024   2.998   2.961   0.937  0.2672  0.6844 -0.0539
 8464SOL    HW137025   3.088   2.931   0.930  0.6167  1.7228  0.0125
 8464SOL    HW237026   3.004   3.038   0.994  1.4609  0.5092  0.0563
 8465SOL     OW37027   0.417   2.932   2.295  0.4971 -0.0389 -0.7184
 8465SOL    HW137028   0.477   2.865   2.329  2.2246  1.7794 -0.1263
 8465SOL    HW237029   0.477   3.004   2.275  0.1818 -0.1429 -2.0309
 8466SOL     OW37030   2.124   2.345  12.456 -0.1517 -0.0507  0.6653
 8466SOL    HW137031   2.103   2.402  12.531 -0.5304  1.6333 -0.7268
 8466SOL    HW237032   2.179   2.282  12.503  1.1346  0.9278  0.4584
 8467SOL     OW37033   4.437   2.469  10.402 -0.0097  0.1859  0.8922
 8467SOL    HW137034   4.441   2.397  10.339 -3.6573  0.8940 -0.1205
 8467SOL    HW237035   4.358   2.513  10.371 -0.0906 -0.2215  0.5228
 8468SOL     OW37036   3.379   2.661   9.244 -0.1167  0.2750  0.6752
 8468SOL    HW137037   3.319   2.736   9.237  2.4259  2.2095 -0.5344
 8468SOL    HW237038   3.403   2.677   9.335  2.2552 -0.7862  0.2440
 8469SOL     OW37039   3.532   2.529   2.983  0.3453  0.0078  0.7652
 8469SOL    HW137040   3.529   2.442   2.944  1.5525  0.3446 -0.0918
 8469SOL    HW237041   3.438   2.548   2.989  0.6444  1.5374  0.7078
 8470SOL     OW37042   1.514   0.459  17.414 -0.4814 -0.0772 -0.1443
 8470SOL    HW137043   1.577   0.423  17.351  0.9683  0.5882  0.9287
 8470SOL    HW237044   1.445   0.480  17.350 -0.5146  0.8554  0.1996
 8471SOL     OW37045   4.571   2.962   1.904 -0.6041  0.1809  0.0566
 8471SOL    HW137046   4.613   3.017   1.970  0.2766 -0.7430  0.2768
 8471SOL    HW237047   4.642   2.906   1.871  0.4169  0.6351  1.4789
 8472SOL     OW37048   4.698   2.309   0.179 -0.2973 -0.3555  0.0762
 8472SOL    HW137049   4.699   2.259   0.098 -1.0647  0.2541 -0.3092
 8472SOL    HW237050   4.606   2.337   0.178  0.0414  0.6957 -1.2205
 8473SOL     OW37051   0.947   2.724   3.948 -0.2669 -1.0125  0.7678
 8473SOL    HW137052   1.008   2.736   3.875 -0.2549 -0.5185  0.8573
 8473SOL    HW237053   1.002   2.697   4.022 -1.5843 -2.5805  1.1807
 8474SOL     OW37054   3.766   1.984   6.783  0.0775 -0.0986  0.3402
 8474SOL    HW137055   3.710   2.061   6.768 -0.9452 -0.5897  1.5834
 8474SOL    HW237056   3.703   1.944   6.843  1.2486  1.1861  2.4226
 8475SOL     OW37057   4.572   1.217  11.726  0.2113  0.3865  0.0715
 8475SOL    HW137058   4.537   1.222  11.637 -0.9352  0.7214  0.5429
 8475SOL    HW237059   4.615   1.303  11.731 -0.9443  1.1198 -2.7844
 8476SOL     OW37060   2.544   3.784  12.701 -0.5617  0.2654 -0.7843
 8476SOL    HW137061   2.559   3.769  12.794  1.8132 -0.6268 -1.3192
 8476SOL    HW237062   2.628   3.793  12.658  0.1341 -0.0421  0.5098
 8477SOL     OW37063   3.618   1.156   3.454 -0.2766  0.5053  0.3709
 8477SOL    HW137064   3.532   1.198   3.461 -0.4592  0.4907 -1.6860
 8477SOL    HW237065   3.661   1.228   3.409 -1.9238  0.4401 -1.3405
 8478SOL     OW37066   3.013   0.173   6.149 -0.3361 -0.2103  0.4160
 8478SOL    HW137067   3.034   0.196   6.058 -2.0123  1.4188  0.4243
 8478SOL    HW237068   3.022   0.079   6.135 -3.2910 -0.6753  1.5660
 8479SOL     OW37069   0.124   3.167   5.201 -0.1643  0.4626  0.3124
 8479SOL    HW137070   0.032   3.148   5.182 -0.3002  0.1199  1.3446
 8479SOL    HW237071   0.154   3.088   5.245 -0.9287  0.3399  0.6069
 8480SOL     OW37072   4.669   0.543   1.976  0.1421  0.1354  0.2171
 8480SOL    HW137073   4.661   0.519   2.069 -0.8409  0.5854  0.2462
 8480SOL    HW237074   4.696   0.634   1.980  0.8543 -0.0900  0.5330
 8481SOL     OW37075   1.289   1.955   1.898 -0.0701 -0.0944  0.1113
 8481SOL    HW137076   1.339   1.970   1.818  1.6782 -0.4853  1.1327
 8481SOL    HW237077   1.262   2.039   1.934 -1.8098  0.3832 -2.2976
 8482SOL     OW37078   1.387   2.891   4.864  0.4860  0.4554 -0.5172
 8482SOL    HW137079   1.307   2.851   4.830  0.6950 -0.3232 -0.0982
 8482SOL    HW237080   1.440   2.852   4.794  0.1651 -0.9697  0.0270
 8483SOL     OW37081   2.319   4.341   0.027 -0.1399  0.2751 -0.7684
 8483SOL    HW137082   2.409   4.351  17.727  0.8297 -1.0009  1.8341
 8483SOL    HW237083   2.307   4.266   0.085 -1.4939 -1.7757 -3.6945
 8484SOL     OW37084   2.640   0.649   2.633 -0.1215 -0.0828  0.2277
 8484SOL    HW137085   2.643   0.683   2.544 -1.9200 -1.5556 -0.3886
 8484SOL    HW237086   2.731   0.621   2.641  0.3825  1.4568 -0.2282
 8485SOL     OW37087   1.433   3.419   3.364  0.5826  0.9580 -0.3209
 8485SOL    HW137088   1.481   3.486   3.316  1.2455  2.3335  2.2726
 8485SOL    HW237089   1.475   3.438   3.448 -1.2041  0.3281  0.7253
 8486SOL     OW37090   1.729   0.585  11.118  0.1994 -1.0329 -0.1512
 8486SOL    HW137091   1.726   0.583  11.022  0.8224  0.6084 -0.2141
 8486SOL    HW237092   1.819   0.616  11.134  0.5311 -0.7807 -2.4548
 8487SOL     OW37093   1.204   0.286   5.497 -0.0423 -0.5602 -0.1170
 8487SOL    HW137094   1.240   0.226   5.432  1.7946 -2.2918  2.5126
 8487SOL    HW237095   1.284   0.322   5.534 -2.1200  1.6251  2.2824
 8488SOL     OW37096   2.424   2.918   4.618  0.1469 -0.4114  0.0397
 8488SOL    HW137097   2.520   2.913   4.613  0.1828  1.9431 -1.6460
 8488SOL    HW237098   2.405   2.838   4.568  1.8828  0.1169 -1.4528
 8489SOL     OW37099   3.401   4.269   5.689  0.0714 -0.0967 -0.3998
 8489SOL    HW137100   3.414   4.190   5.638 -0.9358 -0.4663 -0.0785
 8489SOL    HW237101   3.414   4.336   5.622 -1.9270  0.2263 -0.4413
 8490SOL     OW37102   2.622   3.109   9.350  0.4645  0.2752 -0.8913
 8490SOL    HW137103   2.531   3.089   9.367  1.2202 -1.6366  0.8355
 8490SOL    HW237104   2.669   3.079   9.428 -0.2476  2.4339  0.3541
 8491SOL     OW37105   0.537   0.448   6.159 -0.6382  0.0114 -0.3824
 8491SOL    HW137106   0.490   0.368   6.184  0.0562  0.2533  1.7138
 8491SOL    HW237107   0.546   0.489   6.245 -0.5529  0.7520 -0.7483
 8492SOL     OW37108   0.864   4.730  12.751  0.4296 -0.1189 -0.5157
 8492SOL    HW137109   0.791   4.669  12.754  0.2612  0.0316 -1.6109
 8492SOL    HW237110   0.890   0.004  12.843 -0.3167 -1.3710 -0.2228
 8493SOL     OW37111   4.113   0.200  16.839 -0.2737  0.5793  0.2899
 8493SOL    HW137112   4.135   0.155  16.920 -0.3802  3.1334  1.7469
 8493SOL    HW237113   4.197   0.237  16.812 -0.3470  0.0850 -0.6016
 8494SOL     OW37114   1.287   2.185   7.657 -0.1675 -0.5799  0.3267
 8494SOL    HW137115   1.201   2.208   7.620 -0.2562  1.3345  1.7027
 8494SOL    HW237116   1.338   2.229   7.590  0.0508  0.7975  1.4033
 8495SOL     OW37117   0.737   2.008   5.351  0.1916  0.1591 -0.6126
 8495SOL    HW137118   0.648   1.984   5.326  0.4083 -0.1780 -1.0489
 8495SOL    HW237119   0.778   2.019   5.265  0.2593  1.8442 -0.3738
 8496SOL     OW37120   4.013   3.974   2.480  0.5956  0.2769  0.3239
 8496SOL    HW137121   3.952   3.911   2.519 -0.4923  0.5308 -0.9822
 8496SOL    HW237122   4.015   4.030   2.557 -1.8755 -0.5437  0.9856
 8497SOL     OW37123   1.651   2.599   6.650 -0.8883 -0.0057  0.4099
 8497SOL    HW137124   1.686   2.616   6.562  0.0450  0.9056  0.9497
 8497SOL    HW237125   1.649   2.690   6.679 -1.1562  0.4798 -1.1624
 8498SOL     OW37126   3.980   0.314   2.635  0.4658  0.0578  0.1553
 8498SOL    HW137127   3.912   0.355   2.582  0.4634  0.0764  0.1728
 8498SOL    HW237128   3.981   0.229   2.590  2.0960 -1.0365  2.2703
 8499SOL     OW37129   4.185   0.210   3.786  0.1653  0.7448  1.1315
 8499SOL    HW137130   4.200   0.146   3.855  0.4122 -0.2791  0.1168
 8499SOL    HW237131   4.093   0.203   3.759  1.0643 -1.9367 -1.1967
 8500SOL     OW37132   1.843   0.084   8.461  0.4115 -0.1293 -0.2871
 8500SOL    HW137133   1.841   0.086   8.557  1.5818  1.1693 -0.2784
 8500SOL    HW237134   1.785   0.011   8.441 -1.3502  1.1001  0.3970
 8501SOL     OW37135   4.217   1.881   7.685  0.3058 -0.4158  0.2684
 8501SOL    HW137136   4.262   1.800   7.706  0.2763 -0.7682 -0.9994
 8501SOL    HW237137   4.276   1.954   7.704 -0.4236 -0.1834  1.6443
 8502SOL     OW37138   2.419   0.433   1.517  0.3701  0.2831 -0.2303
 8502SOL    HW137139   2.361   0.423   1.593  0.4547  0.5606 -0.1313
 8502SOL    HW237140   2.420   0.527   1.504  0.5826  0.2436 -0.4772
 8503SOL     OW37141   0.067   1.424   4.802  0.3652 -0.0612 -0.0882
 8503SOL    HW137142   0.020   1.464   4.729 -1.9374 -0.3705  1.2200
 8503SOL    HW237143   0.009   1.446   4.875  0.1313  0.3236 -0.3912
 8504SOL     OW37144   1.752   4.042  17.161  0.0493 -0.1845  0.0568
 8504SOL    HW137145   1.843   4.028  17.188  1.0962  1.0796 -2.9030
 8504SOL    HW237146   1.706   4.014  17.240 -0.0767 -0.2219 -0.0296
 8505SOL     OW37147   3.241   2.388   6.747  0.5240  0.2288 -0.2530
 8505SOL    HW137148   3.286   2.466   6.717  0.6448  0.4047  0.3910
 8505SOL    HW237149   3.160   2.423   6.784  0.0537 -0.3366 -0.7466
 8506SOL     OW37150   0.713   1.372  12.715  0.2189 -0.8620  0.1962
 8506SOL    HW137151   0.713   1.450  12.658  1.1362 -1.1886 -0.2453
 8506SOL    HW237152   0.800   1.342  12.689  0.9001  1.9916 -0.8264
 8507SOL     OW37153   0.917   2.499  10.329 -0.4615  0.2388 -0.4097
 8507SOL    HW137154   0.888   2.455  10.249  1.9635 -1.2039 -0.4595
 8507SOL    HW237155   0.854   2.571  10.327 -0.2034  0.4912  0.7827
 8508SOL     OW37156   4.722   3.450   1.364 -0.4215  0.5039  0.4130
 8508SOL    HW137157   0.007   3.356   1.356  0.3836  0.6044  0.9720
 8508SOL    HW237158   4.655   3.456   1.296  1.2066 -0.3525 -1.2735
 8509SOL     OW37159   4.201   3.788   0.567  0.0570 -0.1368  0.3780
 8509SOL    HW137160   4.261   3.862   0.556 -1.2376  0.7454 -0.7839
 8509SOL    HW237161   4.263   3.720   0.594  1.3447  0.9833  0.2323
 8510SOL     OW37162   1.375   0.261   8.533  0.0777  0.0380  0.1530
 8510SOL    HW137163   1.419   0.177   8.521 -0.7118 -0.2504 -0.7345
 8510SOL    HW237164   1.445   0.324   8.514  0.3018 -1.1141 -2.7719
 8511SOL     OW37165   1.805   4.717   5.574  0.1647  0.0986 -0.4689
 8511SOL    HW137166   1.898   0.007   5.564 -0.1676  1.0131 -1.5385
 8511SOL    HW237167   1.812   4.649   5.641  2.2795  0.6508 -0.1272
 8512SOL     OW37168   1.319   1.713   3.469  0.9594  0.3947  0.2067
 8512SOL    HW137169   1.398   1.704   3.522 -0.2577  0.1991  1.9834
 8512SOL    HW237170   1.320   1.623   3.434  0.6108  0.5692 -0.2623
 8513SOL     OW37171   1.061   2.213   7.492 -0.4193  0.0862  0.2872
 8513SOL    HW137172   1.042   2.211   7.398  2.3240 -1.0190 -0.2415
 8513SOL    HW237173   0.980   2.175   7.524 -0.7663 -0.1569 -0.8580
 8514SOL     OW37174   3.148   4.272   6.515  0.3015  0.2490  0.0433
 8514SOL    HW137175   3.075   4.241   6.460 -0.8916 -0.5719  2.0918
 8514SOL    HW237176   3.120   4.265   6.606  0.2758 -0.0504  0.0128
 8515SOL     OW37177   3.714   4.483   7.699  0.4309 -0.3074  0.4901
 8515SOL    HW137178   3.728   4.568   7.657 -0.9826 -0.8841 -1.1955
 8515SOL    HW237179   3.658   4.501   7.774 -0.2143  1.3794 -0.3900
 8516SOL     OW37180   3.814   0.255   2.083  0.9012 -0.4227 -0.4130
 8516SOL    HW137181   3.903   0.271   2.051  1.2173 -3.0208 -0.7876
 8516SOL    HW237182   3.790   0.344   2.111 -0.2643 -0.5280 -1.0604
 8517SOL     OW37183   4.275   1.745  13.775  0.3809 -0.1098 -0.4642
 8517SOL    HW137184   4.228   1.665  13.752 -1.2770 -0.5018  4.3113
 8517SOL    HW237185   4.317   1.772  13.693 -1.1889 -1.5737 -1.7678
 8518SOL     OW37186   3.059   0.481   3.474  0.4047  0.4733 -0.1078
 8518SOL    HW137187   3.019   0.408   3.522  1.5152 -0.4933 -0.6252
 8518SOL    HW237188   2.990   0.538   3.441 -2.4389 -2.3786  0.8796
 8519SOL     OW37189   3.273   1.787   6.837  0.8155  0.8245 -0.1848
 8519SOL    HW137190   3.362   1.760   6.858  0.6250 -0.7837 -1.3712
 8519SOL    HW237191   3.233   1.799   6.923  0.3901  2.6868 -0.6590
 8520SOL     OW37192   3.361   3.630   4.566 -0.4016  0.0405 -0.3885
 8520SOL    HW137193   3.344   3.616   4.659 -0.3282  0.3436 -0.3328
 8520SOL    HW237194   3.455   3.621   4.554 -0.3000  0.5339  0.0892
 8521SOL     OW37195   2.513   2.070   2.885 -0.1678 -0.0344  0.0306
 8521SOL    HW137196   2.554   2.083   2.800  0.9212  0.0757  0.5641
 8521SOL    HW237197   2.595   2.043   2.928  1.2528  2.2242 -1.2794
 8522SOL     OW37198   0.245   2.120   7.927 -0.2975 -0.0310 -0.4669
 8522SOL    HW137199   0.289   2.060   7.868  1.2382  0.5440  0.1076
 8522SOL    HW237200   0.290   2.203   7.914 -0.8793  0.3524 -0.0978
 8523SOL     OW37201   2.273   0.852   1.172  0.3173 -0.3627  0.0020
 8523SOL    HW137202   2.355   0.892   1.144 -0.0724  0.8724  0.6209
 8523SOL    HW237203   2.232   0.829   1.088  2.3070 -2.4697 -0.3922
 8524SOL     OW37204   2.742   0.838   8.415 -0.0599 -0.4721  0.6052
 8524SOL    HW137205   2.769   0.846   8.506 -0.0871  0.8826  0.4873
 8524SOL    HW237206   2.755   0.744   8.405 -1.0171 -0.6754  1.2956
 8525SOL     OW37207   0.333   1.070   2.038 -0.1816  0.2648 -0.6673
 8525SOL    HW137208   0.390   0.994   2.047 -0.9849 -0.2373  0.1624
 8525SOL    HW237209   0.350   1.086   1.945  1.7185 -0.5246 -0.4569
 8526SOL     OW37210   0.727   2.092   2.718  0.1402 -0.2803  0.5882
 8526SOL    HW137211   0.804   2.059   2.766 -0.0056 -0.9818  0.3492
 8526SOL    HW237212   0.781   2.136   2.652 -1.1319 -0.3307 -0.4699
 8527SOL     OW37213   1.436   1.409   2.619  0.1731  0.7704  0.1625
 8527SOL    HW137214   1.514   1.354   2.619  1.6932  2.9693  2.3689
 8527SOL    HW237215   1.432   1.439   2.528 -4.2834 -2.8430 -0.8401
 8528SOL     OW37216   2.801   1.906   0.871  0.1810  0.1417  0.2206
 8528SOL    HW137217   2.791   1.820   0.910  0.4878 -0.1072 -0.2554
 8528SOL    HW237218   2.859   1.889   0.796  1.8469  0.4969  1.4256
 8529SOL     OW37219   4.189   4.047   6.794  0.1421  0.1607  0.1077
 8529SOL    HW137220   4.229   3.969   6.832  1.3242 -0.2926 -2.0357
 8529SOL    HW237221   4.096   4.024   6.799  0.2990 -0.2752  0.9106
 8530SOL     OW37222   4.090   3.994   3.857 -0.0981 -0.8265  0.0401
 8530SOL    HW137223   4.084   3.949   3.772 -2.4993 -0.1099 -0.1602
 8530SOL    HW237224   4.174   4.040   3.844 -0.0849 -0.7670  0.3272
 8531SOL     OW37225   4.147   4.432  12.255 -0.0459  0.2043  0.3107
 8531SOL    HW137226   4.234   4.423  12.293  1.1294 -0.0858 -2.4618
 8531SOL    HW237227   4.142   4.525  12.236 -0.4438  0.5685  2.1809
 8532SOL     OW37228   3.835   1.021   9.573 -0.2332  0.0441 -0.5971
 8532SOL    HW137229   3.881   0.998   9.493 -0.8504 -2.3640 -0.2513
 8532SOL    HW237230   3.905   1.014   9.638  0.7022 -1.1977 -1.7516
 8533SOL     OW37231   2.631   1.360  15.852 -0.2405  0.0738 -0.2298
 8533SOL    HW137232   2.574   1.317  15.788  1.5401 -1.6699 -0.6417
 8533SOL    HW237233   2.686   1.410  15.791 -0.4197  0.1394 -0.3382
 8534SOL     OW37234   0.416   4.319   9.148 -0.3049 -0.1329  1.3775
 8534SOL    HW137235   0.499   4.365   9.139 -0.6765  0.1744 -0.4655
 8534SOL    HW237236   0.373   4.368   9.218  1.0651  0.9051  1.4973
 8535SOL     OW37237   0.164   3.645  14.003  0.3441 -0.3964  0.0563
 8535SOL    HW137238   0.085   3.675  13.957  1.9317  0.3826 -2.1691
 8535SOL    HW237239   0.152   3.679  14.092 -1.3196  0.4392 -0.4795
 8536SOL     OW37240   0.446   4.515  11.707  0.2098 -0.9215 -0.8365
 8536SOL    HW137241   0.383   4.568  11.658  1.2088  1.3480  0.3331
 8536SOL    HW237242   0.469   4.576  11.777  0.8450 -1.7200 -0.3481
 8537SOL     OW37243   4.479   2.527  12.413 -0.0011 -0.3794 -0.1068
 8537SOL    HW137244   4.478   2.617  12.380  1.7735  0.0627  1.0493
 8537SOL    HW237245   4.558   2.488  12.376 -0.4919  1.4113 -3.0114
 8538SOL     OW37246   1.950   2.272   3.255 -0.7331 -0.6700  0.0460
 8538SOL    HW137247   1.982   2.344   3.200 -2.5187  0.9741  1.1883
 8538SOL    HW237248   2.016   2.210   3.225  0.4759  1.1113 -1.0411
 8539SOL     OW37249   0.566   4.484   0.582  0.0641  0.4464  0.2252
 8539SOL    HW137250   0.482   4.529   0.581 -0.5013 -0.6656 -1.8034
 8539SOL    HW237251   0.570   4.461   0.489 -0.1069 -1.5244  0.6990
 8540SOL     OW37252   4.567   0.521   2.523 -0.4941  0.0970  0.0177
 8540SOL    HW137253   4.648   0.557   2.557  0.4255  0.7657 -2.8330
 8540SOL    HW237254   4.583   0.428   2.540  0.3032  0.6288  2.0458
 8541SOL     OW37255   0.619   4.499   9.170  0.2270  0.0280  0.7619
 8541SOL    HW137256   0.687   4.489   9.104  0.3326  2.3428  0.5178
 8541SOL    HW237257   0.610   4.594   9.169 -3.3030 -0.3232 -1.2177
 8542SOL     OW37258   2.158   2.685   8.720  0.3613  0.4440  0.4896
 8542SOL    HW137259   2.106   2.765   8.710 -1.4796 -0.7893  0.3507
 8542SOL    HW237260   2.206   2.668   8.638 -1.4786 -0.1945 -0.4469
 8543SOL     OW37261   4.256   2.110   3.780 -0.0557  0.3290  0.0119
 8543SOL    HW137262   4.295   2.023   3.772  1.4027  0.6906  3.2516
 8543SOL    HW237263   4.316   2.157   3.838 -0.0957  1.5873 -0.9636
 8544SOL     OW37264   4.661   1.494   6.127  0.2073  0.5207 -0.1577
 8544SOL    HW137265   4.669   1.547   6.206  0.8801  2.2023 -1.3712
 8544SOL    HW237266   4.732   1.432   6.143  0.6791  1.7328  2.4184
 8545SOL     OW37267   3.759   2.319   5.930 -0.7621 -0.2311 -0.7253
 8545SOL    HW137268   3.726   2.265   5.859 -1.0197 -0.9771 -0.0295
 8545SOL    HW237269   3.721   2.400   5.897 -0.7943  0.4617  0.9933
 8546SOL     OW37270   1.938   2.920  10.169 -0.2912 -0.0284 -0.0133
 8546SOL    HW137271   1.850   2.957  10.161 -0.6972 -0.8433  0.6531
 8546SOL    HW237272   1.959   2.932  10.262 -1.9670 -1.6935  0.5812
 8547SOL     OW37273   4.731   1.168   8.918 -0.4189 -0.4136 -0.0610
 8547SOL    HW137274   4.672   1.097   8.943  1.0400 -1.0753  1.4801
 8547SOL    HW237275   0.056   1.129   8.853  0.6910  2.3624 -0.7374
 8548SOL     OW37276   4.674   1.916   5.063  0.1716 -0.0977  0.1492
 8548SOL    HW137277   4.672   1.888   4.971  0.7474  0.3255  0.0078
 8548SOL    HW237278   4.694   1.832   5.104 -0.3324  0.4069  1.4110
 8549SOL     OW37279   4.154   4.448   7.440  0.2618 -0.0281 -0.3279
 8549SOL    HW137280   4.106   4.409   7.367 -1.8104  1.9230 -0.0029
 8549SOL    HW237281   4.237   4.403   7.426 -0.2685 -0.5064 -1.9442
 8550SOL     OW37282   2.280   1.502   8.560  0.1126 -1.0297 -0.1668
 8550SOL    HW137283   2.200   1.539   8.597  1.0284  0.2771  0.4918
 8550SOL    HW237284   2.293   1.443   8.634  2.8208  1.5986  1.4385
 8551SOL     OW37285   0.500   4.149   1.473 -0.1331  0.0707 -0.3977
 8551SOL    HW137286   0.426   4.097   1.503 -0.5042  0.4594 -0.6463
 8551SOL    HW237287   0.566   4.131   1.540 -0.2403  1.9253  0.1991
 8552SOL     OW37288   3.381   0.647   2.873  0.6671  0.3696  0.5922
 8552SOL    HW137289   3.348   0.736   2.861  1.4954  0.8430  1.7296
 8552SOL    HW237290   3.455   0.646   2.812  1.2147 -0.9200  1.2706
 8553SOL     OW37291   2.340   0.778   7.600  0.4326 -0.0310  0.0911
 8553SOL    HW137292   2.330   0.737   7.686  1.1656 -0.5012 -0.0458
 8553SOL    HW237293   2.269   0.730   7.558 -0.4575  0.8401  0.5944
 8554SOL     OW37294   2.211   3.555   1.152 -0.0943  0.0237 -0.2307
 8554SOL    HW137295   2.286   3.588   1.203  0.4699 -1.7505  0.0812
 8554SOL    HW237296   2.235   3.590   1.066 -2.0021 -0.1716 -0.8188
 8555SOL     OW37297   1.941   0.271   6.685  0.3506 -0.2815 -0.2179
 8555SOL    HW137298   1.932   0.184   6.724  2.6137 -0.0795  0.7712
 8555SOL    HW237299   1.857   0.284   6.641  0.2939 -2.3006 -0.7267
 8556SOL     OW37300   4.159   4.133   4.801  0.1510  0.0458 -0.2505
 8556SOL    HW137301   4.153   4.147   4.707  0.7281 -0.2536 -0.3322
 8556SOL    HW237302   4.249   4.100   4.801  0.4758  0.9659 -2.5812
 8557SOL     OW37303   4.457   3.850  11.374  0.6067 -0.6701 -0.2191
 8557SOL    HW137304   4.523   3.910  11.338 -0.1194  0.5524  0.4934
 8557SOL    HW237305   4.494   3.825  11.458 -0.7779 -2.9125 -0.2659
 8558SOL     OW37306   1.986   3.395   8.408 -0.1665  0.9253  0.1772
 8558SOL    HW137307   1.913   3.374   8.466 -0.0897 -0.9912 -0.4349
 8558SOL    HW237308   1.932   3.423   8.334 -1.8404 -2.3352  0.1660
 8559SOL     OW37309   2.363   1.683  13.927  0.6989 -0.3309 -0.5127
 8559SOL    HW137310   2.340   1.674  13.835  0.1418  1.4108 -0.5448
 8559SOL    HW237311   2.450   1.644  13.916  0.6342 -0.8755  0.8200
 8560SOL     OW37312   0.201   3.264   7.824 -0.1591 -0.0211 -0.3589
 8560SOL    HW137313   0.224   3.197   7.888 -1.2605 -0.6487 -0.6049
 8560SOL    HW237314   0.112   3.293   7.847  0.0911  0.4980 -0.0395
 8561SOL     OW37315   0.935   2.332   4.005  0.2460  0.0905 -0.1218
 8561SOL    HW137316   0.938   2.416   4.050 -1.4423  1.3254 -2.2941
 8561SOL    HW237317   0.963   2.272   4.074 -1.9334 -0.1411  0.5643
 8562SOL     OW37318   3.642   2.979   7.052  0.5612 -0.6254 -0.2376
 8562SOL    HW137319   3.556   3.012   7.079  0.7455 -1.0354  0.8436
 8562SOL    HW237320   3.687   3.064   7.052 -0.1504 -0.2433  0.1077
 8563SOL     OW37321   2.845   1.298   3.670  0.2277  0.5818  0.0153
 8563SOL    HW137322   2.936   1.282   3.646 -0.4258 -1.4170 -1.1559
 8563SOL    HW237323   2.799   1.302   3.586 -0.7237  0.5589  0.5321
 8564SOL     OW37324   4.346   2.118   7.772  0.8645  0.7295  0.0632
 8564SOL    HW137325   4.427   2.166   7.755  0.7239  0.6800 -0.7489
 8564SOL    HW237326   4.335   2.166   7.854 -2.2920 -1.0117  0.6588
 8565SOL     OW37327   3.057   0.412   7.187  0.4873 -0.4331 -0.1176
 8565SOL    HW137328   3.132   0.379   7.236  0.5483 -2.3457 -1.4855
 8565SOL    HW237329   3.052   0.358   7.108 -2.0918 -0.3997 -0.0020
 8566SOL     OW37330   0.502   1.914   4.882 -0.0512  0.6211 -0.0103
 8566SOL    HW137331   0.552   1.892   4.803 -1.7306 -0.3719 -0.8069
 8566SOL    HW237332   0.541   1.995   4.913  0.2745  0.2448  0.5499
 8567SOL     OW37333   2.684   4.006   3.722 -0.2863  0.1350 -0.3676
 8567SOL    HW137334   2.590   4.005   3.705 -0.0647  2.0288 -1.7689
 8567SOL    HW237335   2.694   3.915   3.749  1.2637  0.3020 -0.3674
 8568SOL     OW37336   0.456   1.346   7.414 -0.2971  0.4297  0.0068
 8568SOL    HW137337   0.433   1.437   7.432 -1.0330  0.8579 -3.0049
 8568SOL    HW237338   0.456   1.315   7.504  0.5797  1.1072  0.2354
 8569SOL     OW37339   0.030   3.582   6.975 -0.2177 -0.1244  0.3451
 8569SOL    HW137340   4.731   3.565   6.886 -1.0677  1.8228  0.2757
 8569SOL    HW237341   4.686   3.586   7.032 -0.3577 -1.6307  0.2474
 8570SOL     OW37342   4.586   2.075   3.297  0.0977 -0.3217  0.0580
 8570SOL    HW137343   4.618   2.159   3.330  0.1716 -0.5658  0.6187
 8570SOL    HW237344   4.520   2.063   3.366 -2.5583  1.2890 -2.2004
 8571SOL     OW37345   2.785   1.685   3.890  0.1852  0.2251  0.0349
 8571SOL    HW137346   2.790   1.591   3.911 -1.6652  0.1963  0.3342
 8571SOL    HW237347   2.870   1.705   3.849 -0.2521  0.7810 -0.6031
 8572SOL     OW37348   1.747   1.265   7.316  0.3754  0.0563 -0.2937
 8572SOL    HW137349   1.767   1.355   7.290  0.2612 -0.1961 -1.2602
 8572SOL    HW237350   1.659   1.273   7.279 -0.1912  0.6028  1.1445
 8573SOL     OW37351   3.782   2.762  10.711 -0.1952 -0.1890  0.0999
 8573SOL    HW137352   3.858   2.814  10.739 -1.6890  1.0416  1.8259
 8573SOL    HW237353   3.713   2.825  10.731 -2.1348 -2.3849  0.2377
 8574SOL     OW37354   2.183   2.632   4.700 -0.0691  0.0632  0.3647
 8574SOL    HW137355   2.144   2.623   4.787 -1.4140  0.3695 -0.2146
 8574SOL    HW237356   2.273   2.654   4.726  0.2718  0.3476 -1.0584
 8575SOL     OW37357   1.553   3.673   7.496  0.2072  0.7253 -0.5982
 8575SOL    HW137358   1.573   3.747   7.439 -0.9899  0.9858 -0.6734
 8575SOL    HW237359   1.520   3.609   7.433 -1.3145  2.0795 -1.1623
 8576SOL     OW37360   0.806   1.389  14.499 -0.2877 -0.3177 -0.4130
 8576SOL    HW137361   0.834   1.473  14.464  1.9470 -0.6928  0.4652
 8576SOL    HW237362   0.895   1.354  14.506 -0.9411 -1.9911 -0.3314
 8577SOL     OW37363   2.695   2.403   8.804  0.0603 -0.1794  0.0601
 8577SOL    HW137364   2.716   2.494   8.824 -2.1042  0.6748 -1.6250
 8577SOL    HW237365   2.784   2.369   8.814 -0.7197 -2.1525  0.4110
 8578SOL     OW37366   3.667   2.666   9.346 -0.1698 -0.4677 -0.2613
 8578SOL    HW137367   3.639   2.714   9.267 -0.2088  0.2306  0.1750
 8578SOL    HW237368   3.762   2.675   9.343 -0.1829 -0.3615 -0.3825
 8579SOL     OW37369   2.704   1.937   6.296  0.1906  0.0581 -0.3992
 8579SOL    HW137370   2.665   1.881   6.364 -0.5376  1.4414  0.3349
 8579SOL    HW237371   2.723   1.873   6.227  0.1317 -0.1519 -0.2239
 8580SOL     OW37372   3.552   4.102  16.737  0.1109  0.1767 -0.3827
 8580SOL    HW137373   3.628   4.057  16.774 -1.0074 -0.7447  0.7698
 8580SOL    HW237374   3.596   4.169  16.684 -1.9560  0.6854 -1.4684
 8581SOL     OW37375   1.927   0.551  10.906 -0.1222  0.7428 -0.7128
 8581SOL    HW137376   1.987   0.624  10.924 -0.4317  0.4621  1.4246
 8581SOL    HW237377   1.949   0.504  10.986 -2.3292  3.0659  1.2412
 8582SOL     OW37378   2.903   2.773   4.948  0.0894 -0.4179 -0.8109
 8582SOL    HW137379   2.849   2.827   5.007 -1.2570 -0.4463 -2.0166
 8582SOL    HW237380   2.942   2.831   4.883  2.0302  0.8024  1.4312
 8583SOL     OW37381   4.608   2.566   1.516  0.0603 -0.1176  0.3393
 8583SOL    HW137382   4.628   2.492   1.458 -0.1359  1.1588 -1.3787
 8583SOL    HW237383   4.582   2.529   1.600 -1.8248 -0.9980 -0.6271
 8584SOL     OW37384   3.789   3.551   3.532 -0.1544  0.3438 -0.0702
 8584SOL    HW137385   3.845   3.592   3.467  0.4075 -1.5483 -0.7907
 8584SOL    HW237386   3.713   3.609   3.525  0.5988  1.0752 -2.3109
 8585SOL     OW37387   2.077   0.926   7.705  0.8875 -0.7862 -0.2279
 8585SOL    HW137388   2.078   0.918   7.800  0.4990 -1.7167 -0.2993
 8585SOL    HW237389   2.128   0.847   7.687 -1.9301 -2.5372 -0.6904
 8586SOL     OW37390   0.363   3.411   5.920  0.3403 -0.2242 -0.1631
 8586SOL    HW137391   0.298   3.353   5.879  1.2387 -0.9105 -0.6166
 8586SOL    HW237392   0.399   3.455   5.843 -2.6790  1.1434 -0.8002
 8587SOL     OW37393   2.964   2.481   6.685  0.6682  0.1749  0.4285
 8587SOL    HW137394   2.876   2.516   6.701  0.4141 -0.9112  1.3965
 8587SOL    HW237395   2.992   2.486   6.776  2.1249  0.7119 -0.0577
 8588SOL     OW37396   0.498   0.400   5.850 -0.2045  0.3244 -0.0235
 8588SOL    HW137397   0.530   0.398   5.940  0.5495  1.2080 -0.2755
 8588SOL    HW237398   0.579   0.388   5.801 -0.7046  0.8254 -0.9712
 8589SOL     OW37399   1.362   3.377   2.528  0.2053 -0.0901 -0.2212
 8589SOL    HW137400   1.435   3.334   2.573 -0.7917 -0.2294  1.2801
 8589SOL    HW237401   1.392   3.467   2.542  0.7464 -0.2027 -0.6739
 8590SOL     OW37402   2.951   2.756   5.524  0.3499  0.8094 -0.3199
 8590SOL    HW137403   2.891   2.820   5.562 -0.7673  0.1310 -0.9352
 8590SOL    HW237404   2.904   2.731   5.444 -2.4517  1.8934  1.0061
 8591SOL     OW37405   3.783   4.386   4.103  0.1097 -0.0021 -0.5109
 8591SOL    HW137406   3.715   4.425   4.048 -0.4685 -0.7835 -0.3384
 8591SOL    HW237407   3.832   4.335   4.039  0.3131 -0.2263 -0.1785
 8592SOL     OW37408   2.492   1.659   2.696 -0.5550 -0.0022  0.1941
 8592SOL    HW137409   2.585   1.662   2.722 -0.8772 -0.6801  1.4177
 8592SOL    HW237410   2.505   1.586   2.636 -2.3578 -0.3723  0.2750
 8593SOL     OW37411   2.008   1.786   3.466 -0.0264 -0.4176 -0.0047
 8593SOL    HW137412   2.071   1.771   3.537  1.0909  3.6672 -0.1194
 8593SOL    HW237413   2.064   1.832   3.403 -1.1745  0.4272 -0.4101
 8594SOL     OW37414   1.271   3.182   4.968 -0.3036 -0.3175 -0.3988
 8594SOL    HW137415   1.337   3.131   4.920 -0.4165 -0.5143 -0.3455
 8594SOL    HW237416   1.289   3.151   5.057 -0.2893 -1.3728 -0.7726
 8595SOL     OW37417   3.016   4.473   6.747  0.7971  0.4985 -0.5865
 8595SOL    HW137418   2.924   4.498   6.740  0.7442  0.3252 -0.5198
 8595SOL    HW237419   3.024   4.390   6.795 -0.3181 -0.2243 -1.6418
 8596SOL     OW37420   2.918   0.502  10.810 -0.0085  0.1253 -0.3787
 8596SOL    HW137421   2.933   0.555  10.888  0.0160  1.0857 -1.0441
 8596SOL    HW237422   2.822   0.505  10.802  0.1235  0.3753 -1.9386
 8597SOL     OW37423   3.063   0.635  12.005 -0.0442  0.5004  0.0377
 8597SOL    HW137424   2.967   0.630  12.011  0.1185 -2.7075  0.0053
 8597SOL    HW237425   3.078   0.542  12.022 -1.3587  0.6308  1.9390
 8598SOL     OW37426   2.350   4.268  10.278  0.1084  0.4586  0.3000
 8598SOL    HW137427   2.346   4.357  10.314 -2.2245  0.8266 -0.9018
 8598SOL    HW237428   2.399   4.223  10.347  0.5927  2.1437  1.0603
 8599SOL     OW37429   1.859   2.138  16.785  0.0377 -0.2353  0.1499
 8599SOL    HW137430   1.933   2.111  16.732  1.1989  2.0718  0.5760
 8599SOL    HW237431   1.815   2.055  16.800  0.5632 -0.4574  0.4692
 8600SOL     OW37432   0.088   1.291   5.883 -0.1640 -0.3344  0.2480
 8600SOL    HW137433   0.031   1.217   5.904  0.3054 -0.5475  0.7690
 8600SOL    HW237434   0.120   1.310   5.971 -1.9321  0.8561  0.6366
 8601SOL     OW37435   0.548   2.604  15.494 -0.2333 -0.4323  0.4758
 8601SOL    HW137436   0.614   2.602  15.425  0.3287 -1.4028  1.0518
 8601SOL    HW237437   0.504   2.523  15.470 -1.0876 -0.1896  1.2504
 8602SOL     OW37438   3.705   0.952   2.856  0.5119  0.3779 -0.2948
 8602SOL    HW137439   3.756   0.904   2.790  0.3683  1.2040 -1.0113
 8602SOL    HW237440   3.725   0.891   2.927  0.0329  0.2262 -0.2930
 8603SOL     OW37441   0.227   0.444   4.755 -0.3143  0.0647  0.5357
 8603SOL    HW137442   0.155   0.381   4.754 -0.2310  0.0158 -2.2909
 8603SOL    HW237443   0.255   0.431   4.846 -0.8915 -1.4961  0.4934
 8604SOL     OW37444   1.567   0.339   8.782 -0.1385  0.4182 -0.1455
 8604SOL    HW137445   1.569   0.244   8.785  0.2783  0.4128 -0.5494
 8604SOL    HW237446   1.618   0.363   8.704 -0.0956  1.0967  0.0869
 8605SOL     OW37447   2.868   1.574   5.916 -0.3209  0.3925 -0.2165
 8605SOL    HW137448   2.814   1.499   5.891  1.3937 -0.3745 -1.6538
 8605SOL    HW237449   2.948   1.546   5.873  0.0684 -0.5629  1.1523
 8606SOL     OW37450   0.640   0.810   7.827  0.0946 -0.2828 -0.3516
 8606SOL    HW137451   0.608   0.727   7.864  0.8050 -0.1376  0.5576
 8606SOL    HW237452   0.720   0.817   7.878  0.3904 -1.4539 -0.6418
 8607SOL     OW37453   2.719   4.212   6.528 -0.1960  0.6157  0.2895
 8607SOL    HW137454   2.764   4.214   6.444  0.3342  0.4928  0.5704
 8607SOL    HW237455   2.664   4.290   6.522 -4.1419 -2.3167 -1.4683
 8608SOL     OW37456   0.584   3.221   7.137 -0.1285 -0.1009 -0.5697
 8608SOL    HW137457   0.642   3.223   7.214  1.1184 -0.1566 -1.5169
 8608SOL    HW237458   0.494   3.211   7.170 -0.1736  0.3974 -0.5437
 8609SOL     OW37459   2.984   1.619   3.680 -0.2972 -0.3911  0.8161
 8609SOL    HW137460   2.978   1.530   3.645  1.4757  0.2327 -1.0722
 8609SOL    HW237461   2.954   1.679   3.612  1.7614  0.0581  0.3087
 8610SOL     OW37462   2.382   0.703  10.325  0.0191  0.1156  0.0581
 8610SOL    HW137463   2.319   0.761  10.368  1.5937  0.0191  2.5214
 8610SOL    HW237464   2.333   0.623  10.346 -1.0533  1.4072  2.4220
 8611SOL     OW37465   0.155   2.977  16.767 -0.1836 -0.0221  0.3582
 8611SOL    HW137466   0.245   2.993  16.793 -0.2790  1.1401 -0.0227
 8611SOL    HW237467   0.123   3.059  16.729 -1.9233 -1.9317 -2.2596
 8612SOL     OW37468   1.825   1.875  13.557 -0.5283 -0.0231 -0.7913
 8612SOL    HW137469   1.865   1.810  13.498 -0.7680 -0.5714 -0.3493
 8612SOL    HW237470   1.739   1.835  13.571 -0.7093  0.5655 -0.2348
 8613SOL     OW37471   2.589   1.252   1.644  0.6098  0.3391 -0.5481
 8613SOL    HW137472   2.562   1.192   1.714  0.6924 -0.0848 -0.8751
 8613SOL    HW237473   2.618   1.178   1.589  0.1316 -1.0469  1.0532
 8614SOL     OW37474   4.330   0.357   6.130  0.6125 -0.0838  0.0873
 8614SOL    HW137475   4.373   0.373   6.046 -0.9806  0.1258 -0.6865
 8614SOL    HW237476   4.332   0.447   6.163 -1.8414  0.6629 -1.7885
 8615SOL     OW37477   3.697   0.109  13.634  0.1652 -0.0344  0.1994
 8615SOL    HW137478   3.653   0.033  13.672 -2.4806  0.8234 -1.1616
 8615SOL    HW237479   3.663   0.172  13.697  0.0852 -0.5963  0.7183
 8616SOL     OW37480   4.699   0.547   5.718  0.0532 -0.1287  0.4796
 8616SOL    HW137481   4.685   0.490   5.642  0.9435  1.5403 -0.9381
 8616SOL    HW237482   0.060   0.531   5.727  0.2349  1.2851  1.1066
 8617SOL     OW37483   0.236   3.328   4.757 -0.0272  0.2786  0.2351
 8617SOL    HW137484   0.267   3.401   4.811 -0.8940  1.5065 -0.9445
 8617SOL    HW237485   0.274   3.253   4.803 -1.1273 -0.7535 -0.5383
 8618SOL     OW37486   0.946   3.087   4.677 -0.6499 -0.1712 -0.4939
 8618SOL    HW137487   0.857   3.078   4.643 -0.8499 -1.6287  0.4222
 8618SOL    HW237488   0.926   3.161   4.734 -0.1197 -1.7013  1.6820
 8619SOL     OW37489   2.957   0.092   9.556 -0.6031  0.1620 -0.3734
 8619SOL    HW137490   2.891   0.119   9.620 -0.8378 -0.3019 -0.4116
 8619SOL    HW237491   2.910   0.105   9.474 -0.7910 -1.7263 -0.5840
 8620SOL     OW37492   0.591   4.333  16.442  0.0929  0.2942  0.3328
 8620SOL    HW137493   0.673   4.382  16.446  0.5120 -0.3302 -0.7817
 8620SOL    HW237494   0.579   4.318  16.536 -0.7583 -1.6495 -0.0684
 8621SOL     OW37495   3.891   4.528   4.296 -0.6694 -0.5241 -0.1912
 8621SOL    HW137496   3.855   4.473   4.226  2.4170  0.5409 -2.6035
 8621SOL    HW237497   3.817   4.523   4.356  0.6036  0.1530  1.4281
 8622SOL     OW37498   1.557   1.270   5.741 -0.2886 -0.0999  0.1305
 8622SOL    HW137499   1.484   1.245   5.798 -0.7819 -1.1604 -0.9686
 8622SOL    HW237500   1.629   1.243   5.799  0.8280  0.2594 -1.0822
 8623SOL     OW37501   2.868   2.260   4.274 -0.7781  0.2138 -0.7347
 8623SOL    HW137502   2.964   2.261   4.280 -0.8499  0.0948  0.5094
 8623SOL    HW237503   2.848   2.282   4.183  0.6297  0.2107 -1.0477
 8624SOL     OW37504   3.676   1.281   7.176  0.3905 -0.6336  0.1340
 8624SOL    HW137505   3.652   1.289   7.268  0.0581 -0.1689  0.0054
 8624SOL    HW237506   3.661   1.186   7.166 -5.1338  0.5812 -3.4082
 8625SOL     OW37507   2.835   1.663   0.239  0.1512  0.3901  0.6712
 8625SOL    HW137508   2.788   1.649   0.321 -0.7062  1.1259  0.3002
 8625SOL    HW237509   2.799   1.591   0.186 -0.3529 -0.1157  1.7082
 8626SOL     OW37510   2.265   0.312  11.383 -0.3969 -0.0664 -0.2437
 8626SOL    HW137511   2.304   0.372  11.447  1.5316 -0.7732 -0.7480
 8626SOL    HW237512   2.258   0.363  11.303 -0.5810  1.1347  0.5356
 8627SOL     OW37513   1.794   0.921   5.184 -0.9710 -0.2263  0.2057
 8627SOL    HW137514   1.781   0.967   5.102  0.0455  0.7792  0.6225
 8627SOL    HW237515   1.716   0.948   5.233 -2.0092 -0.2929 -1.4243
 8628SOL     OW37516   0.504   4.589  15.534  0.5618 -0.2395  0.0388
 8628SOL    HW137517   0.565   4.561  15.602  0.1364  1.8809  1.2943
 8628SOL    HW237518   0.545   4.649  15.472 -0.6824  0.6018  0.0307
 8629SOL     OW37519   4.033   3.818   5.472 -0.3842 -0.3343  0.0289
 8629SOL    HW137520   4.115   3.799   5.518 -0.3404 -2.6175 -1.0183
 8629SOL    HW237521   4.063   3.891   5.418  0.5144 -0.7335 -0.0113
 8630SOL     OW37522   1.262   3.210   7.981  0.0052  0.3014  0.2078
 8630SOL    HW137523   1.190   3.269   8.001  0.9258 -0.2648  5.1208
 8630SOL    HW237524   1.234   3.123   8.008  0.7612 -0.3687 -1.1456
 8631SOL     OW37525   4.129   0.030   4.978  0.1470  0.0685  0.5532
 8631SOL    HW137526   4.218   4.729   4.990  0.0968 -0.8970 -1.7828
 8631SOL    HW237527   4.118   0.038   4.884 -0.3370 -1.0967  0.5172
 8632SOL     OW37528   0.254   2.761   3.090 -0.0746 -0.3572 -0.4605
 8632SOL    HW137529   0.168   2.736   3.058 -0.3172 -2.0038  1.4732
 8632SOL    HW237530   0.243   2.766   3.185 -2.1132 -1.9015 -0.6068
 8633SOL     OW37531   0.001   2.386   5.147 -0.5096  0.2959  0.3083
 8633SOL    HW137532   0.084   2.389   5.099 -0.9364  0.3276 -0.4398
 8633SOL    HW237533   0.008   2.297   5.183  1.8474 -0.5610 -2.2199
 8634SOL     OW37534   4.694   4.035   1.103  0.2735 -0.5366 -0.0538
 8634SOL    HW137535   4.687   4.066   1.194 -2.3153 -0.5512 -0.2730
 8634SOL    HW237536   0.053   4.007   1.110  0.3796  0.3847  2.5055
 8635SOL     OW37537   1.911   1.256   6.343 -0.4156 -0.1045  0.1964
 8635SOL    HW137538   1.971   1.316   6.387  1.1444 -2.2252  0.9331
 8635SOL    HW237539   1.829   1.304   6.333  0.5939  1.8112  1.0806
 8636SOL     OW37540   1.518   1.026   5.332 -0.0619 -0.0536  0.3819
 8636SOL    HW137541   1.537   1.082   5.407 -0.2843 -1.6942  1.6720
 8636SOL    HW237542   1.496   0.946   5.381 -2.1397  0.8921  0.9737
 8637SOL     OW37543   2.328   1.995  14.849 -0.1312 -0.7745  0.1233
 8637SOL    HW137544   2.312   2.052  14.775  2.2973 -0.5879 -0.2712
 8637SOL    HW237545   2.424   2.005  14.845 -0.1997 -1.1557 -2.3841
 8638SOL     OW37546   4.507   3.610   2.934 -0.0492  0.3241  0.1032
 8638SOL    HW137547   4.477   3.691   2.974 -1.4708 -0.9353  1.5596
 8638SOL    HW237548   4.528   3.644   2.847 -1.0076  0.1051 -0.2140
 8639SOL     OW37549   0.357   1.601  14.769 -0.1747 -0.1305 -0.9586
 8639SOL    HW137550   0.443   1.560  14.770  0.3807  0.9757 -2.9437
 8639SOL    HW237551   0.368   1.696  14.762 -2.1494  0.3031  1.6685
 8640SOL     OW37552   4.186   1.552  11.528  0.1165 -0.1747 -0.1645
 8640SOL    HW137553   4.129   1.625  11.503 -0.2064 -1.3158 -2.7714
 8640SOL    HW237554   4.269   1.600  11.520  1.1808 -1.7627  1.3313
 8641SOL     OW37555   0.516   1.308   6.796 -0.0023 -0.1459  0.4444
 8641SOL    HW137556   0.539   1.401   6.806 -1.0754  0.1084  0.6043
 8641SOL    HW237557   0.592   1.255   6.819 -1.0921 -1.1547  1.6476
 8642SOL     OW37558   2.727   2.498  15.509  0.4161  0.0379  0.7169
 8642SOL    HW137559   2.805   2.447  15.486 -0.5632 -0.1224 -2.2669
 8642SOL    HW237560   2.750   2.575  15.560 -2.9183  1.6690 -0.2489
 8643SOL     OW37561   3.956   1.302   9.534  0.4247  0.3380  0.5858
 8643SOL    HW137562   3.975   1.267   9.447  0.0880 -3.7282  2.1548
 8643SOL    HW237563   4.012   1.248   9.589  2.4819 -0.8790 -2.6785
 8644SOL     OW37564   1.626   0.386  15.816 -0.2104 -0.3167 -0.4079
 8644SOL    HW137565   1.700   0.433  15.777  0.1922 -0.0676  0.6700
 8644SOL    HW237566   1.649   0.396  15.908 -1.8451 -0.7796  0.0422
 8645SOL     OW37567   3.748   2.214  14.040  0.1648  0.5154 -0.3914
 8645SOL    HW137568   3.689   2.249  14.107  1.2182 -0.7515  1.1904
 8645SOL    HW237569   3.711   2.126  14.036 -0.0874  0.6919 -2.1456
 8646SOL     OW37570   0.118   1.852   2.372  0.3888  0.2462 -0.2264
 8646SOL    HW137571   0.154   1.765   2.390  1.1285  0.7331  0.6455
 8646SOL    HW237572   0.144   1.901   2.451  2.5017 -2.7994  0.9572
 8647SOL     OW37573   1.619   1.589   5.570  0.3348  0.1380  0.4278
 8647SOL    HW137574   1.629   1.684   5.566  0.9113  0.1238  1.4353
 8647SOL    HW237575   1.667   1.547   5.498 -0.8238 -0.6426  0.1240
 8648SOL     OW37576   2.516   4.201   9.229 -0.0092 -0.1905 -0.3197
 8648SOL    HW137577   2.539   4.231   9.318 -2.5999 -0.7317  0.5215
 8648SOL    HW237578   2.422   4.197   9.243 -0.1072  2.1799 -0.2104
 8649SOL     OW37579   2.129   2.215   3.895 -0.4057  0.5776 -0.0204
 8649SOL    HW137580   2.052   2.161   3.914  1.0569 -1.2741  0.7122
 8649SOL    HW237581   2.092   2.295   3.932 -0.6798 -0.5279  2.1029
 8650SOL     OW37582   2.764   0.987   6.210 -0.0552  0.7432  0.1558
 8650SOL    HW137583   2.856   0.962   6.216 -0.0228  1.0138  0.8362
 8650SOL    HW237584   2.732   0.964   6.297 -0.8444 -1.0692 -0.6183
 8651SOL     OW37585   4.641   1.447   8.035 -0.4184  0.4477  0.0995
 8651SOL    HW137586   4.726   1.467   7.996 -0.6123 -0.0658 -0.5799
 8651SOL    HW237587   4.575   1.487   7.978  0.1531  3.7080  1.7142
 8652SOL     OW37588   4.315   2.290   2.655 -0.8830 -0.5388  0.1820
 8652SOL    HW137589   4.264   2.228   2.708 -0.8968  1.1196  2.1000
 8652SOL    HW237590   4.279   2.375   2.679 -1.7459 -0.6457 -0.7664
 8653SOL     OW37591   0.730   2.055  14.577  0.1725 -0.7265 -0.2617
 8653SOL    HW137592   0.661   2.095  14.525  0.4935 -2.6248 -2.1494
 8653SOL    HW237593   0.776   2.136  14.599 -1.0212 -0.2818  0.6135
 8654SOL     OW37594   2.658   1.910   6.983  0.2675  0.2065  0.5331
 8654SOL    HW137595   2.645   1.920   6.889 -4.0453 -2.4926  0.8684
 8654SOL    HW237596   2.695   1.998   6.996 -0.0191  0.2018  1.3364
 8655SOL     OW37597   2.237   1.809   3.681 -0.2525  0.6386 -0.6615
 8655SOL    HW137598   2.191   1.793   3.764  2.8725 -1.0273  0.7589
 8655SOL    HW237599   2.325   1.782   3.708 -0.3615  1.7107  0.7790
 8656SOL     OW37600   4.283   0.363  15.054 -0.2615  0.6603  0.3324
 8656SOL    HW137601   4.342   0.387  15.126  1.2224 -1.1816 -0.2678
 8656SOL    HW237602   4.337   0.396  14.982  0.1069 -0.7176 -0.0092
 8657SOL     OW37603   0.707   1.791   6.478 -0.9613  0.1874  0.6841
 8657SOL    HW137604   0.788   1.839   6.464  0.4620 -1.6660  2.4827
 8657SOL    HW237605   0.726   1.745   6.560  1.1729  0.7379  0.4916
 8658SOL     OW37606   1.834   1.841   4.174  0.3383 -0.2451 -0.5649
 8658SOL    HW137607   1.858   1.903   4.242  0.7698 -0.1377 -0.8124
 8658SOL    HW237608   1.768   1.888   4.123  1.4085  1.8310 -0.0273
 8659SOL     OW37609   3.381   3.513   9.160  0.0573 -0.6953  0.0430
 8659SOL    HW137610   3.431   3.595   9.154  0.6129 -1.1532 -1.6473
 8659SOL    HW237611   3.293   3.537   9.189  0.8572 -0.6691  2.4087
 8660SOL     OW37612   1.500   1.065   3.753 -0.0290 -0.2461 -0.1789
 8660SOL    HW137613   1.405   1.063   3.737 -0.1613  0.4705  0.5265
 8660SOL    HW237614   1.514   1.147   3.704  2.2095 -0.1129  0.7053
 8661SOL     OW37615   3.178   0.923   9.383 -0.4352 -0.0305  0.1795
 8661SOL    HW137616   3.108   0.987   9.369  0.9868  2.1768  3.2057
 8661SOL    HW237617   3.138   0.838   9.401 -1.2252  0.1123 -0.8545
 8662SOL     OW37618   0.858   3.323  14.044  0.1312  0.1914 -0.0767
 8662SOL    HW137619   0.894   3.257  14.103 -0.7300 -1.0799 -0.9787
 8662SOL    HW237620   0.915   3.319  13.968  1.7755 -0.1728  1.1783
 8663SOL     OW37621   1.913   0.282   2.476  0.0217  0.0320 -0.0413
 8663SOL    HW137622   1.960   0.365   2.481 -1.5172  0.8637  0.3520
 8663SOL    HW237623   1.976   0.242   2.416 -0.6530 -0.6567 -0.2959
 8664SOL     OW37624   3.167   0.268  12.526  0.8046 -0.0106  0.2623
 8664SOL    HW137625   3.186   0.291  12.435  0.6418  1.0365  0.4947
 8664SOL    HW237626   3.098   0.202  12.515  3.0417 -2.3507  0.0531
 8665SOL     OW37627   4.297   1.733   4.071 -0.3062  0.0023  0.8949
 8665SOL    HW137628   4.309   1.809   4.015  0.0164 -1.0935 -0.5374
 8665SOL    HW237629   4.387   1.708   4.091  0.2662  0.8761 -0.5669
 8666SOL     OW37630   4.455   1.175   2.268  0.2505  0.6072  0.4268
 8666SOL    HW137631   4.461   1.161   2.173 -0.1940  0.4597  0.4231
 8666SOL    HW237632   4.468   1.269   2.267 -2.8881  1.0436  0.6644
 8667SOL     OW37633   4.137   3.768   8.252  0.1257  0.0645  0.0690
 8667SOL    HW137634   4.119   3.854   8.214  1.2383 -0.6571 -2.0536
 8667SOL    HW237635   4.230   3.768   8.232 -0.1541 -0.9608 -1.1902
 8668SOL     OW37636   3.279   1.677   0.368 -0.3853  0.2772 -0.3334
 8668SOL    HW137637   3.323   1.757   0.396  2.3127 -1.0921 -0.7139
 8668SOL    HW237638   3.205   1.713   0.319 -1.8388 -1.1991  0.7713
 8669SOL     OW37639   4.425   2.770   9.159  0.1827 -0.3193  0.2406
 8669SOL    HW137640   4.474   2.713   9.218 -0.5453 -0.6757  0.4928
 8669SOL    HW237641   4.498   2.828   9.138  0.5396  0.5612  3.9631
 8670SOL     OW37642   0.093   4.307   1.604 -0.4112  0.3948 -0.1604
 8670SOL    HW137643   0.031   4.296   1.531 -0.1290  1.1054 -0.5109
 8670SOL    HW237644   0.174   4.325   1.556 -0.0735  0.2981  0.3724
 8671SOL     OW37645   2.969   1.239   7.899 -0.1817  0.0337 -0.1788
 8671SOL    HW137646   2.883   1.196   7.901 -0.4034  0.5157  0.7330
 8671SOL    HW237647   3.017   1.160   7.925 -1.1083  0.0086  1.4578
 8672SOL     OW37648   0.775   2.464  11.012 -0.2991 -0.0453  0.5720
 8672SOL    HW137649   0.844   2.412  10.970 -1.7498  1.4921 -3.7686
 8672SOL    HW237650   0.711   2.393  11.017  0.8076 -0.8727  2.8920
 8673SOL     OW37651   0.459   0.425  13.555 -0.4222  0.4508 -0.1304
 8673SOL    HW137652   0.491   0.486  13.489 -0.8980 -1.2377 -1.9411
 8673SOL    HW237653   0.412   0.485  13.612  0.5912 -1.0034  2.2501
 8674SOL     OW37654   3.060   4.216   7.395 -0.2176 -0.1354  0.1280
 8674SOL    HW137655   2.987   4.225   7.455  1.0878  0.0955  1.6830
 8674SOL    HW237656   3.048   4.124   7.374 -0.3481  0.4828 -2.5777
 8675SOL     OW37657   4.314   1.126   5.185  0.0189  0.6838  0.5315
 8675SOL    HW137658   4.250   1.147   5.252  0.7332 -1.3324  1.8302
 8675SOL    HW237659   4.343   1.039   5.211  2.4327  1.5250  0.6188
 8676SOL     OW37660   2.841   3.365   4.831 -0.2390  0.2497 -0.3452
 8676SOL    HW137661   2.841   3.442   4.887  0.8326 -0.7461  1.0390
 8676SOL    HW237662   2.915   3.320   4.871 -0.1494 -1.8240 -2.7860
 8677SOL     OW37663   3.800   3.079   3.668 -0.8587 -0.3624  0.7230
 8677SOL    HW137664   3.883   3.058   3.625 -1.1359  0.3183 -0.1540
 8677SOL    HW237665   3.784   3.171   3.645 -0.5201 -0.6579 -0.6442
 8678SOL     OW37666   2.385   1.109   7.191  0.3440 -0.4076  0.2554
 8678SOL    HW137667   2.292   1.130   7.181  0.3108 -0.4400  0.5042
 8678SOL    HW237668   2.395   1.099   7.286  1.3676  0.8910  0.2812
 8679SOL     OW37669   4.308   3.870   2.042 -0.5896  0.2707  0.4040
 8679SOL    HW137670   4.344   3.829   2.121 -0.5788 -1.3383 -0.4434
 8679SOL    HW237671   4.270   3.955   2.066  1.2217  1.1673  0.1435
 8680SOL     OW37672   3.190   0.044  11.802 -0.0363  0.3398 -0.1926
 8680SOL    HW137673   3.169   0.008  11.716  2.2051  1.9798 -1.4177
 8680SOL    HW237674   3.106   0.015  11.839 -0.0093 -2.1237 -2.0514
 8681SOL     OW37675   4.498   0.244   5.320  0.4080  0.1561 -0.8191
 8681SOL    HW137676   4.556   0.168   5.315  2.0964  1.3088  1.2100
 8681SOL    HW237677   4.411   0.207   5.335  0.9149 -0.9530 -0.6412
 8682SOL     OW37678   1.711   0.848   4.397  0.2429  0.2047 -0.1159
 8682SOL    HW137679   1.794   0.801   4.403  0.0539 -0.0066  0.8931
 8682SOL    HW237680   1.736   0.936   4.426 -0.3138  0.0265  0.8957
 8683SOL     OW37681   0.851   4.611   3.263 -0.2775  0.8945  0.0485
 8683SOL    HW137682   0.786   4.562   3.314  0.5818 -0.7658 -0.4502
 8683SOL    HW237683   0.812   4.697   3.281 -1.3675  0.1717  1.2100
 8684SOL     OW37684   3.844   0.546   8.967  0.4096  0.2880  0.1422
 8684SOL    HW137685   3.788   0.509   9.036 -0.1934  0.7961 -0.0734
 8684SOL    HW237686   3.771   0.575   8.912  0.1873 -1.1018 -0.3227
 8685SOL     OW37687   4.569   3.453   0.092 -0.0597  0.3614  0.0919
 8685SOL    HW137688   4.499   3.513   0.067  0.9255  1.1828 -0.7095
 8685SOL    HW237689   4.530   3.414   0.170 -1.3530  1.0182 -0.2183
 8686SOL     OW37690   0.990   1.281  13.721  0.0602 -0.5871 -0.1144
 8686SOL    HW137691   0.958   1.223  13.791  0.9472 -1.2263 -0.2350
 8686SOL    HW237692   0.916   1.280  13.661 -0.6010  1.5620  0.6553
 8687SOL     OW37693   4.086   1.900   5.651 -0.0350  0.8729 -0.4375
 8687SOL    HW137694   4.036   1.849   5.587 -2.2556  2.4147  0.0795
 8687SOL    HW237695   4.149   1.836   5.686  1.6545  1.8770 -1.6362
 8688SOL     OW37696   0.408   1.807   2.583 -0.2590  0.3844 -0.3155
 8688SOL    HW137697   0.493   1.776   2.553 -0.7438  0.2513 -1.5472
 8688SOL    HW237698   0.433   1.899   2.574  0.6440  0.0978 -0.8035
 8689SOL     OW37699   3.552   0.079   2.322  0.2025 -0.3688  0.1062
 8689SOL    HW137700   3.638   0.119   2.317  0.7106 -1.3905  0.7629
 8689SOL    HW237701   3.501   0.159   2.311 -1.5684 -1.5765 -0.5339
 8690SOL     OW37702   0.859   0.980   4.801  0.5698  0.4422  0.7288
 8690SOL    HW137703   0.858   0.896   4.756 -1.5819  1.0908 -0.4196
 8690SOL    HW237704   0.793   0.961   4.868 -0.0169 -0.1128 -0.0048
 8691SOL     OW37705   2.887   0.211  12.194 -0.8204 -0.2412  0.5717
 8691SOL    HW137706   2.926   0.137  12.241  0.5404 -0.3515 -0.7333
 8691SOL    HW237707   2.885   0.168  12.108 -0.6637 -0.3424  0.6186
 8692SOL     OW37708   3.118   0.974  13.701  0.2098  0.1032  0.1493
 8692SOL    HW137709   3.213   0.972  13.697  0.2129 -0.4655  0.4651
 8692SOL    HW237710   3.089   0.885  13.683  0.0556  0.0621  0.5859
 8693SOL     OW37711   3.092   1.107  11.549  0.6501  0.3325 -0.3615
 8693SOL    HW137712   3.028   1.120  11.479 -1.3908 -1.8627  1.0752
 8693SOL    HW237713   3.171   1.153  11.522  1.2584  0.5747  1.7655
 8694SOL     OW37714   2.219   3.720   7.505  0.1420 -0.1578 -0.8396
 8694SOL    HW137715   2.151   3.714   7.573 -0.8505  0.9024 -1.7594
 8694SOL    HW237716   2.296   3.741   7.558 -1.0462 -0.5809  1.0786
 8695SOL     OW37717   2.404   1.402   2.534  0.6499 -0.0325 -0.2017
 8695SOL    HW137718   2.473   1.405   2.468 -0.0016 -2.2027 -0.9930
 8695SOL    HW237719   2.346   1.337   2.494  2.0528 -3.5183  3.3923
 8696SOL     OW37720   1.144   3.842  12.265 -0.7101  0.2144 -0.2133
 8696SOL    HW137721   1.159   3.751  12.294 -0.6859 -0.0535 -1.0878
 8696SOL    HW237722   1.218   3.861  12.208  0.1495 -1.2751  0.4133
 8697SOL     OW37723   1.228   0.509  12.400 -0.0156  0.0747  0.1749
 8697SOL    HW137724   1.146   0.525  12.447 -1.0497 -3.3911 -0.3922
 8697SOL    HW237725   1.280   0.578  12.440 -1.2107  1.4675 -0.7056
 8698SOL     OW37726   4.422   2.782  15.476 -0.3931 -0.0376  0.6084
 8698SOL    HW137727   4.363   2.830  15.536 -0.0819  0.0825  0.8201
 8698SOL    HW237728   4.381   2.696  15.470  0.6718 -0.5232  0.3546
 8699SOL     OW37729   3.484   0.780   8.564 -0.2743 -0.3976 -0.2456
 8699SOL    HW137730   3.571   0.820   8.570 -0.2928 -0.2257 -1.0673
 8699SOL    HW237731   3.426   0.855   8.580 -0.1230  0.0943 -1.9632
 8700SOL     OW37732   1.139   2.577  14.549  0.1338  0.0115 -0.5215
 8700SOL    HW137733   1.125   2.654  14.494 -0.7458  1.2722  1.4743
 8700SOL    HW237734   1.053   2.547  14.577 -0.1468  1.9383  0.6386
 8701SOL     OW37735   4.112   4.171   3.634  0.3152 -0.3418 -0.4613
 8701SOL    HW137736   4.104   4.257   3.676 -1.0208 -0.5909 -0.1973
 8701SOL    HW237737   4.025   4.138   3.611 -0.8615  2.5265 -0.0703
 8702SOL     OW37738   2.624   2.187   8.649 -0.1098 -0.7014  0.0963
 8702SOL    HW137739   2.678   2.253   8.691 -0.1659  0.4409 -1.6335
 8702SOL    HW237740   2.645   2.203   8.557  2.0643  3.0840  1.2720
 8703SOL     OW37741   3.717   4.311   7.477  0.9371  0.3030  0.4873
 8703SOL    HW137742   3.751   4.344   7.560  0.6313 -0.9604  1.1176
 8703SOL    HW237743   3.675   4.227   7.497  2.4248 -0.7290 -0.6635
 8704SOL     OW37744   4.522   2.963   0.018  0.4131 -0.5998 -0.3819
 8704SOL    HW137745   4.571   3.038  17.714  0.0784 -0.2982 -0.2044
 8704SOL    HW237746   4.591   2.900   0.038  2.2702  1.3849 -0.5451
 8705SOL     OW37747   0.993   0.043  12.022 -0.0065  0.3495  0.1398
 8705SOL    HW137748   0.930   4.723  12.071 -1.0511  2.1975  0.7709
 8705SOL    HW237749   1.008   0.110  12.089  0.2466 -0.0837  0.5182
 8706SOL     OW37750   4.318   0.362   8.245 -0.3143  0.8125  0.1934
 8706SOL    HW137751   4.379   0.403   8.306  1.4518 -1.3038 -0.1350
 8706SOL    HW237752   4.284   0.445   8.212  3.0655  2.4690  0.7940
 8707SOL     OW37753   1.460   4.606  12.628 -0.5162 -0.0880  0.1247
 8707SOL    HW137754   1.366   4.592  12.618 -0.1749  0.5301 -4.1109
 8707SOL    HW237755   1.456   4.677  12.692 -1.0600 -0.5195  0.5697
 8708SOL     OW37756   1.018   2.099   4.184  0.3812  0.3049  0.6586
 8708SOL    HW137757   0.975   2.016   4.164  1.8029 -0.7018  1.8052
 8708SOL    HW237758   1.082   2.092   4.113 -1.0973  2.3925 -0.8803
 8709SOL     OW37759   2.094   4.368   6.277  0.3619  0.9035  0.0957
 8709SOL    HW137760   2.023   4.356   6.340 -1.4423  1.2800 -1.8234
 8709SOL    HW237761   2.123   4.277   6.283  0.8179  1.1850  2.0664
 8710SOL     OW37762   2.687   0.183   0.530  0.2129 -0.1408 -0.4837
 8710SOL    HW137763   2.690   0.185   0.626 -1.8382 -2.0487 -0.3636
 8710SOL    HW237764   2.608   0.135   0.506 -0.0379 -0.3400  0.7501
 8711SOL     OW37765   4.190   1.591   7.115 -0.4427 -0.1064 -0.2262
 8711SOL    HW137766   4.272   1.542   7.110  0.3862  1.2305  0.0387
 8711SOL    HW237767   4.213   1.668   7.168 -1.4773  0.8427 -1.1444
 8712SOL     OW37768   3.030   1.338   9.118 -0.1919  0.2278 -0.1608
 8712SOL    HW137769   2.942   1.337   9.082 -0.1467  1.2726 -0.2729
 8712SOL    HW237770   3.019   1.393   9.195 -2.0026  1.7656 -1.5384
 8713SOL     OW37771   1.724   3.648   6.528  0.1510  0.1339  0.3014
 8713SOL    HW137772   1.765   3.675   6.610 -0.1704  0.3825  0.3811
 8713SOL    HW237773   1.636   3.615   6.549  0.4275  0.1811  1.5668
 8714SOL     OW37774   0.720   3.091   9.906  0.0870  0.8937  0.5282
 8714SOL    HW137775   0.742   3.170   9.856 -1.3837 -0.4530 -2.2165
 8714SOL    HW237776   0.628   3.107   9.925  0.0993 -0.7371  1.9585
 8715SOL     OW37777   0.862   2.809   7.033 -0.1315 -0.1748  0.5726
 8715SOL    HW137778   0.811   2.884   7.065 -0.5477 -0.2147  0.0086
 8715SOL    HW237779   0.950   2.838   7.056  0.4702  0.1137 -2.1280
 8716SOL     OW37780   1.552   1.716   3.600 -0.2088  0.3808  0.9442
 8716SOL    HW137781   1.626   1.757   3.556  0.1728  1.6918  2.7687
 8716SOL    HW237782   1.586   1.685   3.684 -0.3211 -1.4938  0.2913
 8717SOL     OW37783   3.096   3.585   9.009 -0.0324 -0.3192 -0.1173
 8717SOL    HW137784   3.007   3.569   9.041  0.5635 -1.8661  0.7787
 8717SOL    HW237785   3.098   3.680   9.003  0.1472 -0.3738 -0.9947
 8718SOL     OW37786   3.652   0.266   6.697 -0.1088  0.6986  0.0208
 8718SOL    HW137787   3.723   0.202   6.697 -0.8272 -0.0981  0.6731
 8718SOL    HW237788   3.607   0.250   6.780  0.1334  0.1598  0.0490
 8719SOL     OW37789   1.886   0.579   0.030  0.3417 -0.9801  0.1421
 8719SOL    HW137790   1.863   0.619  17.676  2.3241  0.7190  0.3778
 8719SOL    HW237791   1.930   0.500  17.728 -0.6741 -2.0760  1.4618
 8720SOL     OW37792   2.232   3.626   6.442  0.3040  0.3334  0.0985
 8720SOL    HW137793   2.227   3.541   6.398 -0.1747  0.5261 -0.2236
 8720SOL    HW237794   2.319   3.657   6.419 -0.3340  2.9230  1.1666
 8721SOL     OW37795   3.915   4.463   8.647  0.1753 -0.6554  0.1549
 8721SOL    HW137796   3.843   4.483   8.588 -0.3155 -0.6693  0.7507
 8721SOL    HW237797   3.952   4.382   8.611  2.0744 -0.0969  0.8166
 8722SOL     OW37798   2.027   1.667   1.909 -0.1113  0.0254 -0.4183
 8722SOL    HW137799   2.073   1.601   1.858 -1.2347 -0.6085 -0.6088
 8722SOL    HW237800   2.100   1.710   1.954 -2.1221  2.2150  0.7681
 8723SOL     OW37801   4.616   3.140   0.401 -0.1410 -0.2926 -0.5559
 8723SOL    HW137802   4.683   3.135   0.333 -0.0748  0.1496 -0.5219
 8723SOL    HW237803   4.544   3.088   0.365 -1.2701  0.9465 -0.1137
 8724SOL     OW37804   2.869   4.271  15.569 -0.1246 -0.3818 -0.0687
 8724SOL    HW137805   2.873   4.362  15.539 -1.8049  0.6583  2.8100
 8724SOL    HW237806   2.779   4.252  15.541  0.4015 -2.0131 -0.6417
 8725SOL     OW37807   3.621   3.875   1.682 -0.5616  0.8498 -0.2678
 8725SOL    HW137808   3.689   3.859   1.748 -0.3595  0.1317 -0.6444
 8725SOL    HW237809   3.634   3.795   1.631  2.2332  2.2893 -1.8500
 8726SOL     OW37810   1.278   3.891   5.159 -0.5663  0.2495  0.4201
 8726SOL    HW137811   1.269   3.797   5.174 -0.2227  0.3036  0.9674
 8726SOL    HW237812   1.191   3.921   5.183 -0.3402  3.3338 -2.6223
 8727SOL     OW37813   2.144   2.343   2.938 -0.1194  0.4242 -0.1506
 8727SOL    HW137814   2.216   2.360   2.999 -0.7330 -0.6628  0.8580
 8727SOL    HW237815   2.148   2.249   2.921 -0.4149  0.0706  1.7485
 8728SOL     OW37816   0.290   1.319   3.355  0.2553 -0.2289  0.4685
 8728SOL    HW137817   0.279   1.348   3.446 -0.1914  2.4595 -0.4283
 8728SOL    HW237818   0.260   1.393   3.302 -2.6662 -0.9388  1.1456
 8729SOL     OW37819   2.853   4.328   2.752 -0.4861 -0.2392  0.2119
 8729SOL    HW137820   2.925   4.389   2.770 -2.6520  1.6465  2.5547
 8729SOL    HW237821   2.894   4.241   2.751  2.1902  1.0144 -1.0145
 8730SOL     OW37822   4.141   4.347   5.525  1.0059 -0.0736 -0.1469
 8730SOL    HW137823   4.047   4.362   5.532  1.1900  0.6573  0.8780
 8730SOL    HW237824   4.173   4.437   5.514  1.8122 -0.3918 -0.4332
 8731SOL     OW37825   4.346   1.040  12.452 -0.4369 -0.0763  0.3274
 8731SOL    HW137826   4.438   1.031  12.426  0.0606 -0.2470  2.1792
 8731SOL    HW237827   4.350   1.000  12.538 -2.8558  0.1296  0.5297
 8732SOL     OW37828   3.520   4.495   6.606  0.3615 -0.7434 -0.3169
 8732SOL    HW137829   3.558   4.579   6.581  1.6799 -0.9709  0.9042
 8732SOL    HW237830   3.602   4.444   6.603 -0.4731 -2.1615  1.1628
 8733SOL     OW37831   2.021   1.967   4.884  0.3778  0.4935  0.2741
 8733SOL    HW137832   2.001   1.929   4.799  0.0299  1.5077 -0.0982
 8733SOL    HW237833   1.933   2.004   4.891  0.9259  1.9854 -0.6664
 8734SOL     OW37834   3.097   2.396   5.485  0.0925  0.2725  0.2245
 8734SOL    HW137835   3.188   2.427   5.479  0.0151  1.1418  3.7204
 8734SOL    HW237836   3.106   2.305   5.457  1.7848  0.6904 -0.5845
 8735SOL     OW37837   3.096   2.728   8.075  0.1784 -0.3439 -0.3129
 8735SOL    HW137838   3.152   2.650   8.075 -0.5145 -0.8460 -1.0338
 8735SOL    HW237839   3.118   2.778   8.153 -0.3389  0.5326 -0.7314
 8736SOL     OW37840   3.048   4.254   6.908 -0.0883 -0.5892  0.3413
 8736SOL    HW137841   3.113   4.273   6.976  2.2345 -1.9477 -1.5010
 8736SOL    HW237842   2.981   4.227   6.971 -1.8334  0.0033 -1.2474
 8737SOL     OW37843   1.474   3.165   5.738  0.3699 -0.3878 -0.1333
 8737SOL    HW137844   1.451   3.209   5.656 -0.8587 -0.2122  0.3064
 8737SOL    HW237845   1.409   3.096   5.747  1.4204 -1.4026 -0.3837
 8738SOL     OW37846   2.295   1.418  15.969  0.1575 -0.0299  0.0951
 8738SOL    HW137847   2.385   1.421  16.003 -0.3090  2.3795  1.1728
 8738SOL    HW237848   2.288   1.513  15.962 -0.4181 -0.2428 -2.1489
 8739SOL     OW37849   2.947   4.058   3.762 -0.2060 -0.0331 -0.1379
 8739SOL    HW137850   2.941   4.146   3.798 -2.1065  0.1272 -0.8625
 8739SOL    HW237851   2.852   4.047   3.760 -0.1260 -0.5947 -1.0060
 8740SOL     OW37852   0.293   0.789   6.491 -0.1842  0.6508  0.1944
 8740SOL    HW137853   0.304   0.695   6.509  1.9779  1.1344  1.3514
 8740SOL    HW237854   0.221   0.801   6.430 -1.3520 -1.5425  1.1237
 8741SOL     OW37855   0.431   2.066   6.984 -0.7156  0.2377 -0.3170
 8741SOL    HW137856   0.358   2.004   6.973 -0.3420 -0.4012  0.8588
 8741SOL    HW237857   0.440   2.087   6.891 -0.8120  1.1261 -0.1181
 8742SOL     OW37858   2.924   2.649   2.928 -0.2656  0.3958  0.3237
 8742SOL    HW137859   2.857   2.680   2.867  1.2751  1.3440 -0.8886
 8742SOL    HW237860   2.995   2.620   2.870 -0.5735 -2.3738  1.3431
 8743SOL     OW37861   2.130   2.119   6.273 -0.4942 -0.2765  0.3453
 8743SOL    HW137862   2.051   2.171   6.268 -0.0800  0.2630 -0.5833
 8743SOL    HW237863   2.113   2.031   6.240  0.6775 -1.1089  1.9558
 8744SOL     OW37864   2.372   0.775   6.446  0.7156  0.2178 -0.5512
 8744SOL    HW137865   2.379   0.680   6.434 -0.8088 -0.1187  1.1155
 8744SOL    HW237866   2.284   0.786   6.412  1.3688 -0.0773 -2.3111
 8745SOL     OW37867   3.134   3.659   7.558 -0.3875  0.3755 -0.6175
 8745SOL    HW137868   3.181   3.714   7.497  1.7099 -2.1692 -1.3207
 8745SOL    HW237869   3.192   3.582   7.559  0.4330  0.9838 -1.8343
 8746SOL     OW37870   4.504   0.448   1.398  0.1460 -0.2770  0.2356
 8746SOL    HW137871   4.490   0.539   1.423  1.4242  0.3228 -1.2342
 8746SOL    HW237872   4.584   0.432   1.448 -0.8482 -2.3188  1.1964
 8747SOL     OW37873   3.450   0.100   8.173  0.3326 -0.2296  0.0315
 8747SOL    HW137874   3.411   0.160   8.237  0.4723 -2.9254  2.6256
 8747SOL    HW237875   3.513   0.157   8.128  0.3708 -0.3000 -0.0032
 8748SOL     OW37876   4.718   1.387   5.081  0.2796  0.0024 -0.5533
 8748SOL    HW137877   0.076   1.407   5.106  0.4540  0.6767 -1.7687
 8748SOL    HW237878   4.691   1.399   5.173 -0.8083  0.0826 -0.8811
 8749SOL     OW37879   0.919   2.287  11.545  0.6098  0.2258 -0.3309
 8749SOL    HW137880   0.959   2.215  11.497  0.3490 -2.2939  3.2906
 8749SOL    HW237881   0.834   2.252  11.571  0.2332  0.3797 -1.3529
 8750SOL     OW37882   4.675   2.732   8.418 -0.2443  1.1879  0.0390
 8750SOL    HW137883   4.691   2.662   8.355 -4.1114 -1.4843  1.9998
 8750SOL    HW237884   4.667   2.690   8.504 -0.7009  1.4525  0.1217
 8751SOL     OW37885   1.911   4.162  14.361  0.3699  0.1541 -0.3801
 8751SOL    HW137886   1.890   4.078  14.321  4.1662 -1.4969  1.0875
 8751SOL    HW237887   1.933   4.142  14.452 -0.4137  0.8143 -0.0435
 8752SOL     OW37888   4.707   3.089  10.135  0.2101 -0.4412 -0.3891
 8752SOL    HW137889   4.715   3.041  10.217 -2.3010 -0.0329  0.0771
 8752SOL    HW237890   4.664   3.169  10.165 -1.2467 -0.3752 -2.7463
 8753SOL     OW37891   1.292   1.175   8.706  0.0832 -0.0032 -0.4421
 8753SOL    HW137892   1.281   1.083   8.682 -1.2078 -0.1166  0.6132
 8753SOL    HW237893   1.236   1.220   8.643  0.6285 -0.9720 -1.6305
 8754SOL     OW37894   1.354   1.629  17.188  0.0585 -0.7253 -0.4032
 8754SOL    HW137895   1.313   1.549  17.219  3.1476 -0.1650  5.0968
 8754SOL    HW237896   1.343   1.687  17.263 -1.0726 -0.8517 -0.4841
 8755SOL     OW37897   3.978   4.353   7.246  0.1743 -0.3448 -0.1674
 8755SOL    HW137898   3.914   4.412   7.284 -0.8879  0.6948 -3.5510
 8755SOL    HW237899   4.019   4.395   7.170 -3.2569  1.9011 -0.7425
 8756SOL     OW37900   1.462   3.035   0.143  0.4944  0.4919 -0.3479
 8756SOL    HW137901   1.532   3.096   0.120 -0.0987  0.9433 -0.9404
 8756SOL    HW237902   1.438   3.001   0.057 -0.0880 -1.5210  0.6086
 8757SOL     OW37903   4.018   3.058   7.525  0.4939  0.3831 -0.1372
 8757SOL    HW137904   3.948   3.056   7.591 -0.1787 -0.2258 -0.8613
 8757SOL    HW237905   4.091   3.062   7.586 -0.9338  1.1461  1.5283
 8758SOL     OW37906   0.848   1.348   1.455  0.2537 -0.1309  0.3630
 8758SOL    HW137907   0.935   1.321   1.482 -0.4146 -0.6556  1.9775
 8758SOL    HW237908   0.816   1.282   1.393 -2.2266  0.6321  0.8202
 8759SOL     OW37909   3.322   3.552  13.603 -0.1330  0.0384 -0.2390
 8759SOL    HW137910   3.342   3.645  13.612 -0.5294  0.0928  0.1157
 8759SOL    HW237911   3.368   3.530  13.523 -2.7909  0.1837 -1.8117
 8760SOL     OW37912   4.240   0.924   3.898 -0.1043 -0.0219 -0.8174
 8760SOL    HW137913   4.254   1.018   3.886 -0.6420  0.4388  2.0851
 8760SOL    HW237914   4.192   0.924   3.981  2.4324  0.0237  0.6498
 8761SOL     OW37915   3.529   2.078   8.940  0.2778 -0.7689 -0.3053
 8761SOL    HW137916   3.586   2.047   9.011  1.3910 -1.3271 -1.4447
 8761SOL    HW237917   3.450   2.039   8.977  0.2947  0.0567  0.5941
 8762SOL     OW37918   0.883   0.125  15.279 -0.0127 -0.4677 -0.4003
 8762SOL    HW137919   0.923   0.115  15.192  4.1431  0.6624  1.3850
 8762SOL    HW237920   0.904   0.217  15.295 -0.6491 -0.1114 -1.5998
 8763SOL     OW37921   3.204   1.487   6.810 -0.0518 -0.2340  0.2291
 8763SOL    HW137922   3.229   1.577   6.791 -1.5205 -0.0670 -0.8848
 8763SOL    HW237923   3.128   1.468   6.755  1.7474  0.2392 -2.4370
 8764SOL     OW37924   4.599   2.862   5.965  0.0018  0.2176 -0.2558
 8764SOL    HW137925   4.522   2.821   6.003  1.0188 -1.5460 -0.0997
 8764SOL    HW237926   4.556   2.886   5.883  1.6750  2.4120 -0.5008
 8765SOL     OW37927   0.579   1.597   6.772 -0.0779  0.2689 -0.0682
 8765SOL    HW137928   0.521   1.670   6.790 -0.5745 -0.8761  2.9708
 8765SOL    HW237929   0.660   1.634   6.806 -1.3924  2.8433  0.2825
 8766SOL     OW37930   0.832   2.894   9.745 -0.3163  0.1255  0.3111
 8766SOL    HW137931   0.752   2.847   9.722  0.3939 -1.1397  0.4238
 8766SOL    HW237932   0.795   2.957   9.807 -2.3066  1.9533 -2.7369
 8767SOL     OW37933   3.488   2.697  16.348  0.5355 -0.0010  0.1273
 8767SOL    HW137934   3.523   2.662  16.430 -0.6626 -1.0579  0.1816
 8767SOL    HW237935   3.473   2.622  16.290 -1.3149 -0.3349  1.0606
 8768SOL     OW37936   2.038   1.577  15.605 -0.5207 -0.2557 -0.1944
 8768SOL    HW137937   2.016   1.670  15.606 -0.3692 -0.2257  0.3495
 8768SOL    HW237938   2.118   1.577  15.551  0.4435 -1.2609  1.2465
 8769SOL     OW37939   2.819   1.721  12.777 -0.0025  0.0832 -0.8561
 8769SOL    HW137940   2.833   1.799  12.832  1.3487 -0.8253  0.0906
 8769SOL    HW237941   2.895   1.707  12.721  0.6933 -0.0381  0.1144
 8770SOL     OW37942   1.352   0.122   5.329 -0.4015 -0.2916 -0.0088
 8770SOL    HW137943   1.403   0.080   5.398  0.7740  0.1301 -0.6196
 8770SOL    HW237944   1.369   0.054   5.263 -1.2187 -0.4725 -0.0300
 8771SOL     OW37945   2.335   2.761   3.736  0.3657  0.1382  0.7297
 8771SOL    HW137946   2.276   2.749   3.810 -1.4849  1.1565 -0.5968
 8771SOL    HW237947   2.413   2.727   3.780  0.8888  3.1007  2.0957
 8772SOL     OW37948   2.845   3.012   8.817 -0.7302  0.4291 -0.0650
 8772SOL    HW137949   2.815   3.038   8.904 -2.5730  1.5318 -1.0389
 8772SOL    HW237950   2.771   3.026   8.759 -0.5992 -0.1574 -0.3746
 8773SOL     OW37951   2.172   3.774   4.996 -0.1680  0.1378 -0.0682
 8773SOL    HW137952   2.195   3.846   5.054 -0.2869  0.2053 -0.1031
 8773SOL    HW237953   2.155   3.821   4.914 -1.2640 -0.4281 -0.1814
 8774SOL     OW37954   0.971   4.341   4.540 -0.0969 -0.4216  0.9855
 8774SOL    HW137955   0.898   4.285   4.513 -1.2527  0.8510  1.4797
 8774SOL    HW237956   1.001   4.363   4.452  1.7487  0.4519  1.8389
 8775SOL     OW37957   2.442   3.026   3.644 -0.0983  0.0096  0.1492
 8775SOL    HW137958   2.414   2.943   3.683 -0.1858  0.0362  0.1441
 8775SOL    HW237959   2.527   2.998   3.611  0.2373  0.2241  0.8355
 8776SOL     OW37960   2.357   0.020   5.582 -0.3572  0.7615 -0.2532
 8776SOL    HW137961   2.449   0.035   5.561 -0.2415 -3.8293 -2.9184
 8776SOL    HW237962   2.329   0.087   5.645 -1.3380  0.8175 -0.7542
 8777SOL     OW37963   1.237   4.313   2.674 -0.1199 -0.3920  0.0791
 8777SOL    HW137964   1.269   4.373   2.742  0.2523  0.1462 -0.5635
 8777SOL    HW237965   1.147   4.314   2.705  0.2048  1.4419  0.9851
 8778SOL     OW37966   2.407   0.461   6.132 -0.0898  0.1450  0.7614
 8778SOL    HW137967   2.456   0.537   6.098  2.2432 -1.2042  1.0783
 8778SOL    HW237968   2.438   0.390   6.075  2.8686 -0.4263  3.0852
 8779SOL     OW37969   0.694   4.054   7.687  0.0865 -0.1037  0.5480
 8779SOL    HW137970   0.659   4.101   7.611 -0.1375  0.4453  0.9901
 8779SOL    HW237971   0.770   4.007   7.651 -1.6301 -2.2817 -0.2467
 8780SOL     OW37972   1.884   3.939   1.759 -0.2559 -1.2143 -0.0258
 8780SOL    HW137973   1.878   3.935   1.663  1.3527 -3.1589 -0.0456
 8780SOL    HW237974   1.793   3.938   1.787 -0.0432 -0.1054  0.6966
 8781SOL     OW37975   3.092   1.429   0.697  0.3151 -0.1535 -0.4307
 8781SOL    HW137976   3.177   1.427   0.652  0.1877  3.2518 -0.8514
 8781SOL    HW237977   3.038   1.463   0.625 -1.2431  0.3429  0.9901
 8782SOL     OW37978   2.560   3.533   6.944  0.1942  0.1014 -0.2925
 8782SOL    HW137979   2.638   3.478   6.950  0.9369  1.6498  4.0279
 8782SOL    HW237980   2.530   3.533   7.035 -0.3232  1.3025 -0.4650
 8783SOL     OW37981   1.849   1.984  14.195 -0.0299 -0.0018  0.0635
 8783SOL    HW137982   1.900   1.995  14.115 -1.3576 -0.0092 -0.7882
 8783SOL    HW237983   1.861   2.071  14.234  3.1066 -1.2243  1.8256
 8784SOL     OW37984   2.759   0.488   2.153 -0.5749 -0.4283 -0.1019
 8784SOL    HW137985   2.825   0.461   2.216  0.4691 -1.5148 -1.6566
 8784SOL    HW237986   2.715   0.405   2.135 -2.5461  1.1321 -2.6205
 8785SOL     OW37987   3.812   4.399   6.593 -0.2480  0.0072  0.0882
 8785SOL    HW137988   3.805   4.306   6.617 -0.4135  0.0526  0.2201
 8785SOL    HW237989   3.826   4.399   6.498  1.3879 -3.6980  0.3212
 8786SOL     OW37990   3.216   0.608  11.039 -0.1155 -0.7699  0.4761
 8786SOL    HW137991   3.209   0.701  11.018  2.6407 -0.7943 -0.5939
 8786SOL    HW237992   3.193   0.603  11.132  0.8941  0.9179  0.8217
 8787SOL     OW37993   2.983   4.449   9.563  0.3510 -0.2195 -0.1863
 8787SOL    HW137994   3.029   4.518   9.514  0.3763  1.6452  2.4467
 8787SOL    HW237995   3.033   4.370   9.543  2.6487  2.0628 -3.6412
 8788SOL     OW37996   4.503   0.616   3.806 -0.3608  0.2802  0.7177
 8788SOL    HW137997   4.558   0.649   3.878  2.0829 -0.3125 -0.8726
 8788SOL    HW237998   4.569   0.634   3.739  0.6019  3.5098  2.5071
 8789SOL     OW37999   1.509   4.637   4.693  0.2448 -0.6667  0.5357
 8789SOL    HW138000   1.434   4.577   4.698  0.4300 -1.0430 -1.1562
 8789SOL    HW238001   1.557   4.617   4.772  2.8858  2.5348 -0.2558
 8790SOL     OW38002   3.642   4.471   4.432 -0.2236 -0.6735  0.2556
 8790SOL    HW138003   3.617   4.559   4.403 -1.3780 -0.8732  0.6336
 8790SOL    HW238004   3.627   4.491   4.525 -1.1457 -1.2674  0.2287
 8791SOL     OW38005   2.188   3.647   9.331  0.1717  0.2455 -0.4533
 8791SOL    HW138006   2.255   3.690   9.277 -0.0412 -0.7327 -1.4894
 8791SOL    HW238007   2.221   3.560   9.356  1.4301  1.3642  1.7938
 8792SOL     OW38008   0.738   0.854   6.931 -0.2946  0.2063  0.1776
 8792SOL    HW138009   0.833   0.857   6.943 -0.4117  0.8628  0.9849
 8792SOL    HW238010   0.702   0.907   7.003 -1.0276 -0.8704  0.6117
 8793SOL     OW38011   4.073   0.750  17.141 -0.5789  0.2932 -0.8492
 8793SOL    HW138012   4.077   0.682  17.075  1.6205 -0.2756 -0.1412
 8793SOL    HW238013   4.126   0.806  17.085 -0.4356  0.8738 -0.1425
 8794SOL     OW38014   1.389   4.305   5.241  0.5016  0.0322  0.2666
 8794SOL    HW138015   1.447   4.256   5.184 -0.6578 -2.2210  1.0409
 8794SOL    HW238016   1.344   4.347   5.167  0.5980  0.5466  0.4965
 8795SOL     OW38017   4.453   0.177   8.616 -0.5365  0.0820 -0.6987
 8795SOL    HW138018   4.539   0.149   8.585 -0.8608 -0.9740 -0.6494
 8795SOL    HW238019   4.479   0.219   8.698 -1.0782 -1.3597  0.2118
 8796SOL     OW38020   1.471   4.538   6.267 -0.5390 -0.1702 -0.2843
 8796SOL    HW138021   1.522   4.457   6.273  0.4225  0.4322 -0.3710
 8796SOL    HW238022   1.543   4.596   6.291  0.7623 -0.4682 -3.4288
 8797SOL     OW38023   3.619   2.794   7.572 -0.0123  0.5596 -0.5059
 8797SOL    HW138024   3.643   2.828   7.486 -0.1984  3.7865  0.7215
 8797SOL    HW238025   3.587   2.707   7.548  0.0958 -0.0768  1.6063
 8798SOL     OW38026   3.055   4.132  10.375  0.1510  0.0556 -0.1067
 8798SOL    HW138027   3.109   4.122  10.453  0.5798  1.1686 -0.2692
 8798SOL    HW238028   2.981   4.074  10.394  1.8820 -1.7067  1.1796
 8799SOL     OW38029   1.572   3.193   3.307 -0.2768 -0.3003 -0.0547
 8799SOL    HW138030   1.614   3.274   3.276  0.0939 -0.3360  0.3582
 8799SOL    HW238031   1.493   3.239   3.336 -2.2570 -2.7128 -1.6699
 8800SOL     OW38032   1.603   2.675  13.754  0.0531  0.3149 -0.2501
 8800SOL    HW138033   1.555   2.594  13.736  0.4559 -0.3914  1.7733
 8800SOL    HW238034   1.587   2.725  13.675 -1.0842 -2.6298 -1.8811
 8801SOL     OW38035   2.774   1.344   5.838  0.1778  0.4943  0.0501
 8801SOL    HW138036   2.780   1.254   5.805 -3.2599  1.3224 -2.8625
 8801SOL    HW238037   2.707   1.330   5.905  0.0584 -0.2006 -0.2031
 8802SOL     OW38038   0.565   3.749   0.193 -1.0651  0.4137 -0.4174
 8802SOL    HW138039   0.513   3.703   0.259 -0.6838  0.4799 -0.0713
 8802SOL    HW238040   0.500   3.789   0.135 -1.5946  1.0291  0.5995
 8803SOL     OW38041   4.018   0.295  15.118 -0.0918  0.4554 -0.1257
 8803SOL    HW138042   4.108   0.313  15.091 -0.8407  1.6285 -1.8633
 8803SOL    HW238043   4.034   0.262  15.206 -0.3607 -1.3459 -0.7521
 8804SOL     OW38044   2.387   1.788  12.817 -0.1792 -0.3096 -0.3531
 8804SOL    HW138045   2.454   1.824  12.875  1.6052 -1.4658 -1.7112
 8804SOL    HW238046   2.351   1.867  12.776 -0.6304  0.0712  0.7577
 8805SOL     OW38047   1.498   3.904   5.351 -0.1636  0.3853 -0.3341
 8805SOL    HW138048   1.461   3.846   5.418 -0.6819  0.3388 -0.6708
 8805SOL    HW238049   1.429   3.886   5.288  1.4839 -2.4380 -1.3260
 8806SOL     OW38050   1.985   0.775   2.005 -0.1645  0.6156  0.1668
 8806SOL    HW138051   2.011   0.867   1.999  0.9914  0.2545 -0.4311
 8806SOL    HW238052   1.963   0.753   2.095  0.0202  1.3471  0.3880
 8807SOL     OW38053   0.707   0.552   7.659 -0.4779 -0.3278 -0.1357
 8807SOL    HW138054   0.751   0.511   7.733  0.1767 -1.4211 -1.1286
 8807SOL    HW238055   0.627   0.582   7.703 -0.8186 -1.6892  0.1546
 8808SOL     OW38056   3.531   2.287   7.207  0.1731 -0.1004  0.8800
 8808SOL    HW138057   3.596   2.221   7.231 -0.8971 -1.2021  0.7136
 8808SOL    HW238058   3.594   2.358   7.191 -0.1184 -0.3342 -1.3416
 8809SOL     OW38059   2.484   4.422  10.553  0.3506 -0.5033 -0.4364
 8809SOL    HW138060   2.471   4.417  10.648 -1.5133  0.2041 -0.6603
 8809SOL    HW238061   2.569   4.379  10.538  0.4183 -1.2696  2.1023
 8810SOL     OW38062   2.956   3.732   4.917 -0.1922 -0.2353  0.0930
 8810SOL    HW138063   2.945   3.680   4.997  1.0904 -0.6128  0.0203
 8810SOL    HW238064   2.881   3.711   4.862  1.3038  0.0997 -2.0368
 8811SOL     OW38065   3.523   0.264   7.850  0.0579  0.5571  0.0800
 8811SOL    HW138066   3.615   0.241   7.865 -0.3845 -0.7150  0.9003
 8811SOL    HW238067   3.527   0.250   7.755 -0.8332  0.5506  0.0451
 8812SOL     OW38068   3.062   4.389   7.971  0.2195 -0.5678  0.1314
 8812SOL    HW138069   3.061   4.310   7.916 -0.7891 -0.2738 -0.2804
 8812SOL    HW238070   3.143   4.380   8.021 -0.1787 -1.6678  0.5728
 8813SOL     OW38071   1.993   0.542  10.306 -0.0475  0.7526 -0.1884
 8813SOL    HW138072   1.969   0.457  10.270  1.4116 -0.0579  0.7212
 8813SOL    HW238073   1.906   0.576  10.327  0.2460  2.0312 -1.0462
 8814SOL     OW38074   2.195   3.105  10.444  0.0772 -0.0430 -0.4267
 8814SOL    HW138075   2.133   3.178  10.444 -1.3255 -1.2374  1.4340
 8814SOL    HW238076   2.270   3.164  10.453 -0.1349  0.2797 -0.7514
 8815SOL     OW38077   3.750   1.784   8.056 -0.1891 -0.5869  0.1930
 8815SOL    HW138078   3.761   1.867   8.010  0.2102 -0.6408  0.1927
 8815SOL    HW238079   3.656   1.770   8.039 -0.1772  0.8877 -1.0693
 8816SOL     OW38080   2.230   3.275   6.658  0.1059  0.3320 -0.1401
 8816SOL    HW138081   2.292   3.253   6.589  1.5361  2.1513  0.5551
 8816SOL    HW238082   2.152   3.228   6.629  0.7431 -2.0509  1.9921
 8817SOL     OW38083   2.214   1.581   8.268  0.3505  0.3091 -0.1152
 8817SOL    HW138084   2.171   1.646   8.324  0.8673 -1.1962  2.0249
 8817SOL    HW238085   2.209   1.627   8.185 -0.9546 -0.6866 -0.5877
 8818SOL     OW38086   0.876   2.747   0.413  0.3498  0.8565  0.3268
 8818SOL    HW138087   0.879   2.707   0.326 -0.5288  2.0787 -0.2617
 8818SOL    HW238088   0.969   2.736   0.433  0.0461  0.9618  1.7957
 8819SOL     OW38089   2.506   1.468   7.896 -0.1924 -0.1349  0.5175
 8819SOL    HW138090   2.559   1.390   7.912  2.1026  1.1054 -1.0116
 8819SOL    HW238091   2.418   1.434   7.905  0.4551 -2.7091 -3.0465
 8820SOL     OW38092   2.523   2.757  16.760  0.4428  0.2928 -0.1843
 8820SOL    HW138093   2.473   2.675  16.753 -0.2852  0.8790 -1.7375
 8820SOL    HW238094   2.552   2.772  16.670  0.2544  0.0137 -0.2931
 8821SOL     OW38095   4.342   1.978   8.082 -0.1735 -0.4748 -0.2100
 8821SOL    HW138096   4.420   2.024   8.112 -0.1742 -1.0365  0.6514
 8821SOL    HW238097   4.359   1.983   7.988 -1.2256  2.1292 -0.2393
 8822SOL     OW38098   3.429   4.401   5.216  0.0801  0.2746 -0.2821
 8822SOL    HW138099   3.349   4.453   5.218 -0.3289 -0.3983  1.6482
 8822SOL    HW238100   3.379   4.320   5.200  0.0390  0.5112 -1.3546
 8823SOL     OW38101   0.367   1.533   3.866 -0.2895 -0.2470  0.8026
 8823SOL    HW138102   0.356   1.459   3.806  0.8943 -2.2409  3.0509
 8823SOL    HW238103   0.452   1.517   3.906 -0.4753 -0.5696  1.0742
 8824SOL     OW38104   4.039   2.942   1.404 -0.1069 -0.0160  0.3891
 8824SOL    HW138105   3.990   3.003   1.349  2.9010  2.9239  0.9583
 8824SOL    HW238106   4.073   3.006   1.467 -0.2393  0.5347 -0.0954
 8825SOL     OW38107   2.924   0.529   6.963 -0.0115 -0.4876 -0.1122
 8825SOL    HW138108   2.956   0.515   7.052  1.0620  1.9449 -0.1151
 8825SOL    HW238109   2.844   0.478   6.961  0.1685 -0.7804  0.1813
 8826SOL     OW38110   2.634   4.572   2.021  0.2073  0.1096  0.3626
 8826SOL    HW138111   2.566   4.505   2.032  0.1287  0.3530  1.3430
 8826SOL    HW238112   2.646   4.586   1.927 -0.1277 -1.0934  0.1344
 8827SOL     OW38113   2.612   4.329   1.610 -0.4142 -0.3840  0.2189
 8827SOL    HW138114   2.647   4.384   1.681  0.5560  1.4982 -1.7257
 8827SOL    HW238115   2.647   4.242   1.626  1.7163  0.4250 -0.0260
 8828SOL     OW38116   4.204   1.244  15.576  0.0438  0.3692  0.2759
 8828SOL    HW138117   4.203   1.159  15.620 -0.2226 -0.0157 -0.4768
 8828SOL    HW238118   4.282   1.273  15.624  0.7457 -2.4924  0.8801
 8829SOL     OW38119   1.825   0.648  16.578 -0.1883  0.1384 -0.3747
 8829SOL    HW138120   1.888   0.717  16.557  0.7495  0.1755  2.5715
 8829SOL    HW238121   1.809   0.618  16.488 -0.7405  0.9550 -0.5529
 8830SOL     OW38122   1.959   3.790   5.916  0.0415 -0.0334 -0.0038
 8830SOL    HW138123   1.866   3.772   5.928  0.2329 -0.5097  0.7647
 8830SOL    HW238124   1.977   3.719   5.855  3.0449  1.0205 -0.3589
 8831SOL     OW38125   1.143   4.306  16.405 -0.1716  0.1803 -0.3499
 8831SOL    HW138126   1.120   4.284  16.315 -1.3086  0.9759 -0.2560
 8831SOL    HW238127   1.126   4.223  16.450  2.4481  2.2274  4.3893
 8832SOL     OW38128   2.494   4.272   5.861 -0.3235 -0.1151  0.1260
 8832SOL    HW138129   2.432   4.244   5.929  0.1843 -0.9749  0.2356
 8832SOL    HW238130   2.576   4.231   5.891 -0.4100 -0.3303  0.0691
 8833SOL     OW38131   4.079   0.283   2.094  0.4771  0.3496 -0.2169
 8833SOL    HW138132   4.070   0.207   2.152  1.1863 -0.0734 -0.6574
 8833SOL    HW238133   4.173   0.295   2.106  0.6811 -0.1253 -1.3113
 8834SOL     OW38134   2.254   3.114   8.617 -0.1439  0.0271  0.4710
 8834SOL    HW138135   2.330   3.172   8.610 -0.7144  0.8083  0.8056
 8834SOL    HW238136   2.271   3.047   8.550 -1.6801  1.4175 -1.2962
 8835SOL     OW38137   4.594   0.404   7.636 -0.0585  0.5128 -0.2752
 8835SOL    HW138138   4.525   0.415   7.702  0.7191 -2.5336  1.0008
 8835SOL    HW238139   4.546   0.421   7.555 -1.5556 -1.7608  0.1441
 8836SOL     OW38140   4.174   0.162   7.608  0.7385 -0.0323  0.3273
 8836SOL    HW138141   4.107   0.201   7.663 -0.9803  0.4120 -2.0946
 8836SOL    HW238142   4.154   0.069   7.617 -2.3270  0.7152  1.1388
 8837SOL     OW38143   1.260   3.475   5.571 -0.4562 -0.6407 -0.6403
 8837SOL    HW138144   1.185   3.452   5.516 -0.9172  0.5365 -0.4795
 8837SOL    HW238145   1.212   3.506   5.647  2.0554 -2.4943  1.7140
 8838SOL     OW38146   0.400   4.321  16.251 -0.0035  0.6001  0.3671
 8838SOL    HW138147   0.328   4.269  16.288 -0.1877 -0.1095 -0.9901
 8838SOL    HW238148   0.460   4.316  16.326  0.3289 -0.6834  0.0227
 8839SOL     OW38149   4.193   3.368   4.206 -0.1631  0.4663  1.0141
 8839SOL    HW138150   4.239   3.451   4.216  0.4045 -0.1485  3.5031
 8839SOL    HW238151   4.113   3.391   4.254 -0.8553 -0.4915  0.3042
 8840SOL     OW38152   2.982   1.435   6.645  0.1111  0.3156 -0.1830
 8840SOL    HW138153   2.944   1.521   6.627 -1.2354 -0.0740  0.7472
 8840SOL    HW238154   3.000   1.402   6.557  3.6130  2.1926 -0.1585
 8841SOL     OW38155   2.058   0.310   3.763  0.1717 -0.1940  0.7107
 8841SOL    HW138156   2.034   0.388   3.814  0.8257 -0.6703  1.7250
 8841SOL    HW238157   2.009   0.323   3.682  1.4234 -2.0965 -0.3455
 8842SOL     OW38158   1.569   4.637   6.588  0.0127  0.0695  0.0098
 8842SOL    HW138159   1.522   4.715   6.618 -0.0557 -0.6221  1.6994
 8842SOL    HW238160   1.506   4.570   6.612  0.1852  0.4010  1.4175
 8843SOL     OW38161   0.014   0.427   3.248 -0.1277 -0.1473 -0.2180
 8843SOL    HW138162   0.027   0.344   3.203 -0.0549  0.1482 -0.7494
 8843SOL    HW238163   0.025   0.492   3.178  1.7572  0.4771  0.6484
 8844SOL     OW38164   3.922   3.760   7.314  0.1908 -0.3008  0.1565
 8844SOL    HW138165   3.947   3.781   7.404 -1.5698 -0.7407  0.7645
 8844SOL    HW238166   3.894   3.845   7.281  0.5692 -0.1552  0.2097
 8845SOL     OW38167   0.283   2.351   5.085  1.0083  0.1554 -0.3227
 8845SOL    HW138168   0.268   2.258   5.100  2.8642 -0.2153 -0.6494
 8845SOL    HW238169   0.333   2.370   5.165 -1.9649  1.7334  1.1506
 8846SOL     OW38170   0.389   0.313   4.545 -0.5892 -1.0100  0.1936
 8846SOL    HW138171   0.381   0.378   4.475 -1.0569 -1.4019 -0.1159
 8846SOL    HW238172   0.378   0.369   4.621  0.7108 -0.9458  0.3283
 8847SOL     OW38173   3.642   0.562  10.144 -0.4638  0.3354 -1.3529
 8847SOL    HW138174   3.662   0.588  10.234  0.3209 -2.0355 -0.8369
 8847SOL    HW238175   3.662   0.469  10.150 -0.7729  0.2439 -1.7765
 8848SOL     OW38176   2.020   3.150  12.762  0.2416 -0.0020 -0.3991
 8848SOL    HW138177   2.028   3.124  12.854 -0.0642 -0.5038 -0.5196
 8848SOL    HW238178   1.934   3.120  12.734 -0.2657  2.4824 -1.5701
 8849SOL     OW38179   0.101   4.482   7.610  0.3028  0.3054 -0.3708
 8849SOL    HW138180   0.181   4.461   7.562 -0.0254  0.3213 -0.9246
 8849SOL    HW238181   0.074   4.558   7.558 -0.8671  1.5365  2.0524
 8850SOL     OW38182   4.264   0.274   1.759  0.7558 -0.2459  0.0442
 8850SOL    HW138183   4.349   0.314   1.773 -0.2072  1.7185  0.2521
 8850SOL    HW238184   4.216   0.346   1.717  0.1721  1.4400  3.6340
 8851SOL     OW38185   2.574   3.369   4.677 -0.1022  0.1130  0.3334
 8851SOL    HW138186   2.652   3.339   4.724  0.2115  1.4960  0.6838
 8851SOL    HW238187   2.518   3.292   4.693  0.6728 -0.0461  2.2291
 8852SOL     OW38188   3.574   2.504   2.687 -0.6007 -0.1301  0.0833
 8852SOL    HW138189   3.621   2.576   2.644 -1.2431  0.6507  0.6809
 8852SOL    HW238190   3.625   2.477   2.763  0.1392 -1.8365 -1.0387
 8853SOL     OW38191   1.354   0.373   0.422 -0.0737 -0.1650 -0.2382
 8853SOL    HW138192   1.335   0.350   0.331  1.6716  0.6800 -0.8053
 8853SOL    HW238193   1.336   0.467   0.424 -1.4514 -0.3996 -1.4611
 8854SOL     OW38194   0.963   4.417  15.739  0.1734 -0.3109  0.7572
 8854SOL    HW138195   0.971   4.372  15.655 -0.5518  1.9483 -0.4965
 8854SOL    HW238196   1.058   4.427  15.752  0.7097 -1.8288 -2.1017
 8855SOL     OW38197   3.501   1.695   8.866 -0.0079 -0.0442  0.0228
 8855SOL    HW138198   3.573   1.748   8.832 -0.4483 -1.2819 -2.8879
 8855SOL    HW238199   3.465   1.665   8.782  0.5014  0.9908 -0.5663
 8856SOL     OW38200   3.795   0.915   6.721  0.0202  0.1500 -0.7296
 8856SOL    HW138201   3.736   0.965   6.665 -0.4295 -1.5916 -1.8209
 8856SOL    HW238202   3.824   0.983   6.781  0.1308 -2.5948  2.3381
 8857SOL     OW38203   3.786   1.138   6.882 -0.0123  0.0832  0.6322
 8857SOL    HW138204   3.802   1.231   6.867  0.6020 -0.1818 -0.3714
 8857SOL    HW238205   3.693   1.137   6.903 -0.1908  2.4151  0.0127
 8858SOL     OW38206   3.704   1.861   5.668 -0.3351 -0.0113  0.3143
 8858SOL    HW138207   3.735   1.912   5.743 -1.7107  1.4322 -0.0908
 8858SOL    HW238208   3.776   1.871   5.606  0.6184 -0.2534  1.3850
 8859SOL     OW38209   0.924   2.713   9.019  0.1452 -0.3211  0.0562
 8859SOL    HW138210   0.877   2.756   9.090  0.1075 -0.5871  0.1933
 8859SOL    HW238211   0.985   2.783   8.999 -0.6924  0.5152  0.4207
 8860SOL     OW38212   4.662   4.340   0.916 -0.1230  0.1989  0.0084
 8860SOL    HW138213   4.725   4.314   0.984  0.5423  1.0357 -0.2906
 8860SOL    HW238214   4.577   4.319   0.953 -1.4670  0.9658 -2.6434
 8861SOL     OW38215   0.046   0.999   9.390  0.1190 -0.1999 -0.2123
 8861SOL    HW138216   0.052   1.093   9.407  1.2627  0.3972 -4.0012
 8861SOL    HW238217   0.139   0.977   9.387  0.6318  1.5669  2.4750
 8862SOL     OW38218   1.869   0.658   4.822 -0.4907 -0.0481  0.1829
 8862SOL    HW138219   1.871   0.652   4.917  2.5747 -0.4262  0.1129
 8862SOL    HW238220   1.820   0.580   4.796  1.8981 -1.0979 -1.1449
 8863SOL     OW38221   0.426   0.931   7.696  0.1583  0.0661  0.0057
 8863SOL    HW138222   0.511   0.894   7.719  0.6169  1.1980  0.1170
 8863SOL    HW238223   0.381   0.853   7.664  1.0097 -0.2004 -0.5569
 8864SOL     OW38224   1.947   0.681   3.383 -0.1578 -0.7040 -0.1042
 8864SOL    HW138225   1.907   0.729   3.456 -0.5789 -0.9087 -0.2009
 8864SOL    HW238226   2.041   0.685   3.402 -0.0358 -0.9768 -0.6786
 8865SOL     OW38227   3.481   0.592   9.567  0.2560 -0.1924  0.5489
 8865SOL    HW138228   3.547   0.605   9.499 -0.5398  0.3335 -0.1321
 8865SOL    HW238229   3.535   0.592   9.646  2.0076 -1.3116 -0.6801
 8866SOL     OW38230   3.180   1.404  13.438 -0.3349 -0.0377  0.0362
 8866SOL    HW138231   3.145   1.336  13.496  2.4057  0.9357  2.8316
 8866SOL    HW238232   3.273   1.382  13.446 -0.4784  0.2285  2.4103
 8867SOL     OW38233   3.090   4.002  14.299 -0.2020 -0.5211  0.3199
 8867SOL    HW138234   2.997   4.024  14.296 -0.2188 -0.5268  0.7817
 8867SOL    HW238235   3.093   3.995  14.394 -0.3857 -0.2446  0.3474
 8868SOL     OW38236   2.031   3.635   8.139 -0.5215 -0.3658 -0.1719
 8868SOL    HW138237   2.003   3.551   8.177 -1.8769  0.6673  1.1025
 8868SOL    HW238238   1.945   3.670   8.116  0.4274  0.7477 -1.9761
 8869SOL     OW38239   0.448   2.417  15.298  0.6117 -0.5364 -0.1379
 8869SOL    HW138240   0.354   2.406  15.280  0.2473 -1.1338  2.0768
 8869SOL    HW238241   0.480   2.329  15.278  0.3912 -0.3318 -1.3886
 8870SOL     OW38242   2.451   4.383   2.111  0.1267  0.1819 -0.1445
 8870SOL    HW138243   2.414   4.420   2.031 -1.5093  0.3161  0.6719
 8870SOL    HW238244   2.381   4.386   2.177  0.0503 -2.4514 -0.0929
 8871SOL     OW38245   1.685   2.171   7.487  0.0630  0.4807  0.3277
 8871SOL    HW138246   1.674   2.122   7.568  1.8592 -2.2320 -1.0604
 8871SOL    HW238247   1.623   2.243   7.501 -2.1193 -1.0991 -1.0423
 8872SOL     OW38248   3.742   2.149  15.763 -0.0060 -0.8435  0.1451
 8872SOL    HW138249   3.651   2.180  15.769  0.9043  1.9446 -0.5681
 8872SOL    HW238250   3.783   2.194  15.837 -1.0948  0.6492 -0.1503
 8873SOL     OW38251   3.239   1.168   3.380 -0.2206  0.2073  0.0838
 8873SOL    HW138252   3.243   1.147   3.286  1.7961  1.5774 -0.1304
 8873SOL    HW238253   3.308   1.233   3.390  0.8773 -1.0460  0.5720
 8874SOL     OW38254   0.774   0.531   5.985 -0.1551 -0.1940  0.1243
 8874SOL    HW138255   0.721   0.584   6.044  1.9422  1.0817  0.8501
 8874SOL    HW238256   0.788   0.582   5.905  0.3594 -0.5786 -0.0348
 8875SOL     OW38257   2.722   2.648   1.917 -0.5270 -0.2461  0.8676
 8875SOL    HW138258   2.791   2.634   1.853  0.0147  0.3063  1.3330
 8875SOL    HW238259   2.759   2.601   1.992 -0.2967  1.2117  1.6700
 8876SOL     OW38260   2.467   3.749   4.736  0.2281  0.4927  0.1283
 8876SOL    HW138261   2.416   3.678   4.774  0.2281 -1.4611 -3.4794
 8876SOL    HW238262   2.424   3.753   4.650 -1.9831  1.6396  1.2941
 8877SOL     OW38263   0.999   0.421   8.537 -0.4644 -0.4055  0.3008
 8877SOL    HW138264   0.978   0.500   8.587 -0.7793 -0.2055 -0.1558
 8877SOL    HW238265   1.049   0.455   8.463 -1.5871 -0.5508 -0.5084
 8878SOL     OW38266   2.120   4.046   6.981 -0.1596  0.0309  0.5455
 8878SOL    HW138267   2.099   4.139   6.984  1.1733  0.3740 -1.2197
 8878SOL    HW238268   2.215   4.044   6.973 -0.4529 -2.3971 -2.2570
 8879SOL     OW38269   3.587   3.692   5.357 -0.2125  0.0438  0.5786
 8879SOL    HW138270   3.672   3.655   5.381 -1.0696 -2.0756  0.3524
 8879SOL    HW238271   3.596   3.712   5.264 -0.5703  1.9872  0.9663
 8880SOL     OW38272   0.220   0.479   2.233  0.2248  0.3998  0.1955
 8880SOL    HW138273   0.297   0.439   2.193 -1.6447 -2.4600 -0.6200
 8880SOL    HW238274   0.178   0.404   2.274 -0.8762 -0.5081 -2.5421
 8881SOL     OW38275   0.993   4.254   5.674  0.1043 -0.1399 -0.7833
 8881SOL    HW138276   1.070   4.242   5.619  0.5946 -0.5317 -0.0105
 8881SOL    HW238277   0.928   4.289   5.613 -0.6232 -0.8148 -0.3958
 8882SOL     OW38278   4.387   2.416   4.713 -0.2824 -0.6370 -0.3792
 8882SOL    HW138279   4.340   2.494   4.742  0.9527 -0.3259  0.7956
 8882SOL    HW238280   4.439   2.396   4.791  0.0871  1.2523 -0.1298
 8883SOL     OW38281   4.416   3.781   8.153 -0.0416 -0.2093  0.1530
 8883SOL    HW138282   4.449   3.751   8.238  0.7960 -1.6225 -0.6829
 8883SOL    HW238283   4.492   3.815   8.106 -0.5473 -0.7684 -1.0616
 8884SOL     OW38284   3.994   1.969   1.258 -0.3002 -0.5145  0.4041
 8884SOL    HW138285   4.006   1.879   1.290  0.1797 -0.2745  0.8956
 8884SOL    HW238286   3.918   2.004   1.305  0.2032  0.8772  0.1819
 8885SOL     OW38287   0.655   0.838   4.604  0.3209 -0.4071 -0.6163
 8885SOL    HW138288   0.613   0.838   4.691  0.0991  2.1768 -0.7114
 8885SOL    HW238289   0.688   0.928   4.603 -0.1317 -0.2371 -0.1324
 8886SOL     OW38290   1.116   1.050   6.293 -0.1858  0.3480 -0.0552
 8886SOL    HW138291   1.190   1.110   6.302  0.2438 -0.2094  0.1213
 8886SOL    HW238292   1.074   1.053   6.379 -1.0021 -0.8056 -0.4122
 8887SOL     OW38293   3.933   2.330   9.307  0.0237 -0.1761  0.3289
 8887SOL    HW138294   3.843   2.358   9.321 -0.3253  1.1926 -4.7462
 8887SOL    HW238295   3.945   2.380   9.226 -1.6756 -1.8639 -0.9741
 8888SOL     OW38296   2.819   3.143   4.395  0.0985  0.2623 -0.2524
 8888SOL    HW138297   2.841   3.200   4.469 -1.2881  1.7602 -0.9661
 8888SOL    HW238298   2.887   3.160   4.331  0.1846 -0.1478 -0.2649
 8889SOL     OW38299   1.072   3.865   8.493 -0.1842  0.4219 -0.1664
 8889SOL    HW138300   1.035   3.858   8.581 -2.0141 -0.4542 -1.0159
 8889SOL    HW238301   1.160   3.898   8.509  0.1083  0.4560 -1.9097
 8890SOL     OW38302   0.280   2.962  10.797 -0.0582 -0.4891  0.0288
 8890SOL    HW138303   0.305   2.870  10.790 -0.6439 -0.6734  0.3080
 8890SOL    HW238304   0.197   2.962  10.750  0.3479 -2.7739 -0.6810
 8891SOL     OW38305   0.362   1.716   2.842  0.2281 -0.0081  0.0745
 8891SOL    HW138306   0.398   1.627   2.837  3.0254  1.1829 -1.4298
 8891SOL    HW238307   0.364   1.746   2.751 -1.8544 -1.9803 -0.6376
 8892SOL     OW38308   2.802   1.859   7.926 -0.4650  0.1602 -0.1777
 8892SOL    HW138309   2.731   1.802   7.956 -0.4455  0.8468  1.1893
 8892SOL    HW238310   2.754   1.941   7.940 -1.9019 -0.8898  1.1579
 8893SOL     OW38311   4.426   3.382   0.312 -0.4967  0.2303  0.0330
 8893SOL    HW138312   4.453   3.303   0.359 -2.0577 -0.7634 -0.7216
 8893SOL    HW238313   4.397   3.441   0.382 -0.8090 -0.4935  0.5153
 8894SOL     OW38314   3.059   3.000  16.410  0.0770 -0.4391 -0.9563
 8894SOL    HW138315   3.105   2.916  16.406  2.7348  0.9793 -0.0911
 8894SOL    HW238316   2.994   2.974  16.475  0.9754  0.9004  0.4721
 8895SOL     OW38317   3.324   3.146   8.829  0.0895 -0.1788 -0.0234
 8895SOL    HW138318   3.373   3.178   8.905  0.3524 -0.3760 -0.1106
 8895SOL    HW238319   3.337   3.052   8.839  2.7857  0.3463  1.4575
 8896SOL     OW38320   4.347   1.467   1.587  0.1511 -0.0308 -0.0134
 8896SOL    HW138321   4.269   1.448   1.639  0.5877 -2.7359 -0.3637
 8896SOL    HW238322   4.394   1.531   1.641 -0.6014  0.1883  0.3788
 8897SOL     OW38323   3.141   4.277   3.087 -0.1065  0.2632  0.2990
 8897SOL    HW138324   3.231   4.310   3.097 -0.4753  1.1301  0.7891
 8897SOL    HW238325   3.160   4.222   3.011  1.5559 -0.6024  1.3492
 8898SOL     OW38326   0.070   0.619   2.619 -0.7580 -0.5166 -0.6914
 8898SOL    HW138327   0.013   0.621   2.696  0.8203  0.9868  0.4286
 8898SOL    HW238328   0.132   0.683   2.652  1.0000 -1.8303 -1.4825
 8899SOL     OW38329   2.444   0.206   7.518 -0.2232 -0.8349  0.4351
 8899SOL    HW138330   2.462   0.245   7.604 -1.4502  0.1839  0.2310
 8899SOL    HW238331   2.349   0.217   7.514  0.0280  1.9967  2.3356
 8900SOL     OW38332   4.158   3.337   0.208  0.0162  0.2700  0.0290
 8900SOL    HW138333   4.251   3.359   0.219  0.1399 -0.2018 -0.0452
 8900SOL    HW238334   4.143   3.324   0.115 -0.6118 -0.0760  0.1807
 8901SOL     OW38335   0.952   1.122   9.757 -0.0642  0.2257  0.3466
 8901SOL    HW138336   0.922   1.114   9.847 -0.6567  1.1569  0.2314
 8901SOL    HW238337   0.878   1.167   9.717 -1.2587 -0.6774  1.5253
 8902SOL     OW38338   1.599   4.307   5.633  0.3592 -0.1898 -0.0319
 8902SOL    HW138339   1.690   4.299   5.663  1.2489  1.9974 -2.1902
 8902SOL    HW238340   1.570   4.216   5.638  0.5240 -0.2128  0.5364
 8903SOL     OW38341   0.539   1.869  14.680 -0.0280 -0.2738 -0.5780
 8903SOL    HW138342   0.600   1.810  14.636  0.4668  0.0692 -0.3521
 8903SOL    HW238343   0.576   1.952  14.649 -1.4372  2.0288  3.9151
 8904SOL     OW38344   2.016   3.229   3.118  0.0131  0.0258  0.4901
 8904SOL    HW138345   2.067   3.197   3.044  0.3205 -0.1459  0.7746
 8904SOL    HW238346   2.080   3.192   3.180 -1.8500 -1.3688  1.5793
 8905SOL     OW38347   2.172   2.917  12.623 -0.3532  0.6279  0.0873
 8905SOL    HW138348   2.242   2.963  12.576 -1.2618 -0.0770 -2.0009
 8905SOL    HW238349   2.115   2.987  12.655 -2.6796 -0.3377 -1.9247
 8906SOL     OW38350   2.211   1.994   7.783 -0.2062 -1.0974  0.3589
 8906SOL    HW138351   2.234   2.012   7.874  0.0314 -1.7395  0.4265
 8906SOL    HW238352   2.295   1.996   7.737 -0.2753  0.4224  0.3072
 8907SOL     OW38353   0.212   3.472  12.538  0.0026 -0.0611 -0.5508
 8907SOL    HW138354   0.281   3.475  12.604 -0.0732 -1.9597 -0.3866
 8907SOL    HW238355   0.140   3.441  12.593 -0.5722 -0.1295 -1.3401
 8908SOL     OW38356   2.455   0.522   2.808  0.7061 -0.0229 -0.3207
 8908SOL    HW138357   2.521   0.557   2.749 -1.2964  1.5517 -1.6494
 8908SOL    HW238358   2.382   0.577   2.777 -0.4100 -1.2116  0.1991
 8909SOL     OW38359   2.785   0.542   5.296  0.5797  1.1721  0.1555
 8909SOL    HW138360   2.800   0.467   5.238 -0.5741  0.8772  0.2430
 8909SOL    HW238361   2.827   0.608   5.240 -1.2030 -0.6027 -3.2509
 8910SOL     OW38362   3.284   4.164   5.119  0.1151  0.2960 -0.3200
 8910SOL    HW138363   3.319   4.076   5.125  0.5983  0.3982 -1.6055
 8910SOL    HW238364   3.190   4.145   5.124  0.2760 -0.9116 -2.0694
 8911SOL     OW38365   0.256   1.788   4.962  0.3177  0.5420  0.0149
 8911SOL    HW138366   0.188   1.841   4.919 -1.7935 -2.3131 -0.1989
 8911SOL    HW238367   0.327   1.788   4.899  2.0229 -1.4212  1.9383
 8912SOL     OW38368   2.598   1.751   2.354 -0.0217 -0.0647  0.3941
 8912SOL    HW138369   2.572   1.799   2.276 -0.2352 -0.5883  0.1427
 8912SOL    HW238370   2.524   1.761   2.413 -1.3823  0.5809 -1.4226
 8913SOL     OW38371   0.711   3.467   2.095  0.3252 -0.7420 -0.3262
 8913SOL    HW138372   0.656   3.432   2.165 -0.2038 -1.4373 -1.0991
 8913SOL    HW238373   0.669   3.436   2.015 -0.0958 -1.3751  0.1409
 8914SOL     OW38374   4.181   1.935  15.680  0.3587  0.1931  0.0674
 8914SOL    HW138375   4.125   2.012  15.682  1.1645  0.8532 -3.0449
 8914SOL    HW238376   4.233   1.936  15.761  0.2351 -0.0316  0.1488
 8915SOL     OW38377   2.398   3.798   1.982  0.0881 -0.4516  0.3863
 8915SOL    HW138378   2.450   3.836   1.911  2.1728  2.0646  3.2579
 8915SOL    HW238379   2.312   3.808   1.941  0.8088 -1.7487 -1.4417
 8916SOL     OW38380   0.416   0.866   3.229 -0.4422 -0.3417 -0.4099
 8916SOL    HW138381   0.398   0.772   3.233 -1.1556 -0.1967 -0.1565
 8916SOL    HW238382   0.403   0.885   3.137  2.2117 -0.7039 -0.8717
 8917SOL     OW38383   2.069   1.616   8.650 -0.3587 -0.7448 -0.5876
 8917SOL    HW138384   2.025   1.643   8.730  3.5012  0.8977  0.9632
 8917SOL    HW238385   1.999   1.569   8.605 -2.5783 -0.8304  2.9997
 8918SOL     OW38386   2.885   3.907  16.183 -0.4124 -0.7598 -0.2680
 8918SOL    HW138387   2.811   3.885  16.240 -1.4112 -2.2690 -2.1386
 8918SOL    HW238388   2.909   3.991  16.220  0.1025 -0.1803 -1.9033
 8919SOL     OW38389   1.237   4.089   3.403  0.0285  0.3736  0.0565
 8919SOL    HW138390   1.187   4.164   3.370 -0.0115  0.0455 -0.6338
 8919SOL    HW238391   1.321   4.130   3.423 -0.2966  2.0393 -1.9543
 8920SOL     OW38392   4.318   1.408   8.295 -0.0838  0.1463 -0.5707
 8920SOL    HW138393   4.291   1.411   8.203  1.0139 -0.1555 -0.9057
 8920SOL    HW238394   4.269   1.331   8.325  1.4503 -0.4260  0.4694
 8921SOL     OW38395   0.797   0.792   9.860 -0.2839  0.0627  0.0014
 8921SOL    HW138396   0.733   0.721   9.867 -1.0235  0.4919 -2.3166
 8921SOL    HW238397   0.740   0.860   9.898 -1.1121  0.7744 -2.5104
 8922SOL     OW38398   3.549   3.582   1.261  0.0800  0.5676 -0.2503
 8922SOL    HW138399   3.598   3.661   1.236  2.9206 -1.2362 -0.4509
 8922SOL    HW238400   3.554   3.535   1.178 -0.9011  1.2292 -0.6839
 8923SOL     OW38401   1.935   0.843   8.234 -0.5678  0.2834  0.2244
 8923SOL    HW138402   1.985   0.914   8.272 -0.9843  1.3985 -1.3011
 8923SOL    HW238403   1.966   0.836   8.143  0.3426  1.6885  0.4354
 8924SOL     OW38404   1.571   2.920   4.221  0.0025 -0.4929  0.6799
 8924SOL    HW138405   1.477   2.902   4.217 -0.2030  0.7120  0.1540
 8924SOL    HW238406   1.593   2.908   4.128  1.4960 -0.5085  1.0365
 8925SOL     OW38407   3.915   0.598  15.603  0.2342 -0.2592 -0.5794
 8925SOL    HW138408   3.898   0.539  15.677 -0.8358  2.9369  1.6971
 8925SOL    HW238409   3.953   0.670  15.652 -0.1023 -0.3278 -0.2187
 8926SOL     OW38410   4.004   0.149  13.822  0.3334  0.7221  0.0555
 8926SOL    HW138411   4.010   0.087  13.895  0.3294 -1.2628 -1.6666
 8926SOL    HW238412   3.960   0.222  13.867  0.8361 -0.0464  1.8039
 8927SOL     OW38413   1.354   3.964   6.843  0.6138  0.0312  0.1237
 8927SOL    HW138414   1.367   3.870   6.856 -3.0647 -0.4511  0.1121
 8927SOL    HW238415   1.443   3.999   6.848  0.7470 -0.5037  1.4900
 8928SOL     OW38416   2.455   0.164   1.416 -0.8948  0.3616  0.3518
 8928SOL    HW138417   2.402   0.140   1.340  0.5889  0.7589 -0.7909
 8928SOL    HW238418   2.422   0.249   1.447  1.5789  1.5030 -0.1791
 8929SOL     OW38419   3.469   1.940   2.756  0.0906  0.3981  0.5589
 8929SOL    HW138420   3.556   1.959   2.790 -0.1304  0.9044  0.8336
 8929SOL    HW238421   3.492   1.899   2.672  1.9818 -3.6851  3.0504
 8930SOL     OW38422   2.332   4.353   2.810  0.5744 -0.9015 -0.2194
 8930SOL    HW138423   2.335   4.350   2.905  0.4710  1.2635 -0.1346
 8930SOL    HW238424   2.424   4.375   2.793  0.0485  0.6360 -1.1646
 8931SOL     OW38425   1.857   3.911   7.798 -0.0547  0.2116  0.5886
 8931SOL    HW138426   1.777   3.922   7.746  1.1032 -1.5110 -1.5554
 8931SOL    HW238427   1.872   4.002   7.823  0.7342  0.6481 -1.4299
 8932SOL     OW38428   1.379   1.612   5.719 -0.2517  0.4094 -0.0157
 8932SOL    HW138429   1.461   1.600   5.670 -1.2784 -1.7907 -1.1806
 8932SOL    HW238430   1.320   1.639   5.648  0.2753 -0.0717 -0.6370
 8933SOL     OW38431   2.386   2.592   5.274 -0.4481  0.1962 -0.0638
 8933SOL    HW138432   2.305   2.552   5.304 -0.3849 -0.6060 -0.9798
 8933SOL    HW238433   2.453   2.551   5.328  1.2238  3.9531  0.7711
 8934SOL     OW38434   1.248   2.873   3.505 -0.2620  0.2537 -0.1925
 8934SOL    HW138435   1.221   2.965   3.497  0.1396  0.3809 -0.0407
 8934SOL    HW238436   1.342   2.884   3.514  0.1438 -3.1179 -0.1878
 8935SOL     OW38437   2.712   2.806   3.893 -0.6421 -0.6430  0.1764
 8935SOL    HW138438   2.771   2.797   3.968  0.6766 -1.6549 -0.9645
 8935SOL    HW238439   2.663   2.724   3.895 -1.4453 -0.2041 -1.6004
 8936SOL     OW38440   2.150   1.571   0.675  0.1906 -0.3040  0.3754
 8936SOL    HW138441   2.165   1.618   0.758 -0.5481  2.0281 -0.8215
 8936SOL    HW238442   2.167   1.643   0.614 -0.6794 -0.3282  0.1143
 8937SOL     OW38443   2.865   2.831   7.695  0.0805  0.1893  0.4836
 8937SOL    HW138444   2.781   2.852   7.654 -0.6136 -1.7254  0.9209
 8937SOL    HW238445   2.827   2.754   7.737  3.0272 -2.6322 -2.0742
 8938SOL     OW38446   4.259   0.575   8.110 -0.0770  0.5477 -0.3079
 8938SOL    HW138447   4.293   0.661   8.087  1.1977 -0.2695 -1.4989
 8938SOL    HW238448   4.298   0.529   8.036  0.3737 -1.4591  1.1786
 8939SOL     OW38449   1.475   1.265  12.275  0.2563 -0.4454 -0.9356
 8939SOL    HW138450   1.457   1.336  12.337  1.3759  0.4045 -1.5786
 8939SOL    HW238451   1.566   1.280  12.250  0.5100  1.0021  0.8481
 8940SOL     OW38452   2.591   2.856   7.892 -0.2595  0.6306 -1.0207
 8940SOL    HW138453   2.672   2.848   7.942 -0.5249 -1.1648 -0.8816
 8940SOL    HW238454   2.622   2.896   7.810  2.5323  0.4807 -0.0492
 8941SOL     OW38455   4.567   4.297   0.386  0.2392 -0.0568 -0.6099
 8941SOL    HW138456   4.607   4.216   0.417 -1.2320  0.0238  1.5172
 8941SOL    HW238457   4.573   4.343   0.469 -0.0923  1.2349 -1.3030
 8942SOL     OW38458   4.109   3.689   6.712 -0.1514  0.2509  0.0639
 8942SOL    HW138459   4.164   3.682   6.634  0.1552  0.1481  0.2833
 8942SOL    HW238460   4.160   3.746   6.770  1.1934  0.0296 -0.8970
 8943SOL     OW38461   0.050   1.911   0.475 -0.3839 -0.6736  0.0864
 8943SOL    HW138462   0.086   1.843   0.419  2.5717  1.2750 -0.4070
 8943SOL    HW238463   0.120   1.977   0.482 -1.6191  0.6054  0.3626
 8944SOL     OW38464   3.692   1.163   4.399  0.0280 -0.1697 -0.1745
 8944SOL    HW138465   3.711   1.140   4.308 -1.4207  1.0534 -0.7668
 8944SOL    HW238466   3.601   1.193   4.396 -0.6894 -2.3338 -0.0989
 8945SOL     OW38467   3.954   0.203  16.384  0.2913 -0.1355 -0.0819
 8945SOL    HW138468   3.934   0.136  16.450 -0.9198  1.6517  1.3768
 8945SOL    HW238469   4.024   0.161  16.335  0.8043  0.9001 -0.2298
 8946SOL     OW38470   2.076   1.006   4.352  0.6862 -0.2378 -0.0742
 8946SOL    HW138471   2.022   1.034   4.426 -0.0056 -1.5928 -0.0748
 8946SOL    HW238472   2.095   0.920   4.388 -1.0733 -0.9067 -0.7518
 8947SOL     OW38473   3.534   1.776   3.759  0.2591 -0.1356 -0.6186
 8947SOL    HW138474   3.468   1.718   3.798  0.7899 -1.2078 -1.3031
 8947SOL    HW238475   3.489   1.858   3.779  0.8480  0.2080 -0.7046
 8948SOL     OW38476   3.392   2.386   5.458 -0.1448 -0.4056 -0.3934
 8948SOL    HW138477   3.422   2.449   5.524  0.3320 -0.3355 -0.6770
 8948SOL    HW238478   3.471   2.395   5.404  0.6585  1.6001  1.1121
 8949SOL     OW38479   0.839   4.543  14.989  0.2784  0.0645  0.0945
 8949SOL    HW138480   0.790   4.524  15.070 -0.4231  0.6024 -0.2002
 8949SOL    HW238481   0.876   4.629  15.010  0.2297 -0.2336  1.3900
 8950SOL     OW38482   2.441   2.665   3.220 -0.0001  0.1592 -0.4873
 8950SOL    HW138483   2.403   2.593   3.270  0.6657  0.0195 -0.1783
 8950SOL    HW238484   2.360   2.704   3.188 -0.0115 -0.9894 -1.8558
 8951SOL     OW38485   3.785   2.746   7.045  0.1031  0.5037 -0.0886
 8951SOL    HW138486   3.747   2.832   7.059 -0.3632  0.3411 -0.3374
 8951SOL    HW238487   3.834   2.731   7.125 -0.4902 -2.0635 -0.2059
 8952SOL     OW38488   1.880   2.450  10.112 -0.6103 -0.0188  0.1406
 8952SOL    HW138489   1.894   2.542  10.090 -2.5598  0.2007 -0.2018
 8952SOL    HW238490   1.840   2.415  10.033 -1.3688  0.3410  0.3672
 8953SOL     OW38491   3.859   0.463  15.842  0.6080 -0.1293 -0.4033
 8953SOL    HW138492   3.779   0.513  15.857  0.9726  1.1359 -2.6409
 8953SOL    HW238493   3.869   0.409  15.920  2.0073  1.3634  0.4605
 8954SOL     OW38494   2.799   1.902   2.482  0.2469  0.2043 -0.0580
 8954SOL    HW138495   2.865   1.835   2.500 -1.1481 -1.4465 -1.1079
 8954SOL    HW238496   2.732   1.853   2.434 -2.6171  1.2774  2.7923
 8955SOL     OW38497   2.345   0.345   2.988 -0.6339 -0.3399  0.1486
 8955SOL    HW138498   2.409   0.399   2.942 -1.6888  0.0335 -0.8654
 8955SOL    HW238499   2.295   0.315   2.912 -1.2730 -1.0690  0.8484
 8956SOL     OW38500   2.785   1.743   9.339 -0.6348 -0.2814  0.3935
 8956SOL    HW138501   2.774   1.734   9.433 -2.2196  1.5102  0.3856
 8956SOL    HW238502   2.696   1.727   9.309  0.2886  0.2978 -2.6578
 8957SOL     OW38503   2.438   2.953   5.735  0.0030  0.0644 -0.1762
 8957SOL    HW138504   2.373   2.911   5.679  0.4945  0.6747 -1.2048
 8957SOL    HW238505   2.518   2.923   5.693 -0.1447 -0.8504  0.2006
 8958SOL     OW38506   3.876   4.313   2.350  0.3422 -0.2749 -0.2089
 8958SOL    HW138507   3.815   4.288   2.282  0.9254 -0.4747 -0.6600
 8958SOL    HW238508   3.950   4.254   2.337 -0.6668 -1.5780  0.0101
 8959SOL     OW38509   4.628   2.582   2.244  0.5603  0.3979  0.0179
 8959SOL    HW138510   4.554   2.632   2.279 -1.0244 -0.9473 -1.4779
 8959SOL    HW238511   4.697   2.646   2.265 -1.2674  2.1498  0.6478
 8960SOL     OW38512   2.193   3.314  14.644 -0.6842 -0.4650  1.0129
 8960SOL    HW138513   2.198   3.404  14.611  0.9106 -0.5866  0.9365
 8960SOL    HW238514   2.098   3.310  14.641 -0.7154  0.1383  1.0756
 8961SOL     OW38515   0.684   4.587   1.497  0.0922  0.1780  0.2497
 8961SOL    HW138516   0.711   4.650   1.430 -0.1095  0.7114  0.6731
 8961SOL    HW238517   0.763   4.534   1.504 -0.7225 -0.7656  2.3617
 8962SOL     OW38518   2.243   3.847   3.509  0.5059 -0.1732  0.3297
 8962SOL    HW138519   2.206   3.800   3.435  1.7653 -0.1538 -0.3228
 8962SOL    HW238520   2.216   3.934   3.480 -1.0230 -1.3046 -1.6089
 8963SOL     OW38521   2.380   2.689  14.758 -0.3643 -0.2090  0.2227
 8963SOL    HW138522   2.306   2.638  14.790 -0.1920 -1.4627 -1.4297
 8963SOL    HW238523   2.341   2.712  14.674  2.9454 -0.1096 -1.2901
 8964SOL     OW38524   1.168   1.630   0.800 -0.0443  0.0114 -0.4962
 8964SOL    HW138525   1.194   1.583   0.721 -2.5395  0.0400 -1.3445
 8964SOL    HW238526   1.240   1.693   0.805  0.0679  0.0229 -2.2295
 8965SOL     OW38527   3.227   1.952   8.349  0.5066 -0.4994  0.0978
 8965SOL    HW138528   3.189   2.039   8.367 -0.3819 -0.0801 -3.8977
 8965SOL    HW238529   3.234   1.965   8.254  2.0311  3.2594  0.7121
 8966SOL     OW38530   1.308   0.714  14.845  0.9916  0.0887 -0.0093
 8966SOL    HW138531   1.291   0.796  14.891  0.5186  0.0845 -0.1743
 8966SOL    HW238532   1.254   0.724  14.766  0.5669 -2.0681  0.0094
 8967SOL     OW38533   3.901   4.384   8.119 -0.3543 -0.6428  0.3203
 8967SOL    HW138534   3.928   4.348   8.204 -1.6557 -0.6351  0.7410
 8967SOL    HW238535   3.945   4.469   8.123  1.2758 -1.4475 -0.4301
 8968SOL     OW38536   4.364   1.213   3.135 -0.4273 -1.0900  0.3077
 8968SOL    HW138537   4.365   1.129   3.181 -0.1665  0.1876  2.6355
 8968SOL    HW238538   4.356   1.190   3.043  0.7644 -1.4019  0.2912
 8969SOL     OW38539   3.454   4.105   8.166  0.3650 -0.3037 -0.8451
 8969SOL    HW138540   3.420   4.057   8.241  0.1743 -1.9510 -1.9737
 8969SOL    HW238541   3.534   4.135   8.210  0.3222 -2.0579  0.4058
 8970SOL     OW38542   4.569   0.505   7.006  0.7450  1.1410  0.0322
 8970SOL    HW138543   4.567   0.424   7.058 -1.3001  0.6827 -0.7808
 8970SOL    HW238544   4.476   0.526   6.998  0.5871 -0.0032 -1.0638
 8971SOL     OW38545   2.995   0.348   3.839  1.0937  0.4638 -0.1297
 8971SOL    HW138546   3.078   0.395   3.835  2.1116 -1.1104  2.6125
 8971SOL    HW238547   2.974   0.323   3.749  0.0159 -0.0593  0.2659
 8972SOL     OW38548   1.733   0.552   6.844  0.1241  0.3513 -0.5715
 8972SOL    HW138549   1.689   0.560   6.929 -1.2749  0.8481 -1.3499
 8972SOL    HW238550   1.801   0.486   6.860  0.0518  0.7881  1.5849
 8973SOL     OW38551   3.305   2.971   3.012  0.2182  0.1193  0.1236
 8973SOL    HW138552   3.387   2.951   2.968  0.8723 -2.1682  2.3469
 8973SOL    HW238553   3.270   3.048   2.969  0.9004  0.2223 -0.2391
 8974SOL     OW38554   4.026   4.685   4.661  0.1653  0.0359 -0.1316
 8974SOL    HW138555   3.944   4.674   4.612  0.3355  0.0984 -0.4308
 8974SOL    HW238556   4.086   0.002   4.606 -0.6509  0.3290 -0.7541
 8975SOL     OW38557   4.488   2.306  13.497  0.2179 -0.1625  0.4742
 8975SOL    HW138558   4.515   2.394  13.471 -2.8721  0.8718  0.7170
 8975SOL    HW238559   4.463   2.316  13.588  1.5877  0.5622  0.7625
 8976SOL     OW38560   4.272   1.061  10.343 -0.2426  0.1488  0.4441
 8976SOL    HW138561   4.210   0.995  10.375 -0.4686  0.4735  0.6766
 8976SOL    HW238562   4.278   1.030  10.253  1.3933 -0.7663  0.8651
 8977SOL     OW38563   0.082   1.145   5.183 -0.0747 -0.2638  0.1385
 8977SOL    HW138564   0.047   1.202   5.114 -0.6436 -1.2245 -0.3764
 8977SOL    HW238565   0.161   1.186   5.218 -1.3315  0.5940  1.9233
 8978SOL     OW38566   2.556   3.970   1.553  0.3479 -0.0487  0.1738
 8978SOL    HW138567   2.552   3.924   1.636 -1.6268 -0.1014  0.0606
 8978SOL    HW238568   2.618   4.040   1.570 -0.0961 -0.1184  2.0142
 8979SOL     OW38569   0.362   3.880   5.699 -0.3732  0.2867  0.5826
 8979SOL    HW138570   0.385   3.867   5.791 -2.4302 -0.4990  0.9744
 8979SOL    HW238571   0.300   3.952   5.707 -0.2719  0.3492  0.8106
 8980SOL     OW38572   3.097   3.458   6.862  0.2493 -0.6303  0.4913
 8980SOL    HW138573   3.190   3.479   6.852  0.4760 -0.9632  1.8004
 8980SOL    HW238574   3.110   3.384   6.922 -1.1196 -0.9868  0.3479
 8981SOL     OW38575   0.781   2.849  15.352  0.0140 -0.3024 -0.4140
 8981SOL    HW138576   0.870   2.882  15.343 -0.5762  1.2469 -0.5320
 8981SOL    HW238577   0.732   2.925  15.320 -1.5610 -1.0243  0.2764
 8982SOL     OW38578   2.403   4.633   3.879  0.1468 -0.1862 -0.9388
 8982SOL    HW138579   2.354   4.715   3.883 -1.0905 -1.0154  0.7802
 8982SOL    HW238580   2.384   4.600   3.967 -2.6171  0.9264 -1.1326
 8983SOL     OW38581   4.463   3.675   0.406  0.3566  0.0878  0.0048
 8983SOL    HW138582   4.554   3.650   0.386  0.2352  0.0615 -0.5257
 8983SOL    HW238583   4.432   3.684   0.316 -0.9843  3.6523  0.8067
 8984SOL     OW38584   1.562   3.317   8.381 -0.3244  0.5756 -0.5875
 8984SOL    HW138585   1.569   3.235   8.332  1.5114 -0.0699  0.7646
 8984SOL    HW238586   1.634   3.298   8.441  0.1649  0.2274 -1.2756
 8985SOL     OW38587   2.735   0.360   9.281 -0.0056 -1.0095  0.1579
 8985SOL    HW138588   2.733   0.306   9.360 -1.6028 -1.0201  0.1020
 8985SOL    HW238589   2.699   0.302   9.214  1.1125 -2.0164  0.4233
 8986SOL     OW38590   0.234   3.119   0.484 -0.2499  0.1106 -0.5456
 8986SOL    HW138591   0.281   3.039   0.459  0.9068 -0.2731  2.9468
 8986SOL    HW238592   0.226   3.167   0.401 -2.0762  0.3103 -0.2498
 8987SOL     OW38593   3.728   4.206   2.144  0.5299 -0.1585  0.1723
 8987SOL    HW138594   3.787   4.199   2.069  1.7240  1.3492  0.9800
 8987SOL    HW238595   3.657   4.157   2.103 -0.0489  0.4243  0.4965
 8988SOL     OW38596   2.863   2.067   5.151 -0.4870 -0.0177  0.4286
 8988SOL    HW138597   2.787   2.085   5.205  1.4069  0.1837  3.0555
 8988SOL    HW238598   2.915   2.147   5.165  2.2085 -1.0520 -3.5191
 8989SOL     OW38599   2.813   4.013   6.686  0.3979  0.2073 -0.2005
 8989SOL    HW138600   2.772   4.067   6.618 -0.2969 -0.8223 -0.6171
 8989SOL    HW238601   2.800   3.923   6.653  0.5903 -0.2009  0.8602
 8990SOL     OW38602   0.861   3.407   8.535 -0.1997  0.3152  0.7861
 8990SOL    HW138603   0.957   3.399   8.532 -0.4293 -2.1525 -0.4223
 8990SOL    HW238604   0.831   3.379   8.448  1.2527  0.9942  0.0491
 8991SOL     OW38605   2.771   3.014  15.880  0.0275  0.2500  0.1713
 8991SOL    HW138606   2.769   3.104  15.848 -1.4425  0.1039 -0.1710
 8991SOL    HW238607   2.679   2.985  15.881 -0.0389  0.4355 -2.5637
 8992SOL     OW38608   3.060   2.211   2.213  0.1361 -0.1637  0.1593
 8992SOL    HW138609   3.116   2.137   2.240 -0.4101 -0.5339  0.2824
 8992SOL    HW238610   2.980   2.158   2.212 -0.5552  0.8741  0.1600
 8993SOL     OW38611   1.795   4.377   8.053 -0.3787  0.2862  0.1454
 8993SOL    HW138612   1.725   4.321   8.018 -0.2273  0.7291 -0.8639
 8993SOL    HW238613   1.837   4.304   8.099  1.2481 -0.8592 -3.1281
 8994SOL     OW38614   0.441   0.477   8.440 -0.3286  0.0155  0.3917
 8994SOL    HW138615   0.460   0.387   8.468 -2.2532 -0.3758  0.4434
 8994SOL    HW238616   0.478   0.477   8.352 -0.9537  0.1929  0.1330
 8995SOL     OW38617   0.293   0.057   1.274  0.0789 -0.0702 -0.7294
 8995SOL    HW138618   0.238   0.000   1.222 -0.0206 -0.3294 -0.3448
 8995SOL    HW238619   0.324   4.731   1.343  1.0825 -2.0350 -2.8628
 8996SOL     OW38620   1.159   3.918   4.437  0.1165 -0.1175 -0.3339
 8996SOL    HW138621   1.184   4.002   4.474  0.1910 -0.1092 -0.4034
 8996SOL    HW238622   1.116   3.943   4.355 -0.3226 -0.7956 -0.3192
 8997SOL     OW38623   2.128   0.076   2.921 -0.1359 -0.3989 -0.6169
 8997SOL    HW138624   2.201   0.026   2.885 -0.1199 -2.0762  1.7168
 8997SOL    HW238625   2.095   0.125   2.845 -1.4062 -0.0698  0.1435
 8998SOL     OW38626   3.169   1.163   5.011  0.5188  0.4421  0.2822
 8998SOL    HW138627   3.099   1.164   4.946  0.7507 -1.2401  0.0140
 8998SOL    HW238628   3.163   1.251   5.049 -2.0691 -0.7132  2.6225
 8999SOL     OW38629   3.016   4.478  12.056  0.3238  0.0479  0.7315
 8999SOL    HW138630   3.074   4.532  12.110 -0.9922  1.5014  0.6888
 8999SOL    HW238631   2.976   4.440  12.134 -1.6677  0.5258 -0.0731
 9000SOL     OW38632   3.230   0.052   3.501 -0.2641 -0.1275 -0.0573
 9000SOL    HW138633   3.156   0.072   3.443 -1.2919 -1.5262  0.7651
 9000SOL    HW238634   3.219   4.689   3.498  0.9969 -0.2432 -1.1294
 9001SOL     OW38635   2.191   4.026   2.048 -0.5220 -0.2227  0.0384
 9001SOL    HW138636   2.108   4.063   2.078 -0.1452  0.3746  0.3528
 9001SOL    HW238637   2.158   3.989   1.966 -1.3835 -0.8537  0.6830
 9002SOL     OW38638   3.479   0.546   4.043  0.3810 -0.0824 -0.2686
 9002SOL    HW138639   3.474   0.641   4.054 -0.9977 -0.3684  1.5669
 9002SOL    HW238640   3.553   0.538   3.983 -2.1723  1.4711 -3.6763
 9003SOL     OW38641   2.901   3.302   0.503 -0.1917  0.2611  1.0964
 9003SOL    HW138642   2.936   3.215   0.522 -0.1167 -0.1162 -0.7263
 9003SOL    HW238643   2.845   3.280   0.429 -1.1636  2.8659  1.0884
 9004SOL     OW38644   0.185   1.063   2.568  0.6636 -0.7111  0.2109
 9004SOL    HW138645   0.172   1.115   2.489  2.1447 -1.6632 -0.6740
 9004SOL    HW238646   0.249   1.006   2.525  2.8896  0.8824  1.4610
 9005SOL     OW38647   1.610   4.662   4.433  0.1488  0.1214  0.3147
 9005SOL    HW138648   1.579   4.655   4.523  2.1550  0.1207  1.0111
 9005SOL    HW238649   1.702   4.653   4.457  0.0542  2.3363  1.4893
 9006SOL     OW38650   4.441   3.012   6.360  0.3523  0.6637  0.7553
 9006SOL    HW138651   4.403   2.940   6.310  0.9094 -1.0766  2.7961
 9006SOL    HW238652   4.531   2.992   6.332 -0.2828  1.5538 -1.8820
 9007SOL     OW38653   2.348   1.635  13.655  0.2319 -0.0339  0.0576
 9007SOL    HW138654   2.410   1.649  13.584 -0.4906  1.4977 -0.2674
 9007SOL    HW238655   2.264   1.637  13.610 -0.1753  4.3131  1.0033
 9008SOL     OW38656   0.529   3.627   6.730  0.3640  0.3020 -0.2347
 9008SOL    HW138657   0.552   3.606   6.820 -1.0041 -0.1710  0.0024
 9008SOL    HW238658   0.479   3.709   6.724  0.8641  0.6372  0.1635
 9009SOL     OW38659   4.639   0.159   8.856 -1.1780  0.0763 -1.0297
 9009SOL    HW138660   4.730   0.144   8.831 -1.2704 -0.7026 -0.8976
 9009SOL    HW238661   4.632   0.255   8.860 -0.2684  0.0556  1.0886
 9010SOL     OW38662   0.283   0.954  15.024 -0.0537  0.0095 -0.4573
 9010SOL    HW138663   0.360   0.933  15.076  0.1274 -1.3434 -1.2809
 9010SOL    HW238664   0.213   0.933  15.087  1.0680 -3.4497 -0.3622
 9011SOL     OW38665   3.864   1.846  15.431 -0.0256  0.2385 -0.4291
 9011SOL    HW138666   3.802   1.784  15.471 -1.1878  1.3005 -0.5762
 9011SOL    HW238667   3.945   1.803  15.456 -1.1155 -0.2390  2.3032
 9012SOL     OW38668   3.225   3.161   5.715  0.0587 -0.1171  0.6979
 9012SOL    HW138669   3.288   3.232   5.707 -0.3462  0.1246 -0.3033
 9012SOL    HW238670   3.245   3.115   5.634 -1.1733  0.7350 -0.0914
 9013SOL     OW38671   1.462   4.006   4.380 -0.2882  0.2549  0.3388
 9013SOL    HW138672   1.404   3.946   4.427  0.1747 -0.0864  0.4769
 9013SOL    HW238673   1.535   3.954   4.346  0.9444  1.8641  0.5326
 9014SOL     OW38674   0.811   2.931  17.223 -0.4724 -0.1889  0.4691
 9014SOL    HW138675   0.848   2.921  17.135 -1.2297  0.3552  0.0938
 9014SOL    HW238676   0.762   2.852  17.242 -0.5165 -0.6990 -1.7939
 9015SOL     OW38677   0.565   1.293   9.058 -0.1038  0.0448 -0.3960
 9015SOL    HW138678   0.656   1.324   9.051 -0.5022  1.6372  1.4137
 9015SOL    HW238679   0.588   1.204   9.083  0.7780  0.4055  0.1127
 9016SOL     OW38680   3.571   4.416   8.707 -0.4262  0.3135 -0.0743
 9016SOL    HW138681   3.604   4.501   8.680 -1.3377  1.5016  2.5560
 9016SOL    HW238682   3.505   4.457   8.762 -1.5291 -1.0378 -0.3915
 9017SOL     OW38683   0.713   1.102  16.827  0.1431 -0.4802 -0.1206
 9017SOL    HW138684   0.668   1.060  16.900  0.7439 -1.4114 -0.2857
 9017SOL    HW238685   0.799   1.060  16.840  1.0270  0.8800 -1.5560
 9018SOL     OW38686   2.190   0.142   8.135 -0.9705 -0.2020  0.1654
 9018SOL    HW138687   2.126   0.202   8.175  1.7381  2.0360  1.1561
 9018SOL    HW238688   2.136   0.105   8.065 -1.7666 -0.2621  0.8101
 9019SOL     OW38689   0.323   4.455   7.436  0.0264  0.4882 -0.0440
 9019SOL    HW138690   0.326   4.528   7.373  0.7899  0.6607  0.1978
 9019SOL    HW238691   0.304   4.398   7.361 -2.9055  2.3030 -0.6935
 9020SOL     OW38692   3.823   3.717  16.840 -0.3208  0.3337 -0.4137
 9020SOL    HW138693   3.827   3.750  16.930  0.8256  0.5267 -0.5389
 9020SOL    HW238694   3.875   3.783  16.795  0.1141 -0.8432 -1.6382
 9021SOL     OW38695   3.041   4.483  10.702  0.1410  0.1734 -0.6961
 9021SOL    HW138696   3.031   4.575  10.725 -0.6523 -0.4618  1.5385
 9021SOL    HW238697   2.998   4.493  10.617 -0.2055 -0.8801 -0.6521
 9022SOL     OW38698   1.425   0.016   5.992 -0.0055 -0.0964 -0.3306
 9022SOL    HW138699   1.465   4.681   5.937  0.4346 -1.2509  1.4176
 9022SOL    HW238700   1.427   4.714   6.081 -0.9814 -2.0895 -1.0923
 9023SOL     OW38701   1.017   1.253   2.929 -0.1952 -0.7028  0.3122
 9023SOL    HW138702   1.102   1.230   2.892 -0.1532  1.4987 -0.9597
 9023SOL    HW238703   0.999   1.321   2.864  1.3528 -1.4844 -0.9171
 9024SOL     OW38704   4.298   2.693  10.930 -0.1041  0.7989 -0.2876
 9024SOL    HW138705   4.341   2.765  10.884 -1.1601  0.8084 -1.2702
 9024SOL    HW238706   4.278   2.739  11.012 -0.1131  0.5546 -0.1505
 9025SOL     OW38707   1.310   3.994   8.536  0.0278 -0.6091 -0.5868
 9025SOL    HW138708   1.393   3.962   8.503 -0.7942 -1.9497 -1.3361
 9025SOL    HW238709   1.307   3.961   8.626 -0.5189  2.7048  0.6240
 9026SOL     OW38710   1.080   1.503   7.755  0.4203  0.9553 -0.4883
 9026SOL    HW138711   1.164   1.505   7.709  1.1956 -0.5882  0.8199
 9026SOL    HW238712   1.110   1.434   7.815 -2.3197 -1.6249 -2.1165
 9027SOL     OW38713   4.098   1.420   5.111  0.1187  0.2549 -0.7079
 9027SOL    HW138714   4.160   1.464   5.053 -0.0322 -0.8258 -1.6707
 9027SOL    HW238715   4.021   1.475   5.097 -0.3393 -0.1366  0.2288
 9028SOL     OW38716   3.419   1.318   0.768  0.1291  0.0197  0.4026
 9028SOL    HW138717   3.448   1.409   0.766  1.6055 -0.4138  2.1067
 9028SOL    HW238718   3.324   1.326   0.775  0.0965  0.1392 -0.1895
 9029SOL     OW38719   2.150   1.108   7.964  0.3975  0.2405 -0.4857
 9029SOL    HW138720   2.091   1.119   8.038  0.7110  0.4626 -0.2666
 9029SOL    HW238721   2.174   1.015   7.969  0.7267  0.3455 -0.0894
 9030SOL     OW38722   3.766   2.625   4.550 -0.0147 -0.2154  0.0164
 9030SOL    HW138723   3.698   2.593   4.490  0.4355  0.4641 -0.8578
 9030SOL    HW238724   3.847   2.636   4.501 -0.1756 -1.1734 -0.4709
 9031SOL     OW38725   1.991   4.559   4.374  0.0401 -0.1320 -0.3336
 9031SOL    HW138726   1.929   4.527   4.440 -1.3586  0.4978 -1.3538
 9031SOL    HW238727   1.941   4.602   4.306  0.4357 -0.6292 -0.9399
 9032SOL     OW38728   3.974   0.150  13.540  0.7083  0.0476  0.4943
 9032SOL    HW138729   4.002   0.173  13.629 -0.2176  1.8595  0.3257
 9032SOL    HW238730   3.881   0.142  13.561  0.3136 -1.8140 -2.0508
 9033SOL     OW38731   2.138   0.708   5.735  0.0071  0.0381  0.5754
 9033SOL    HW138732   2.104   0.798   5.732 -1.1703 -0.4149  0.2940
 9033SOL    HW238733   2.230   0.713   5.759  0.3787 -1.1214 -0.6141
 9034SOL     OW38734   2.943   0.329   4.086 -0.1469 -0.3030 -0.3852
 9034SOL    HW138735   2.954   0.306   3.994 -0.8462 -0.4616 -0.4309
 9034SOL    HW238736   3.006   0.398   4.106  0.9757 -1.1602 -1.0187
 9035SOL     OW38737   4.065   3.589   4.735 -0.0662  0.0860 -0.0852
 9035SOL    HW138738   4.132   3.651   4.706 -0.5313  1.0683  0.9413
 9035SOL    HW238739   4.106   3.503   4.723  1.2924  0.8184 -0.7890
 9036SOL     OW38740   0.539   3.862  17.540 -0.3801 -0.4090 -0.2115
 9036SOL    HW138741   0.529   3.783  17.487  0.2969 -3.1937  3.7198
 9036SOL    HW238742   0.508   3.833  17.626  1.5266 -0.3590  0.4971
 9037SOL     OW38743   2.621   4.452   3.968 -0.6145  0.3174  0.4922
 9037SOL    HW138744   2.599   4.403   3.889 -0.0952 -0.7654  1.0188
 9037SOL    HW238745   2.564   4.529   3.962 -0.6084 -0.0785 -4.6953
 9038SOL     OW38746   0.844   0.891   5.407  0.2991 -0.0283  0.1887
 9038SOL    HW138747   0.852   0.864   5.316  2.4711 -1.3080  0.7638
 9038SOL    HW238748   0.926   0.940   5.414  0.1090  0.3896 -0.6086
 9039SOL     OW38749   0.992   4.051   4.837 -0.2288  0.3227 -0.3900
 9039SOL    HW138750   0.925   4.118   4.829  1.2601  1.7315 -1.2904
 9039SOL    HW238751   1.067   4.098   4.874 -0.9675  2.5658 -1.7220
 9040SOL     OW38752   4.404   0.494  15.960 -0.0413  0.1895  0.1690
 9040SOL    HW138753   4.383   0.574  16.009  0.7359 -1.1859  2.7427
 9040SOL    HW238754   4.331   0.497  15.898  0.4112 -2.2843 -0.4652
 9041SOL     OW38755   3.299   0.727  12.880 -0.0140 -0.6483 -0.5297
 9041SOL    HW138756   3.236   0.739  12.809 -0.9495 -1.1388  0.2181
 9041SOL    HW238757   3.366   0.669  12.844 -0.6063 -0.8997 -1.2456
 9042SOL     OW38758   2.139   4.165  11.287  0.0661 -0.4853 -0.1632
 9042SOL    HW138759   2.108   4.118  11.364  1.1538 -1.7657 -0.5067
 9042SOL    HW238760   2.089   4.245  11.304 -2.5248 -1.6539 -2.3583
 9043SOL     OW38761   4.531   2.491   8.143  0.3970  0.0660 -0.3041
 9043SOL    HW138762   4.623   2.505   8.121  0.7532  0.2836  1.3256
 9043SOL    HW238763   4.537   2.444   8.226  0.3612  3.5026  1.6377
 9044SOL     OW38764   4.527   1.987  15.702 -0.2376 -0.5770  0.0430
 9044SOL    HW138765   4.554   2.005  15.612  1.0108 -1.4282  0.2381
 9044SOL    HW238766   4.504   1.894  15.699  1.1124 -0.8768 -0.9008
 9045SOL     OW38767   3.137   0.358  12.785 -0.7692  0.3625 -0.5886
 9045SOL    HW138768   3.201   0.429  12.784 -1.1740  0.7300 -0.5771
 9045SOL    HW238769   3.123   0.324  12.697  0.2940 -0.0066 -0.6123
 9046SOL     OW38770   0.733   1.151   7.693 -0.6010 -0.2264 -0.0678
 9046SOL    HW138771   0.770   1.147   7.782 -0.3921 -1.6120 -0.2105
 9046SOL    HW238772   0.761   1.235   7.658  0.5861 -0.6833 -0.2290
 9047SOL     OW38773   4.524   4.118   9.502 -0.1081 -0.2962 -0.0053
 9047SOL    HW138774   4.573   4.122   9.420 -1.1138  0.8321 -0.5591
 9047SOL    HW238775   4.437   4.092   9.472 -0.1307  1.3520 -1.3806
 9048SOL     OW38776   4.359   2.610  13.421 -0.1574 -0.5575 -0.3033
 9048SOL    HW138777   4.305   2.532  13.420  0.6247 -1.0995 -0.6639
 9048SOL    HW238778   4.291   2.677  13.432  0.5351  0.5623 -2.6846
 9049SOL     OW38779   3.374   0.164   2.909  0.1574  0.5335  0.3586
 9049SOL    HW138780   3.323   0.204   2.979 -0.0494  0.5700  0.1874
 9049SOL    HW238781   3.412   0.243   2.871  1.1517 -0.5506 -0.9078
 9050SOL     OW38782   2.950   0.238   1.147  0.0505 -0.0866  0.8064
 9050SOL    HW138783   2.932   0.165   1.088  0.4812 -1.5837  2.5433
 9050SOL    HW238784   2.946   0.184   1.226  1.1465 -0.1232  0.8309
 9051SOL     OW38785   4.474   3.529   6.906  0.5160  0.1938 -0.1696
 9051SOL    HW138786   4.429   3.452   6.939  1.6520 -0.0638  0.7407
 9051SOL    HW238787   4.471   3.585   6.983  1.9067 -1.8959  1.3874
 9052SOL     OW38788   2.760   1.684   3.267  0.7455  0.0400  0.2812
 9052SOL    HW138789   2.719   1.660   3.350  1.3743  1.2236  0.9417
 9052SOL    HW238790   2.809   1.761   3.297 -2.2287  1.6827  0.9884
 9053SOL     OW38791   1.982   3.166   4.663  0.2158 -0.3333  0.3984
 9053SOL    HW138792   2.010   3.094   4.720 -1.7491 -0.8876  0.6749
 9053SOL    HW238793   2.001   3.243   4.717 -0.8905  0.0481  0.2357
 9054SOL     OW38794   2.537   1.774   7.566  0.0594  0.7824  0.1067
 9054SOL    HW138795   2.523   1.682   7.543  0.8408  0.6853  0.0252
 9054SOL    HW238796   2.591   1.753   7.642 -1.4206  1.7074  1.4224
 9055SOL     OW38797   2.178   1.867   3.280 -0.1818  0.1242 -0.6071
 9055SOL    HW138798   2.228   1.947   3.294  0.0949 -0.2318  0.4162
 9055SOL    HW238799   2.141   1.878   3.192 -2.8537 -1.7202  0.2794
 9056SOL     OW38800   2.195   1.369   6.960  0.0104 -0.2450 -0.0077
 9056SOL    HW138801   2.196   1.274   6.949  0.2600 -0.2410 -0.0070
 9056SOL    HW238802   2.287   1.385   6.942 -0.7070  3.8413 -0.0002
 9057SOL     OW38803   1.792   3.483   5.000  0.4730  0.0223 -0.0303
 9057SOL    HW138804   1.813   3.473   5.093  2.2322  1.2856 -0.2952
 9057SOL    HW238805   1.843   3.562   4.980  2.0270 -1.0865 -0.4279
 9058SOL     OW38806   0.852   2.110   3.285  0.2017  0.0269  0.1171
 9058SOL    HW138807   0.788   2.181   3.296  1.4467  0.9802  1.1804
 9058SOL    HW238808   0.906   2.156   3.220  0.6004  0.0900  0.4912
 9059SOL     OW38809   2.040   1.305   1.738  0.3924  0.7962 -0.0840
 9059SOL    HW138810   2.091   1.386   1.734  0.4685  0.6785 -1.5725
 9059SOL    HW238811   1.991   1.305   1.656  1.2302  1.5084 -0.5897
 9060SOL     OW38812   1.736   3.092   5.113  0.4643 -0.4782 -0.0824
 9060SOL    HW138813   1.705   3.052   5.033 -2.5087  0.5280  0.5633
 9060SOL    HW238814   1.684   3.036   5.170  0.9549  0.0243  0.8726
 9061SOL     OW38815   0.080   1.855   8.559 -0.2249 -0.3135 -0.3770
 9061SOL    HW138816   0.027   1.779   8.581  0.6845 -1.3964 -1.9546
 9061SOL    HW238817   0.153   1.853   8.620 -1.5768  1.2795  1.3162
 9062SOL     OW38818   4.292   1.991   9.886  1.1792 -0.1964 -0.2798
 9062SOL    HW138819   4.371   1.975   9.834  1.3472 -1.8146  0.4801
 9062SOL    HW238820   4.236   1.923   9.847  0.0013  1.5247 -1.5936
 9063SOL     OW38821   0.605   2.660   1.805  0.2718 -0.1146 -0.0464
 9063SOL    HW138822   0.603   2.727   1.874 -0.8962  1.0905 -1.2493
 9063SOL    HW238823   0.550   2.711   1.746  1.2866 -0.3822 -1.2367
 9064SOL     OW38824   0.670   3.664   1.640 -1.1365 -0.7468 -0.1306
 9064SOL    HW138825   0.739   3.726   1.618  0.8037 -1.8444  2.7795
 9064SOL    HW238826   0.620   3.719   1.700  2.3436 -0.1552  2.2304
 9065SOL     OW38827   0.563   0.808  14.884  0.5386 -0.3806 -0.2357
 9065SOL    HW138828   0.544   0.901  14.879  0.2695 -0.2274  3.3173
 9065SOL    HW238829   0.546   0.795  14.791 -2.1162 -0.8574  0.3030
 9066SOL     OW38830   1.787   2.855  11.825  0.3229 -0.4232 -0.6323
 9066SOL    HW138831   1.749   2.872  11.739 -0.1102 -0.5012 -0.4577
 9066SOL    HW238832   1.835   2.774  11.810  2.0660  0.4371  0.2821
 9067SOL     OW38833   2.883   3.111   2.076 -0.0074  0.4510  0.2046
 9067SOL    HW138834   2.893   3.143   2.166 -2.2367 -0.3505  0.7330
 9067SOL    HW238835   2.967   3.139   2.039  0.9589 -0.3877  1.7735
 9068SOL     OW38836   2.396   4.588  10.335 -0.1402  0.3229 -0.2301
 9068SOL    HW138837   2.351   4.658  10.381  0.0306  0.1031  0.2735
 9068SOL    HW238838   2.433   4.536  10.406  1.0041 -1.2612 -1.9667
 9069SOL     OW38839   1.959   4.660  13.158 -0.2591 -0.2440 -0.4951
 9069SOL    HW138840   1.926   4.576  13.125  0.2649 -0.4807 -0.4140
 9069SOL    HW238841   1.977   4.710  13.078  1.2036 -0.3597 -0.2362
 9070SOL     OW38842   0.372   0.950   6.676  0.1546  0.2206 -0.6293
 9070SOL    HW138843   0.467   0.959   6.667  0.1414 -0.3814 -1.3673
 9070SOL    HW238844   0.351   0.896   6.600 -0.5791 -0.0866 -0.2067
 9071SOL     OW38845   0.479   3.244   2.630  0.8352 -0.7815 -0.6114
 9071SOL    HW138846   0.557   3.210   2.674  0.7861  0.0714  0.1277
 9071SOL    HW238847   0.416   3.224   2.698  0.2476 -0.4447 -1.0618
 9072SOL     OW38848   3.725   3.521   6.238 -0.1834  0.0459 -0.0895
 9072SOL    HW138849   3.636   3.509   6.272  0.2347  1.3522  1.4188
 9072SOL    HW238850   3.772   3.477   6.309  0.1432  2.7721  1.3790
 9073SOL     OW38851   3.454   0.557   4.431 -0.2486  0.4436 -0.4570
 9073SOL    HW138852   3.418   0.552   4.520 -1.9376 -0.6534 -1.2029
 9073SOL    HW238853   3.546   0.578   4.445 -0.2140 -0.0966  0.1513
 9074SOL     OW38854   2.626   4.652   3.709  0.9141 -0.7469 -0.4974
 9074SOL    HW138855   2.541   4.647   3.752  0.9378  0.3388 -0.3201
 9074SOL    HW238856   2.674   4.602   3.775  0.6412  0.7191  0.8055
 9075SOL     OW38857   1.054   1.803   2.587 -0.0699  0.2137  0.2731
 9075SOL    HW138858   1.132   1.766   2.546 -0.2949  0.9682 -0.8340
 9075SOL    HW238859   0.997   1.747   2.534 -0.6535 -1.6753  2.8727
 9076SOL     OW38860   2.862   4.183  11.470 -0.4079  0.8293 -0.3985
 9076SOL    HW138861   2.769   4.193  11.448 -0.2828 -0.1825 -1.3396
 9076SOL    HW238862   2.893   4.128  11.398 -1.2816  1.1788 -1.0427
 9077SOL     OW38863   0.163   3.473  14.781 -0.7214 -0.4213 -0.4662
 9077SOL    HW138864   0.148   3.391  14.827 -1.6449 -0.7585 -1.3722
 9077SOL    HW238865   0.258   3.485  14.773 -0.8566  0.5147 -0.6210
 9078SOL     OW38866   3.883   3.049   6.763 -0.0454 -0.7824 -0.1409
 9078SOL    HW138867   3.907   3.047   6.856  1.6877 -0.1546 -0.5695
 9078SOL    HW238868   3.969   3.070   6.727 -0.0777  0.0308  0.2571
 9079SOL     OW38869   3.619   3.793  11.202  0.3023  0.3236 -0.3521
 9079SOL    HW138870   3.545   3.852  11.194 -1.7114 -2.0765  0.7198
 9079SOL    HW238871   3.612   3.756  11.290  3.8379  0.3335 -0.0652
 9080SOL     OW38872   1.782   1.568   1.913 -0.2945  0.3216  0.2098
 9080SOL    HW138873   1.793   1.475   1.931  1.4519  0.5240  0.1791
 9080SOL    HW238874   1.870   1.602   1.926  0.0393 -0.9741  1.2702
 9081SOL     OW38875   2.206   3.252  16.336 -0.2615 -0.4049 -0.4989
 9081SOL    HW138876   2.128   3.218  16.291 -1.4432 -0.0307  1.2857
 9081SOL    HW238877   2.279   3.201  16.300 -0.8484 -1.1651 -0.6244
 9082SOL     OW38878   2.183   4.113   9.034 -0.0311  0.0743  0.0360
 9082SOL    HW138879   2.251   4.080   8.974 -0.1219  0.5262 -0.3133
 9082SOL    HW238880   2.111   4.059   9.002 -0.7802 -1.1893  3.8809
 9083SOL     OW38881   1.570   3.993   3.277  0.1509 -0.3201  0.2296
 9083SOL    HW138882   1.621   4.030   3.348  1.1612  0.1241 -0.7333
 9083SOL    HW238883   1.553   4.069   3.221  0.9511  0.1614  0.6465
 9084SOL     OW38884   3.434   0.882   5.728 -0.2790  0.2926 -0.1571
 9084SOL    HW138885   3.390   0.809   5.772  1.6948 -1.2225 -0.6981
 9084SOL    HW238886   3.402   0.862   5.640  0.7686 -0.2934 -0.4017
 9085SOL     OW38887   4.253   2.469   4.239  0.1139 -0.3499 -0.1962
 9085SOL    HW138888   4.331   2.519   4.215 -0.2904 -0.0820 -0.9562
 9085SOL    HW238889   4.190   2.511   4.181 -1.2527 -0.6859  1.0416
 9086SOL     OW38890   2.549   1.626  13.447  0.3440 -0.9433  0.8697
 9086SOL    HW138891   2.593   1.695  13.397 -1.6458 -0.6400 -0.4851
 9086SOL    HW238892   2.612   1.557  13.427  1.6933  0.5899 -0.1317
 9087SOL     OW38893   3.078   4.186  15.729 -0.7872 -0.1961  0.9355
 9087SOL    HW138894   3.092   4.092  15.716 -0.9656 -0.2144  0.8743
 9087SOL    HW238895   3.002   4.209  15.676  0.5131 -1.9980 -1.6957
 9088SOL     OW38896   3.588   1.271   8.899 -0.1632 -0.0498  0.1923
 9088SOL    HW138897   3.558   1.270   8.989  0.2445 -1.1624  0.3183
 9088SOL    HW238898   3.622   1.181   8.895  0.5888  0.2022  1.1555
 9089SOL     OW38899   4.595   2.733   3.669  0.1715  0.2828 -0.6445
 9089SOL    HW138900   4.561   2.797   3.607  0.5580  0.7261 -0.3967
 9089SOL    HW238901   4.572   2.777   3.751 -0.9876 -0.2547 -0.6763
 9090SOL     OW38902   1.972   2.828   3.215 -0.4864 -0.6198  0.2868
 9090SOL    HW138903   1.923   2.858   3.139  2.1962 -1.8791 -1.9318
 9090SOL    HW238904   1.923   2.869   3.286 -0.9834  0.8752 -0.9156
 9091SOL     OW38905   0.307   1.033   8.837 -0.7601  0.2413 -0.1166
 9091SOL    HW138906   0.312   1.129   8.833 -0.4433  0.2526  0.4300
 9091SOL    HW238907   0.360   1.004   8.763 -2.8133  0.8852 -1.8269
 9092SOL     OW38908   2.159   2.786   5.785  0.3993 -0.2501  0.0209
 9092SOL    HW138909   2.114   2.864   5.753  1.2129  0.2165  0.0284
 9092SOL    HW238910   2.103   2.724   5.738  0.3762 -0.3879  0.2277
 9093SOL     OW38911   0.927   1.385  14.215 -0.4805 -0.3481 -0.0322
 9093SOL    HW138912   0.885   1.404  14.132  1.0247 -0.3965 -0.8011
 9093SOL    HW238913   0.869   1.442  14.266 -0.7416 -0.4730 -0.1900
 9094SOL     OW38914   3.797   1.816   7.060  0.3240  0.3414 -0.5753
 9094SOL    HW138915   3.853   1.771   6.997  1.7621  1.1744  0.1274
 9094SOL    HW238916   3.798   1.776   7.147  0.8884 -3.0870 -2.1652
 9095SOL     OW38917   1.002   0.867   2.452 -0.1790  0.0684 -0.0799
 9095SOL    HW138918   1.088   0.877   2.412  0.2093 -0.1606  0.6933
 9095SOL    HW238919   1.030   0.811   2.525  2.2916  0.7656 -0.5055
 9096SOL     OW38920   0.921   0.324   5.394 -0.5241 -0.1445 -0.6165
 9096SOL    HW138921   1.003   0.301   5.438 -0.4941 -0.1607 -0.6795
 9096SOL    HW238922   0.917   0.251   5.332  0.0720 -2.3510  1.9300
 9097SOL     OW38923   2.017   0.199   8.899  0.4623 -0.5810  0.1413
 9097SOL    HW138924   2.036   0.180   8.990  1.7642 -2.7969 -0.5948
 9097SOL    HW238925   1.998   0.293   8.899 -0.3818 -0.7626  2.0514
 9098SOL     OW38926   0.533   3.431   6.544 -0.1833 -0.8391  0.2049
 9098SOL    HW138927   0.526   3.496   6.613 -1.6109 -1.9246  1.0863
 9098SOL    HW238928   0.545   3.495   6.473  0.2836 -0.5460  0.5484
 9099SOL     OW38929   3.639   1.011   8.093  0.2063  0.3046 -0.3709
 9099SOL    HW138930   3.719   1.055   8.123 -1.2927  1.1957  2.2847
 9099SOL    HW238931   3.672   0.979   8.010 -1.0648 -1.7209 -0.0765
 9100SOL     OW38932   0.297   0.582   5.452  0.2543 -0.2250 -0.1939
 9100SOL    HW138933   0.364   0.649   5.436  0.6626 -0.8120 -0.9302
 9100SOL    HW238934   0.221   0.628   5.416 -1.9325 -2.2700  1.7937
 9101SOL     OW38935   2.992   0.054   9.195 -0.2865 -0.2747  0.2298
 9101SOL    HW138936   3.044   4.707   9.189  2.4716  1.5740 -0.3155
 9101SOL    HW238937   3.059   0.123   9.202  0.6100 -1.0531 -0.7983
 9102SOL     OW38938   4.419   4.450   3.244  0.1845  0.6371 -0.4639
 9102SOL    HW138939   4.327   4.442   3.269  0.3766  2.4679  0.8217
 9102SOL    HW238940   4.419   4.377   3.182  1.1088  0.6051 -0.4239
 9103SOL     OW38941   2.348   1.893  11.110  0.0932  0.1472 -0.1537
 9103SOL    HW138942   2.344   1.829  11.038  0.2626  0.2026 -0.2115
 9103SOL    HW238943   2.255   1.898  11.131  0.1203  0.3663 -0.0835
 9104SOL     OW38944   4.295   3.791   5.887 -0.2243 -0.0909 -0.2935
 9104SOL    HW138945   4.270   3.707   5.926  1.5671 -0.3706  0.2511
 9104SOL    HW238946   4.367   3.827   5.938 -0.7704 -0.0179  0.4337
 9105SOL     OW38947   3.965   3.810  12.363 -0.2002 -0.0063  0.1920
 9105SOL    HW138948   4.041   3.767  12.404 -0.1114 -0.2633 -0.2471
 9105SOL    HW238949   3.960   3.899  12.398  0.9910  0.5512 -1.0484
 9106SOL     OW38950   2.261   0.019  13.412  0.1260 -0.2210  0.3711
 9106SOL    HW138951   2.195   0.079  13.377  0.3120  0.8982  1.9454
 9106SOL    HW238952   2.324   0.077  13.455 -1.0399 -0.5778  2.5226
 9107SOL     OW38953   2.081   0.274   5.104  0.0802 -0.1131  0.0769
 9107SOL    HW138954   1.991   0.302   5.094 -0.0440 -1.2931 -2.0220
 9107SOL    HW238955   2.114   0.237   5.022 -2.2734  0.0435 -0.9361
 9108SOL     OW38956   0.946   2.348  10.105 -0.4857 -0.1036 -0.6376
 9108SOL    HW138957   0.961   2.260  10.139 -1.0461  0.2273  0.4467
 9108SOL    HW238958   0.913   2.332  10.016 -0.9007  0.1957 -0.5364
 9109SOL     OW38959   0.042   3.132   5.506 -0.1716 -0.4894 -0.0495
 9109SOL    HW138960   4.688   3.097   5.483 -0.1431 -1.6933  1.6384
 9109SOL    HW238961   0.103   3.065   5.473  0.2317 -0.9872  1.7305
 9110SOL     OW38962   0.421   1.024   5.133  0.1941 -0.2887  0.7606
 9110SOL    HW138963   0.398   1.117   5.142  0.2428 -0.3778  1.7639
 9110SOL    HW238964   0.461   1.021   5.220 -1.0299  1.1562  1.3862
 9111SOL     OW38965   2.799   4.411   8.858  0.4111  0.1236 -0.4825
 9111SOL    HW138966   2.754   4.483   8.902  2.8395  0.0689  2.0947
 9111SOL    HW238967   2.776   4.345   8.925 -1.5324 -1.8529 -3.0752
 9112SOL     OW38968   3.062   2.589   1.495 -0.5973  0.6928  0.3058
 9112SOL    HW138969   2.990   2.535   1.461 -0.5045  0.6975  0.0997
 9112SOL    HW238970   3.117   2.591   1.417 -1.8200  1.3492 -0.5403
 9113SOL     OW38971   0.206   3.308   4.489  0.1450  0.4654  0.5682
 9113SOL    HW138972   0.213   3.327   4.583  2.2008  0.6573  0.3693
 9113SOL    HW238973   0.152   3.230   4.496 -0.1227  0.5274 -0.9072
 9114SOL     OW38974   1.274   0.953   9.919 -0.3047 -0.0575 -0.0081
 9114SOL    HW138975   1.345   0.923   9.863 -1.2113 -1.9489 -0.1187
 9114SOL    HW238976   1.208   0.886   9.905 -0.8396  0.0006  2.1570
 9115SOL     OW38977   1.807   2.156   4.313 -0.2851 -0.1339  0.8144
 9115SOL    HW138978   1.860   2.132   4.389  0.5555  2.0064  0.8861
 9115SOL    HW238979   1.725   2.106   4.322 -1.6895  2.4988  2.5241
 9116SOL     OW38980   1.776   1.774   2.329  0.3671 -0.7652 -0.0417
 9116SOL    HW138981   1.715   1.819   2.388  0.8318 -1.7452  1.1853
 9116SOL    HW238982   1.717   1.731   2.268  1.2802 -0.2646 -1.2869
 9117SOL     OW38983   0.761   2.243   1.853  0.2958 -0.5331  0.3650
 9117SOL    HW138984   0.722   2.305   1.792 -1.8974  1.1205  3.4810
 9117SOL    HW238985   0.814   2.191   1.792  0.0825 -0.1070 -0.1858
 9118SOL     OW38986   4.097   2.325   1.982  0.2616 -0.1130 -0.4383
 9118SOL    HW138987   4.085   2.383   1.907  0.1541 -0.2943 -0.5605
 9118SOL    HW238988   4.186   2.353   2.007  0.5000 -0.5159 -0.8456
 9119SOL     OW38989   0.645   0.113   6.276 -0.2828 -0.9549  0.0393
 9119SOL    HW138990   0.706   0.168   6.325 -0.9569 -0.1094 -0.0764
 9119SOL    HW238991   0.672   0.130   6.186 -1.1539  0.2685  0.0165
 9120SOL     OW38992   0.886   2.005   5.716 -0.6831  0.1813 -0.0576
 9120SOL    HW138993   0.978   1.984   5.703 -0.3262  1.5609  0.1836
 9120SOL    HW238994   0.842   1.924   5.691  0.5208 -0.0698 -1.3180
 9121SOL     OW38995   4.236   3.635   1.286 -0.0286  0.0327 -0.2651
 9121SOL    HW138996   4.326   3.662   1.267 -0.2780  0.6346 -0.5803
 9121SOL    HW238997   4.176   3.693   1.239 -1.7524 -1.5489 -0.0182
 9122SOL     OW38998   1.126   4.715  16.549 -0.0875 -0.3831 -0.1990
 9122SOL    HW138999   1.148   0.071  16.519 -1.1691  0.0661  0.3433
 9122SOL    HW239000   1.174   4.662  16.486  0.5911 -3.0031  2.5153
 9123SOL     OW39001   0.469   3.665  17.355  0.1819 -0.1239 -0.0747
 9123SOL    HW139002   0.448   3.578  17.388 -1.0403  0.8787  1.8085
 9123SOL    HW239003   0.387   3.694  17.315 -0.0920  0.1239  0.6545
 9124SOL     OW39004   2.232   4.206   4.103 -0.0482  0.5283  0.3988
 9124SOL    HW139005   2.314   4.158   4.087 -0.2005  0.6489 -0.7530
 9124SOL    HW239006   2.207   4.157   4.181  1.3170 -0.5628  0.1564
 9125SOL     OW39007   2.767   3.448   4.324  0.1783 -0.0637  0.6400
 9125SOL    HW139008   2.717   3.527   4.346  0.4093  0.3922 -0.4313
 9125SOL    HW239009   2.788   3.411   4.409 -1.1849  0.7017  1.3110
 9126SOL     OW39010   0.022   2.878   4.615  0.4273  0.3296  0.4601
 9126SOL    HW139011   0.022   2.935   4.692 -0.6461  2.2052 -0.9054
 9126SOL    HW239012   0.082   2.810   4.645  0.3852 -0.4657 -1.2669
 9127SOL     OW39013   1.028   1.493   3.308  0.1710 -0.1316  0.0388
 9127SOL    HW139014   0.982   1.422   3.262 -0.3552  0.5181 -0.4296
 9127SOL    HW239015   0.982   1.570   3.275  0.6372  0.9045  1.8351
 9128SOL     OW39016   0.927   1.414   2.341 -0.1332 -0.4985  0.7170
 9128SOL    HW139017   0.985   1.466   2.284 -0.8406 -1.2034 -0.6516
 9128SOL    HW239018   0.936   1.326   2.304  0.3285 -0.1567 -0.0055
 9129SOL     OW39019   3.817   0.242  11.388  0.8263  0.1456 -0.6989
 9129SOL    HW139020   3.798   0.198  11.471 -0.9786  0.0593 -1.1579
 9129SOL    HW239021   3.872   0.319  11.403  0.9032  0.2330 -1.4506
 9130SOL     OW39022   2.334   4.244   3.644  0.2317 -0.2177  0.2541
 9130SOL    HW139023   2.341   4.149   3.638 -0.4432 -0.1783 -1.2254
 9130SOL    HW239024   2.255   4.250   3.589  0.0310  0.8833  0.6522
 9131SOL     OW39025   1.696   2.242   3.394  0.4916 -0.4318  0.1104
 9131SOL    HW139026   1.640   2.195   3.333 -0.2210  0.0732  0.3771
 9131SOL    HW239027   1.775   2.256   3.342 -0.6147  3.0392 -0.6740
 9132SOL     OW39028   0.842   4.152   7.897 -0.1465  0.3853  0.3649
 9132SOL    HW139029   0.793   4.170   7.977  0.5091 -0.8981  1.0576
 9132SOL    HW239030   0.771   4.135   7.834  0.0213  1.0600 -0.0114
 9133SOL     OW39031   1.971   3.269  16.620  0.2742  0.0566  0.4629
 9133SOL    HW139032   1.974   3.262  16.525 -1.4601 -1.0669  0.4878
 9133SOL    HW239033   2.059   3.307  16.624  0.7223 -0.7858 -1.2962
 9134SOL     OW39034   2.925   2.988  13.088  0.1985  0.5224 -0.1262
 9134SOL    HW139035   2.918   3.031  13.002 -0.1449  1.2123  0.2410
 9134SOL    HW239036   2.960   2.904  13.060 -0.5041  0.2458 -0.1878
 9135SOL     OW39037   2.187   2.131   3.187  0.4213 -0.4121  0.4128
 9135SOL    HW139038   2.268   2.126   3.238  1.2377 -0.7195 -0.9136
 9135SOL    HW239039   2.215   2.098   3.102  1.2161  0.5232  0.3134
 9136SOL     OW39040   3.526   4.424  15.480  0.1037  0.1852 -0.2759
 9136SOL    HW139041   3.494   4.508  15.446 -0.2587  0.1095 -0.1190
 9136SOL    HW239042   3.607   4.454  15.520 -0.4300 -0.1086  1.0350
 9137SOL     OW39043   4.436   1.377  12.205  0.4316 -0.0930 -0.2020
 9137SOL    HW139044   4.512   1.436  12.208 -0.6280  1.2504  0.0897
 9137SOL    HW239045   4.454   1.316  12.134 -1.8240 -1.6156  0.5477
 9138SOL     OW39046   3.381   0.454   5.687 -0.1659  0.3929  0.2044
 9138SOL    HW139047   3.458   0.400   5.702 -0.3195 -0.0264 -0.5084
 9138SOL    HW239048   3.332   0.422   5.763 -0.8287 -0.4000 -0.5498
 9139SOL     OW39049   3.352   3.960  13.529 -0.3963 -0.1063 -0.1401
 9139SOL    HW139050   3.397   3.875  13.533  2.1905  1.3337  1.1078
 9139SOL    HW239051   3.342   3.963  13.434 -0.6382  2.4182 -0.0133
 9140SOL     OW39052   2.427   1.324   1.933 -0.1503 -0.1501 -0.0424
 9140SOL    HW139053   2.480   1.369   1.867 -0.6679 -1.8346 -1.5901
 9140SOL    HW239054   2.368   1.283   1.870  0.5633  0.7954 -1.3395
 9141SOL     OW39055   2.974   3.080   5.810 -0.1141 -0.1375 -0.0389
 9141SOL    HW139056   2.940   3.045   5.728  0.4310  0.4874 -0.5274
 9141SOL    HW239057   3.047   3.133   5.779  0.6862  1.1105  3.9730
 9142SOL     OW39058   2.516   3.716  12.293 -0.2167 -0.0579 -0.2561
 9142SOL    HW139059   2.490   3.649  12.230  0.3607  1.2084 -1.8698
 9142SOL    HW239060   2.611   3.704  12.296 -0.1466  0.1396 -1.5616
 9143SOL     OW39061   1.764   0.792   8.725  0.1816  0.0440 -0.0739
 9143SOL    HW139062   1.764   0.804   8.630  0.3445  0.5974 -0.0034
 9143SOL    HW239063   1.844   0.843   8.742 -0.3156  0.7482  0.1574
 9144SOL     OW39064   1.852   3.063  14.492 -0.1277  0.2262  0.3405
 9144SOL    HW139065   1.871   3.046  14.585  1.0476  2.0917  0.4404
 9144SOL    HW239066   1.868   3.156  14.480 -2.8075  0.4502 -1.5591
 9145SOL     OW39067   1.702   2.800   1.554  0.5804  0.1440  0.1947
 9145SOL    HW139068   1.793   2.825   1.535  1.0314 -0.9219  0.9717
 9145SOL    HW239069   1.707   2.714   1.513  0.5142  0.7070 -1.0083
 9146SOL     OW39070   1.554   3.208   8.008 -0.3927  0.2374 -0.0436
 9146SOL    HW139071   1.559   3.145   7.936 -1.3667  0.9151 -0.7005
 9146SOL    HW239072   1.459   3.214   8.023 -0.1151  1.2963  1.3157
 9147SOL     OW39073   2.746   1.339   9.794 -0.3042  0.4367 -0.0545
 9147SOL    HW139074   2.836   1.329   9.763 -0.4272  0.8466 -0.5328
 9147SOL    HW239075   2.720   1.248   9.812  1.7656 -0.2139 -0.3631
 9148SOL     OW39076   2.636   3.398   2.131  0.3094 -0.2709  0.3227
 9148SOL    HW139077   2.552   3.430   2.164  0.2270 -0.8392  0.6759
 9148SOL    HW239078   2.657   3.463   2.064  3.5610 -0.6698  0.9444
 9149SOL     OW39079   3.376   1.405   5.342  0.3706 -0.9202 -0.0735
 9149SOL    HW139080   3.305   1.396   5.278  0.1814 -0.7681  0.1155
 9149SOL    HW239081   3.339   1.445   5.421 -1.2324 -1.2372 -0.6618
 9150SOL     OW39082   0.340   3.638   6.140 -0.3168 -0.0611 -0.4112
 9150SOL    HW139083   0.246   3.648   6.155 -0.7498 -1.5652 -2.1940
 9150SOL    HW239084   0.335   3.555   6.092 -2.5743  0.3483 -0.8599
 9151SOL     OW39085   3.545   4.648   5.473  0.4990 -1.0027  0.5534
 9151SOL    HW139086   3.475   4.709   5.447  3.5073  0.5112 -4.0012
 9151SOL    HW239087   3.522   4.629   5.564 -2.0070 -0.3036  0.0640
 9152SOL     OW39088   1.284   1.039   7.577  0.0951 -0.1064 -0.4111
 9152SOL    HW139089   1.196   1.075   7.569 -0.2080 -0.7573  0.0790
 9152SOL    HW239090   1.332   1.119   7.601 -0.5936 -0.6543  2.8003
 9153SOL     OW39091   2.978   2.283   1.821 -0.2089 -0.1076  0.1736
 9153SOL    HW139092   3.055   2.294   1.766 -0.1435  0.4455  0.3752
 9153SOL    HW239093   2.917   2.331   1.765  1.4840  0.9677 -0.7323
 9154SOL     OW39094   0.971   0.116   1.501 -0.1467 -0.3965 -0.2755
 9154SOL    HW139095   0.969   0.024   1.528  1.5332 -0.4116 -0.1995
 9154SOL    HW239096   0.902   0.116   1.435 -0.6119  2.4225  0.2182
 9155SOL     OW39097   4.687   2.928  10.372  0.3955  0.6034 -0.4133
 9155SOL    HW139098   4.727   3.013  10.387  1.9732 -0.4163  1.0850
 9155SOL    HW239099   0.020   2.873  10.415 -0.5146 -0.2964 -0.1807
 9156SOL     OW39100   2.040   4.448   8.435 -0.3069  1.0284  0.3520
 9156SOL    HW139101   2.078   4.373   8.389 -1.8985 -0.0255  0.7738
 9156SOL    HW239102   2.001   4.498   8.364  0.2465  2.2997  0.9386
 9157SOL     OW39103   1.541   1.195   6.814  0.1859 -0.2803  0.1872
 9157SOL    HW139104   1.499   1.271   6.854 -0.5592 -0.2186 -0.7178
 9157SOL    HW239105   1.578   1.225   6.730 -3.5742 -0.1107 -1.4019
 9158SOL     OW39106   3.199   3.074   3.610 -0.2992 -0.0162  0.0883
 9158SOL    HW139107   3.112   3.114   3.622  0.9612  2.1247  1.9825
 9158SOL    HW239108   3.206   3.103   3.519 -1.8374  0.2459  0.0510
 9159SOL     OW39109   1.180   3.236   8.837 -0.2667 -0.1117 -0.3620
 9159SOL    HW139110   1.267   3.204   8.863 -0.4303  1.7115  2.4421
 9159SOL    HW239111   1.190   3.331   8.836 -0.6744  0.0213  3.9662
 9160SOL     OW39112   2.265   1.145  10.651  0.3261 -0.1786 -0.3624
 9160SOL    HW139113   2.220   1.099  10.580  0.2782 -0.2654 -0.2756
 9160SOL    HW239114   2.308   1.079  10.706 -0.3821 -0.2723  0.0878
 9161SOL     OW39115   2.352   4.013   4.551  0.5187 -0.2180 -0.2030
 9161SOL    HW139116   2.351   3.927   4.593 -1.3866 -0.0008  0.1942
 9161SOL    HW239117   2.427   4.062   4.585  1.4911 -0.9633 -1.2704
 9162SOL     OW39118   2.247   3.471  13.224  0.2385 -0.3759  0.4671
 9162SOL    HW139119   2.327   3.461  13.275 -0.9090 -0.4142  2.2686
 9162SOL    HW239120   2.285   3.514  13.147 -0.8771 -1.7397 -0.8586
 9163SOL     OW39121   2.502   3.886   6.959  0.6361  0.0494 -0.0440
 9163SOL    HW139122   2.532   3.872   6.870 -1.5907 -2.0330 -0.4697
 9163SOL    HW239123   2.447   3.809   6.973  1.8120 -0.5406  1.4189
 9164SOL     OW39124   4.349   3.169   7.247 -0.4943 -0.2900 -0.4397
 9164SOL    HW139125   4.287   3.240   7.267  2.0925  0.9940  3.0492
 9164SOL    HW239126   4.422   3.198   7.301 -1.1876 -1.6637  1.2406
 9165SOL     OW39127   1.376   4.516   9.972  0.2637 -0.4735 -0.4143
 9165SOL    HW139128   1.349   4.461  10.046 -0.0485  0.4640  0.1634
 9165SOL    HW239129   1.299   4.497   9.918 -0.9471  1.7664  0.5233
 9166SOL     OW39130   3.530   1.310   7.438 -0.1445 -0.1495  0.0832
 9166SOL    HW139131   3.559   1.235   7.490 -0.5370  0.3801  1.0496
 9166SOL    HW239132   3.438   1.286   7.442 -0.0712 -0.4791 -0.2108
 9167SOL     OW39133   1.932   2.065  12.053 -0.0609  0.0532 -0.5794
 9167SOL    HW139134   1.958   2.118  11.978 -1.1978 -1.9021 -2.3478
 9167SOL    HW239135   1.929   2.127  12.126  0.0733 -0.2166 -0.3453
 9168SOL     OW39136   3.912   2.366   2.483  0.2575  0.1776  0.1141
 9168SOL    HW139137   3.935   2.454   2.513  0.4072 -0.3713  1.5690
 9168SOL    HW239138   3.933   2.317   2.562 -2.5275 -0.4657  0.4495
 9169SOL     OW39139   3.435   3.333   5.408  0.0702  0.0222 -0.1910
 9169SOL    HW139140   3.474   3.397   5.468  1.8538  0.5784 -1.9635
 9169SOL    HW239141   3.490   3.257   5.431 -0.8924 -0.3090  1.0305
 9170SOL     OW39142   1.375   4.421  16.669 -0.0447 -0.2043 -0.1759
 9170SOL    HW139143   1.320   4.488  16.627 -0.7444 -0.3406  0.5205
 9170SOL    HW239144   1.444   4.478  16.703  0.8874  0.5459 -3.3608
 9171SOL     OW39145   2.557   3.484   8.303 -0.0270  0.7392  0.6499
 9171SOL    HW139146   2.631   3.544   8.292 -1.1262  1.9590 -0.0708
 9171SOL    HW239147   2.596   3.398   8.290  0.4273  1.2760 -1.5122
 9172SOL     OW39148   1.972   2.202  10.577  0.2713 -0.0134  0.1404
 9172SOL    HW139149   2.027   2.126  10.561 -1.2574 -1.7406  3.0057
 9172SOL    HW239150   2.002   2.261  10.508  0.4113 -1.4340 -1.0215
 9173SOL     OW39151   4.268   3.408   1.504  0.1172  0.5565 -0.0068
 9173SOL    HW139152   4.286   3.459   1.425 -1.4570 -1.0218 -1.4127
 9173SOL    HW239153   4.232   3.480   1.554  1.9745  2.1649 -0.9913
 9174SOL     OW39154   3.128   4.472  10.412 -0.5937 -0.6118  0.1376
 9174SOL    HW139155   3.212   4.425  10.408  1.1522  2.2718  3.4641
 9174SOL    HW239156   3.067   4.403  10.387 -0.9142 -0.1853 -0.2493
 9175SOL     OW39157   0.790   4.598  13.526  0.0340 -0.0967 -0.3189
 9175SOL    HW139158   0.704   4.636  13.507 -0.0622 -0.8875 -1.4369
 9175SOL    HW239159   0.798   4.603  13.621  0.0256 -2.6253 -0.1768
 9176SOL     OW39160   3.301   3.040   0.375 -0.1689  0.0201 -0.2440
 9176SOL    HW139161   3.312   3.042   0.470 -1.3038 -2.8880 -0.0308
 9176SOL    HW239162   3.253   2.957   0.372  1.5041 -1.0179  1.5095
 9177SOL     OW39163   4.485   1.511   8.865  0.1265  0.3756  0.4772
 9177SOL    HW139164   4.493   1.541   8.956 -1.2015  0.4836  0.5513
 9177SOL    HW239165   4.414   1.447   8.874  0.8037 -0.3928  0.3378
 9178SOL     OW39166   0.253   3.358   4.033  0.0106  0.3233  0.3533
 9178SOL    HW139167   0.256   3.286   4.096 -0.1831 -0.3120 -0.3757
 9178SOL    HW239168   0.324   3.321   3.981 -0.5636  0.7928 -0.7406
 9179SOL     OW39169   2.185   0.216   3.476 -0.0424 -0.0273 -0.8059
 9179SOL    HW139170   2.159   0.150   3.411 -1.8679  0.8091 -0.9332
 9179SOL    HW239171   2.107   0.272   3.470 -0.0844  0.2847  2.5606
 9180SOL     OW39172   4.001   1.594  11.778  0.4381 -0.1424 -0.6260
 9180SOL    HW139173   3.930   1.657  11.783  0.4270 -0.3481  1.6261
 9180SOL    HW239174   4.081   1.631  11.815  0.8828 -2.4327  0.7138
 9181SOL     OW39175   2.554   4.574   3.473  0.6568  0.2299 -0.7388
 9181SOL    HW139176   2.568   4.580   3.567  0.6325 -1.3932 -0.6403
 9181SOL    HW239177   2.479   4.633   3.466 -1.0255 -1.5758  2.1258
 9182SOL     OW39178   4.396   4.187   3.163  0.8699  0.0539  0.6302
 9182SOL    HW139179   4.489   4.183   3.184  1.1092  0.0450 -0.4141
 9182SOL    HW239180   4.358   4.138   3.236 -0.1761  0.1952  0.1944
 9183SOL     OW39181   0.943   3.921   6.385 -0.3618  0.1578 -0.1859
 9183SOL    HW139182   1.006   3.914   6.456 -0.7453  0.1989  0.1602
 9183SOL    HW239183   0.882   3.850   6.408 -0.2614 -0.4737 -1.8942
 9184SOL     OW39184   1.008   1.894   4.517 -0.3067  0.0297 -0.1475
 9184SOL    HW139185   1.004   1.870   4.609 -2.8218  2.1959  0.2933
 9184SOL    HW239186   0.946   1.967   4.517 -2.9468 -2.2262  3.7398
 9185SOL     OW39187   3.202   0.833  13.386  0.6754 -0.0850 -0.5565
 9185SOL    HW139188   3.169   0.922  13.391  1.5046  0.3388 -2.5163
 9185SOL    HW239189   3.272   0.833  13.320  0.6513 -1.8348 -0.5981
 9186SOL     OW39190   4.118   1.185   7.270  0.3843  0.3984 -0.2824
 9186SOL    HW139191   4.087   1.211   7.356 -0.4664 -0.9439 -0.1916
 9186SOL    HW239192   4.174   1.109   7.285  0.1798  0.5202  1.0993
 9187SOL     OW39193   2.972   2.550  11.258  0.4959 -0.5627  0.5745
 9187SOL    HW139194   2.881   2.545  11.229  0.0926 -0.1521  1.7485
 9187SOL    HW239195   2.963   2.611  11.331  1.1551 -1.5462  1.4833
 9188SOL     OW39196   0.435   2.039   5.287 -0.3494  0.3427 -0.3609
 9188SOL    HW139197   0.451   1.947   5.270 -3.3109 -0.4241  0.9696
 9188SOL    HW239198   0.340   2.038   5.299 -0.0805  0.2390  1.8655
 9189SOL     OW39199   2.294   1.157   4.043 -0.2262  0.3862  0.2903
 9189SOL    HW139200   2.389   1.150   4.036 -0.2608  0.1059  0.0454
 9189SOL    HW239201   2.270   1.074   4.085  2.6458 -0.2290  0.6767
 9190SOL     OW39202   4.720   4.070   8.284  0.0299 -0.2695  0.3290
 9190SOL    HW139203   4.703   3.991   8.232 -0.5710  0.4735 -0.6018
 9190SOL    HW239204   4.656   4.050   8.352  0.9509 -3.4509  0.2781
 9191SOL     OW39205   0.643   2.184   7.511 -0.4584 -0.4770  0.2591
 9191SOL    HW139206   0.713   2.119   7.516 -0.4939 -0.8370 -4.2252
 9191SOL    HW239207   0.640   2.228   7.597 -1.0563 -1.7896  0.9073
 9192SOL     OW39208   4.150   3.622   1.668  0.2550  0.1259 -0.3907
 9192SOL    HW139209   4.111   3.691   1.722 -0.1558  0.5154 -1.1851
 9192SOL    HW239210   4.113   3.643   1.582  1.8580  1.3705 -0.7642
 9193SOL     OW39211   0.471   0.288   4.939 -0.5785  0.0185  0.0747
 9193SOL    HW139212   0.413   0.343   4.992 -2.1768 -0.3263 -1.3430
 9193SOL    HW239213   0.409   0.232   4.892 -0.7953 -0.2975  0.7405
 9194SOL     OW39214   4.369   0.375  17.126 -0.4345 -0.0422  0.1554
 9194SOL    HW139215   4.420   0.351  17.048 -0.1408 -1.7721  0.8806
 9194SOL    HW239216   4.434   0.361  17.194 -0.0895  0.4876 -0.0652
 9195SOL     OW39217   2.731   0.364   7.083 -0.5670  0.3047  0.4549
 9195SOL    HW139218   2.638   0.383   7.096 -0.5797 -0.3455  1.3302
 9195SOL    HW239219   2.751   0.310   7.159  0.6745 -0.1990 -0.2374
 9196SOL     OW39220   3.044   1.976   6.750 -0.1963  0.1751 -0.1315
 9196SOL    HW139221   3.121   1.993   6.805 -0.4457  1.4710 -0.1795
 9196SOL    HW239222   2.994   1.911   6.799  1.1634 -0.6258  0.2045
 9197SOL     OW39223   3.431   3.492   1.486  0.1821  0.9753 -0.3814
 9197SOL    HW139224   3.469   3.528   1.405  1.1823  1.1994  0.1897
 9197SOL    HW239225   3.397   3.409   1.453 -0.3753  1.0144  0.0927
 9198SOL     OW39226   0.856   3.628   3.364 -0.4554 -0.0809 -0.1925
 9198SOL    HW139227   0.861   3.646   3.270 -1.9478  0.2792 -0.1984
 9198SOL    HW239228   0.922   3.563   3.385 -0.6590  0.0209  0.7845
 9199SOL     OW39229   4.187   3.198   3.016 -0.1000 -0.0679 -0.0039
 9199SOL    HW139230   4.114   3.160   3.064  0.0395  0.9676  1.0221
 9199SOL    HW239231   4.147   3.188   2.929  1.7198 -1.3655 -0.6974
 9200SOL     OW39232   3.098   0.758   3.832 -0.0482  0.2959  0.0563
 9200SOL    HW139233   3.073   0.848   3.811  0.1073  0.2535 -0.3238
 9200SOL    HW239234   3.124   0.740   3.741  0.3729  0.3816  0.1645
 9201SOL     OW39235   1.279   3.257   7.424  0.2289  0.1623  0.3866
 9201SOL    HW139236   1.255   3.241   7.516  0.1011 -1.2256  0.1146
 9201SOL    HW239237   1.328   3.338   7.416 -0.1103  0.6093  2.6845
 9202SOL     OW39238   2.438   0.060  11.596  0.0832 -0.7163  0.0060
 9202SOL    HW139239   2.347   0.050  11.566 -0.1049 -0.7008  0.5744
 9202SOL    HW239240   2.414   0.121  11.666  1.3440  0.3419 -0.4862
 9203SOL     OW39241   1.518   1.335   7.174 -0.5364  0.0814  0.6615
 9203SOL    HW139242   1.490   1.344   7.083  1.3241 -0.0158  0.0688
 9203SOL    HW239243   1.493   1.423   7.204 -2.5893 -0.9784  2.0972
 9204SOL     OW39244   3.611   2.081   9.204  0.3639 -0.3717 -0.5004
 9204SOL    HW139245   3.680   2.017   9.191 -0.6913 -1.4437 -0.8581
 9204SOL    HW239246   3.555   2.028   9.261 -0.5776  1.2149  0.0561
 9205SOL     OW39247   4.223   1.926   4.935 -0.0036 -0.0651 -0.1441
 9205SOL    HW139248   4.292   1.965   4.988 -1.5587  2.5649 -0.0805
 9205SOL    HW239249   4.152   1.990   4.939  0.7585  0.7441  0.4889
 9206SOL     OW39250   0.831   2.885   8.788 -0.0776 -0.0898 -0.1202
 9206SOL    HW139251   0.812   2.943   8.714  0.2447 -1.8672 -1.5846
 9206SOL    HW239252   0.925   2.894   8.803 -0.3156 -1.4299  2.2897
 9207SOL     OW39253   3.395   2.710   9.506  0.3683 -0.1202  0.2202
 9207SOL    HW139254   3.414   2.767   9.581  2.9094  0.5668 -0.9223
 9207SOL    HW239255   3.356   2.643   9.561 -3.6104  1.7635 -0.3549
 9208SOL     OW39256   0.314   1.126   5.611 -0.4656  0.1953  0.6771
 9208SOL    HW139257   0.267   1.139   5.693 -0.5285  0.8542  0.5422
 9208SOL    HW239258   0.387   1.070   5.636 -0.0121 -0.1420 -1.4254
 9209SOL     OW39259   2.442   3.173   2.847 -0.3629  0.3716  0.0110
 9209SOL    HW139260   2.437   3.109   2.917 -2.0912  2.3238  1.6907
 9209SOL    HW239261   2.353   3.207   2.854 -0.8539 -1.4647  2.4178
 9210SOL     OW39262   0.552   2.713  14.845  0.3567  0.1266  0.0994
 9210SOL    HW139263   0.492   2.713  14.771 -0.9108  0.3654  1.1242
 9210SOL    HW239264   0.591   2.800  14.844 -2.3702  1.3695  1.2128
 9211SOL     OW39265   2.608   0.124   0.091  0.1325 -0.2914 -0.1484
 9211SOL    HW139266   2.677   0.084   0.144 -0.3374 -0.4371  0.3414
 9211SOL    HW239267   2.541   0.138   0.158  0.2513 -0.0232 -0.0834
 9212SOL     OW39268   0.797   1.087   2.898 -0.5004 -0.1980  0.5933
 9212SOL    HW139269   0.748   1.112   2.977 -0.1833 -0.4661  0.8718
 9212SOL    HW239270   0.876   1.142   2.899  0.2518 -1.2623 -0.5876
 9213SOL     OW39271   2.006   2.917  10.440 -0.0450 -0.0449  0.2136
 9213SOL    HW139272   1.981   2.936  10.531  0.9166  0.4374  0.3778
 9213SOL    HW239273   2.074   2.985  10.439  0.5465 -0.6288  1.0450
 9214SOL     OW39274   1.297   1.943  14.805  0.0520  0.0224 -0.1506
 9214SOL    HW139275   1.292   2.013  14.739  2.8017 -0.0524 -0.4322
 9214SOL    HW239276   1.372   1.895  14.772  0.3545 -0.1244  0.7676
 9215SOL     OW39277   1.266   2.649  17.503 -0.2241  0.1112  0.1729
 9215SOL    HW139278   1.281   2.596  17.425 -0.4036 -0.6543  0.6587
 9215SOL    HW239279   1.261   2.728  17.449  0.4246  0.2945  0.3912
 9216SOL     OW39280   3.479   3.452   1.755  0.6909 -0.4563  0.0405
 9216SOL    HW139281   3.473   3.490   1.668 -1.1525  2.3338  1.3778
 9216SOL    HW239282   3.410   3.385   1.759 -0.2164  0.3384 -2.0742
 9217SOL     OW39283   3.992   0.535   5.924  0.0025  0.3644 -0.5846
 9217SOL    HW139284   4.016   0.572   6.009 -1.1213  1.6306 -0.8212
 9217SOL    HW239285   3.961   0.448   5.946  3.1114 -0.9259 -1.3049
 9218SOL     OW39286   1.733   4.293   4.472  0.1756 -0.6280 -0.0656
 9218SOL    HW139287   1.651   4.287   4.520  0.8992 -0.0825  1.2646
 9218SOL    HW239288   1.694   4.309   4.386 -0.5599 -2.3347 -0.0354
 9219SOL     OW39289   1.152   4.102   5.879 -0.2098 -0.1698  0.5663
 9219SOL    HW139290   1.090   4.153   5.826  0.0217 -0.0084  0.4498
 9219SOL    HW239291   1.095   4.042   5.926  0.4865 -0.8053  0.6045
 9220SOL     OW39292   2.196   0.459   4.395 -0.7054 -0.9025 -0.4573
 9220SOL    HW139293   2.161   0.492   4.312 -2.8252 -1.5796  0.1615
 9220SOL    HW239294   2.128   0.497   4.450  0.1644 -2.1934  1.5291
 9221SOL     OW39295   3.689   4.530   9.826 -0.0010 -0.9243  0.4324
 9221SOL    HW139296   3.724   4.578   9.751  1.9103  0.4564  2.2110
 9221SOL    HW239297   3.669   4.603   9.884 -0.4330 -1.1232  0.5329
 9222SOL     OW39298   0.547   3.751   3.728  0.4134  0.1172 -0.0539
 9222SOL    HW139299   0.589   3.694   3.793 -0.3562  1.4200  1.5771
 9222SOL    HW239300   0.601   3.730   3.652 -0.9474  0.5679 -1.1578
 9223SOL     OW39301   2.018   2.553   8.415  0.1873  0.1726  0.4155
 9223SOL    HW139302   2.007   2.504   8.497  2.5933  0.2998  0.8202
 9223SOL    HW239303   2.108   2.583   8.425  0.9672 -1.3465 -2.0283
 9224SOL     OW39304   0.344   1.897   3.984 -0.1037  0.4269  0.1903
 9224SOL    HW139305   0.327   1.806   3.961  1.4229 -0.6927  3.4942
 9224SOL    HW239306   0.348   1.904   4.080 -0.2517 -2.2248  0.3834
 9225SOL     OW39307   0.963   3.583  14.139  0.5213  0.0856  0.1470
 9225SOL    HW139308   0.925   3.648  14.080  0.9786  1.6141  1.5607
 9225SOL    HW239309   0.916   3.507  14.103 -2.1030  0.9369  1.7845
 9226SOL     OW39310   0.347   2.543   2.672  0.7247  0.1454  0.1594
 9226SOL    HW139311   0.350   2.453   2.702  2.1890 -0.3186 -1.3847
 9226SOL    HW239312   0.343   2.522   2.578  2.5259  0.6097 -0.0278
 9227SOL     OW39313   4.404   0.881   4.276  0.9211  0.3472 -0.4275
 9227SOL    HW139314   4.339   0.950   4.287  0.5783 -0.1950  0.9012
 9227SOL    HW239315   4.483   0.936   4.272  0.2873  1.2118 -0.8909
 9228SOL     OW39316   3.023   3.556   0.526 -0.0016 -0.1830  0.0784
 9228SOL    HW139317   2.979   3.471   0.519  1.1404 -0.7815  0.1438
 9228SOL    HW239318   2.955   3.609   0.485  1.2038  0.7160 -0.7606
 9229SOL     OW39319   0.898   3.094   7.128 -0.2209  0.1069 -0.1647
 9229SOL    HW139320   0.959   3.164   7.150  1.8091 -2.1849  1.5204
 9229SOL    HW239321   0.867   3.115   7.040 -0.7499  3.0357  0.7379
 9230SOL     OW39322   2.765   0.450  15.802  0.0404 -0.0657  0.3740
 9230SOL    HW139323   2.853   0.486  15.810  0.2186 -0.3264 -0.4290
 9230SOL    HW239324   2.723   0.536  15.800  1.1135  0.4496  0.2759
 9231SOL     OW39325   2.577   2.032   4.710  0.9671  0.2555 -0.0512
 9231SOL    HW139326   2.624   2.042   4.793 -0.1961  2.7274  0.2927
 9231SOL    HW239327   2.487   2.059   4.729  0.2495 -1.9268 -0.2894
 9232SOL     OW39328   4.690   3.108   7.830  0.2829 -0.9207  0.3490
 9232SOL    HW139329   0.013   3.061   7.768  0.6787  0.0468 -0.0238
 9232SOL    HW239330   4.621   3.144   7.775  1.4647  1.7779  0.6377
 9233SOL     OW39331   1.316   4.001   6.504 -0.4524 -0.3208 -0.2772
 9233SOL    HW139332   1.349   4.070   6.562 -3.1960 -0.5829  1.5693
 9233SOL    HW239333   1.396   3.950   6.491 -0.9374 -1.6788  1.9463
 9234SOL     OW39334   2.994   3.087  14.838 -0.5394  0.4073  0.2592
 9234SOL    HW139335   3.070   3.041  14.874 -1.7840  0.0807  2.4544
 9234SOL    HW239336   2.925   3.076  14.903 -0.2902 -0.3393  0.3969
 9235SOL     OW39337   3.554   3.197   4.008 -0.3897  0.3781  0.8865
 9235SOL    HW139338   3.635   3.150   4.029 -0.0182  0.7090  0.2074
 9235SOL    HW239339   3.534   3.168   3.920  1.9688  1.3978  0.0112
 9236SOL     OW39340   3.441   3.141   3.729 -0.1621 -0.3433 -0.5836
 9236SOL    HW139341   3.354   3.128   3.691 -0.0326 -2.6634 -0.1009
 9236SOL    HW239342   3.506   3.130   3.660  1.0934  0.6949  0.4330
 9237SOL     OW39343   3.747   0.988   2.210  0.2352 -0.0145  0.3856
 9237SOL    HW139344   3.745   0.937   2.291 -2.6222 -0.6386 -0.0564
 9237SOL    HW239345   3.784   1.071   2.241 -1.5153  0.0391  2.3047
 9238SOL     OW39346   3.985   1.049   7.050 -0.4270  0.2785 -0.3487
 9238SOL    HW139347   4.016   1.124   7.101 -1.6171  1.2925 -1.1090
 9238SOL    HW239348   3.919   1.081   6.988  0.0334 -0.8381 -1.4230
 9239SOL     OW39349   4.200   2.670   3.142  0.0253  0.6473 -0.2274
 9239SOL    HW139350   4.127   2.611   3.160  0.9193 -1.0054 -2.0601
 9239SOL    HW239351   4.256   2.607   3.097 -0.7973  1.0887 -1.8620
 9240SOL     OW39352   0.109   3.761   1.105  0.0901  0.5379  0.2512
 9240SOL    HW139353   0.146   3.686   1.058 -0.8546 -1.0020  1.9752
 9240SOL    HW239354   0.137   3.819   1.034 -2.6033  1.6322  0.1033
 9241SOL     OW39355   3.369   3.404   3.705  0.1795  0.0426 -0.2764
 9241SOL    HW139356   3.397   3.316   3.732  0.9100  0.1843 -0.5596
 9241SOL    HW239357   3.442   3.455   3.740  0.4297 -0.8735  0.5436
 9242SOL     OW39358   2.266   1.112   6.906 -0.7671 -0.0739 -0.2063
 9242SOL    HW139359   2.337   1.076   6.960 -1.8329 -1.6100  0.1640
 9242SOL    HW239360   2.289   1.082   6.818  2.9192  2.8950 -0.2497
 9243SOL     OW39361   3.650   4.708   6.489  0.1703  0.0178 -0.5803
 9243SOL    HW139362   3.706   0.035   6.538  1.3327 -1.2126 -0.4017
 9243SOL    HW239363   3.647   0.001   6.397 -2.3663  1.8749  0.0313
 9244SOL     OW39364   4.114   0.503  16.955 -0.0330  0.2268  0.0011
 9244SOL    HW139365   4.061   0.511  16.876 -0.7011  0.0936  0.4335
 9244SOL    HW239366   4.139   0.411  16.945  1.3119  0.5081  0.8103
 9245SOL     OW39367   3.358   4.656   8.592  0.0904  0.5719  0.2840
 9245SOL    HW139368   3.328   4.729   8.538 -1.3179 -1.0008 -1.0524
 9245SOL    HW239369   3.437   4.692   8.632  0.0273  0.9942  0.0223
 9246SOL     OW39370   0.237   3.163   7.562 -0.2805  0.3481  0.1129
 9246SOL    HW139371   0.330   3.160   7.539 -0.3540  0.7673 -0.2376
 9246SOL    HW239372   0.245   3.185   7.655 -2.2084  2.6155 -0.2655
 9247SOL     OW39373   1.140   1.579   8.752 -0.1788  0.0504 -0.1233
 9247SOL    HW139374   1.053   1.616   8.739 -0.0659  0.8462  1.4145
 9247SOL    HW239375   1.190   1.638   8.696 -1.2803  1.6161  0.5682
 9248SOL     OW39376   1.333   1.496   3.766 -0.7090  0.0355 -0.3068
 9248SOL    HW139377   1.292   1.488   3.679 -2.6535 -0.3174  0.6341
 9248SOL    HW239378   1.399   1.428   3.753 -1.3995 -0.1734 -2.8378
 9249SOL     OW39379   0.843   1.168   6.849  0.4634  0.0507  0.0214
 9249SOL    HW139380   0.880   1.097   6.902 -1.8595 -1.1763 -0.0177
 9249SOL    HW239381   0.913   1.232   6.837  0.6054 -0.1120 -0.0188
 9250SOL     OW39382   1.033   2.833  10.253 -0.2457  0.7934  0.5430
 9250SOL    HW139383   1.061   2.837  10.345 -0.2837  0.7712  0.5554
 9250SOL    HW239384   0.988   2.918  10.253 -1.9660 -0.1114 -0.6765
 9251SOL     OW39385   1.085   4.515   8.483  0.3803  0.0452 -0.1944
 9251SOL    HW139386   1.088   4.419   8.483  0.1464  0.0346  0.4725
 9251SOL    HW239387   1.058   4.542   8.571  0.3031 -1.4830  0.2611
 9252SOL     OW39388   3.126   4.233  13.252 -0.8259 -0.0575 -0.0426
 9252SOL    HW139389   3.197   4.195  13.302 -0.3973  0.2469 -0.4192
 9252SOL    HW239390   3.062   4.174  13.290  1.4127 -2.5953 -0.2371
 9253SOL     OW39391   0.178   2.308   6.546  0.0959 -0.2043  0.0875
 9253SOL    HW139392   0.172   2.363   6.468 -2.4999  0.4412  0.7539
 9253SOL    HW239393   0.172   2.375   6.615  1.0899 -1.7521  1.6779
 9254SOL     OW39394   0.177   1.000   9.129  0.0162  0.1900 -0.1859
 9254SOL    HW139395   0.131   1.071   9.084 -0.8297 -0.8751 -1.0020
 9254SOL    HW239396   0.245   1.044   9.180  1.1649 -3.2686  1.2690
 9255SOL     OW39397   0.548   2.690   2.492  0.1586  0.0764  0.3540
 9255SOL    HW139398   0.567   2.749   2.565  0.4001  2.3836 -1.5725
 9255SOL    HW239399   0.598   2.616   2.527  1.9601  0.7271 -0.8430
 9256SOL     OW39400   0.274   1.838  14.510 -0.2373  0.0568 -0.2705
 9256SOL    HW139401   0.317   1.923  14.506  2.5316 -1.3468 -0.2365
 9256SOL    HW239402   0.339   1.782  14.552 -1.2080 -0.6358  0.3095
 9257SOL     OW39403   1.352   2.856   8.891 -0.4132  0.1474  0.2247
 9257SOL    HW139404   1.392   2.936   8.858 -1.3603  1.0337  1.2305
 9257SOL    HW239405   1.260   2.881   8.884  0.2436  2.7641  1.3728
 9258SOL     OW39406   4.316   4.565   8.354 -0.0783 -0.3094  0.2070
 9258SOL    HW139407   4.293   4.546   8.445 -1.4570 -0.1903 -0.1247
 9258SOL    HW239408   4.302   4.660   8.359  0.1448 -0.2705  0.0721
 9259SOL     OW39409   1.569   1.697   6.914 -0.0846  0.8021 -0.3863
 9259SOL    HW139410   1.544   1.745   6.993 -3.0583 -0.3510 -0.6331
 9259SOL    HW239411   1.575   1.772   6.853  0.0675  1.9086  0.9981
 9260SOL     OW39412   3.351   3.370  16.274 -0.4586 -0.0812  0.3998
 9260SOL    HW139413   3.419   3.339  16.213 -1.7441 -6.1862  2.0450
 9260SOL    HW239414   3.285   3.397  16.210 -0.4827 -1.8754 -0.3206
 9261SOL     OW39415   2.962   0.790   4.080  0.0721  0.0461  0.4797
 9261SOL    HW139416   3.014   0.820   4.006  2.8741 -1.7200  1.7296
 9261SOL    HW239417   3.003   0.705   4.099 -1.7507 -1.3044 -1.7052
 9262SOL     OW39418   4.494   3.947  11.903  0.3371 -0.2829 -0.3574
 9262SOL    HW139419   4.425   4.013  11.897  0.1427 -0.6612 -2.1276
 9262SOL    HW239420   4.449   3.877  11.952  1.6427  0.3124  1.7083
 9263SOL     OW39421   0.241   0.810   6.938 -0.4242 -0.4620 -0.4001
 9263SOL    HW139422   0.154   0.774   6.916 -1.3096  0.8809  0.9259
 9263SOL    HW239423   0.297   0.733   6.931 -0.2608 -0.6421  2.8853
 9264SOL     OW39424   0.865   3.389   5.797 -0.0762  0.2264  0.6036
 9264SOL    HW139425   0.816   3.369   5.878  0.6339  0.6213  1.1253
 9264SOL    HW239426   0.942   3.332   5.806 -0.0188  0.7400  3.4823
 9265SOL     OW39427   2.542   1.881  11.334 -0.1088  0.1604 -0.7128
 9265SOL    HW139428   2.475   1.863  11.269 -0.5772  2.2859 -0.8062
 9265SOL    HW239429   2.487   1.901  11.410 -0.8667  1.2855 -1.5566
 9266SOL     OW39430   0.709   3.207   7.424 -0.4439 -0.0179  0.4253
 9266SOL    HW139431   0.744   3.129   7.381 -0.3700 -0.3861  1.1586
 9266SOL    HW239432   0.784   3.231   7.478 -1.0069 -0.6853  1.5152
 9267SOL     OW39433   3.056   1.436   5.808 -0.6688  0.0170  0.6221
 9267SOL    HW139434   3.145   1.411   5.832 -0.7143 -0.5045  0.2616
 9267SOL    HW239435   3.006   1.368   5.853  1.0437 -1.1360  0.7863
 9268SOL     OW39436   3.545   4.337   5.472 -0.2033 -0.0268  0.1119
 9268SOL    HW139437   3.530   4.407   5.409  1.2722 -0.8014 -1.1036
 9268SOL    HW239438   3.545   4.257   5.420  0.3038  0.0055  0.0630
 9269SOL     OW39439   3.530   2.993  17.614  0.1976 -0.2208  0.3316
 9269SOL    HW139440   3.461   3.056  17.636 -1.9426 -2.0610 -1.1259
 9269SOL    HW239441   3.524   2.945  17.697  0.1770 -1.9655 -0.6786
 9270SOL     OW39442   2.488   0.806   0.767 -0.0971  0.6088 -0.5501
 9270SOL    HW139443   2.534   0.759   0.697  0.2091 -1.4627  1.0532
 9270SOL    HW239444   2.558   0.866   0.793 -0.6146  0.5648  0.9259
 9271SOL     OW39445   1.960   4.156   2.113  0.1230  0.5236 -0.1860
 9271SOL    HW139446   1.944   4.250   2.113  1.9041  0.8271  2.5756
 9271SOL    HW239447   1.877   4.121   2.079  0.7360  0.7259 -1.8745
 9272SOL     OW39448   3.793   2.593   7.771  0.6310 -0.2614 -0.2415
 9272SOL    HW139449   3.778   2.577   7.864  1.0756  5.1650  0.7557
 9272SOL    HW239450   3.883   2.625   7.781  0.2987  1.0924 -1.5452
 9273SOL     OW39451   2.996   3.855   3.588  0.3901  0.4764  0.0882
 9273SOL    HW139452   3.074   3.805   3.612  0.4426  0.9841  1.0152
 9273SOL    HW239453   2.993   3.932   3.646  1.3238  0.0517  0.6962
 9274SOL     OW39454   1.113   0.218   4.830 -0.0351 -0.8831  0.4290
 9274SOL    HW139455   1.124   0.162   4.752 -1.6657  1.0958 -1.2256
 9274SOL    HW239456   1.195   0.265   4.840 -0.5916  0.4655 -1.2112
 9275SOL     OW39457   0.527   4.722  11.858 -0.0532 -0.1131  0.3550
 9275SOL    HW139458   0.532   0.084  11.841  0.9209 -0.1274  0.5488
 9275SOL    HW239459   0.555   4.718  11.949  0.9443 -1.2317 -0.0091
 9276SOL     OW39460   0.563   3.605   5.048 -0.0931  0.4868  0.3981
 9276SOL    HW139461   0.643   3.559   5.022 -0.1934 -0.2571  1.3728
 9276SOL    HW239462   0.597   3.658   5.121  0.0253  1.0844 -0.0923
 9277SOL     OW39463   1.669   3.827   4.589 -0.6958  0.0448  0.2829
 9277SOL    HW139464   1.645   3.734   4.584 -0.7046 -0.0679  2.4718
 9277SOL    HW239465   1.657   3.856   4.498 -0.5526  1.1341  0.6099
 9278SOL     OW39466   2.606   4.239   7.952  0.1609 -0.1784  0.1505
 9278SOL    HW139467   2.621   4.325   7.912  1.7947 -0.5553 -0.0344
 9278SOL    HW239468   2.522   4.245   7.997  0.2825 -1.4541  0.5454
 9279SOL     OW39469   1.291   0.749   9.046  0.0594  0.2153  0.1590
 9279SOL    HW139470   1.200   0.751   9.075 -0.5401  1.4984 -1.8213
 9279SOL    HW239471   1.290   0.702   8.962 -0.0379 -1.5851  1.1623
 9280SOL     OW39472   1.215   3.099   9.588 -0.4742 -0.2455  0.2709
 9280SOL    HW139473   1.230   3.014   9.631 -0.2555 -1.6441 -2.5609
 9280SOL    HW239474   1.299   3.110   9.544 -0.7808  1.5737  0.1446
 9281SOL     OW39475   4.401   3.141  13.824 -0.0991  0.5385 -0.3743
 9281SOL    HW139476   4.417   3.111  13.914 -0.7599 -1.2098 -0.8530
 9281SOL    HW239477   4.470   3.208  13.822 -1.4818  1.8835 -2.4351
 9282SOL     OW39478   1.460   0.650  10.150  0.4825 -0.3980  0.2521
 9282SOL    HW139479   1.517   0.576  10.131 -1.2046 -1.3280 -1.2341
 9282SOL    HW239480   1.398   0.640  10.078 -1.2169 -1.6511  1.8729
 9283SOL     OW39481   3.334   3.588   3.351  0.0005  0.5754 -0.1879
 9283SOL    HW139482   3.312   3.494   3.348  0.3675  0.4842 -0.0746
 9283SOL    HW239483   3.260   3.637   3.317  1.1649  1.4300 -1.4966
 9284SOL     OW39484   1.376   2.105  11.481 -0.3292  0.2193  0.2244
 9284SOL    HW139485   1.346   2.014  11.478 -0.2808  0.1972  0.4289
 9284SOL    HW239486   1.451   2.103  11.421  0.1797 -1.5584  0.9233
 9285SOL     OW39487   1.162   1.344   0.879 -0.1930 -1.0151 -0.1393
 9285SOL    HW139488   1.191   1.375   0.793  0.5730  0.6342  0.7276
 9285SOL    HW239489   1.111   1.419   0.908 -0.4367 -1.2959  0.1516
 9286SOL     OW39490   1.629   3.162   3.958 -0.4315  0.2562 -0.1446
 9286SOL    HW139491   1.666   3.226   4.017  1.3462 -0.7619 -0.1563
 9286SOL    HW239492   1.537   3.187   3.962  0.2069  2.5312  0.3437
 9287SOL     OW39493   2.274   3.741   8.080  0.2189  0.2521  0.1729
 9287SOL    HW139494   2.340   3.716   8.145  1.7903  0.9110 -1.1691
 9287SOL    HW239495   2.195   3.701   8.116  1.0587 -2.1105 -0.5659
 9288SOL     OW39496   4.387   2.464   7.160  0.1460  0.3353 -0.2106
 9288SOL    HW139497   4.419   2.540   7.112  1.2511  0.5659  0.9125
 9288SOL    HW239498   4.296   2.458   7.131  0.5180  0.4160 -1.3957
 9289SOL     OW39499   3.941   3.746  14.270 -0.1030  0.2986 -0.1602
 9289SOL    HW139500   4.024   3.752  14.317 -1.3107  0.4941  1.9667
 9289SOL    HW239501   3.888   3.803  14.326  2.4602  1.2805  1.2673
 9290SOL     OW39502   2.277   0.516   8.644 -0.4480  0.9777  0.2571
 9290SOL    HW139503   2.287   0.558   8.730 -1.7461  0.6143  0.5902
 9290SOL    HW239504   2.272   0.424   8.669  2.1099  0.0496 -2.7004
 9291SOL     OW39505   1.332   3.610  14.460 -0.4920 -0.0878  0.1988
 9291SOL    HW139506   1.266   3.540  14.451 -0.7155  0.0444  0.8657
 9291SOL    HW239507   1.306   3.664  14.385 -0.8625 -0.1570  0.2742
 9292SOL     OW39508   1.948   2.588   5.732  0.2809 -0.2960  0.5957
 9292SOL    HW139509   1.867   2.633   5.758 -0.5179 -1.4506  0.0995
 9292SOL    HW239510   1.963   2.541   5.814  0.2847 -1.2020  0.0748
 9293SOL     OW39511   0.619   3.722   5.294  0.2554  0.5594  0.1690
 9293SOL    HW139512   0.586   3.807   5.265 -0.0343  0.5417  0.4552
 9293SOL    HW239513   0.558   3.710   5.366  0.2888  1.5831  0.3715
 9294SOL     OW39514   0.502   3.613   4.109 -0.2333 -0.0191  0.9229
 9294SOL    HW139515   0.481   3.687   4.166 -0.8184  0.6810 -0.2061
 9294SOL    HW239516   0.479   3.534   4.158 -1.1851 -1.0692 -1.2510
 9295SOL     OW39517   0.113   3.571   7.775 -0.2834  0.3156  0.5943
 9295SOL    HW139518   0.069   3.509   7.718  0.2500 -0.5285  1.0973
 9295SOL    HW239519   0.200   3.565   7.735 -0.3925 -2.7959  0.8609
 9296SOL     OW39520   0.869   1.039   8.397 -0.3987  0.3751  0.0608
 9296SOL    HW139521   0.855   1.123   8.354 -2.9922 -1.2279 -2.2534
 9296SOL    HW239522   0.964   1.026   8.390 -0.3134  1.0175  0.0399
 9297SOL     OW39523   4.435   1.101   0.368 -0.6257  0.3716  0.3086
 9297SOL    HW139524   4.493   1.053   0.427  0.6711 -0.7994 -1.8889
 9297SOL    HW239525   4.399   1.026   0.320 -2.1573  0.5530  1.1604
 9298SOL     OW39526   0.102   3.305   7.396 -0.8242  0.2067  0.1361
 9298SOL    HW139527   0.059   3.244   7.337  2.6764 -0.5844 -1.5917
 9298SOL    HW239528   0.158   3.252   7.453  2.2377  4.3705  1.0611
 9299SOL     OW39529   3.715   2.022   4.060  0.1272 -0.5631  0.0590
 9299SOL    HW139530   3.795   2.000   4.107  0.3430  0.9929  0.4346
 9299SOL    HW239531   3.647   2.016   4.127  1.2850 -3.8395  0.8931
 9300SOL     OW39532   1.415   4.054   4.085  0.2581  0.1785  0.1593
 9300SOL    HW139533   1.359   3.984   4.050  1.8827 -0.1320 -1.8122
 9300SOL    HW239534   1.416   4.038   4.180 -0.1884 -2.3608 -0.2764
 9301SOL     OW39535   0.619   0.365   4.026  0.2672 -0.4856 -0.1562
 9301SOL    HW139536   0.529   0.362   3.992  0.5589 -0.4929 -0.9104
 9301SOL    HW239537   0.613   0.446   4.076 -1.0078 -0.5469 -0.1851
 9302SOL     OW39538   1.058   0.531  16.688  0.1129 -0.0689  0.3412
 9302SOL    HW139539   1.048   0.437  16.676 -1.6576 -0.0375  1.5135
 9302SOL    HW239540   1.148   0.541  16.658  0.3963 -0.0342  1.1990
 9303SOL     OW39541   4.574   3.133   5.197  0.1509 -0.5658  0.4646
 9303SOL    HW139542   4.559   3.077   5.273 -0.7205 -1.3618 -0.3109
 9303SOL    HW239543   4.544   3.074   5.129  1.2880 -0.8084  0.1691
 9304SOL     OW39544   1.375   4.680  10.368  0.0002 -0.2569 -0.3889
 9304SOL    HW139545   1.466   4.664  10.395  0.2204  0.8514 -0.4954
 9304SOL    HW239546   1.323   4.636  10.436  0.6419  2.4824  1.8860
 9305SOL     OW39547   1.931   2.978  11.610 -0.2192 -0.0762 -0.2972
 9305SOL    HW139548   1.961   2.949  11.524 -0.2135 -0.3825 -0.1956
 9305SOL    HW239549   1.845   3.019  11.603 -0.0620 -0.1941 -2.8871
 9306SOL     OW39550   3.751   0.832   4.422 -0.9360 -0.1639  0.1295
 9306SOL    HW139551   3.687   0.799   4.486 -3.3522  1.9673 -1.1728
 9306SOL    HW239552   3.832   0.835   4.473  0.1400  2.1247 -1.7422
 9307SOL     OW39553   2.084   0.956   2.851 -0.1934 -0.1807  0.1137
 9307SOL    HW139554   2.031   0.999   2.784  2.1840  2.1657 -0.2433
 9307SOL    HW239555   2.146   1.026   2.871  0.4257  0.2466 -3.3950
 9308SOL     OW39556   3.715   0.771  15.017  0.2955  0.3039 -0.0054
 9308SOL    HW139557   3.736   0.693  14.966  1.9499  0.3023  0.7059
 9308SOL    HW239558   3.702   0.830  14.942 -1.7336  0.7604  0.7133
 9309SOL     OW39559   3.653   0.337   9.503 -0.3200 -0.0088  0.1959
 9309SOL    HW139560   3.657   0.432   9.513  0.1970 -0.0453  0.3334
 9309SOL    HW239561   3.594   0.313   9.575 -0.0093  0.0184  0.4568
 9310SOL     OW39562   2.565   1.718   9.166 -0.4921  0.3535 -0.2552
 9310SOL    HW139563   2.577   1.779   9.094  0.4723  2.0485  1.3581
 9310SOL    HW239564   2.576   1.636   9.117  1.8739  0.5567 -0.0528
 9311SOL     OW39565   1.067   2.798   9.330 -0.6274  0.2335  0.0430
 9311SOL    HW139566   1.060   2.786   9.425 -0.8242 -1.7687 -0.2213
 9311SOL    HW239567   1.070   2.894   9.331 -0.4736  0.2152  1.6323
 9312SOL     OW39568   1.932   3.112   4.405 -0.1055 -0.1494  0.2907
 9312SOL    HW139569   1.956   3.147   4.491 -1.7627 -0.9349  1.0594
 9312SOL    HW239570   2.010   3.144   4.358 -0.3739  1.0387  0.6441
 9313SOL     OW39571   1.194   2.664   6.860 -0.2859  0.5127  0.0642
 9313SOL    HW139572   1.107   2.687   6.827  0.0098  0.2638 -0.8856
 9313SOL    HW239573   1.230   2.605   6.794  0.8675  2.5271 -1.1200
 9314SOL     OW39574   0.450   3.979   2.835  0.0002  0.0619  0.3843
 9314SOL    HW139575   0.406   3.938   2.760 -0.7523  1.3135  0.1417
 9314SOL    HW239576   0.447   3.902   2.892 -1.0227 -0.2171 -0.0489
 9315SOL     OW39577   4.570   0.870   3.455 -0.5380  0.2820  0.2203
 9315SOL    HW139578   4.551   0.785   3.494 -0.6913 -0.7261 -2.0675
 9315SOL    HW239579   4.512   0.916   3.516  1.4711 -0.8796  3.0036
 9316SOL     OW39580   3.049   4.475   5.917  0.4396  0.0555  0.8367
 9316SOL    HW139581   3.086   4.406   5.973 -2.5044  0.5308  3.4016
 9316SOL    HW239582   3.016   4.420   5.846 -1.4199  0.4781  1.3650
 9317SOL     OW39583   3.279   2.514   6.224  0.0138  0.1781 -0.1381
 9317SOL    HW139584   3.263   2.423   6.248  0.8379  0.0066 -0.2347
 9317SOL    HW239585   3.312   2.508   6.134  3.0645  0.9162  0.9155
 9318SOL     OW39586   1.615   2.855  17.234 -0.3343 -0.1476 -0.0276
 9318SOL    HW139587   1.592   2.801  17.158  1.1193 -1.6948  0.6266
 9318SOL    HW239588   1.562   2.813  17.301  3.3171 -0.6242  2.5599
 9319SOL     OW39589   2.810   1.962   2.788 -0.2306 -0.7664 -0.3246
 9319SOL    HW139590   2.739   1.965   2.724 -1.1114  4.8119  0.9654
 9319SOL    HW239591   2.807   1.867   2.802 -2.8158 -0.4864  1.0239
 9320SOL     OW39592   3.793   1.040   4.671 -0.3145 -0.1840  0.0619
 9320SOL    HW139593   3.773   1.072   4.583 -1.8623 -0.0517  0.4581
 9320SOL    HW239594   3.878   1.078   4.693 -0.5601  0.4581 -0.1087
 9321SOL     OW39595   1.464   4.196   3.474 -0.4131 -0.1839 -0.4107
 9321SOL    HW139596   1.540   4.253   3.481 -0.4070 -0.1351 -0.8538
 9321SOL    HW239597   1.509   4.122   3.514  1.1099  1.3250  0.6635
 9322SOL     OW39598   2.273   2.657  14.351 -0.1945  0.1005  0.0689
 9322SOL    HW139599   2.316   2.670  14.266 -0.4328 -1.9725 -0.3889
 9322SOL    HW239600   2.290   2.734  14.404 -0.3702  0.3708 -0.2721
 9323SOL     OW39601   1.977   1.635   2.854 -0.0997  0.4087 -0.3278
 9323SOL    HW139602   1.882   1.629   2.845  0.2199 -1.9912 -2.1397
 9323SOL    HW239603   2.003   1.544   2.866  1.1912  0.9608  1.0929
 9324SOL     OW39604   0.354   3.435  17.452  0.1976 -0.3051  0.1547
 9324SOL    HW139605   0.268   3.449  17.412 -0.1219  1.1565  1.3389
 9324SOL    HW239606   0.349   3.452  17.546 -0.2055  1.3685 -0.1749
 9325SOL     OW39607   4.158   4.674   1.485  0.5946  0.0312 -0.0599
 9325SOL    HW139608   4.155   4.579   1.494  3.8096 -0.0479  0.2415
 9325SOL    HW239609   4.144   4.688   1.392  2.0238  1.5984 -0.0437
 9326SOL     OW39610   2.638   0.605   4.423 -0.4616 -0.2160  0.2976
 9326SOL    HW139611   2.607   0.578   4.509 -1.5202 -0.1644 -0.0742
 9326SOL    HW239612   2.565   0.601   4.361 -2.1994 -1.2950  2.4332
 9327SOL     OW39613   1.433   2.393   8.321 -0.1615 -0.3788  0.4467
 9327SOL    HW139614   1.373   2.456   8.361 -0.8004 -0.2425 -0.7121
 9327SOL    HW239615   1.460   2.346   8.400  0.4948 -1.6834 -0.5443
 9328SOL     OW39616   1.933   2.127   9.084  0.6706  0.3451 -0.0147
 9328SOL    HW139617   2.027   2.140   9.097  0.4181  0.4783  1.7331
 9328SOL    HW239618   1.909   2.104   9.174 -0.6871  1.3359 -0.1141
 9329SOL     OW39619   0.003   1.119  13.236  0.4460 -0.0674  0.2252
 9329SOL    HW139620   0.091   1.138  13.203  0.7777  0.9887  1.7477
 9329SOL    HW239621   4.679   1.166  13.174  1.1383 -0.3544 -0.6352
 9330SOL     OW39622   2.802   1.924  12.948 -0.5329 -0.3008 -0.1621
 9330SOL    HW139623   2.714   1.926  12.985 -0.4514  3.2904 -0.1908
 9330SOL    HW239624   2.791   2.013  12.915 -2.6095 -0.0210  1.3451
 9331SOL     OW39625   1.325   4.332   8.828 -0.1308 -0.3547  0.4184
 9331SOL    HW139626   1.386   4.391   8.784 -0.9623  0.3899  0.2731
 9331SOL    HW239627   1.380   4.291   8.895 -1.6511  0.0277  1.9208
 9332SOL     OW39628   4.070   2.703   7.497 -0.0229 -0.1774  0.4745
 9332SOL    HW139629   4.132   2.646   7.453 -0.0479  0.7818 -0.8277
 9332SOL    HW239630   4.134   2.764   7.536  1.5974 -0.5382 -1.6248
 9333SOL     OW39631   3.429   0.021   3.719 -0.4594  0.5901 -0.1222
 9333SOL    HW139632   3.398   0.110   3.736  1.5037  0.9368  1.5300
 9333SOL    HW239633   3.371   0.005   3.644 -0.1470 -2.2065  0.2071
 9334SOL     OW39634   3.803   0.746   1.599 -0.2276  0.0728  0.3428
 9334SOL    HW139635   3.750   0.818   1.634  1.1541  2.3139 -2.1755
 9334SOL    HW239636   3.739   0.696   1.548  1.5952 -1.5318 -0.3959
 9335SOL     OW39637   4.513   0.623   4.284 -0.0386 -0.8238 -0.1785
 9335SOL    HW139638   4.579   0.642   4.351 -0.9954  0.5064  0.3801
 9335SOL    HW239639   4.469   0.707   4.270  0.8142 -0.2485  0.5825
 9336SOL     OW39640   2.605   2.592  16.094 -0.0959  0.0182 -0.2513
 9336SOL    HW139641   2.661   2.528  16.138 -0.6776 -0.6890 -0.5381
 9336SOL    HW239642   2.578   2.539  16.019 -0.4429  2.0919 -1.5854
 9337SOL     OW39643   3.884   4.220   5.330  0.2116 -0.0403 -0.3218
 9337SOL    HW139644   3.901   4.310   5.356 -1.7500  0.0428  0.6600
 9337SOL    HW239645   3.835   4.234   5.249 -0.4187 -0.0280  0.0650
 9338SOL     OW39646   2.104   0.554   2.414 -0.0776 -0.6790  0.0867
 9338SOL    HW139647   2.176   0.597   2.460 -1.8492  0.8693  1.4582
 9338SOL    HW239648   2.146   0.519   2.336  0.5099 -0.5672  0.3523
 9339SOL     OW39649   2.662   0.262   0.806 -0.1710 -0.3131 -0.1685
 9339SOL    HW139650   2.654   0.278   0.900 -1.6215  2.1607 -0.7171
 9339SOL    HW239651   2.756   0.248   0.812 -0.1575 -0.0038  0.2828
 9340SOL     OW39652   1.471   4.649   9.447  0.0795 -0.2367 -0.1978
 9340SOL    HW139653   1.495   4.625   9.357  0.9711 -1.0467  0.2715
 9340SOL    HW239654   1.497   0.008   9.435 -0.2821 -0.0369  0.5856
 9341SOL     OW39655   3.673   3.208   6.731  0.0219  0.2652  0.1082
 9341SOL    HW139656   3.742   3.145   6.754 -0.8228 -1.2087 -1.3977
 9341SOL    HW239657   3.730   3.269   6.683 -2.0157  0.8755 -1.5379
 9342SOL     OW39658   1.148   0.181  12.347  0.2616  0.2402 -0.4772
 9342SOL    HW139659   1.236   0.218  12.339  0.0496  0.7506 -0.4494
 9342SOL    HW239660   1.174   0.094  12.378 -0.2239  0.5020  0.6930
 9343SOL     OW39661   0.856   0.640   4.257 -0.1370  0.5907 -0.0818
 9343SOL    HW139662   0.928   0.577   4.268 -0.1715 -0.0549 -3.7519
 9343SOL    HW239663   0.862   0.651   4.163 -1.0586 -2.1319 -0.4597
 9344SOL     OW39664   0.808   0.612   4.950 -0.1196  0.3459 -0.0484
 9344SOL    HW139665   0.845   0.530   4.981  0.6176  0.5902 -0.2884
 9344SOL    HW239666   0.858   0.639   4.873 -2.7326  2.1777 -1.0991
 9345SOL     OW39667   2.681   1.778  10.247 -0.4538 -0.4471 -0.0692
 9345SOL    HW139668   2.611   1.716  10.267 -0.1920 -0.6235  0.2912
 9345SOL    HW239669   2.764   1.735  10.268 -0.8702 -1.3873 -0.3718
 9346SOL     OW39670   4.084   1.092   4.699  0.3414  0.0928  0.0536
 9346SOL    HW139671   4.045   1.113   4.784  0.7284 -1.4290  0.6021
 9346SOL    HW239672   4.137   1.172   4.693  0.2446  0.0502 -1.4772
 9347SOL     OW39673   4.270   4.197   9.069 -0.4968 -0.7206 -0.1551
 9347SOL    HW139674   4.312   4.228   8.989  1.3314 -2.1012  0.2547
 9347SOL    HW239675   4.211   4.267   9.095  0.0579 -0.6920  1.0179
 9348SOL     OW39676   0.163   4.201   3.034 -0.1873 -1.0776  0.2834
 9348SOL    HW139677   0.235   4.200   2.971  0.8758 -1.8097  1.5020
 9348SOL    HW239678   0.210   4.221   3.115 -1.3463 -1.1603  0.9752
 9349SOL     OW39679   0.100   2.512  13.273 -0.3546  0.4822  0.6334
 9349SOL    HW139680   0.039   2.514  13.347 -0.0579 -0.5735  0.9057
 9349SOL    HW239681   0.123   2.605  13.275 -1.8342  0.8777 -1.1816
 9350SOL     OW39682   0.634   1.088   7.070  0.3389 -0.1064  0.5001
 9350SOL    HW139683   0.635   1.104   7.164  3.0730  0.9037  0.2856
 9350SOL    HW239684   0.725   1.112   7.055 -0.1441  1.7457  0.5345
 9351SOL     OW39685   0.467   4.025  12.345 -0.2690 -0.5250 -0.2830
 9351SOL    HW139686   0.466   4.103  12.290 -0.2762  0.6186  1.3567
 9351SOL    HW239687   0.553   4.010  12.382 -0.2965  0.0130 -0.0087
 9352SOL     OW39688   1.600   3.971   3.611 -0.2495 -0.3622  0.2472
 9352SOL    HW139689   1.685   3.929   3.604 -0.6081 -0.8965 -1.0801
 9352SOL    HW239690   1.531   3.904   3.602 -0.3038 -0.0892 -1.4283
 9353SOL     OW39691   2.002   1.136  16.027  0.1696  0.0433 -0.2107
 9353SOL    HW139692   1.966   1.213  16.070  1.0221  1.6363 -2.3382
 9353SOL    HW239693   2.007   1.170  15.938  1.5127 -1.0342 -0.5555
 9354SOL     OW39694   0.178   4.459   1.810  0.4243 -0.0232 -0.1670
 9354SOL    HW139695   0.135   4.436   1.727  0.6151  1.0982 -0.5802
 9354SOL    HW239696   0.140   4.544   1.830  0.0733 -0.3586  0.6030
 9355SOL     OW39697   4.219   1.976   6.562  0.3246 -0.1347  0.5731
 9355SOL    HW139698   4.124   1.986   6.555  0.1875 -2.1664 -0.4653
 9355SOL    HW239699   4.260   1.992   6.477 -0.2067  1.4772  0.6179
 9356SOL     OW39700   0.101   4.324   8.228  0.2607 -0.0746 -0.1137
 9356SOL    HW139701   0.174   4.297   8.173  1.2363  2.4524 -0.0927
 9356SOL    HW239702   0.034   4.257   8.219 -0.8284  0.9649  0.1983
 9357SOL     OW39703   3.751   2.965   3.374  0.0621 -0.0352 -0.5225
 9357SOL    HW139704   3.798   3.048   3.388  3.1517 -2.0926  1.2831
 9357SOL    HW239705   3.694   2.988   3.301 -2.2054 -1.3607  0.8095
 9358SOL     OW39706   3.875   4.276   2.898  0.1915  0.5998 -0.3037
 9358SOL    HW139707   3.914   4.207   2.845  1.0617 -1.2092  2.6868
 9358SOL    HW239708   3.890   4.355   2.847  0.1712  0.7879 -0.0159
 9359SOL     OW39709   3.524   4.424   3.971  0.0498  0.0345  0.3886
 9359SOL    HW139710   3.487   4.337   3.989 -0.1185 -0.1492 -0.8155
 9359SOL    HW239711   3.490   4.481   4.039  0.8579  0.5749  0.3372
 9360SOL     OW39712   1.068   4.228   8.462 -0.1113 -0.2309 -0.4138
 9360SOL    HW139713   1.049   4.226   8.555  0.3218  0.8421 -0.3033
 9360SOL    HW239714   1.143   4.170   8.454 -0.1666 -0.3224 -0.2665
 9361SOL     OW39715   2.815   4.683   8.086  0.3204  0.3115 -0.0493
 9361SOL    HW139716   2.779   4.640   8.164 -0.9985  0.4448 -0.5854
 9361SOL    HW239717   2.851   0.030   8.125  1.5534 -0.0634 -0.3927
 9362SOL     OW39718   3.337   2.490   5.969  0.7616 -0.0834  0.0426
 9362SOL    HW139719   3.309   2.399   5.971  0.6427 -0.0528 -0.1244
 9362SOL    HW239720   3.296   2.507   5.884  0.1315 -0.9083  0.1911
 9363SOL     OW39721   0.789   2.687   9.386  0.2290 -0.1940 -0.1474
 9363SOL    HW139722   0.883   2.687   9.370  0.3903  1.1689  0.8080
 9363SOL    HW239723   0.775   2.609   9.440  0.6493 -0.9462 -1.1264
 9364SOL     OW39724   3.538   4.181  13.416 -0.0189 -0.4254  0.1614
 9364SOL    HW139725   3.531   4.228  13.500  0.9584 -1.3132  0.7492
 9364SOL    HW239726   3.529   4.258  13.360  1.4223  0.3087  0.9408
 9365SOL     OW39727   1.143   4.052  11.332 -0.6433 -0.0691 -0.5403
 9365SOL    HW139728   1.052   4.023  11.338 -0.5306 -0.4458 -0.6690
 9365SOL    HW239729   1.167   4.016  11.247 -3.2286 -0.2818 -1.1765
 9366SOL     OW39730   0.317   1.604  13.027 -0.3085  0.8841 -0.1942
 9366SOL    HW139731   0.304   1.582  13.120  0.6077 -2.6729 -0.9015
 9366SOL    HW239732   0.234   1.578  12.986 -0.1507  1.6462 -0.9818
 9367SOL     OW39733   3.466   2.845   0.157  0.6865 -0.7160  0.0564
 9367SOL    HW139734   3.390   2.824   0.103  2.6680  1.1166 -3.4607
 9367SOL    HW239735   3.435   2.847   0.248  0.0962  3.0974 -0.2322
 9368SOL     OW39736   0.336   2.168   7.355 -0.6270 -0.4295 -0.0163
 9368SOL    HW139737   0.424   2.193   7.328  0.0140 -1.8097  0.8396
 9368SOL    HW239738   0.348   2.080   7.390 -0.5237 -1.3818 -2.4230
 9369SOL     OW39739   3.746   0.439   3.518  0.5111 -0.3731  0.4664
 9369SOL    HW139740   3.681   0.501   3.483  0.9955 -1.4069 -2.2965
 9369SOL    HW239741   3.687   0.376   3.558  0.7986 -0.7940  0.2348
 9370SOL     OW39742   2.025   1.472   4.362 -0.1782 -0.3969  0.5855
 9370SOL    HW139743   1.976   1.445   4.439  1.8488  0.1249  2.0365
 9370SOL    HW239744   2.022   1.386   4.319 -1.5016  0.1345 -0.4116
 9371SOL     OW39745   2.964   0.206   4.859  0.7390  0.5383  0.0943
 9371SOL    HW139746   2.984   0.297   4.836 -1.5601  0.6806 -1.3218
 9371SOL    HW239747   2.937   0.179   4.771  0.6099  1.0522 -0.0238
 9372SOL     OW39748   3.225   4.563  16.301 -0.5401 -0.3369 -0.0585
 9372SOL    HW139749   3.141   4.544  16.258 -1.6137  0.4193  1.6927
 9372SOL    HW239750   3.208   4.633  16.364 -0.7224 -0.7058  0.3022
 9373SOL     OW39751   4.136   3.388   5.488  0.0910 -0.3113  0.5274
 9373SOL    HW139752   4.197   3.436   5.544  0.2285  1.5158 -1.1728
 9373SOL    HW239753   4.135   3.436   5.405  0.7447 -0.6429  0.3257
 9374SOL     OW39754   4.056   2.454   1.735  0.1044 -0.4842 -0.3347
 9374SOL    HW139755   3.964   2.427   1.727 -0.3266 -0.0936  3.1443
 9374SOL    HW239756   4.072   2.476   1.643  1.8408 -0.6559 -0.0678
 9375SOL     OW39757   4.445   0.794   6.887 -0.2470  0.8724 -0.4586
 9375SOL    HW139758   4.386   0.863   6.856 -1.0021  0.8908  1.0321
 9375SOL    HW239759   4.508   0.841   6.942 -0.7852 -1.2575  1.9833
 9376SOL     OW39760   2.699   2.316   7.726 -0.2974  0.6562  0.1343
 9376SOL    HW139761   2.721   2.353   7.811  1.6280 -0.4781  0.1188
 9376SOL    HW239762   2.777   2.314   7.670 -0.5503 -0.1245 -0.1982
 9377SOL     OW39763   2.362   1.384   5.486 -0.2082 -0.5466 -0.0030
 9377SOL    HW139764   2.448   1.343   5.486  0.2103  0.3281  0.7655
 9377SOL    HW239765   2.338   1.384   5.578  0.2416  1.0495  0.1073
 9378SOL     OW39766   1.318   0.610  11.109  0.2043 -0.5417  0.4756
 9378SOL    HW139767   1.233   0.653  11.125  0.5965 -0.5142  2.5075
 9378SOL    HW239768   1.338   0.588  11.200 -0.2654 -0.8665  0.4994
 9379SOL     OW39769   0.936   2.667   1.844 -0.0895 -0.1726  0.2962
 9379SOL    HW139770   0.987   2.678   1.924 -0.1204 -0.8101  0.4017
 9379SOL    HW239771   0.855   2.714   1.860  0.7249  1.0431  0.8480
 9380SOL     OW39772   1.721   1.572   3.386 -0.3396 -0.3705  0.5586
 9380SOL    HW139773   1.774   1.541   3.313 -0.0903 -0.9096  0.9690
 9380SOL    HW239774   1.770   1.528   3.456  0.5088 -1.0628 -0.4639
 9381SOL     OW39775   3.443   0.586   2.006 -0.2413 -1.1077  0.2303
 9381SOL    HW139776   3.484   0.615   2.088  3.6578 -2.1005 -1.3913
 9381SOL    HW239777   3.514   0.590   1.942 -1.6404 -0.0895 -1.2314
 9382SOL     OW39778   0.432   0.988   4.780  0.2566 -1.0367 -0.1105
 9382SOL    HW139779   0.395   0.940   4.706 -1.4984 -1.5774  1.1368
 9382SOL    HW239780   0.365   0.970   4.846 -1.4505 -0.4943 -1.6989
 9383SOL     OW39781   3.239   1.503   9.458  0.3928 -0.4341 -0.0262
 9383SOL    HW139782   3.231   1.442   9.384  0.1951 -2.2553  1.4993
 9383SOL    HW239783   3.325   1.480   9.492  0.2376 -1.9027 -0.6473
 9384SOL     OW39784   0.806   2.096  16.398  0.5520 -0.3101 -0.1774
 9384SOL    HW139785   0.817   2.005  16.423 -1.7158 -0.8237 -0.9864
 9384SOL    HW239786   0.789   2.074  16.306 -2.8554  1.2363  0.0706
 9385SOL     OW39787   0.737   0.809   2.974 -0.0480 -0.3630  0.4500
 9385SOL    HW139788   0.756   0.899   2.947 -1.0097 -0.8097 -1.7552
 9385SOL    HW239789   0.759   0.804   3.067  0.4052 -1.2551  0.2941
 9386SOL     OW39790   1.434   1.652   5.977  0.4014 -0.1794  0.8825
 9386SOL    HW139791   1.346   1.662   6.014  0.1024  2.0604 -0.4399
 9386SOL    HW239792   1.414   1.639   5.885 -3.6579 -1.1212  1.9063
 9387SOL     OW39793   2.136   0.237   7.070 -0.7094  0.2677  0.4804
 9387SOL    HW139794   2.150   0.143   7.085  1.1246  0.2610 -1.2923
 9387SOL    HW239795   2.178   0.286   7.141  1.0718 -0.6263  0.0512
 9388SOL     OW39796   4.676   3.980  11.310  0.0911 -0.5385 -0.3144
 9388SOL    HW139797   0.030   3.940  11.315  0.0596 -0.6772 -0.8139
 9388SOL    HW239798   4.701   4.042  11.242  1.7402  0.7779  1.4921
 9389SOL     OW39799   3.972   2.148   0.976 -0.4092  0.4754  0.5834
 9389SOL    HW139800   3.939   2.059   0.962 -1.2484  0.7545  0.7630
 9389SOL    HW239801   3.932   2.163   1.062 -0.6034 -0.7684  0.7055
 9390SOL     OW39802   0.984   4.229   3.023 -0.4214 -0.1822 -0.7940
 9390SOL    HW139803   0.965   4.224   2.930 -0.4223 -0.2516 -0.7903
 9390SOL    HW239804   1.067   4.182   3.026 -0.5139 -0.2885  0.3117
 9391SOL     OW39805   3.552   0.438   2.580  0.2499  0.0842 -0.0822
 9391SOL    HW139806   3.547   0.422   2.674 -0.2987  2.3435  0.2852
 9391SOL    HW239807   3.582   0.353   2.549  4.0147  1.3626 -0.0217
 9392SOL     OW39808   2.902   3.102  17.369  0.4148 -0.3048  0.2648
 9392SOL    HW139809   2.874   3.193  17.361  3.5003  0.5960 -0.4796
 9392SOL    HW239810   2.997   3.111  17.362  0.5471 -1.2902  0.7220
 9393SOL     OW39811   0.987   1.817   4.780 -0.1736 -0.2481  0.1901
 9393SOL    HW139812   0.912   1.853   4.829  0.1947 -0.5154  0.9557
 9393SOL    HW239813   1.022   1.756   4.845 -1.2591 -2.1555 -1.0472
 9394SOL     OW39814   0.529   3.638  12.699  0.0093 -0.1224 -0.2062
 9394SOL    HW139815   0.476   3.683  12.765 -1.4936 -2.9843  0.5433
 9394SOL    HW239816   0.512   3.544  12.712  0.6543 -0.1131  0.6742
 9395SOL     OW39817   0.828   4.276   1.361 -0.0365  0.1208 -0.5323
 9395SOL    HW139818   0.735   4.296   1.354 -0.3172 -0.2726  2.0432
 9395SOL    HW239819   0.839   4.234   1.446  0.8412  0.7824 -0.3247
 9396SOL     OW39820   4.099   1.642   8.867  0.1290  0.4953 -0.0373
 9396SOL    HW139821   4.107   1.615   8.775 -0.8101  1.3042 -0.3568
 9396SOL    HW239822   4.031   1.578   8.887  0.1834  0.7416  0.9016
 9397SOL     OW39823   4.353   1.785   0.767 -0.4096 -0.5557 -0.2697
 9397SOL    HW139824   4.389   1.810   0.853  1.1365  2.1252 -1.7100
 9397SOL    HW239825   4.414   1.833   0.711  1.0794  2.1425  3.5826
 9398SOL     OW39826   3.469   4.525  16.191  0.1327 -0.5687 -0.6370
 9398SOL    HW139827   3.440   4.436  16.214  1.5064 -1.3579 -1.9727
 9398SOL    HW239828   3.385   4.569  16.208 -0.3815 -2.1443  0.9153
 9399SOL     OW39829   2.588   1.342   3.386 -0.0209  0.4215 -0.0153
 9399SOL    HW139830   2.515   1.377   3.436  0.0518  0.1052  0.3169
 9399SOL    HW239831   2.547   1.265   3.346 -0.3195  0.7623 -0.3560
 9400SOL     OW39832   2.604   2.044   4.986 -0.1580 -0.4433  0.6841
 9400SOL    HW139833   2.687   2.044   5.034 -0.5001 -1.3704  1.2623
 9400SOL    HW239834   2.609   2.134   4.953 -2.4937 -0.4940  0.2090
 9401SOL     OW39835   3.183   2.683   4.142  0.3672  0.3203  0.4329
 9401SOL    HW139836   3.108   2.692   4.082  1.4293 -3.0057 -1.3595
 9401SOL    HW239837   3.164   2.752   4.205  0.5815  0.3324  0.4833
 9402SOL     OW39838   3.236   4.144  10.580  1.0766  0.4410 -0.5951
 9402SOL    HW139839   3.223   4.224  10.630  0.7701 -0.4437  0.7386
 9402SOL    HW239840   3.296   4.187  10.518 -0.6851 -0.1823 -2.7037
 9403SOL     OW39841   0.889   1.689   0.734 -0.2463 -0.1363 -0.2019
 9403SOL    HW139842   0.853   1.718   0.818  0.3822  3.6045 -1.2616
 9403SOL    HW239843   0.972   1.652   0.765 -0.0466  0.5077  0.0271
 9404SOL     OW39844   0.193   3.010   1.868 -0.3789 -0.1205 -0.2640
 9404SOL    HW139845   0.185   3.071   1.941 -0.6032 -0.7196  0.2079
 9404SOL    HW239846   0.188   3.074   1.797  2.8989  0.1621 -0.2312
 9405SOL     OW39847   0.336   3.405   1.319  0.3089 -0.0574 -0.4963
 9405SOL    HW139848   0.282   3.461   1.264  0.2690  0.8195  0.4309
 9405SOL    HW239849   0.395   3.464   1.367 -0.5047  0.9998 -0.7877
 9406SOL     OW39850   0.429   0.776   9.382  0.4315 -0.4856  0.3430
 9406SOL    HW139851   0.519   0.754   9.406  0.7430  0.6010  0.1299
 9406SOL    HW239852   0.400   0.808   9.468  1.6728 -0.2566  0.6709
 9407SOL     OW39853   1.706   3.910   5.006 -0.0525 -0.2655  0.3394
 9407SOL    HW139854   1.780   3.861   4.971  1.2027  1.1561  0.9967
 9407SOL    HW239855   1.652   3.835   5.032 -2.2310  1.9047  2.1218
 9408SOL     OW39856   2.577   0.291  17.617 -0.2322  0.0538 -0.2121
 9408SOL    HW139857   2.584   0.221  17.681  1.3166  0.5818  0.2051
 9408SOL    HW239858   2.667   0.292  17.585  0.2012 -0.2891  1.0047
 9409SOL     OW39859   2.973   1.226   9.733 -0.6441  0.6748  0.0550
 9409SOL    HW139860   2.990   1.179   9.815  0.0321 -1.5950 -1.3799
 9409SOL    HW239861   2.981   1.156   9.669  0.6339  3.6826 -3.0955
 9410SOL     OW39862   2.539   1.306  10.049  0.5231  0.4906 -0.1073
 9410SOL    HW139863   2.606   1.265   9.994  0.1410 -0.1029 -0.1176
 9410SOL    HW239864   2.472   1.330   9.985 -1.2445  1.1385  1.9819
 9411SOL     OW39865   2.791   4.690   6.113 -0.4030 -0.0712 -0.0793
 9411SOL    HW139866   2.813   4.715   6.203 -1.9696 -2.0207  0.8572
 9411SOL    HW239867   2.718   4.633   6.136  0.7299 -0.5990  2.2717
 9412SOL     OW39868   1.145   0.003   3.544  0.1160 -0.3091  0.3071
 9412SOL    HW139869   1.093   0.069   3.589 -0.4042 -1.2048  1.0264
 9412SOL    HW239870   1.218   4.715   3.604  0.1640 -0.9204  0.0472
 9413SOL     OW39871   3.989   2.361  14.122  0.1407  0.4761 -0.1685
 9413SOL    HW139872   3.934   2.289  14.152 -1.0230  1.4206 -0.0617
 9413SOL    HW239873   4.024   2.318  14.044  1.0472  0.3767  0.2867
 9414SOL     OW39874   3.396   1.415  12.278  0.4461 -0.0449 -0.5550
 9414SOL    HW139875   3.361   1.355  12.213 -0.7857  1.1634 -0.9912
 9414SOL    HW239876   3.431   1.481  12.218  1.2336  1.5450  1.6448
 9415SOL     OW39877   1.864   1.377   6.089 -1.1692  0.2711 -0.4179
 9415SOL    HW139878   1.840   1.421   6.007 -1.6904 -1.3721 -1.1554
 9415SOL    HW239879   1.839   1.285   6.082 -0.3525 -0.0194  0.5119
 9416SOL     OW39880   0.010   1.227   0.488 -0.1614  0.5184  0.2029
 9416SOL    HW139881   4.689   1.304   0.508 -1.7124 -0.3833 -0.4304
 9416SOL    HW239882   0.079   1.230   0.554 -0.9015  2.1387  0.9032
 9417SOL     OW39883   2.418   0.208   7.999 -0.1451  0.3391  0.0667
 9417SOL    HW139884   2.342   0.228   8.053  0.2290 -0.5344  0.9192
 9417SOL    HW239885   2.481   0.198   8.070  0.2126  2.5726  0.0580
 9418SOL     OW39886   3.607   0.934  12.011  0.2999  0.1524 -0.4213
 9418SOL    HW139887   3.633   0.911  12.100  2.1476 -2.0145 -1.5066
 9418SOL    HW239888   3.679   0.994  11.993 -0.6292  1.1618 -0.7838
 9419SOL     OW39889   2.778   0.028   0.290  0.0365  0.3659  0.1148
 9419SOL    HW139890   2.872   0.039   0.307 -0.0616 -1.3737  1.8342
 9419SOL    HW239891   2.748   0.078   0.366  0.6697  0.4775  0.2926
 9420SOL     OW39892   2.409   2.192   4.015 -1.0756 -0.6854 -0.5130
 9420SOL    HW139893   2.468   2.228   3.948 -1.1052  0.1456 -0.0942
 9420SOL    HW239894   2.325   2.206   3.971 -0.2800  1.9372 -1.2336
 9421SOL     OW39895   1.903   4.283   6.454  0.0776 -0.0147 -0.5564
 9421SOL    HW139896   1.912   4.315   6.543  0.8913 -0.2070 -0.5617
 9421SOL    HW239897   1.832   4.219   6.456  0.8551 -0.8657  0.1935
 9422SOL     OW39898   2.017   2.611  15.219  0.2689 -0.5323 -0.3839
 9422SOL    HW139899   1.933   2.645  15.250  0.1306 -1.1153 -0.1263
 9422SOL    HW239900   2.000   2.518  15.233 -0.7154  0.1519  2.9205
 9423SOL     OW39901   0.271   4.145   8.113 -0.0185 -0.2290  0.1585
 9423SOL    HW139902   0.260   4.113   8.023  0.5233  2.0507 -0.7356
 9423SOL    HW239903   0.231   4.076   8.166 -1.2713  1.7764  1.8339
 9424SOL     OW39904   2.472   2.916   4.882  0.0135 -0.2233  0.3086
 9424SOL    HW139905   2.465   2.914   4.786 -1.1544 -1.8451  0.4297
 9424SOL    HW239906   2.399   2.969   4.912  0.0687  0.0488 -0.0464
 9425SOL     OW39907   0.734   0.512  14.590  0.0419 -0.8600  0.6709
 9425SOL    HW139908   0.807   0.538  14.535 -2.0897 -2.3453 -2.8550
 9425SOL    HW239909   0.665   0.499  14.525  0.3793  0.4703  0.0534
 9426SOL     OW39910   4.303   0.810   8.719 -0.1240  0.0056 -0.1323
 9426SOL    HW139911   4.250   0.761   8.656 -1.1192  0.8858  0.0090
 9426SOL    HW239912   4.370   0.848   8.661  0.5358 -0.1959  0.5076
 9427SOL     OW39913   3.483   1.784   7.996 -0.0390 -0.0626  0.4900
 9427SOL    HW139914   3.405   1.748   7.955 -0.5838 -1.1198  2.4431
 9427SOL    HW239915   3.469   1.877   7.977  0.4777  0.3648  2.2173
 9428SOL     OW39916   2.715   1.999   5.928  0.0986 -0.2811  0.4807
 9428SOL    HW139917   2.764   1.953   5.996  2.4798  0.6736 -0.5855
 9428SOL    HW239918   2.689   2.085   5.962 -1.8978 -0.4555 -0.5604
 9429SOL     OW39919   3.297   4.163   5.906 -0.0289 -0.1228  0.6891
 9429SOL    HW139920   3.353   4.211   5.845 -0.1944  0.9269  1.3660
 9429SOL    HW239921   3.340   4.079   5.893  0.5151  0.1896  0.4621
 9430SOL     OW39922   0.079   0.371  16.339 -0.4967  0.0334  0.0911
 9430SOL    HW139923   0.151   0.347  16.280 -0.1743  1.9115 -0.2665
 9430SOL    HW239924   0.014   0.391  16.272  0.9695  2.4774 -0.5819
 9431SOL     OW39925   2.564   0.686  10.581 -0.0205 -0.0435 -0.2678
 9431SOL    HW139926   2.621   0.724  10.515  0.8565 -0.1032  0.4599
 9431SOL    HW239927   2.601   0.599  10.566  1.8255  0.8014 -0.6522
 9432SOL     OW39928   2.936   1.089   3.230  0.1241  0.4097  0.0346
 9432SOL    HW139929   2.845   1.097   3.257  0.4317  1.9814  0.6484
 9432SOL    HW239930   2.917   1.017   3.171  0.8811  0.2948 -0.0758
 9433SOL     OW39931   3.560   0.512  14.512  0.2611 -0.4829  0.1363
 9433SOL    HW139932   3.636   0.461  14.485 -0.6200 -0.5344 -2.2509
 9433SOL    HW239933   3.573   0.513  14.607  2.5767 -0.0747 -0.1942
 9434SOL     OW39934   4.656   0.185  12.349 -0.9063  0.8038 -0.7125
 9434SOL    HW139935   4.631   0.111  12.293  0.5658 -0.1635 -0.0886
 9434SOL    HW239936   0.002   0.216  12.304 -0.5711  0.8764 -0.0783
 9435SOL     OW39937   0.262   3.115   4.962 -0.2770  0.7939  0.4147
 9435SOL    HW139938   0.291   3.031   4.998 -0.5078 -0.6509 -2.7742
 9435SOL    HW239939   0.226   3.155   5.041  0.6132 -0.5982  1.5104
 9436SOL     OW39940   3.409   3.558   7.861 -0.5645  0.4071 -0.0844
 9436SOL    HW139941   3.474   3.626   7.841  1.2359 -1.0366  0.8779
 9436SOL    HW239942   3.326   3.602   7.878 -0.5207  0.5402 -0.2092
 9437SOL     OW39943   2.353   0.889  11.039  0.5324 -0.2957 -0.7150
 9437SOL    HW139944   2.333   0.954  11.107  0.8311 -1.6824  0.6919
 9437SOL    HW239945   2.448   0.902  11.035  0.2965  1.4779 -0.6924
 9438SOL     OW39946   1.360   3.899   5.783  0.1362  0.0976 -0.1369
 9438SOL    HW139947   1.293   3.963   5.808 -0.2960  0.1110 -1.3588
 9438SOL    HW239948   1.336   3.835   5.851 -0.9252  1.1586  0.4834
 9439SOL     OW39949   4.253   0.838   5.808  0.6684  0.6127  0.0694
 9439SOL    HW139950   4.210   0.755   5.824 -1.7644  1.9463  0.4906
 9439SOL    HW239951   4.198   0.881   5.742 -3.4228  1.4602  4.0333
 9440SOL     OW39952   1.093   2.993  12.653  0.2746  0.9143  0.5099
 9440SOL    HW139953   1.019   2.943  12.619 -0.4084  3.5321 -1.8703
 9440SOL    HW239954   1.056   3.078  12.676  1.0680  2.0896 -2.5264
 9441SOL     OW39955   0.900   3.780  17.294  0.3494  0.8369  0.0107
 9441SOL    HW139956   0.981   3.765  17.246 -0.2393  0.3688 -0.8429
 9441SOL    HW239957   0.909   3.872  17.317  0.3561  0.8663 -0.1089
 9442SOL     OW39958   1.352   4.602   9.026  0.1706  0.2595 -0.3424
 9442SOL    HW139959   1.302   4.667   9.077  2.0400  2.3225 -1.1225
 9442SOL    HW239960   1.287   4.535   9.004  0.2879  0.6764 -1.9860
 9443SOL     OW39961   4.330   2.382  10.718  0.5596 -0.3748 -0.0653
 9443SOL    HW139962   4.267   2.446  10.685  1.0361  0.8436  1.3982
 9443SOL    HW239963   4.410   2.432  10.698 -1.4546  2.8217 -0.1182
 9444SOL     OW39964   0.488   1.977   5.737 -0.8629  0.0825 -0.3940
 9444SOL    HW139965   0.535   1.914   5.681 -2.7934 -2.0227  0.3431
 9444SOL    HW239966   0.483   1.930   5.821 -1.4171 -2.5260 -1.8962
 9445SOL     OW39967   2.766   3.765   3.817  0.3463 -0.4106  0.4391
 9445SOL    HW139968   2.782   3.740   3.908 -1.2846  0.0425  0.8523
 9445SOL    HW239969   2.844   3.738   3.769 -0.7966 -0.7998 -1.1762
 9446SOL     OW39970   3.072   4.598   8.262  0.0954  0.5298 -0.2010
 9446SOL    HW139971   3.161   4.579   8.290 -0.3867  0.4529  1.2756
 9446SOL    HW239972   3.090   4.664   8.196 -2.1859  0.0238 -1.3379
 9447SOL     OW39973   0.868   2.724   1.574  0.3878 -0.0091  0.5029
 9447SOL    HW139974   0.957   2.727   1.540 -0.2382 -0.3160 -1.1448
 9447SOL    HW239975   0.894   2.695   1.661  0.8121 -1.4932 -0.1281
 9448SOL     OW39976   3.842   1.581   3.454 -0.2933 -0.3173 -0.0328
 9448SOL    HW139977   3.925   1.623   3.434 -0.9632 -0.0612 -2.3136
 9448SOL    HW239978   3.787   1.658   3.467  0.0999 -0.1621  0.7041
 9449SOL     OW39979   1.530   0.405   5.011 -0.1881 -0.2014 -0.2582
 9449SOL    HW139980   1.535   0.429   5.104 -1.8173 -0.3336 -0.1462
 9449SOL    HW239981   1.473   0.471   4.972 -1.0140 -0.1894  0.9510
 9450SOL     OW39982   0.472   0.819   9.661  0.2166 -0.0691  0.0953
 9450SOL    HW139983   0.404   0.841   9.725 -1.6691 -1.7718 -1.3232
 9450SOL    HW239984   0.508   0.739   9.699 -2.2691 -1.1679  0.1104
 9451SOL     OW39985   0.522   2.014   2.914 -0.9448  0.2796 -0.0018
 9451SOL    HW139986   0.571   2.014   2.832  0.2465  1.2371  0.7160
 9451SOL    HW239987   0.586   1.968   2.968 -0.6806 -0.9809 -1.3939
 9452SOL     OW39988   0.720   0.240   8.208  0.4862  0.0973  0.3644
 9452SOL    HW139989   0.811   0.265   8.189  0.0499  1.5688  0.1979
 9452SOL    HW239990   0.683   0.321   8.243  0.1997 -0.0409  0.3775
 9453SOL     OW39991   1.602   4.224   7.779 -0.6689 -0.2008 -0.3699
 9453SOL    HW139992   1.626   4.279   7.705  3.5137 -0.5245  0.7456
 9453SOL    HW239993   1.568   4.140   7.749  2.4157 -1.3470 -0.7019
 9454SOL     OW39994   2.461   1.704   8.850 -0.0200 -0.2261 -0.1526
 9454SOL    HW139995   2.408   1.653   8.911  0.1557  0.5494  0.6503
 9454SOL    HW239996   2.497   1.779   8.898  1.1947 -0.0749 -1.3079
 9455SOL     OW39997   1.840   0.359   5.057  0.4279  0.2309  0.5363
 9455SOL    HW139998   1.775   0.356   5.127  1.6935  0.3644  1.7397
 9455SOL    HW239999   1.792   0.423   5.004 -0.7423 -0.3241  0.9252
 9456SOL     OW40000   0.379   0.601   3.896 -0.1162  0.1113  0.0068
 9456SOL    HW140001   0.388   0.588   3.990  1.2349 -2.6586 -0.5354
 9456SOL    HW240002   0.296   0.649   3.903  1.1459  1.8560  2.8717
 9457SOL     OW40003   4.199   3.744  16.180 -0.0811  0.2113  0.5633
 9457SOL    HW140004   4.261   3.810  16.212  1.0453 -1.0102  0.8952
 9457SOL    HW240005   4.133   3.789  16.127  0.8497 -0.8595 -1.4821
 9458SOL     OW40006   0.572   4.291  12.597 -0.4383 -0.1854  0.6341
 9458SOL    HW140007   0.507   4.233  12.638 -0.3404  1.3275  2.9315
 9458SOL    HW240008   0.640   4.280  12.664  1.0945 -0.0411 -0.8980
 9459SOL     OW40009   3.741   1.768   9.640 -0.0642  0.1920  0.3226
 9459SOL    HW140010   3.809   1.712   9.604 -0.9358 -0.8355  0.2627
 9459SOL    HW240011   3.688   1.704   9.688 -0.4730 -0.2263 -0.6856
 9460SOL     OW40012   0.740   1.194  12.100  0.1864  0.1695  0.3806
 9460SOL    HW140013   0.778   1.228  12.181 -2.4842  0.0844  1.6698
 9460SOL    HW240014   0.702   1.113  12.134 -2.4454  1.4377  0.4512
 9461SOL     OW40015   3.125   2.753   5.720 -0.0063 -0.1197  0.3682
 9461SOL    HW140016   3.051   2.752   5.660 -0.0823  0.2010  0.4537
 9461SOL    HW240017   3.125   2.660   5.740  1.6879  0.0294  1.1047
 9462SOL     OW40018   1.216   2.920   4.469 -0.1229 -0.6267  0.2926
 9462SOL    HW140019   1.158   2.992   4.441  0.0089 -0.9136 -0.7282
 9462SOL    HW240020   1.147   2.858   4.492 -0.7452  0.3259  1.0147
 9463SOL     OW40021   4.187   4.667   6.305 -0.3498 -0.0433  0.0456
 9463SOL    HW140022   4.097   4.696   6.323 -0.7110 -2.2179  1.7136
 9463SOL    HW240023   4.237   0.016   6.312  1.9635 -1.3310 -1.7011
 9464SOL     OW40024   0.757   3.113  14.576  0.4416  0.7418 -0.2837
 9464SOL    HW140025   0.729   3.030  14.539  1.0420  0.7844 -0.8398
 9464SOL    HW240026   0.672   3.151  14.597  0.7657  0.8278  0.8810
 9465SOL     OW40027   3.391   2.818   4.752  0.0271 -0.1873  0.8252
 9465SOL    HW140028   3.482   2.846   4.763  0.5317 -0.8876 -1.6323
 9465SOL    HW240029   3.354   2.890   4.701 -0.6770 -0.8038  0.4774
 9466SOL     OW40030   4.271   2.651   8.106 -0.1038 -0.1721  0.4048
 9466SOL    HW140031   4.337   2.590   8.138 -0.0035 -1.0079 -1.3677
 9466SOL    HW240032   4.294   2.645   8.013  0.0124 -1.8210  0.5500
 9467SOL     OW40033   2.250   0.627   7.334  0.0204 -0.4489  0.3779
 9467SOL    HW140034   2.338   0.659   7.319  0.4374 -2.1532 -0.8167
 9467SOL    HW240035   2.217   0.631   7.244  0.3081  0.4839  0.3189
 9468SOL     OW40036   2.823   4.413   4.509  0.4057 -1.0808 -0.7128
 9468SOL    HW140037   2.774   4.333   4.488 -0.7409 -0.4601 -0.4321
 9468SOL    HW240038   2.860   4.384   4.593 -0.8010  1.1804  0.6020
 9469SOL     OW40039   0.007   4.493   1.303  0.0177 -0.2260 -0.1112
 9469SOL    HW140040   0.005   4.397   1.308 -1.8232 -0.2474 -1.2268
 9469SOL    HW240041   4.670   4.512   1.366 -0.8771  0.4457 -1.3106
 9470SOL     OW40042   3.412   2.310   8.252  0.1023 -0.2276 -0.1754
 9470SOL    HW140043   3.334   2.323   8.305 -0.2809 -2.4182 -0.2128
 9470SOL    HW240044   3.482   2.332   8.314 -1.8586  1.2251  1.5392
 9471SOL     OW40045   2.221   2.008  11.953  0.1918 -0.1367 -0.2075
 9471SOL    HW140046   2.153   2.076  11.951 -0.9778 -1.3311 -0.6780
 9471SOL    HW240047   2.214   1.980  12.044  0.7232 -0.9706 -0.4237
 9472SOL     OW40048   2.511   1.215   8.390 -0.3880 -0.1145 -0.3196
 9472SOL    HW140049   2.427   1.222   8.345  0.2061  0.6579 -1.3028
 9472SOL    HW240050   2.480   1.212   8.481 -1.7659  0.7155 -0.7681
 9473SOL     OW40051   0.157   0.132   8.804  0.1795 -0.3819 -0.5875
 9473SOL    HW140052   0.177   0.087   8.723  2.1807  1.2142 -0.9863
 9473SOL    HW240053   0.200   0.081   8.873  2.0787  2.0017  0.0273
 9474SOL     OW40054   1.820   3.721   7.992  1.1053 -0.1706 -0.4871
 9474SOL    HW140055   1.753   3.669   7.949  0.5109 -0.1034  0.3587
 9474SOL    HW240056   1.854   3.784   7.928 -0.4905  0.8171 -0.3778
 9475SOL     OW40057   0.217   3.591  11.487  0.2954  0.0151  0.3051
 9475SOL    HW140058   0.151   3.659  11.495 -0.9340 -0.9418 -1.6266
 9475SOL    HW240059   0.167   3.511  11.471  0.3648 -0.2571  1.4840
 9476SOL     OW40060   1.693   0.153   9.038 -0.2155 -0.0935  0.4848
 9476SOL    HW140061   1.641   0.155   8.958  1.7247 -0.0662 -0.7744
 9476SOL    HW240062   1.652   0.219   9.093 -0.5748 -0.3096  0.4749
 9477SOL     OW40063   1.315   2.849   8.508 -0.5853 -0.7360 -0.0976
 9477SOL    HW140064   1.355   2.767   8.537  1.7696 -0.0903 -1.5301
 9477SOL    HW240065   1.230   2.825   8.470 -0.4074  0.8239 -1.4556
 9478SOL     OW40066   1.954   2.414  11.953 -0.0309 -0.3713 -0.3727
 9478SOL    HW140067   1.868   2.440  11.986 -0.1168  0.3958 -1.1954
 9478SOL    HW240068   1.963   2.480  11.884  0.3894  0.1996  0.2289
 9479SOL     OW40069   1.648   2.501   0.901  0.7357  0.2801 -0.1026
 9479SOL    HW140070   1.702   2.567   0.945  0.4470  1.1863 -1.1345
 9479SOL    HW240071   1.711   2.452   0.848  3.0155  1.5238  1.4677
 9480SOL     OW40072   3.105   2.062  12.562  0.6317  0.0653 -0.1572
 9480SOL    HW140073   3.049   2.123  12.609  0.9509 -0.2437  0.6471
 9480SOL    HW240074   3.111   1.991  12.626  1.3651 -1.0933 -1.5052
 9481SOL     OW40075   1.237   0.954   2.371 -0.3610 -0.2591 -0.0269
 9481SOL    HW140076   1.200   1.041   2.382  0.3585  0.1093 -0.5544
 9481SOL    HW240077   1.308   0.962   2.435 -2.2095  0.4247  1.9364
 9482SOL     OW40078   3.037   3.441  14.502 -0.0818  0.0317 -0.4796
 9482SOL    HW140079   3.089   3.487  14.436 -1.2580  2.5506  0.3329
 9482SOL    HW240080   3.028   3.504  14.574 -4.3696 -1.6323  0.4327
 9483SOL     OW40081   2.034   1.192  10.140 -0.2590  0.2933  0.3173
 9483SOL    HW140082   2.090   1.181  10.217 -0.2388 -1.0614  0.1070
 9483SOL    HW240083   1.973   1.120  10.153 -1.1234  0.9142 -0.3149
 9484SOL     OW40084   0.993   2.768   2.156  0.1092  0.0612  0.1436
 9484SOL    HW140085   0.907   2.802   2.134 -0.0274  2.1657  3.7684
 9484SOL    HW240086   0.979   2.743   2.247 -0.4252 -1.6588 -0.4260
 9485SOL     OW40087   1.916   3.606   7.714  0.5187  0.1801  0.5183
 9485SOL    HW140088   1.936   3.616   7.621 -0.9749 -1.0761  0.0663
 9485SOL    HW240089   1.827   3.572   7.707  0.6473 -0.6150  2.7185
 9486SOL     OW40090   4.180   1.234  12.059 -0.1484  0.1499  0.3971
 9486SOL    HW140091   4.249   1.225  11.993  0.5219 -1.6085  1.3276
 9486SOL    HW240092   4.230   1.290  12.119 -0.2746  0.9652 -0.2599
 9487SOL     OW40093   1.548   1.897   4.856 -0.4501  0.2513  0.5228
 9487SOL    HW140094   1.541   1.820   4.913 -1.6246  1.3455  1.8677
 9487SOL    HW240095   1.455   1.908   4.838 -0.6921  1.6044  2.5856
 9488SOL     OW40096   2.349   4.509   1.892 -0.5365 -0.3432 -0.4235
 9488SOL    HW140097   2.307   4.544   1.813 -0.3005 -3.4676 -1.9374
 9488SOL    HW240098   2.303   4.426   1.902 -0.1304 -0.5231 -0.0479
 9489SOL     OW40099   0.146   3.252  16.704 -0.0614 -0.0320  0.2750
 9489SOL    HW140100   0.162   3.275  16.795  1.9089  0.8736 -0.3046
 9489SOL    HW240101   0.234   3.267  16.670 -0.8358  3.2335 -0.3100
 9490SOL     OW40102   0.610   3.833   0.825 -0.4294 -0.4868  0.3743
 9490SOL    HW140103   0.678   3.899   0.840 -0.5740 -0.6647  1.7937
 9490SOL    HW240104   0.601   3.790   0.911  0.3186  1.9053  1.6477
 9491SOL     OW40105   2.088   2.918  15.930 -0.2245  0.2648  0.1025
 9491SOL    HW140106   2.096   2.920  15.835 -1.7602 -0.0992 -0.0479
 9491SOL    HW240107   2.009   2.863  15.937 -0.2809  0.3688  0.2783
 9492SOL     OW40108   2.939   2.008   4.855  0.3740  0.0180  0.7188
 9492SOL    HW140109   2.871   2.075   4.856 -0.1342 -0.4530 -1.1367
 9492SOL    HW240110   2.926   1.969   4.941 -2.0187 -0.8691 -0.0344
 9493SOL     OW40111   1.841   4.090   4.254  0.5622  0.2313 -0.1241
 9493SOL    HW140112   1.921   4.138   4.276 -0.1484  1.9091 -1.2573
 9493SOL    HW240113   1.809   4.136   4.177  1.9106  1.5948  0.1217
 9494SOL     OW40114   1.047   0.378   9.977 -0.4942  0.4921  0.2173
 9494SOL    HW140115   1.061   0.285   9.958  2.1019  0.7308  0.9791
 9494SOL    HW240116   0.988   0.364  10.051 -2.4431 -0.6208 -1.5555
 9495SOL     OW40117   3.330   2.488   7.810 -0.6890 -0.1907 -0.0028
 9495SOL    HW140118   3.425   2.479   7.803 -0.6036  1.1776 -0.4873
 9495SOL    HW240119   3.306   2.458   7.723 -3.3832  2.3971 -0.1188
 9496SOL     OW40120   2.028   1.326  13.511 -0.0944  0.2869  0.2343
 9496SOL    HW140121   2.003   1.399  13.567 -2.1423 -1.8216  2.0851
 9496SOL    HW240122   1.968   1.268  13.558  1.6923 -2.1204 -0.3941
 9497SOL     OW40123   2.003   2.428   8.150 -0.0194  0.2019 -0.2915
 9497SOL    HW140124   2.000   2.486   8.225  1.5760  0.2609 -0.2700
 9497SOL    HW240125   2.029   2.487   8.079 -0.2290  0.2522 -0.3266
 9498SOL     OW40126   1.816   3.619  17.627 -0.0522  0.3057 -0.4140
 9498SOL    HW140127   1.776   3.680  17.688 -2.0809 -1.1334 -0.2882
 9498SOL    HW240128   1.741   3.618  17.567 -1.0142  1.0659  0.7838
 9499SOL     OW40129   1.352   3.583   0.953 -0.5267 -0.1945  0.8384
 9499SOL    HW140130   1.329   3.557   0.864 -1.9521 -1.4508  1.5600
 9499SOL    HW240131   1.429   3.635   0.931 -1.1248  0.9021  1.3174
 9500SOL     OW40132   0.408   0.584   3.130 -0.2144 -0.5911  0.0802
 9500SOL    HW140133   0.498   0.583   3.099  0.8120  0.8473  3.0083
 9500SOL    HW240134   0.412   0.502   3.180 -2.1566  1.4059  3.5424
 9501SOL     OW40135   2.340   3.802   1.212  0.7451 -0.4465  0.2582
 9501SOL    HW140136   2.373   3.887   1.181 -0.6544  0.0792  0.2163
 9501SOL    HW240137   2.416   3.772   1.263 -0.6996 -2.7542  1.0354
 9502SOL     OW40138   4.030   2.107   5.905 -0.1113 -0.3397  0.3023
 9502SOL    HW140139   4.038   2.077   5.814 -0.5834 -0.5680  0.3397
 9502SOL    HW240140   3.977   2.184   5.885 -2.3866 -1.7697  0.8443
 9503SOL     OW40141   1.865   2.709   4.985  0.2681  0.2305  0.7262
 9503SOL    HW140142   1.812   2.728   5.063 -0.5869 -1.3148  0.5196
 9503SOL    HW240143   1.856   2.791   4.935  1.4810 -0.5233 -0.6995
 9504SOL     OW40144   0.683   1.227  10.126  0.4464 -0.5302 -0.3356
 9504SOL    HW140145   0.686   1.191  10.215  2.4885  1.0864  0.2569
 9504SOL    HW240146   0.765   1.275  10.120  1.3440 -2.0059  0.0792
 9505SOL     OW40147   2.698   1.871  13.364  0.0389  0.7504 -0.4437
 9505SOL    HW140148   2.656   1.956  13.377  0.2915  0.3833  2.8960
 9505SOL    HW240149   2.746   1.868  13.447 -2.1743 -0.7758  0.8063
 9506SOL     OW40150   4.516   3.441   7.927  0.2348  0.0137 -0.0132
 9506SOL    HW140151   4.495   3.534   7.930  0.4485  0.0948 -0.8982
 9506SOL    HW240152   4.460   3.419   8.001  0.1273  1.9738  0.4935
 9507SOL     OW40153   4.413   0.971   3.271 -0.3881 -0.5205 -0.1952
 9507SOL    HW140154   4.477   0.936   3.332  0.3363 -0.2015 -0.7844
 9507SOL    HW240155   4.353   0.993   3.343  2.1459 -1.1717  2.1149
 9508SOL     OW40156   2.500   2.087  10.239 -0.7616 -0.0687 -0.2987
 9508SOL    HW140157   2.550   2.018  10.282 -0.9160 -0.4213 -0.6954
 9508SOL    HW240158   2.531   2.056  10.154  0.4340  1.2780 -0.3531
 9509SOL     OW40159   2.470   1.749   8.286 -0.2942  0.0341 -0.0274
 9509SOL    HW140160   2.459   1.775   8.378  0.8455 -3.1532  1.0366
 9509SOL    HW240161   2.386   1.709   8.266 -1.1055  0.7738  1.9015
 9510SOL     OW40162   3.552   4.279   7.911 -0.0500 -0.0462 -0.5190
 9510SOL    HW140163   3.517   4.200   7.954 -1.1443 -0.5524 -2.3387
 9510SOL    HW240164   3.474   4.322   7.877  0.0571  0.1758 -0.4812
 9511SOL     OW40165   0.974   0.702  12.985 -0.2011 -0.1201 -0.4523
 9511SOL    HW140166   0.952   0.773  12.925  0.5163  1.4833  1.1842
 9511SOL    HW240167   1.040   0.652  12.936  0.9781 -1.1121  2.1857
 9512SOL     OW40168   4.050   4.361   0.744 -0.0118  0.4998  0.8947
 9512SOL    HW140169   4.051   4.272   0.709  1.0872 -0.4301  3.3054
 9512SOL    HW240170   4.133   4.342   0.789 -1.0358 -2.6160  1.4896
 9513SOL     OW40171   1.975   0.466   8.794  0.1254  0.1397  0.4959
 9513SOL    HW140172   2.041   0.511   8.742 -0.4384 -1.2657 -1.4556
 9513SOL    HW240173   1.900   0.436   8.742 -1.0074  0.0060  2.1888
 9514SOL     OW40174   2.429   4.610   4.145 -0.2940  0.4138  0.1447
 9514SOL    HW140175   2.348   4.620   4.195 -1.4304  2.0681 -2.0509
 9514SOL    HW240176   2.497   4.596   4.212 -1.2572  3.3230  1.7455
 9515SOL     OW40177   2.755   4.424   5.688  0.0550 -0.6965 -0.4340
 9515SOL    HW140178   2.783   4.346   5.736  0.2867 -0.6834 -0.5472
 9515SOL    HW240179   2.744   4.385   5.601  1.6443  0.2713 -1.0835
 9516SOL     OW40180   2.831   3.889   5.725 -0.0253 -1.0219 -0.1318
 9516SOL    HW140181   2.875   3.804   5.737  1.8983  0.0743  0.5632
 9516SOL    HW240182   2.744   3.871   5.690 -0.5317  0.6803  0.2626
 9517SOL     OW40183   2.321   3.097   5.085  0.1573  0.2229 -0.5710
 9517SOL    HW140184   2.332   3.012   5.128 -0.0184 -0.5652 -2.0905
 9517SOL    HW240185   2.226   3.101   5.079  0.1050  0.0898  0.1007
 9518SOL     OW40186   0.869   4.056  17.173  0.1910 -0.1984  0.2201
 9518SOL    HW140187   0.833   4.129  17.122  0.6790 -0.8171 -1.0111
 9518SOL    HW240188   0.940   4.038  17.112 -0.6569  3.8914 -1.9185
 9519SOL     OW40189   2.229   1.269   5.775  0.4344 -0.0930  0.4026
 9519SOL    HW140190   2.311   1.225   5.798 -0.8168 -2.0563  1.1413
 9519SOL    HW240191   2.170   1.204   5.736  2.4742 -2.6100  1.4610
 9520SOL     OW40192   3.810   3.434   3.068 -0.3494  0.3779  0.7464
 9520SOL    HW140193   3.878   3.496   3.045  0.3137 -0.6436 -0.0281
 9520SOL    HW240194   3.791   3.400   2.981  0.3886  1.3122  0.2330
 9521SOL     OW40195   2.768   3.064   6.499 -0.1103 -0.1356  0.1327
 9521SOL    HW140196   2.714   3.035   6.426 -1.7406  1.7610  0.5704
 9521SOL    HW240197   2.812   3.138   6.457  0.9529  0.3942  2.1990
 9522SOL     OW40198   0.275   4.020   1.634 -0.5319  0.0318 -0.4980
 9522SOL    HW140199   0.188   4.055   1.655 -0.3391 -0.7766  1.6699
 9522SOL    HW240200   0.271   3.924   1.642  0.1948  0.0953  0.4981
 9523SOL     OW40201   1.238   4.052  12.565  0.3485  0.6102 -0.1230
 9523SOL    HW140202   1.307   4.080  12.505 -1.2437  2.6507 -1.0453
 9523SOL    HW240203   1.264   4.103  12.641 -2.1588  0.1721  1.0432
 9524SOL     OW40204   2.986   4.640   7.890  0.3940  0.0248 -0.1133
 9524SOL    HW140205   3.031   4.556   7.898  1.3052  0.5914  0.7117
 9524SOL    HW240206   2.928   4.629   7.966 -0.2914  0.0964 -0.6238
 9525SOL     OW40207   3.753   0.065   2.861  0.6993  0.4059 -0.1380
 9525SOL    HW140208   3.827   0.113   2.899  0.9056 -0.8045  0.9764
 9525SOL    HW240209   3.734   0.012   2.939 -1.4873  0.8175 -0.3950
 9526SOL     OW40210   2.008   0.097   3.909  0.7904  0.3576  0.4108
 9526SOL    HW140211   2.028   0.172   3.852  0.8910  1.4115  1.8098
 9526SOL    HW240212   1.969   0.034   3.850  2.4901  1.4125 -1.8517
 9527SOL     OW40213   4.340   4.190  15.118 -0.0828  0.3151 -0.0458
 9527SOL    HW140214   4.404   4.258  15.097 -0.5861  0.8628  0.1918
 9527SOL    HW240215   4.336   4.143  15.035  1.3766 -2.0239  1.2104
 9528SOL     OW40216   0.647   0.779   6.080  0.4379 -0.3157  0.5544
 9528SOL    HW140217   0.626   0.791   5.988 -1.4306 -0.2993  0.9934
 9528SOL    HW240218   0.557   0.759   6.107 -0.0658  1.5997  0.2661
 9529SOL     OW40219   2.116   0.104   8.514 -0.6316 -0.0922 -0.1441
 9529SOL    HW140220   2.021   0.101   8.523 -0.8076  0.3063 -2.0323
 9529SOL    HW240221   2.128   0.013   8.486 -1.5598 -0.5521  0.9564
 9530SOL     OW40222   1.531   4.416   3.790 -0.0044  0.2480 -0.4163
 9530SOL    HW140223   1.627   4.407   3.795 -0.3621 -3.2026  0.1442
 9530SOL    HW240224   1.492   4.329   3.801 -1.4044  0.9156 -0.1227
 9531SOL     OW40225   2.682   3.247  15.425 -0.1119  0.1219 -0.1191
 9531SOL    HW140226   2.604   3.232  15.479  0.6091 -1.1667  0.5617
 9531SOL    HW240227   2.677   3.333  15.383  1.5549  0.6129  0.7244
 9532SOL     OW40228   0.694   4.508   8.560 -0.1712 -0.2665  0.1307
 9532SOL    HW140229   0.741   4.425   8.564  0.2190 -0.0488  0.0968
 9532SOL    HW240230   0.638   4.502   8.637  0.2934 -0.0763  0.4865
 9533SOL     OW40231   2.785   3.099   2.576  0.0684 -0.0370  0.0754
 9533SOL    HW140232   2.779   3.016   2.528  0.4971  0.2751 -0.5197
 9533SOL    HW240233   2.866   3.130   2.535  0.5784  0.3412  1.3627
 9534SOL     OW40234   1.155   3.661   3.831 -0.6685  0.3211  0.0734
 9534SOL    HW140235   1.131   3.580   3.786 -1.5986 -0.1512  1.4006
 9534SOL    HW240236   1.066   3.679   3.860  0.1750  0.8181  2.3753
 9535SOL     OW40237   3.243   1.956   4.865 -0.2191 -0.0964 -0.2529
 9535SOL    HW140238   3.154   1.938   4.835 -0.6704  0.7912  0.5396
 9535SOL    HW240239   3.238   1.948   4.960  1.7011 -2.8377 -0.3826
 9536SOL     OW40240   3.999   1.773   5.234  0.1181 -0.0635 -0.2192
 9536SOL    HW140241   3.945   1.698   5.208 -2.5751  1.1091  1.8698
 9536SOL    HW240242   3.963   1.848   5.186 -1.6657 -0.3704  0.6119
 9537SOL     OW40243   0.188   3.917   5.380 -0.1518  0.4646 -0.6190
 9537SOL    HW140244   0.177   3.835   5.333 -1.8798 -0.4048  1.2684
 9537SOL    HW240245   0.155   3.887   5.465 -0.0793  2.5258  0.1417
 9538SOL     OW40246   1.892   1.728  13.352 -0.2257  0.0882 -0.1280
 9538SOL    HW140247   1.879   1.650  13.299  0.5237  0.3818 -0.7391
 9538SOL    HW240248   1.875   1.802  13.294  0.5001 -1.0163 -1.7469
 9539SOL     OW40249   2.976   4.127   4.858  0.0440  0.8128 -0.5936
 9539SOL    HW140250   3.042   4.058   4.859  1.5299  2.2499 -0.8870
 9539SOL    HW240251   2.967   4.141   4.952  0.8902 -1.1096 -0.2173
 9540SOL     OW40252   4.132   4.299  14.936  0.3676  0.2360  0.5964
 9540SOL    HW140253   4.127   4.261  15.024  0.5511 -0.1670  0.4343
 9540SOL    HW240254   4.076   4.236  14.890  1.0405  0.6576 -0.7845
 9541SOL     OW40255   2.023   1.769   3.892  0.3501 -0.2362 -0.2150
 9541SOL    HW140256   1.999   1.677   3.880  1.8004 -0.3048 -2.7548
 9541SOL    HW240257   2.069   1.765   3.976 -1.7520  0.0975  0.9325
 9542SOL     OW40258   0.552   3.404  14.982 -0.5744 -0.7052  0.0543
 9542SOL    HW140259   0.635   3.394  15.028 -1.2114  1.0326  1.5985
 9542SOL    HW240260   0.495   3.408  15.059 -0.5351 -1.7257  0.1282
 9543SOL     OW40261   3.338   1.321   2.252  0.5985 -0.1646 -0.5091
 9543SOL    HW140262   3.380   1.247   2.208 -0.2053  0.0589 -1.6454
 9543SOL    HW240263   3.255   1.278   2.273 -0.1761  1.1935 -0.7692
 9544SOL     OW40264   1.638   0.226   5.262 -0.2046 -0.8263  0.6021
 9544SOL    HW140265   1.596   0.228   5.349 -2.8939  1.4434 -0.7454
 9544SOL    HW240266   1.668   0.135   5.260 -1.9239 -1.3693 -0.9779
 9545SOL     OW40267   3.236   1.273   9.296 -0.0246  0.2987  0.4061
 9545SOL    HW140268   3.301   1.287   9.227 -0.9435  0.2877 -0.4465
 9545SOL    HW240269   3.157   1.265   9.244 -0.5752  1.1632  1.1033
 9546SOL     OW40270   2.445   4.674   7.476 -0.4175 -0.1328 -0.0882
 9546SOL    HW140271   2.538   4.655   7.478 -0.1956  1.1786  1.1801
 9546SOL    HW240272   2.447   0.032   7.507 -2.9818  0.0977 -0.5479
 9547SOL     OW40273   0.297   3.136   8.070  0.1077  0.2863  0.0151
 9547SOL    HW140274   0.306   3.162   8.162 -1.3659 -1.2886  0.6125
 9547SOL    HW240275   0.335   3.049   8.061  1.4801  0.8014  0.9395
 9548SOL     OW40276   3.916   1.792  10.015 -0.2113  0.0799  0.3443
 9548SOL    HW140277   3.932   1.848   9.939  1.1128 -0.1644  0.4445
 9548SOL    HW240278   3.844   1.848  10.045 -0.0842  0.4122  0.0239
 9549SOL     OW40279   1.297   2.875  17.373  0.6444  0.6148 -0.5609
 9549SOL    HW140280   1.342   2.918  17.301  1.1790 -1.1339 -1.2819
 9549SOL    HW240281   1.212   2.919  17.369  0.5268  0.4389 -0.0037
 9550SOL     OW40282   0.877   2.188   8.558  0.5202  0.5580  0.3961
 9550SOL    HW140283   0.887   2.264   8.501 -0.1044  1.2136  1.1510
 9550SOL    HW240284   0.848   2.233   8.638  0.1490 -1.1210  1.2155
 9551SOL     OW40285   0.641   0.126   8.938 -0.1989  0.1000  0.5781
 9551SOL    HW140286   0.567   0.119   8.878  0.2539  1.3411 -0.1418
 9551SOL    HW240287   0.588   0.124   9.017 -0.2048 -0.0853  0.5702
 9552SOL     OW40288   4.702   1.792   4.833  0.3352  0.0987 -0.2243
 9552SOL    HW140289   0.009   1.709   4.810 -0.8639 -0.1164 -1.5029
 9552SOL    HW240290   4.651   1.815   4.755 -0.4949 -1.6847 -0.2111
 9553SOL     OW40291   0.280   0.073   7.188  0.1092 -0.0615 -0.2427
 9553SOL    HW140292   0.366   0.093   7.226 -0.6726  1.2197  0.8308
 9553SOL    HW240293   0.213   0.105   7.248 -1.8188 -0.1006 -2.3520
 9554SOL     OW40294   0.205   3.875   7.020  0.3861  0.3117  0.0815
 9554SOL    HW140295   0.294   3.839   7.023  0.2376 -0.1074 -0.5559
 9554SOL    HW240296   0.168   3.834   6.941  1.6033  1.6680 -1.1850
 9555SOL     OW40297   1.193   0.897   6.049 -0.3125  0.4080  0.0632
 9555SOL    HW140298   1.103   0.876   6.026  0.3949 -2.1220 -0.4257
 9555SOL    HW240299   1.177   0.937   6.135  0.8544  2.2643 -0.5912
 9556SOL     OW40300   2.897   1.993   8.421  0.3094 -0.3158  0.4619
 9556SOL    HW140301   2.982   2.008   8.463  0.2419  1.3840  0.0016
 9556SOL    HW240302   2.828   1.960   8.478  1.1336 -3.5205 -0.4157
 9557SOL     OW40303   3.836   0.653   9.936  0.0783 -0.2896 -0.2019
 9557SOL    HW140304   3.900   0.691   9.995 -0.9190  2.5479 -0.9254
 9557SOL    HW240305   3.769   0.613   9.992  0.8184  0.2536  1.0520
 9558SOL     OW40306   0.088   4.597   4.046  0.5373 -0.0026  0.3861
 9558SOL    HW140307   0.021   4.662   4.068 -1.0141 -0.5059 -2.9615
 9558SOL    HW240308   0.091   4.548   4.129  2.2402 -1.3929 -0.4902
 9559SOL     OW40309   2.029   2.871   1.616 -0.1226 -0.4360 -0.0616
 9559SOL    HW140310   2.068   2.796   1.572  0.8148  1.5935 -2.7126
 9559SOL    HW240311   2.105   2.908   1.659 -0.5404 -1.7306  1.7685
 9560SOL     OW40312   2.727   1.436   4.575  0.0101  0.1722 -0.6955
 9560SOL    HW140313   2.809   1.401   4.540  0.4675  0.6662 -0.1307
 9560SOL    HW240314   2.717   1.527   4.545 -0.2439  0.3853  0.0144
 9561SOL     OW40315   1.421   2.673   3.710 -0.4686 -0.6777  0.5733
 9561SOL    HW140316   1.454   2.739   3.649 -1.3368 -0.0829  0.7399
 9561SOL    HW240317   1.407   2.730   3.786  3.5441 -0.0576  0.8624
 9562SOL     OW40318   2.337   4.723   3.508  0.1682  0.4708 -0.1135
 9562SOL    HW140319   2.287   4.690   3.582  1.1097 -1.8217 -0.5044
 9562SOL    HW240320   2.310   0.083   3.507 -0.9397  0.1486  0.9949
 9563SOL     OW40321   2.937   3.616   2.163  0.5662  0.4570 -0.1064
 9563SOL    HW140322   2.849   3.646   2.138  0.8178  1.4887  0.2511
 9563SOL    HW240323   2.962   3.576   2.080 -1.2697  2.3203 -1.5746
 9564SOL     OW40324   3.718   2.443   4.805  0.2212 -0.2979 -0.6392
 9564SOL    HW140325   3.720   2.518   4.746  0.2063 -0.4451 -0.8281
 9564SOL    HW240326   3.806   2.412   4.788  0.1739  0.5387 -2.4389
 9565SOL     OW40327   4.129   2.038   7.306  0.2849 -0.5913  0.4149
 9565SOL    HW140328   4.205   2.094   7.321 -1.1884  1.4477  0.2718
 9565SOL    HW240329   4.066   2.100   7.270 -0.3882 -0.0939  2.4154
 9566SOL     OW40330   1.328   1.519   8.962  0.3321  0.4714 -0.6703
 9566SOL    HW140331   1.270   1.541   8.889  2.5752 -0.1539 -2.6136
 9566SOL    HW240332   1.387   1.464   8.911  0.0007  0.9249 -1.5410
 9567SOL     OW40333   4.645   0.455   6.468  0.6370  0.4604 -0.0816
 9567SOL    HW140334   4.611   0.544   6.468 -0.7763 -0.0924 -1.3381
 9567SOL    HW240335   4.661   0.442   6.375 -0.9402  0.3884 -0.3344
 9568SOL     OW40336   1.155   4.331   1.753 -0.1034  0.5822  0.0506
 9568SOL    HW140337   1.207   4.411   1.754  1.7082 -0.5886 -0.3324
 9568SOL    HW240338   1.119   4.321   1.841  2.1191  0.4169  0.9518
 9569SOL     OW40339   3.178   4.236   9.150  0.2383  0.7804  0.4877
 9569SOL    HW140340   3.236   4.207   9.079 -1.6297  0.6680 -1.0021
 9569SOL    HW240341   3.161   4.325   9.117  0.8964  0.9622  0.6353
 9570SOL     OW40342   3.598   0.002  12.556 -0.3969 -0.0793  0.3009
 9570SOL    HW140343   3.606   0.035  12.466  2.3624  0.2358  0.6544
 9570SOL    HW240344   3.527   0.058  12.588  0.4827  0.6174  1.0298
 9571SOL     OW40345   1.901   3.050   2.712  0.0967  0.3404 -0.0915
 9571SOL    HW140346   1.893   3.087   2.799  1.4669  2.0394 -0.6715
 9571SOL    HW240347   1.993   3.070   2.691  0.4243 -0.0583  0.9776
   4.73246   4.73246  17.72939
