Membrane in water
40347
    1TMC1    C1    1   4.167   0.780  10.767 -0.3309  0.2460 -0.1980
    1TMC1    C2    2   4.289   0.807  10.721 -0.4084  0.5539 -0.4671
    1TMC1    C3    3   4.297   0.902  10.618  0.4126  0.9552 -0.2770
    1TMC1    C4    4   4.054   0.851  10.734 -0.3623 -0.0914 -0.0620
    1TMC1    C5    5   4.070   0.956  10.648 -0.1027 -0.1636  0.3733
    1TMC1    C6    6   4.190   0.980  10.586 -0.7980  0.1215  0.1809
    1TMC1     C    7   4.140   0.673  10.859 -0.2032  0.3141  0.6654
    1TMC1     O    8   4.021   0.659  10.888 -0.0815  0.2707  0.1627
    1TMC1     H    9   4.374   0.744  10.744 -1.1517 -0.0029  0.7143
    1TMC1    H1   10   3.957   0.823  10.772 -0.0732  0.3941  1.0099
    1TMC1    H2   11   4.199   1.046  10.500 -1.3696 -0.9205 -0.6802
    1TMC1    C7   12   3.954   0.983  10.571 -0.3690 -0.5516  1.0783
    1TMC1    C8   13   4.425   0.946  10.571  0.2416  0.2381  0.8387
    1TMC1    O1   14   3.945   0.959  10.450  0.3114  0.2332 -0.2226
    1TMC1    O2   15   4.457   1.005  10.469  0.5206  0.1090 -0.3452
    1TMC1    O3   16   3.851   0.987  10.658  0.6018 -0.1393  0.4118
    1TMC1    H3   17   3.890   1.022  10.741 -0.6950  0.5179  0.7354
    1TMC1    O5   18   4.486   0.961  10.688  0.0078  0.1931 -0.0244
    1TMC1    H5   19   4.424   0.933  10.758  0.6246  0.1011  0.4898
    2MPD2     C   20   4.223   0.317  11.208  0.5973 -0.3026  0.3784
    2MPD2    C1   21   4.110   0.390  11.177  0.4724 -0.4718  0.2905
    2MPD2    C2   22   4.115   0.492  11.087  0.8837  0.2959  0.7951
    2MPD2    C3   23   4.229   0.497  11.004  0.1495  0.5315  0.4820
    2MPD2    C4   24   4.342   0.425  11.029 -0.3519  0.4777  0.2225
    2MPD2    C5   25   4.338   0.333  11.135  0.4700  0.0613 -0.5054
    2MPD2     H   26   4.022   0.542  11.063 -0.9583 -3.0759  0.8505
    2MPD2    H1   27   4.423   0.429  10.958  0.1782  2.4094  0.9242
    2MPD2    H2   28   4.230   0.250  11.293  0.3188  0.3190  0.8837
    2MPD2    H3   29   4.412   0.257  11.156 -1.3688 -1.1005  1.6117
    2MPD2     N   30   4.242   0.588  10.895 -0.0051  0.7633 -0.3741
    2MPD2    H5   31   4.332   0.608  10.852  0.6079 -0.5739  0.2735
    2MPD2    N1   32   3.988   0.371  11.248  0.6179 -0.4059  0.2862
    2MPD2    H7   33   3.915   0.441  11.245  0.5970 -0.3940  1.0742
    3TMC1    C1   34   3.517   1.358  10.914 -0.0808 -0.0853 -0.0917
    3TMC1    C2   35   3.453   1.430  10.823  0.5907  0.4342  0.2999
    3TMC1    C3   36   3.524   1.504  10.732  0.4270 -0.3291  0.2083
    3TMC1    C4   37   3.656   1.356  10.921  0.1657  0.0028 -0.2225
    3TMC1    C5   38   3.717   1.444  10.840 -0.1715  0.5029 -0.4749
    3TMC1    C6   39   3.656   1.519  10.748  0.3437  0.4638  0.0807
    3TMC1     C   40   3.448   1.270  11.008  0.0083  0.2027  0.4529
    3TMC1     O   41   3.506   1.180  11.068 -0.0997  0.2651 -0.4306
    3TMC1     H   42   3.346   1.422  10.810  0.8021  1.7550 -2.2941
    3TMC1    H1   43   3.711   1.300  10.996  0.4937 -0.9953 -1.2003
    3TMC1    H2   44   3.716   1.568  10.673  1.9664 -0.7515  0.5704
    3TMC1    C7   45   3.861   1.423  10.831 -0.3745 -0.9488 -0.2626
    3TMC1    C8   46   3.460   1.590  10.636  0.4215 -0.1482 -0.3695
    3TMC1    O1   47   3.919   1.325  10.879  0.1229  0.6907  0.0572
    3TMC1    O2   48   3.525   1.683  10.592  0.4827  0.2799 -0.5773
    3TMC1    O3   49   3.920   1.535  10.775  0.5232 -0.2008 -0.2110
    3TMC1    H3   50   3.860   1.613  10.771 -1.5295 -1.8030 -0.7728
    3TMC1    O5   51   3.382   1.505  10.560 -0.0522  0.2092 -0.3753
    3TMC1    H5   52   3.369   1.428  10.621 -1.6514  0.9943  0.2794
    4MPD2     C   53   3.007   1.058  11.149 -0.3954 -0.0038 -0.3128
    4MPD2    C1   54   2.986   1.189  11.122  0.1684 -0.5616  0.3809
    4MPD2    C2   55   3.089   1.265  11.066 -0.1392 -0.0128  0.2124
    4MPD2    C3   56   3.209   1.213  11.052 -0.3842 -0.2154  0.3110
    4MPD2    C4   57   3.234   1.082  11.091  0.3297 -0.8149  0.9902
    4MPD2    C5   58   3.129   1.002  11.130  0.3783 -1.0803  0.4611
    4MPD2     H   59   3.075   1.368  11.037 -0.0413 -0.3262 -0.9792
    4MPD2    H1   60   3.333   1.039  11.076  0.0143 -0.5075 -1.9531
    4MPD2    H2   61   2.935   0.986  11.185 -0.9333  0.1905 -1.0036
    4MPD2    H3   62   3.142   0.895  11.145  0.2940 -1.0445  0.8054
    4MPD2     N   63   3.308   1.293  10.995 -0.1508  0.5125  0.2153
    4MPD2    H5   64   3.273   1.379  10.954 -3.1287 -0.8910 -0.1849
    4MPD2    N1   65   2.858   1.241  11.163  0.1685 -0.2589 -0.2838
    4MPD2    H7   66   2.800   1.175  11.213 -0.0908 -1.6681 -2.4361
    5TCq1    O1   67   2.886   3.445  11.735  0.3092 -0.0351  0.3734
    5TCq1    C1   68   2.938   3.391  11.627  0.6664  0.0696  0.3662
    5TCq1    O2   69   2.893   3.293  11.573  0.1628 -0.1218  0.3007
    5TCq1    C2   70   3.074   3.448  11.602  0.1059  0.7423 -0.4031
    5TCq1    C3   71   3.128   3.539  11.692  0.2300  0.2382  0.1624
    5TCq1    C4   72   3.252   3.591  11.661 -0.0008 -0.2132  0.3524
    5TCq1    C5   73   3.304   3.598  11.535 -0.1166 -0.0316  0.3952
    5TCq1    C6   74   3.239   3.521  11.441 -0.4044 -0.7273 -0.4344
    5TCq1    C7   75   3.136   3.433  11.479  0.5090 -0.0087  0.7155
    5TCq1    C8   76   3.310   3.497  11.320  0.2132  0.1110  0.0264
    5TCq1    O4   77   3.273   3.407  11.249  0.0423 -0.3471  0.3543
    5TCq1    C9   78   3.329   3.660  11.756 -0.3721 -0.7022 -0.3002
    5TCq1    O5   79   3.264   3.674  11.865  0.6165  0.1301 -0.5169
    5TCq1    O6   80   3.454   3.671  11.740 -0.3603  0.4390  0.2433
    5TCq1    H1   81   2.922   3.530  11.768 -2.6014  1.6811 -0.7865
    5TCq1    H2   82   3.091   3.561  11.792  1.2511 -0.4509  0.6851
    5TCq1    H3   83   3.397   3.652  11.516 -1.3722  2.4172  1.1144
    5TCq1    H4   84   3.104   3.355  11.412 -1.1998  0.5179  0.9170
    6MPD2     C   85   3.510   3.738  11.120 -0.7624  0.0479 -0.4180
    6MPD2    C1   86   3.465   3.612  11.158  0.2463 -0.0142 -0.4082
    6MPD2    C2   87   3.504   3.497  11.088 -0.3856 -0.3846 -0.3909
    6MPD2    C3   88   3.580   3.505  10.975  0.1731 -0.1266 -0.3006
    6MPD2    C4   89   3.611   3.631  10.935 -0.0909 -0.0724  0.3108
    6MPD2    C5   90   3.578   3.746  11.002 -0.5184 -0.1167  0.3391
    6MPD2     H   91   3.477   3.401  11.132  0.2522 -0.1201  0.5730
    6MPD2    H1   92   3.664   3.645  10.841 -0.4445 -1.8989 -0.1462
    6MPD2    H2   93   3.489   3.832  11.170  0.4037  0.2102 -0.2367
    6MPD2    H3   94   3.604   3.844  10.963 -2.5328 -0.1920 -1.1653
    6MPD2     N   95   3.618   3.388  10.911 -0.1190 -0.1285  0.5093
    6MPD2    H5   96   3.580   3.305  10.955 -1.9750 -0.0462 -0.9463
    6MPD2    N1   97   3.391   3.608  11.278 -0.5751  0.0781  0.1978
    6MPD2    H7   98   3.383   3.688  11.340  3.6435 -0.5415  1.5094
    7TCq1    O1   99   0.929   2.430  12.136  0.0171 -0.0349 -0.3287
    7TCq1    C1  100   0.912   2.324  12.215  0.2801  0.4446  0.2966
    7TCq1    O2  101   0.843   2.225  12.200 -0.5446 -0.4285  0.1702
    7TCq1    C2  102   0.950   2.365  12.346 -0.2963  0.2000  0.1438
    7TCq1    C3  103   0.959   2.496  12.386  0.0971  0.3774  0.3369
    7TCq1    C4  104   1.000   2.525  12.514 -0.6861  0.7315  0.2261
    7TCq1    C5  105   1.054   2.423  12.584  0.2433 -0.5056 -0.0713
    7TCq1    C6  106   1.041   2.289  12.542  0.1837  0.1441  0.0837
    7TCq1    C7  107   0.991   2.260  12.420  0.2729  0.2414  0.5110
    7TCq1    C8  108   1.068   2.175  12.636  0.5623  0.2196  0.0453
    7TCq1    O4  109   1.072   2.066  12.581 -0.5796 -0.0489  0.0449
    7TCq1    C9  110   0.989   2.659  12.567 -0.6608 -0.6420 -0.1723
    7TCq1    O5  111   1.050   2.685  12.674 -0.7288  0.5191  0.6283
    7TCq1    O6  112   0.932   2.742  12.499  1.3363 -0.6019 -0.1546
    7TCq1    H1  113   0.987   2.498  12.176 -0.1569  1.3532 -2.4263
    7TCq1    H2  114   0.910   2.575  12.329  0.2790  0.5794  0.4604
    7TCq1    H3  115   1.097   2.443  12.682 -1.3805  2.1180  0.1158
    7TCq1    H4  116   0.978   2.157  12.388  0.1929 -0.2312  2.0598
    8MPD2     C  117   1.199   1.978  13.086  0.3562 -0.0842 -0.0889
    8MPD2    C1  118   1.156   1.910  12.969 -1.0464  0.9091  0.3640
    8MPD2    C2  119   1.119   1.987  12.863  0.2652 -0.1357 -0.1686
    8MPD2    C3  120   1.116   2.125  12.867 -0.1581  0.5140 -0.1636
    8MPD2    C4  121   1.142   2.183  12.990  0.1760 -0.2377  0.4058
    8MPD2    C5  122   1.188   2.111  13.100  0.1114  0.3496  0.2497
    8MPD2     H  123   1.096   1.944  12.766  2.8838  0.4317 -1.0319
    8MPD2    H1  124   1.110   2.286  13.001  1.4535  0.1961  0.0110
    8MPD2    H2  125   1.242   1.927  13.171  0.9170  0.8301  0.1876
    8MPD2    H3  126   1.213   2.163  13.192  1.0403  0.5451 -0.1135
    8MPD2     N  127   1.078   2.209  12.764 -0.0697  0.0932  0.6217
    8MPD2    H5  128   1.063   2.308  12.780  1.3947  0.7587 -2.1884
    8MPD2    N1  129   1.176   1.770  12.962  0.0961  0.3217 -0.3330
    8MPD2    H7  130   1.225   1.713  13.030 -0.0540 -0.6162 -0.9929
    9TMC1    C1  131   3.377   2.143  11.263  0.0441  0.1436 -0.7090
    9TMC1    C2  132   3.334   2.236  11.169  0.1251  0.4513  0.6241
    9TMC1    C3  133   3.426   2.328  11.136  0.2642  0.6903 -0.3734
    9TMC1    C4  134   3.500   2.146  11.323  0.4813 -1.0802  0.5217
    9TMC1    C5  135   3.589   2.240  11.272 -0.3836 -0.1133 -0.3340
    9TMC1    C6  136   3.552   2.334  11.182 -0.2262  0.3803  0.7151
    9TMC1     C  137   3.270   2.065  11.327 -0.3526 -1.0508 -0.0844
    9TMC1     O  138   3.156   2.089  11.283 -0.2399  0.3021  0.1216
    9TMC1     H  139   3.232   2.245  11.132  0.7009  0.3637 -0.9633
    9TMC1    H1  140   3.524   2.071  11.398  1.4505 -1.5690 -0.2863
    9TMC1    H2  141   3.625   2.403  11.143 -0.6587  0.3050 -0.2235
    9TMC1    C7  142   3.721   2.243  11.341  0.3318  0.0089  0.2923
    9TMC1    C8  143   3.391   2.413  11.020  0.6978  0.0611  0.3865
    9TMC1    O1  144   3.750   2.187  11.447 -0.0292  0.5464 -0.3887
    9TMC1    O2  145   3.280   2.447  10.979 -0.7641  0.3362 -0.4198
    9TMC1    O3  146   3.799   2.338  11.286 -0.1732  0.5017 -0.2470
    9TMC1    H3  147   3.792   2.335  11.188 -0.0947  4.1588 -0.3560
    9TMC1    O5  148   3.503   2.400  10.945 -0.6680  0.0273 -0.2481
    9TMC1    H5  149   3.582   2.359  10.985 -1.1551 -2.3423 -1.7084
   10MPD2     C  150   3.120   1.898  11.532 -0.3468  0.0986  0.4021
   10MPD2    C1  151   3.252   1.882  11.494  0.3301 -0.6532  0.4045
   10MPD2    C2  152   3.318   1.773  11.542  0.0863  0.2218 -0.2067
   10MPD2    C3  153   3.252   1.683  11.637 -0.7464  0.3599  0.2944
   10MPD2    C4  154   3.123   1.709  11.675 -0.3537  0.1750  0.4643
   10MPD2    C5  155   3.056   1.811  11.617  0.0463  0.0026  0.4099
   10MPD2     H  156   3.420   1.756  11.510 -0.1726 -0.7064 -0.5401
   10MPD2    H1  157   3.074   1.658  11.756 -2.0444 -1.3343 -1.5281
   10MPD2    H2  158   3.063   1.984  11.502  0.8745  0.7759  0.0105
   10MPD2    H3  159   2.956   1.841  11.648 -0.3735  1.2090 -2.1140
   10MPD2     N  160   3.314   1.563  11.690  0.1034 -0.1397 -0.1888
   10MPD2    H5  161   3.257   1.509  11.754  1.4013  0.6617  1.6643
   10MPD2    N1  162   3.321   1.962  11.401  0.5682 -0.0555  0.3272
   10MPD2    H7  163   3.415   1.933  11.376  1.1420  0.5089  1.8420
   11TCq1    O1  164   0.287   0.521  13.905 -0.6146 -0.5176  0.1809
   11TCq1    C1  165   0.204   0.421  13.940 -0.2474  0.5461  0.2435
   11TCq1    O2  166   0.230   0.303  13.913 -0.0778  0.5355  0.0936
   11TCq1    C2  167   0.074   0.474  13.992  0.0874 -0.1027  0.4604
   11TCq1    C3  168   0.076   0.565  14.090 -0.2119 -0.0101 -0.3555
   11TCq1    C4  169   4.707   0.591  14.168 -0.0769 -0.1329  0.7172
   11TCq1    C5  170   4.591   0.514  14.143  0.2130  0.0977 -0.0942
   11TCq1    C6  171   4.597   0.417  14.044  0.6898  0.2390 -0.1251
   11TCq1    C7  172   4.705   0.397  13.961 -0.9485  0.1879 -0.2902
   11TCq1    C8  173   4.476   0.334  14.031  0.4180  0.1531  0.2959
   11TCq1    O4  174   4.379   0.384  14.081  0.6691  0.2503  0.4134
   11TCq1    C9  175   4.706   0.684  14.277 -0.2858  0.2919 -0.1657
   11TCq1    O5  176   4.595   0.707  14.335  0.7499  0.4225  0.3137
   11TCq1    O6  177   0.078   0.691  14.338  0.7974 -0.0762 -0.6158
   11TCq1    H1  178   0.244   0.609  13.907  1.6422  0.5724  1.3426
   11TCq1    H2  179   0.163   0.629  14.083  0.3990 -0.9794 -1.7313
   11TCq1    H3  180   4.506   0.519  14.210  0.7590  2.5733  0.3874
   11TCq1    H4  181   4.720   0.307  13.901 -1.7158 -1.4081  1.8985
   12MPD2     C  182   4.273   0.120  13.989  0.4001 -0.7356  0.0378
   12MPD2    C1  183   4.397   0.120  13.925 -0.1036  0.2822 -0.3442
   12MPD2    C2  184   4.442   0.020  13.846  0.2474 -0.2673 -0.4054
   12MPD2    C3  185   4.358   4.645  13.837 -0.3845 -1.2789 -0.2893
   12MPD2    C4  186   4.231   4.644  13.899  0.1379  0.0585 -0.7525
   12MPD2    C5  187   4.188   0.016  13.969 -0.1584 -0.0527  0.8312
   12MPD2     H  188   4.542   0.025  13.805 -0.0720  2.4886 -0.8691
   12MPD2    H1  189   4.162   4.560  13.891 -0.7829  0.2943  4.5629
   12MPD2    H2  190   4.228   0.199  14.048 -0.8861  0.2515 -2.2789
   12MPD2    H3  191   4.099   0.013  14.030 -0.1411 -2.5867  0.7465
   12MPD2     N  192   4.413   4.521  13.785  0.1298  0.0614  0.3781
   12MPD2    H5  193   4.355   4.438  13.788  1.4809 -0.8423  1.3154
   12MPD2    N1  194   4.489   0.226  13.946 -0.1065  0.2765 -0.0494
   12MPD2    H7  195   4.582   0.220  13.906 -0.2022  0.6205 -0.3230
   13TCq1    O1  196   4.372   2.141  11.001 -0.4307  0.0563  0.2933
   13TCq1    C1  197   4.316   2.018  11.032 -0.1471  0.7579  0.8770
   13TCq1    O2  198   4.377   1.923  11.081 -0.7417  0.3361 -0.3767
   13TCq1    C2  199   4.175   2.043  11.063 -0.2740  0.1849  0.1135
   13TCq1    C3  200   4.114   2.162  11.040 -0.1670  0.1497 -0.2637
   13TCq1    C4  201   3.975   2.166  11.024 -0.2645  0.4688 -0.1407
   13TCq1    C5  202   3.907   2.047  11.036  0.3663 -0.3122 -1.0206
   13TCq1    C6  203   3.971   1.932  11.076 -0.0467  0.0330 -0.4451
   13TCq1    C7  204   4.106   1.931  11.102 -0.2618 -0.2577  0.0173
   13TCq1    C8  205   3.885   1.817  11.100 -0.6335  0.5216 -0.5253
   13TCq1    O4  206   3.767   1.847  11.123  0.2078  0.4044 -0.3512
   13TCq1    C9  207   3.903   2.285  10.996 -0.0142  0.3896 -0.5915
   13TCq1    O5  208   3.784   2.297  11.030  0.0119 -0.6830  0.0389
   13TCq1    O6  209   3.971   2.377  10.938 -0.0526  0.0008  0.3199
   13TCq1    H1  210   4.313   2.202  10.952 -0.6592  1.3190  2.1573
   13TCq1    H2  211   4.159   2.260  11.049  1.0183 -0.4277 -0.0388
   13TCq1    H3  212   3.800   2.048  11.021  0.1957 -2.0674  0.0371
   13TCq1    H4  213   4.158   1.840  11.130 -0.7716 -1.0064 -1.4654
   14MPD2     C  214   3.987   1.485  11.228  0.2355  0.4535 -0.6365
   14MPD2    C1  215   3.899   1.584  11.185  0.3874  0.2755  0.0443
   14MPD2    C2  216   3.761   1.564  11.205 -0.7048 -0.0732 -1.1805
   14MPD2    C3  217   3.708   1.451  11.266  0.6037 -0.6744 -0.5165
   14MPD2    C4  218   3.803   1.354  11.309 -0.1447 -0.0649 -0.3568
   14MPD2    C5  219   3.937   1.368  11.280  0.0460  0.0875  0.0831
   14MPD2     H  220   3.700   1.649  11.176 -0.3400  0.9932  1.2477
   14MPD2    H1  221   3.776   1.260  11.356  2.9856 -0.9510 -0.2739
   14MPD2    H2  222   4.093   1.495  11.206  0.6754 -1.5028  0.5663
   14MPD2    H3  223   3.996   1.284  11.316  1.1791 -0.6256 -3.4174
   14MPD2     N  224   3.566   1.442  11.294 -0.8699 -0.6843 -1.1151
   14MPD2    H5  225   3.503   1.508  11.251 -1.3727  0.1227  0.8936
   14MPD2    N1  226   3.952   1.700  11.124  0.3544  0.5169 -0.2346
   14MPD2    H7  227   4.052   1.708  11.111  0.0475  2.4949 -1.3050
   15TCq1    O1  228   1.957   0.722   1.679 -0.1313 -0.2407  0.2870
   15TCq1    C1  229   1.878   0.625   1.646 -0.4315  0.0105 -0.3978
   15TCq1    O2  230   1.775   0.586   1.695  0.1187  0.1946 -0.0322
   15TCq1    C2  231   1.924   0.567   1.522 -0.4295 -0.6668  0.5108
   15TCq1    C3  232   2.010   0.631   1.434 -0.2006 -0.5444  0.3060
   15TCq1    C4  233   2.048   0.558   1.324  0.1034  0.6583 -0.1195
   15TCq1    C5  234   2.025   0.428   1.312 -0.2253  0.4840 -0.0376
   15TCq1    C6  235   1.937   0.369   1.400  0.7304  0.5520  0.4032
   15TCq1    C7  236   1.881   0.434   1.507 -0.5547  0.6957  0.0377
   15TCq1    C8  237   1.897   0.236   1.356  0.7582 -0.5893 -0.0465
   15TCq1    O4  238   1.965   0.174   1.273  0.6289 -0.1955  0.6388
   15TCq1    C9  239   2.128   0.628   1.226  0.1289  0.4556 -0.5902
   15TCq1    O5  240   2.174   0.741   1.259 -0.5437 -0.8754  0.9795
   15TCq1    O6  241   2.162   0.554   1.135 -0.0559 -0.7017  0.5223
   15TCq1    H1  242   2.043   0.738   1.636  0.6843 -0.5637  1.8102
   15TCq1    H2  243   2.028   0.737   1.420 -0.7653 -0.5347 -0.3914
   15TCq1    H3  244   2.060   0.375   1.224  1.7757  0.2890  0.8808
   15TCq1    H4  245   1.813   0.384   1.575 -0.2486  1.2038  0.7183
   16MPD2     C  246   1.581   0.065   1.404  0.0622 -0.2081  0.4351
   16MPD2    C1  247   1.712   0.077   1.369  0.5565  0.5203  0.2925
   16MPD2    C2  248   1.782   4.701   1.317 -0.2980 -0.1293  0.1517
   16MPD2    C3  249   1.711   4.583   1.294  0.3550  0.0521  0.6187
   16MPD2    C4  250   1.579   4.573   1.315 -0.1005  0.3139  0.5630
   16MPD2    C5  251   1.514   4.690   1.369 -0.9293  0.3436  0.1022
   16MPD2     H  252   1.890   4.697   1.305 -0.4040  0.7436 -1.1763
   16MPD2    H1  253   1.511   4.493   1.289  0.8136  0.1426 -1.2962
   16MPD2    H2  254   1.529   0.146   1.454  0.0203  0.6920 -1.0572
   16MPD2    H3  255   1.406   4.692   1.379 -1.1542 -0.2868 -2.1610
   16MPD2     N  256   1.793   4.477   1.244 -0.2479 -0.3409 -0.4794
   16MPD2    H5  257   1.891   4.501   1.239  0.0348 -1.0043  2.0967
   16MPD2    N1  258   1.774   0.208   1.396 -0.0438 -0.1343  0.2904
   16MPD2    H7  259   1.724   0.279   1.450 -0.0750 -0.7095  1.0207
   17TMC1    C1  260   3.087   0.242  11.377 -0.0502 -0.1560 -0.4278
   17TMC1    C2  261   3.121   0.349  11.293 -0.4345  0.1729 -0.0168
   17TMC1    C3  262   3.080   0.471  11.332 -0.4650 -0.4353 -0.3604
   17TMC1    C4  263   2.996   0.246  11.480  0.5032 -0.1261  0.5357
   17TMC1    C5  264   2.949   0.364  11.511 -1.3156  0.4224 -0.4661
   17TMC1    C6  265   2.994   0.471  11.442 -0.1033  0.2223  0.4171
   17TMC1     C  266   3.140   0.104  11.349  0.4255  0.2592  0.2749
   17TMC1     O  267   3.092   0.010  11.419 -0.1843  0.3214  0.1676
   17TMC1     H  268   3.163   0.336  11.194  2.2063 -2.2564  1.4307
   17TMC1    H1  269   2.973   0.157  11.538  1.7004  1.0251  2.7550
   17TMC1    H2  270   2.960   0.568  11.476 -2.7043 -0.5083 -0.0734
   17TMC1    C7  271   2.875   0.372  11.634  0.9017  0.5724 -0.0336
   17TMC1    C8  272   3.060   0.568  11.231 -0.0416  0.1707 -0.2060
   17TMC1    O1  273   2.874   0.477  11.696  0.0679 -0.1275  0.1866
   17TMC1    O2  274   2.956   0.632  11.217 -0.0104  0.0899 -0.0745
   17TMC1    O3  275   2.786   0.271  11.644  0.6655  0.0189 -0.4548
   17TMC1    H3  276   2.784   0.214  11.564 -0.8467 -2.8617  1.6926
   17TMC1    O5  277   3.170   0.572  11.152  0.0227 -0.3994 -0.3849
   17TMC1    H5  278   3.242   0.528  11.201 -0.6519 -1.1894 -0.1005
   18MPD2     C  279   3.309   4.628  11.273 -0.2802  0.6223  0.7491
   18MPD2    C1  280   3.347   0.019  11.242 -0.1952  0.0136  0.0523
   18MPD2    C2  281   3.473   0.053  11.192  0.4196  0.1942 -0.3997
   18MPD2    C3  282   3.573   4.693  11.171 -0.9426  0.5403  0.3019
   18MPD2    C4  283   3.524   4.563  11.189 -0.1167 -0.1214  0.0393
   18MPD2    C5  284   3.402   4.533  11.240  0.0170  0.2110  0.4520
   18MPD2     H  285   3.497   0.155  11.166 -1.1370  0.5030 -0.6542
   18MPD2    H1  286   3.583   4.475  11.168 -2.8063 -1.8377 -0.4325
   18MPD2    H2  287   3.213   4.595  11.311  1.8680 -3.2199  2.8701
   18MPD2    H3  288   3.381   4.428  11.257  1.1629 -0.1742 -0.5453
   18MPD2     N  289   3.704   4.714  11.119 -0.4140 -0.2209 -0.3981
   18MPD2    H5  290   3.757   4.631  11.095  1.0385  0.3528  0.8139
   18MPD2    N1  291   3.256   0.122  11.278 -0.6203 -0.1493  0.5540
   18MPD2    H7  292   3.283   0.214  11.244 -0.9257 -0.1067  0.4284
   19TMC2    C1  293   0.783   0.515  13.887  0.1433 -0.2851  0.7328
   19TMC2    C2  294   0.720   0.554  13.772  1.5556  0.3126 -0.4363
   19TMC2    C3  295   0.602   0.491  13.737  0.5820  0.1931  0.3254
   19TMC2    C4  296   0.734   0.407  13.961 -0.4392  0.4875 -0.3154
   19TMC2    C5  297   0.616   0.345  13.916  0.3959 -0.1369 -0.4473
   19TMC2    C6  298   0.552   0.384  13.805  0.5031 -0.2768  0.0717
   19TMC2     C  299   0.890   0.601  13.949  0.6091  0.2446  0.1283
   19TMC2     O  300   0.885   0.714  13.908 -0.3418  0.0066 -0.2998
   19TMC2     H  301   0.746   0.645  13.720  1.3947  0.5468 -0.1105
   19TMC2    H1  302   0.783   0.377  14.053 -0.3206  2.6201  0.3163
   19TMC2    H2  303   0.467   0.329  13.764 -1.3001  1.7941  1.0265
   19TMC2    C7  304   0.606   0.205  13.947  0.9308 -0.0679  0.5100
   19TMC2    C8  305   0.538   0.535  13.612 -0.0738 -0.3896  0.0065
   19TMC2    O1  306   0.697   0.158  14.016  0.2838  0.0582 -0.0876
   19TMC2    O2  307   0.485   0.457  13.536  0.4405  0.7002 -0.0067
   19TMC2    O5  308   0.513   0.667  13.624 -0.0517  0.1353  0.7348
   19TMC2    H5  309   0.560   0.711  13.697 -0.7064  0.0762  1.1957
   20MPD2     C  310   1.081   0.739  14.140  0.6801 -0.2928  0.8558
   20MPD2    C1  311   1.067   0.606  14.130 -0.0629  0.3117  0.4519
   20MPD2    C2  312   1.144   0.522  14.215 -0.0747 -0.2177 -0.8738
   20MPD2    C3  313   1.214   0.576  14.317  0.0306  0.1975  0.0165
   20MPD2    C4  314   1.211   0.711  14.333  0.1940 -0.0021  0.0964
   20MPD2    C5  315   1.148   0.791  14.245 -0.6027 -0.2267  0.2693
   20MPD2     H  316   1.137   0.415  14.206 -1.5198 -0.1429 -0.7584
   20MPD2    H1  317   1.258   0.763  14.416 -1.0954 -0.6881  1.2640
   20MPD2    H2  318   1.017   0.799  14.076 -1.3522 -2.9366  0.4050
   20MPD2    H3  319   1.145   0.899  14.251  2.6509 -0.1717  0.8285
   20MPD2     N  320   1.282   0.501  14.420  0.0727  0.5504  0.0536
   20MPD2    H5  321   1.330   0.559  14.487  0.8886 -1.4354  1.1943
   20MPD2    N1  322   0.982   0.540  14.036 -0.4349  0.0085  0.5556
   20MPD2    H7  323   0.965   0.441  14.047 -0.4005 -0.0534  0.0567
   21TMC2    C1  324   2.782   0.454  14.633 -0.6286  0.3851 -1.0147
   21TMC2    C2  325   2.843   0.354  14.692  0.1872  0.4011  0.2181
   21TMC2    C3  326   2.921   0.394  14.801  0.2412  0.4485 -0.0568
   21TMC2    C4  327   2.774   0.583  14.682  0.1569 -0.0571  0.7217
   21TMC2    C5  328   2.846   0.616  14.793  0.5174 -0.9913  0.0533
   21TMC2    C6  329   2.914   0.518  14.862  0.2828  0.6394 -0.0842
   21TMC2     C  330   2.688   0.421  14.522  0.2100  0.4822  0.8303
   21TMC2     O  331   2.631   0.312  14.542  0.2873 -0.0374  0.4196
   21TMC2     H  332   2.840   0.253  14.653  2.2475  0.3100  0.2672
   21TMC2    H1  333   2.698   0.646  14.637  0.3459 -0.4454 -0.1534
   21TMC2    H2  334   2.952   0.539  14.961  1.0967 -2.2132  0.2304
   21TMC2    C7  335   2.874   0.753  14.825  0.1563  0.2197 -0.0169
   21TMC2    C8  336   2.979   0.284  14.880 -0.1384  0.8588  0.5519
   21TMC2    O1  337   2.931   0.773  14.933 -0.6426  0.1658  0.5113
   21TMC2    O2  338   2.939   0.169  14.873 -0.3200 -0.3474 -0.5914
   21TMC2    O5  339   3.077   0.337  14.958  0.2524 -0.7676  0.2596
   21TMC2    H5  340   3.098   0.432  14.955  0.5898 -0.9434 -2.8537
   22MPD2     C  341   2.882   0.780  14.234  0.0498  0.1851 -0.1482
   22MPD2    C1  342   2.937   0.683  14.311 -0.1587  0.7805 -0.3008
   22MPD2    C2  343   2.859   0.594  14.377  0.5446 -0.2440 -0.0937
   22MPD2    C3  344   2.720   0.606  14.377  0.4475  0.0754  0.5798
   22MPD2    C4  345   2.670   0.717  14.323 -0.1464  0.4583 -0.4785
   22MPD2    C5  346   2.745   0.798  14.246  0.3684  0.0095  0.5463
   22MPD2     H  347   2.910   0.507  14.415  1.2527  0.0347 -0.4036
   22MPD2    H1  348   2.564   0.739  14.332  0.2271  2.3738 -0.6980
   22MPD2    H2  349   2.940   0.848  14.172 -0.8792 -0.2352 -1.4602
   22MPD2    H3  350   2.696   0.886  14.205 -0.2107 -1.0896 -1.1048
   22MPD2     N  351   2.637   0.517  14.441  0.5489  0.0876 -0.4623
   22MPD2    H5  352   2.547   0.499  14.399  0.4244 -0.0010 -0.1572
   22MPD2    N1  353   3.071   0.649  14.306 -0.2904  0.5951  0.4869
   22MPD2    H7  354   3.101   0.565  14.354  2.1705  0.6556 -0.9932
   23TMC2    C1  355   4.713   2.115  14.039  0.0944  0.2439  0.0477
   23TMC2    C2  356   0.072   2.127  13.946 -0.0076 -0.8880 -0.0091
   23TMC2    C3  357   0.048   2.223  13.851 -0.4236  0.5797 -0.4503
   23TMC2    C4  358   4.591   2.174  14.027 -0.1391  0.3753  0.1626
   23TMC2    C5  359   4.570   2.268  13.928  0.0128 -0.1893  0.1173
   23TMC2    C6  360   4.672   2.296  13.842 -0.4517  0.1650 -0.2590
   23TMC2     C  361   0.000   2.048  14.168  0.3181  0.4720  0.0274
   23TMC2     O  362   4.652   2.034  14.249 -0.6017  0.0556  0.5144
   23TMC2     H  363   0.168   2.076  13.943 -0.5004 -1.6773 -2.3046
   23TMC2    H1  364   4.514   2.166  14.103  1.1880 -3.0880  1.1002
   23TMC2    H2  365   4.665   2.382  13.775 -1.3490  0.7065  0.5228
   23TMC2    C7  366   4.460   2.363  13.934  0.2824 -0.1988 -0.4163
   23TMC2    C8  367   0.159   2.234  13.753  0.3279  0.1829  0.0447
   23TMC2    O1  368   4.482   2.467  13.870  0.3651  0.0045 -0.2028
   23TMC2    O2  369   0.234   2.139  13.728 -0.2369  0.1944 -0.2125
   23TMC2    O5  370   0.130   2.328  13.658 -0.4659 -0.3519  0.4801
   23TMC2    H5  371   0.089   2.405  13.703  0.2136  1.8609 -2.6600
   24MPD2     C  372   0.331   1.790  14.445 -0.0544 -0.0926  0.6202
   24MPD2    C1  373   0.203   1.823  14.469 -0.2257 -0.8136 -0.1524
   24MPD2    C2  374   0.131   1.903  14.377 -0.8077 -0.3785 -0.0897
   24MPD2    C3  375   0.205   1.963  14.278 -0.6873 -0.4128 -0.2664
   24MPD2    C4  376   0.335   1.933  14.257  0.0758  0.0532  0.4064
   24MPD2    C5  377   0.398   1.855  14.342  0.4895 -0.0496 -0.0594
   24MPD2     H  378   0.024   1.909  14.390 -0.8116 -0.5317 -0.0481
   24MPD2    H1  379   0.391   1.954  14.167 -0.9558 -1.2099 -0.5324
   24MPD2    H2  380   0.397   1.718  14.493 -2.0226 -1.7005  0.9214
   24MPD2    H3  381   0.498   1.821  14.318  1.2413  2.0080  0.1906
   24MPD2     N  382   0.136   2.041  14.181 -0.1833  0.2556  0.7792
   24MPD2    H5  383   0.195   2.078  14.107  2.4244 -0.2096  2.5978
   24MPD2    N1  384   0.133   1.758  14.576 -0.2413 -0.6735 -0.3766
   24MPD2    H7  385   0.186   1.686  14.624  1.7630  0.6987 -0.5088
   25TMC2    C1  386   3.343   4.386  11.787 -0.0071 -0.0762 -0.8690
   25TMC2    C2  387   3.263   4.335  11.886 -0.2452  0.1948 -0.1149
   25TMC2    C3  388   3.274   4.389  12.010 -0.3475  0.2891 -0.4363
   25TMC2    C4  389   3.436   4.485  11.805 -0.2296  0.1894  0.4217
   25TMC2    C5  390   3.445   4.536  11.927 -0.0314 -0.0531  0.6382
   25TMC2    C6  391   3.369   4.483  12.032  0.2780 -0.4408  0.4739
   25TMC2     C  392   3.331   4.339  11.652 -0.4495 -0.1895  0.2242
   25TMC2     O  393   3.433   4.350  11.582  0.0049 -0.0199 -0.4777
   25TMC2     H  394   3.201   4.247  11.875 -0.5409  0.4011 -0.0922
   25TMC2    H1  395   3.495   4.524  11.722  1.4889 -1.2559  0.9802
   25TMC2    H2  396   3.387   4.535  12.126 -0.8831  1.8523 -0.5842
   25TMC2    C7  397   3.464   4.683  11.935 -0.0187 -0.1138 -0.0014
   25TMC2    C8  398   3.197   4.326  12.111 -0.0248  0.2484  0.2561
   25TMC2    O1  399   3.481   0.000  12.041  0.2261  0.0208 -0.0629
   25TMC2    O2  400   3.078   4.293  12.107  0.0117  0.1336 -0.4078
   25TMC2    O5  401   3.239   4.397  12.223  0.3874 -0.0375 -0.0249
   25TMC2    H5  402   3.335   4.391  12.237  0.5455 -0.4830 -1.3149
   26MPD2     C  403   3.075   4.178  11.236 -0.4024  0.8348 -0.6670
   26MPD2    C1  404   2.986   4.182  11.341  0.1562 -0.1927 -0.2173
   26MPD2    C2  405   3.032   4.238  11.463 -0.0671 -0.2105  0.9344
   26MPD2    C3  406   3.167   4.252  11.485 -0.7473 -0.1158  0.0107
   26MPD2    C4  407   3.257   4.227  11.384  0.1749  0.5239 -0.3674
   26MPD2    C5  408   3.208   4.184  11.260 -0.2995 -0.1540 -0.2744
   26MPD2     H  409   2.965   4.256  11.546 -1.6987 -2.3698  0.0714
   26MPD2    H1  410   3.362   4.252  11.393  0.5802 -0.6315 -1.8067
   26MPD2    H2  411   3.053   4.173  11.130  1.1919  1.6551 -1.0418
   26MPD2    H3  412   3.270   4.181  11.172 -0.9990  0.7648 -0.8051
   26MPD2     N  413   3.201   4.311  11.614 -0.1763 -0.2716  0.3876
   26MPD2    H5  414   3.127   4.320  11.683 -0.1143  4.5941 -0.1831
   26MPD2    N1  415   2.852   4.158  11.310 -0.2042 -0.3001 -0.6119
   26MPD2    H7  416   2.830   4.146  11.212 -0.7960 -0.5057 -0.4562
   27TMC2    C1  417   2.264   1.731  12.137 -0.2570 -0.0310  0.5710
   27TMC2    C2  418   2.376   1.696  12.061 -0.6831  0.4620 -0.3321
   27TMC2    C3  419   2.492   1.653  12.125 -0.4123 -0.6575  0.2081
   27TMC2    C4  420   2.272   1.737  12.272  0.2581 -0.6414 -0.4203
   27TMC2    C5  421   2.387   1.707  12.332  1.0216 -0.2643  0.4856
   27TMC2    C6  422   2.500   1.665  12.264  0.6164 -0.2443  0.1630
   27TMC2     C  423   2.152   1.809  12.081  0.6606  0.2630  0.5585
   27TMC2     O  424   2.194   1.894  11.999 -0.5204 -0.3390  0.1814
   27TMC2     H  425   2.370   1.696  11.953  0.9943  0.5805 -0.4295
   27TMC2    H1  426   2.185   1.742  12.337 -0.3787  1.7646 -1.4460
   27TMC2    H2  427   2.580   1.625  12.327  0.1850 -0.4578  0.5778
   27TMC2    C7  428   2.394   1.709  12.478  0.1907 -0.1023 -0.3282
   27TMC2    C8  429   2.604   1.632  12.033  0.1407 -0.4837  0.6830
   27TMC2    O1  430   2.470   1.626  12.526  0.2662 -0.5508 -0.0176
   27TMC2    O2  431   2.618   1.700  11.936 -0.2137 -0.3176  0.3621
   27TMC2    O5  432   2.694   1.541  12.087 -0.2377  0.3668 -0.6971
   27TMC2    H5  433   2.663   1.499  12.171 -1.9776  1.0851 -0.9630
   28MPD2     C  434   1.668   1.820  11.916 -0.3790  0.3163 -0.2210
   28MPD2    C1  435   1.672   1.729  12.018 -0.2796 -0.6244 -0.1074
   28MPD2    C2  436   1.791   1.707  12.080  0.7100  0.2759  0.1634
   28MPD2    C3  437   1.911   1.776  12.042 -0.2091  0.6720 -0.1531
   28MPD2    C4  438   1.900   1.880  11.948  0.2006 -0.1751 -0.0655
   28MPD2    C5  439   1.776   1.904  11.890  1.0752  0.5785 -0.1581
   28MPD2     H  440   1.803   1.630  12.156  3.2531  1.0839  0.5740
   28MPD2    H1  441   1.982   1.946  11.921  1.0025 -0.6738  1.1826
   28MPD2    H2  442   1.574   1.833  11.864 -0.9394  2.2108  1.2563
   28MPD2    H3  443   1.767   1.986  11.819  0.5595 -0.4027 -1.2298
   28MPD2     N  444   2.029   1.746  12.120 -0.3757 -0.5523 -0.0259
   28MPD2    H5  445   2.023   1.678  12.195  0.4198  2.2758  2.5772
   28MPD2    N1  446   1.557   1.669  12.065  0.1121 -0.3400 -0.0837
   28MPD2    H7  447   1.469   1.707  12.031 -2.5741 -3.8459  3.0009
   29TMC2    C1  448   1.754   4.068  14.225 -0.3098  0.0673  0.5001
   29TMC2    C2  449   1.809   3.974  14.309 -0.0386  0.0681 -0.4802
   29TMC2    C3  450   1.896   4.021  14.409  0.1474 -0.3403 -0.1068
   29TMC2    C4  451   1.768   4.204  14.252 -0.1107  0.0035 -0.9914
   29TMC2    C5  452   1.860   4.248  14.346  0.4809  0.0420 -0.0943
   29TMC2    C6  453   1.936   4.154  14.414 -0.5750 -0.0904  0.2428
   29TMC2     C  454   1.668   4.028  14.111 -0.1961  0.0841 -0.3540
   29TMC2     O  455   1.583   4.107  14.077  0.2891  0.3638  0.1484
   29TMC2     H  456   1.772   3.872  14.303 -0.7293  0.3542 -1.1545
   29TMC2    H1  457   1.704   4.273  14.198  0.5278  0.0064 -1.7408
   29TMC2    H2  458   2.015   4.172  14.487  0.9366 -2.1781 -0.8844
   29TMC2    C7  459   1.858   4.386  14.396  0.4401 -0.6543  0.5689
   29TMC2    C8  460   1.971   3.932  14.495  0.3301  0.1592 -0.5806
   29TMC2    O1  461   1.773   4.457  14.343 -0.4776  0.6390  0.2938
   29TMC2    O2  462   2.077   3.950  14.549 -0.3504  0.4767  0.1251
   29TMC2    O5  463   1.888   3.834  14.521  0.1235 -0.3824 -0.5355
   29TMC2    H5  464   1.796   3.838  14.486 -0.0289  0.8366  0.0001
   30MPD2     C  465   1.567   3.714  13.718  0.1397 -0.3088  0.3515
   30MPD2    C1  466   1.662   3.650  13.800  0.1358  0.3853  0.5480
   30MPD2    C2  467   1.702   3.715  13.915  0.5992  0.2454 -0.0316
   30MPD2    C3  468   1.640   3.833  13.956 -0.0524 -0.0205  0.0275
   30MPD2    C4  469   1.542   3.888  13.879  0.0184 -0.1108 -0.9582
   30MPD2    C5  470   1.510   3.828  13.757  0.3843 -0.2782 -0.2396
   30MPD2     H  471   1.777   3.665  13.976  2.8658  2.1400 -1.2380
   30MPD2    H1  472   1.500   3.985  13.904 -2.0768 -1.7800  2.0509
   30MPD2    H2  473   1.531   3.669  13.627 -1.0697  3.2975 -0.9723
   30MPD2    H3  474   1.428   3.872  13.702 -1.6007 -0.5761  2.4984
   30MPD2     N  475   1.695   3.899  14.075 -0.6083  0.0471  0.5172
   30MPD2    H5  476   1.772   3.850  14.119  0.4726  0.6703 -0.6839
   30MPD2    N1  477   1.729   3.528  13.759 -0.0757  0.2572  0.1404
   30MPD2    H7  478   1.812   3.499  13.810  0.2469  1.1864  0.1571
   31TMC2    C1  479   4.129   2.444  15.126  0.4342  0.5912 -0.1127
   31TMC2    C2  480   4.002   2.495  15.146 -0.2062  0.5050  0.2847
   31TMC2    C3  481   3.934   2.451  15.258 -0.0173 -0.8612 -0.6305
   31TMC2    C4  482   4.201   2.386  15.225  0.4314 -0.2067 -0.6447
   31TMC2    C5  483   4.133   2.369  15.347  0.1720  0.2699 -0.0284
   31TMC2    C6  484   3.997   2.387  15.358 -0.2969  0.1162 -0.3140
   31TMC2     C  485   4.202   2.503  15.019  0.2280  0.8404  0.2846
   31TMC2     O  486   4.131   2.589  14.969 -0.6106  0.7333  0.2653
   31TMC2     H  487   3.933   2.528  15.069 -1.5713 -1.1024  0.8080
   31TMC2    H1  488   4.298   2.345  15.200  0.6022 -0.8127  0.9938
   31TMC2    H2  489   3.947   2.347  15.445  0.5396  1.6263  0.8476
   31TMC2    C7  490   4.193   2.275  15.444  0.1826 -0.3628 -0.2469
   31TMC2    C8  491   3.789   2.483  15.267 -0.2302 -0.1478  0.0912
   31TMC2    O1  492   4.117   2.211  15.514  0.0125  0.0849  0.1169
   31TMC2    O2  493   3.735   2.545  15.177  0.2595  0.1405 -0.4789
   31TMC2    O5  494   3.758   2.496  15.400 -0.0745 -0.1832 -0.2291
   31TMC2    H5  495   3.836   2.489  15.459  0.9101 -2.2692 -1.7802
   32MPD2     C  496   4.576   2.556  14.671  0.2881 -0.0173 -0.2843
   32MPD2    C1  497   4.449   2.606  14.676 -0.3006 -0.0774  0.3777
   32MPD2    C2  498   4.371   2.587  14.788  0.0623  0.1390  0.3717
   32MPD2    C3  499   4.410   2.496  14.888 -0.3142 -0.6215 -0.3047
   32MPD2    C4  500   4.535   2.439  14.880  0.7361  0.2785  0.4356
   32MPD2    C5  501   4.617   2.477  14.773 -0.5823 -0.2462 -0.0909
   32MPD2     H  502   4.273   2.631  14.794  0.3424  0.4553  2.5013
   32MPD2    H1  503   4.560   2.366  14.955 -0.3358 -0.5412 -0.0078
   32MPD2    H2  504   4.639   2.551  14.583  1.4742 -0.8647  0.6059
   32MPD2    H3  505   4.715   2.431  14.762  1.0036  3.6064 -2.3355
   32MPD2     N  506   4.324   2.450  14.991  0.2659 -0.1858 -0.3337
   32MPD2    H5  507   4.361   2.368  15.038 -1.4928 -1.5468 -1.3453
   32MPD2    N1  508   4.419   2.686  14.563  0.1644 -0.7287 -0.0087
   32MPD2    H7  509   4.489   2.695  14.489 -1.0007 -0.0174 -1.0164
   33TMC2    C1  510   3.600   0.742  10.424  0.4784  0.1785  0.1727
   33TMC2    C2  511   3.475   0.692  10.462  0.6165  0.5746 -0.0823
   33TMC2    C3  512   3.372   0.782  10.474 -0.9023  0.3378 -0.5718
   33TMC2    C4  513   3.629   0.873  10.407  0.5216 -0.2635  0.0001
   33TMC2    C5  514   3.522   0.957  10.424 -0.3635  0.1960 -0.3601
   33TMC2    C6  515   3.394   0.917  10.452  0.1568  0.3312  0.3127
   33TMC2     C  516   3.698   0.636  10.419  0.2639  0.3608  0.1674
   33TMC2     O  517   3.680   0.515  10.439  0.6872  0.0802 -0.0480
   33TMC2     H  518   3.454   0.588  10.481  0.7620  0.6002  0.2128
   33TMC2    H1  519   3.724   0.907  10.368  0.4748  0.4256  0.4827
   33TMC2    H2  520   3.312   0.985  10.472 -0.1087 -0.9967  3.7012
   33TMC2    C7  521   3.532   1.104  10.407 -0.5166  0.5528  0.5371
   33TMC2    C8  522   3.230   0.742  10.492 -0.0871 -0.1474 -0.1091
   33TMC2    O1  523   3.429   1.169  10.398 -0.6678  0.1502 -0.1121
   33TMC2    O2  524   3.136   0.819  10.474 -0.1902  0.1296 -0.2956
   33TMC2    O5  525   3.225   0.648  10.588 -0.5356 -0.3734  0.6600
   33TMC2    H5  526   3.303   0.631  10.644 -0.0546  0.5100  0.2746
   34MPD2     C  527   4.176   0.494  10.508  0.0190  0.0278  0.1166
   34MPD2    C1  528   4.062   0.460  10.581  0.4084 -0.2587  0.1622
   34MPD2    C2  529   3.941   0.522  10.542 -0.3823  1.2339  0.8675
   34MPD2    C3  530   3.940   0.612  10.440 -0.1583  0.3458 -0.1732
   34MPD2    C4  531   4.058   0.643  10.367  0.3886 -0.8064  0.0230
   34MPD2    C5  532   4.173   0.589  10.405 -0.3934  1.1471 -0.2764
   34MPD2     H  533   3.854   0.513  10.605 -1.7225 -1.7787 -1.4014
   34MPD2    H1  534   4.056   0.715  10.285 -0.0353 -1.3254 -0.4241
   34MPD2    H2  535   4.270   0.443  10.520 -0.2926 -0.4885  0.3578
   34MPD2    H3  536   4.259   0.611  10.343 -1.0185 -0.1553 -1.6139
   34MPD2     N  537   3.829   0.683  10.408 -0.2467  0.2739  0.0529
   34MPD2    H5  538   3.854   0.768  10.357 -0.7965 -0.0786 -0.8102
   34MPD2    N1  539   4.068   0.363  10.676 -0.4844  0.2871 -0.7796
   34MPD2    H7  540   4.158   0.319  10.694 -1.1346 -0.2643  1.1298
   35TMC2    C1  541   0.146   2.117  11.648 -0.5821  0.6847  0.2072
   35TMC2    C2  542   0.132   2.231  11.575 -0.0584  0.0501 -0.4821
   35TMC2    C3  543   0.049   2.223  11.467  0.2550  0.2016 -0.8183
   35TMC2    C4  544   0.082   1.996  11.622  0.1994  0.0186 -0.0717
   35TMC2    C5  545   4.725   2.005  11.522  0.6073  0.1647  0.0404
   35TMC2    C6  546   4.709   2.116  11.446  0.2821 -0.4758 -0.3003
   35TMC2     C  547   0.236   2.128  11.762  0.3317 -0.5720 -0.3418
   35TMC2     O  548   0.227   2.232  11.822  0.1045  0.2039  0.3208
   35TMC2     H  549   0.183   2.324  11.599 -0.8976  0.7823 -1.5003
   35TMC2    H1  550   0.102   1.914  11.689 -1.0772 -0.1519  0.0869
   35TMC2    H2  551   4.626   2.115  11.375  0.4844 -1.8206 -0.5119
   35TMC2    C7  552   4.623   1.901  11.522 -0.5607  0.3196  0.2516
   35TMC2    C8  553   0.022   2.341  11.397 -0.2288  0.1877  0.1485
   35TMC2    O1  554   4.651   1.790  11.562  0.4185  0.4644  0.0653
   35TMC2    O2  555   0.046   2.450  11.451 -0.6550 -0.2761 -0.0704
   35TMC2    O5  556   0.053   2.325  11.270  0.0024  0.0193  0.1528
   35TMC2    H5  557   0.038   2.232  11.242 -1.6548  0.6058 -0.8598
   36MPD2     C  558   0.619   1.993  12.059 -0.0804 -0.4034  0.0095
   36MPD2    C1  559   0.614   1.903  11.954  0.2136 -0.6447 -0.3381
   36MPD2    C2  560   0.513   1.903  11.866 -0.5388  0.2276  0.4201
   36MPD2    C3  561   0.420   2.009  11.877 -0.4018  0.4496 -0.1322
   36MPD2    C4  562   0.427   2.099  11.980  0.2194  0.0565  0.0761
   36MPD2    C5  563   0.525   2.092  12.075  0.2162 -0.1302 -0.1738
   36MPD2     H  564   0.516   1.839  11.778 -0.3779  0.5359  0.2002
   36MPD2    H1  565   0.354   2.175  12.007  1.1890  1.1122 -0.2776
   36MPD2    H2  566   0.704   2.003  12.126  0.2622 -0.5711 -0.4011
   36MPD2    H3  567   0.542   2.162  12.156  1.9797 -0.7618  0.0070
   36MPD2     N  568   0.314   2.015  11.787  0.0557 -0.6873  0.1180
   36MPD2    H5  569   0.316   1.939  11.718  0.3177  0.1664 -0.8175
   36MPD2    N1  570   0.734   1.830  11.944 -0.6894  0.2027  0.5842
   36MPD2    H7  571   0.816   1.851  12.001 -1.7253  2.9704  1.0043
   37TMC2    C1  572   2.645   2.038  11.982  0.4565 -0.6496  0.1327
   37TMC2    C2  573   2.527   2.014  11.912 -0.0794 -0.2516 -0.0950
   37TMC2    C3  574   2.530   2.049  11.781 -0.4379  0.1246 -0.5565
   37TMC2    C4  575   2.761   2.080  11.930 -0.3120  0.2694  0.3462
   37TMC2    C5  576   2.763   2.109  11.798 -0.3988  0.3197 -0.0496
   37TMC2    C6  577   2.653   2.083  11.721  0.3785 -0.4661  0.4723
   37TMC2     C  578   2.635   2.018  12.127  0.4047  0.3030  0.2398
   37TMC2     O  579   2.522   2.037  12.170  0.0243  0.5272 -0.2937
   37TMC2     H  580   2.438   1.991  11.968 -0.6803 -0.4280 -1.1311
   37TMC2    H1  581   2.834   2.121  11.999  1.9146 -1.4851 -0.9574
   37TMC2    H2  582   2.659   2.082  11.612  3.0173  0.8065  0.6042
   37TMC2    C7  583   2.887   2.172  11.742  0.6599  0.4650  0.5998
   37TMC2    C8  584   2.427   1.990  11.695  0.1380 -0.0953  0.3764
   37TMC2    O1  585   2.988   2.173  11.815 -0.2735  0.6500  0.2404
   37TMC2    O2  586   2.461   1.909  11.610 -0.7370 -0.5726  0.0679
   37TMC2    O5  587   2.301   2.032  11.717  0.6501  0.0592 -0.4208
   37TMC2    H5  588   2.312   2.102  11.785 -2.0526  2.0126 -1.9943
   38MPD2     C  589   2.778   1.788  12.568 -0.3518 -0.0266  0.8003
   38MPD2    C1  590   2.875   1.757  12.468  0.0138  0.3364  0.5818
   38MPD2    C2  591   2.862   1.827  12.346  0.3328  0.0748  0.1000
   38MPD2    C3  592   2.751   1.904  12.318  0.3240  0.1122 -0.8991
   38MPD2    C4  593   2.653   1.922  12.414 -0.5314 -0.1549  0.1061
   38MPD2    C5  594   2.667   1.868  12.537 -0.0914 -0.2368  0.6485
   38MPD2     H  595   2.939   1.825  12.270 -0.8280 -1.0668 -1.0602
   38MPD2    H1  596   2.569   1.986  12.389 -0.6921  0.8072  3.1834
   38MPD2    H2  597   2.784   1.740  12.665 -0.8401 -2.4580 -0.3707
   38MPD2    H3  598   2.597   1.896  12.615 -0.8601 -0.5109  0.0587
   38MPD2     N  599   2.741   1.951  12.183 -0.4520 -0.5085 -0.2414
   38MPD2    H5  600   2.827   1.956  12.130 -0.9854  0.8737 -0.9564
   38MPD2    N1  601   3.001   1.698  12.501 -0.6783 -0.5384 -0.2682
   38MPD2    H7  602   3.074   1.709  12.431 -1.0398  1.8764 -0.2791
   39TMC2    C1  603   2.059   3.897   1.424 -0.5089  0.4071  0.4412
   39TMC2    C2  604   2.198   3.904   1.425 -0.5643 -0.2223 -1.1781
   39TMC2    C3  605   2.249   4.006   1.500  1.2218 -0.9338 -0.2600
   39TMC2    C4  606   1.985   3.992   1.487 -0.0884  0.1043  0.3393
   39TMC2    C5  607   2.039   4.090   1.560  0.7487  0.3670 -0.7205
   39TMC2    C6  608   2.174   4.097   1.571  0.2136  0.2482  0.1456
   39TMC2     C  609   1.995   3.812   1.321  0.4266 -0.1318 -0.1512
   39TMC2     O  610   1.875   3.834   1.298  0.3205  0.4854  0.1453
   39TMC2     H  611   2.257   3.829   1.374  0.4517  0.1279 -0.5204
   39TMC2    H1  612   1.877   3.978   1.492  0.1347 -1.8606 -0.1866
   39TMC2    H2  613   2.220   4.171   1.636  1.6390 -0.4653 -0.0453
   39TMC2    C7  614   1.952   4.201   1.601  0.8319  0.0392 -0.2621
   39TMC2    C8  615   2.374   3.976   1.560 -0.5202  0.0874  0.5443
   39TMC2    O1  616   1.832   4.175   1.619 -0.1063 -0.1616 -0.4126
   39TMC2    O2  617   2.412   4.028   1.662 -0.7343  0.3364 -0.0939
   39TMC2    O5  618   2.455   3.901   1.475 -0.2204 -0.2911 -0.0137
   39TMC2    H5  619   2.419   3.898   1.384  1.7868 -1.9190 -0.7585
   40MPD2     C  620   2.093   3.473   1.198  0.2243  0.3699 -0.2229
   40MPD2    C1  621   2.015   3.582   1.222 -0.0917  0.0009  0.3623
   40MPD2    C2  622   1.897   3.579   1.153  0.9031  0.5553  0.3027
   40MPD2    C3  623   1.847   3.475   1.082  0.1826  0.7097 -0.5307
   40MPD2    C4  624   1.928   3.359   1.061  0.8979 -0.4214 -0.3212
   40MPD2    C5  625   2.056   3.363   1.122 -0.1213  0.1210  0.4652
   40MPD2     H  626   1.841   3.671   1.143  1.2665  0.3825 -3.4369
   40MPD2    H1  627   1.886   3.269   1.018 -0.1233 -0.2574  0.3149
   40MPD2    H2  628   2.190   3.464   1.245 -0.8222 -1.5156  1.5811
   40MPD2    H3  629   2.122   3.278   1.117 -0.9282 -0.6552  3.3134
   40MPD2     N  630   1.712   3.469   1.031 -0.0348  0.6613  0.1391
   40MPD2    H5  631   1.684   3.396   0.965  0.9056 -1.0465  1.6335
   40MPD2    N1  632   2.067   3.694   1.293 -0.3568 -0.6385 -0.1814
   40MPD2    H7  633   2.161   3.681   1.329 -0.3440 -2.2224 -0.7841
   41TMC2    C1  634   0.287   2.346  13.168 -0.6110  0.3580 -0.6603
   41TMC2    C2  635   0.177   2.284  13.221 -0.5604  0.2797 -0.7912
   41TMC2    C3  636   0.136   2.172  13.144  0.8177  0.4174  0.0979
   41TMC2    C4  637   0.349   2.308  13.046 -0.1221  0.3253  0.3872
   41TMC2    C5  638   0.292   2.219  12.974 -0.1816  0.5925 -0.1860
   41TMC2    C6  639   0.182   2.151  13.018 -0.1772 -0.1549 -0.2221
   41TMC2     C  640   0.321   2.482  13.214 -0.3423  0.2421 -0.3437
   41TMC2     O  641   0.420   2.534  13.162  0.1543  0.6593  0.0645
   41TMC2     H  642   0.115   2.317  13.303 -0.4770 -0.5325 -0.4023
   41TMC2    H1  643   0.427   2.375  13.011 -0.6097 -0.1284 -1.5668
   41TMC2    H2  644   0.138   2.081  12.948  2.3120 -0.2271 -1.6773
   41TMC2    C7  645   0.303   2.246  12.832  0.5413 -0.0613 -0.1411
   41TMC2    C8  646   0.049   2.080  13.211  0.0304 -0.9150 -0.2196
   41TMC2    O1  647   0.336   2.363  12.811 -0.0475 -0.0110  0.4491
   41TMC2    O2  648   4.702   2.012  13.154 -0.2572 -0.0550  0.1323
   41TMC2    O5  649   0.103   2.041  13.329 -0.5804  0.8666 -0.3638
   41TMC2    H5  650   0.182   2.091  13.358 -0.1067  0.4717 -0.9867
   42MPD2     C  651   0.349   2.744  13.349 -0.6013  0.0753  0.5393
   42MPD2    C1  652   0.262   2.648  13.390  0.2844  0.8935 -0.3727
   42MPD2    C2  653   0.197   2.669  13.507  0.2595  0.2054  0.6604
   42MPD2    C3  654   0.215   2.777  13.592  0.3350  0.0134 -0.5479
   42MPD2    C4  655   0.301   2.878  13.551 -0.2491 -0.0569 -0.3772
   42MPD2    C5  656   0.363   2.856  13.428 -0.2691 -0.7664  0.0792
   42MPD2     H  657   0.121   2.597  13.536  0.5558 -0.2158  0.3976
   42MPD2    H1  658   0.317   2.962  13.618  1.8713 -0.7508 -0.0130
   42MPD2    H2  659   0.407   2.743  13.257 -0.6368  1.2549  0.5021
   42MPD2    H3  660   0.448   2.921  13.408  0.6392 -1.6929  0.8759
   42MPD2     N  661   0.163   2.796  13.723  0.1456  0.0659 -0.1266
   42MPD2    H5  662   0.198   2.880  13.767 -2.9511  0.8831  0.7662
   42MPD2    N1  663   0.238   2.523  13.315  0.4370  0.1506  0.4827
   42MPD2    H7  664   0.164   2.459  13.343  1.8715 -1.0663  1.4529
   43TMC2    C1  665   2.272   0.007   0.595 -0.4144  0.5391  0.5694
   43TMC2    C2  666   2.152   4.722   0.655  0.0830  0.6962  0.2255
   43TMC2    C3  667   2.094   0.088   0.724 -0.3497  0.5382 -0.4371
   43TMC2    C4  668   2.335   0.130   0.595  0.4304 -0.0499 -0.5499
   43TMC2    C5  669   2.278   0.229   0.668  0.0255 -0.4860 -0.2291
   43TMC2    C6  670   2.164   0.206   0.735  1.3201  0.3123 -0.3751
   43TMC2     C  671   2.354   4.636   0.541 -0.9090  0.0957  0.1861
   43TMC2     O  672   2.471   4.669   0.513 -0.2354  0.3210  0.2616
   43TMC2     H  673   2.118   4.620   0.669 -0.0762  0.3303 -2.9008
   43TMC2    H1  674   2.437   0.147   0.564  1.0458  0.6925  1.8755
   43TMC2    H2  675   2.100   0.284   0.775  2.1188 -0.3539  2.1854
   43TMC2    C7  676   2.364   0.349   0.683 -0.1671 -0.4338  0.1627
   43TMC2    C8  677   1.951   0.102   0.706 -0.1520 -0.8452 -0.1368
   43TMC2    O1  678   2.467   0.355   0.615  0.2163 -0.2701 -0.6701
   43TMC2    O2  679   1.889   0.195   0.749 -0.7545 -0.2279 -0.3537
   43TMC2    O5  680   1.903   4.734   0.632  0.6628 -0.0545 -0.2323
   43TMC2    H5  681   1.969   4.673   0.594  0.7087 -1.6406  2.3511
   44MPD2     C  682   2.377   4.181   0.306  0.5239 -0.0086 -0.4274
   44MPD2    C1  683   2.484   4.261   0.338  0.0723 -0.5010 -0.3161
   44MPD2    C2  684   2.457   4.383   0.406 -1.0122  0.4417 -0.3721
   44MPD2    C3  685   2.326   4.406   0.454  0.3533  0.0129 -1.2902
   44MPD2    C4  686   2.234   4.311   0.432 -0.6722 -0.2689  0.4208
   44MPD2    C5  687   2.247   4.212   0.344  0.1364  0.3741  0.7829
   44MPD2     H  688   2.533   4.459   0.424 -1.4192  1.0924 -1.4195
   44MPD2    H1  689   2.133   4.314   0.472  0.0607 -0.0588  2.2722
   44MPD2    H2  690   2.392   4.093   0.244  0.4834  0.0935 -0.5838
   44MPD2    H3  691   2.167   4.140   0.330  1.7244 -1.0316 -1.1550
   44MPD2     N  692   2.286   4.518   0.526  0.1147  0.3574  0.0834
   44MPD2    H5  693   2.185   4.525   0.534 -0.0250 -0.7923 -0.5700
   44MPD2    N1  694   2.622   4.244   0.288 -0.0319 -0.4723 -0.4076
   44MPD2    H7  695   2.679   4.323   0.316 -0.5128 -0.7791  1.4440
   45TMC2    C1  696   2.508   2.647   9.758 -0.4255  0.3672 -0.0784
   45TMC2    C2  697   2.514   2.713   9.638 -0.4232  0.4351  0.3287
   45TMC2    C3  698   2.571   2.839   9.640 -0.1042  0.7147 -0.4597
   45TMC2    C4  699   2.562   2.690   9.875 -0.1320 -0.1733  0.0149
   45TMC2    C5  700   2.620   2.810   9.868  0.3333  0.8258  0.9429
   45TMC2    C6  701   2.630   2.884   9.754 -0.6104 -0.1209 -0.3457
   45TMC2     C  702   2.467   2.506   9.742  0.5049  0.6777  0.0260
   45TMC2     O  703   2.413   2.480   9.632 -0.4961 -0.4438 -0.4969
   45TMC2     H  704   2.458   2.684   9.550  0.1953  0.1740  0.0229
   45TMC2    H1  705   2.552   2.630   9.964 -2.7717  1.1577  0.5998
   45TMC2    H2  706   2.674   2.983   9.766  0.6786 -0.4663 -2.1835
   45TMC2    C7  707   2.703   2.844   9.981  0.8249  0.0730  0.2379
   45TMC2    C8  708   2.561   2.913   9.515 -0.3607 -0.5360  0.2878
   45TMC2    O1  709   2.653   2.821  10.086 -0.3196  0.1743 -0.0637
   45TMC2    O2  710   2.551   2.854   9.409  0.1929 -1.3272  0.4950
   45TMC2    O5  711   2.613   3.037   9.532  0.1046 -0.3077 -0.4887
   45TMC2    H5  712   2.584   3.087   9.610  1.2703  1.3339 -1.1151
   46MPD2     C  713   2.540   2.227   9.980 -0.2063 -0.2058  0.2344
   46MPD2    C1  714   2.485   2.288   9.867 -0.4685 -0.3791 -0.3803
   46MPD2    C2  715   2.403   2.215   9.790  0.3716 -0.1288 -0.5378
   46MPD2    C3  716   2.378   2.081   9.824  0.6367  0.2891  0.2387
   46MPD2    C4  717   2.432   2.028   9.938 -0.0291 -0.5078 -0.6388
   46MPD2    C5  718   2.515   2.101  10.015  0.6985  0.0803  0.4876
   46MPD2     H  719   2.348   2.262   9.708  0.8775 -0.3847 -1.0285
   46MPD2    H1  720   2.420   1.923   9.964  0.8222 -0.2159  0.9076
   46MPD2    H2  721   2.600   2.286  10.049 -0.9842  1.4024 -0.4631
   46MPD2    H3  722   2.557   2.052  10.102  5.2070  0.6701 -1.3424
   46MPD2     N  723   2.291   2.001   9.738  0.1568 -0.2036  0.3835
   46MPD2    H5  724   2.247   2.060   9.669 -0.7519 -0.4521  0.7465
   46MPD2    N1  725   2.505   2.428   9.853  0.3437  0.2951  0.1172
   46MPD2    H7  726   2.561   2.464   9.930 -1.7711  1.1754  1.2543
   47TMC2    C1  727   4.464   2.742   9.268 -0.4882 -0.3852 -0.1220
   47TMC2    C2  728   4.532   2.641   9.213  0.0167  0.7208  0.0435
   47TMC2    C3  729   4.470   2.583   9.107 -0.2142  0.0397  0.7891
   47TMC2    C4  730   4.339   2.786   9.226  1.1053  0.8684  0.4361
   47TMC2    C5  731   4.280   2.725   9.121  0.4433 -0.1976  0.2514
   47TMC2    C6  732   4.348   2.622   9.057  0.0199 -0.2937  0.0072
   47TMC2     C  733   4.524   2.821   9.375 -0.2596 -0.5754 -0.8375
   47TMC2     O  734   4.503   2.939   9.375 -0.1352 -0.7649  0.3639
   47TMC2     H  735   4.637   2.627   9.236  0.3714  1.3827 -1.1500
   47TMC2    H1  736   4.289   2.872   9.269 -0.7000 -0.3620  0.7949
   47TMC2    H2  737   4.288   2.575   8.979 -0.4175  2.0752 -1.0718
   47TMC2    C7  738   4.150   2.782   9.071  0.1626 -0.9516 -0.1706
   47TMC2    C8  739   4.533   2.470   9.036 -0.3593  1.3315  0.1167
   47TMC2    O1  740   4.069   2.799   9.163  0.4631  0.6566 -0.0952
   47TMC2    O2  741   4.462   2.388   8.978  0.4038 -0.2602  0.3115
   47TMC2    O5  742   4.650   2.443   9.093  0.2286 -0.5027  0.0929
   47TMC2    H5  743   4.701   2.512   9.141  2.5202 -1.4522 -1.0021
   48MPD2     C  744   4.644   2.937   9.622  0.3583 -0.3084  0.9213
   48MPD2    C1  745   4.669   2.809   9.568  0.1494  0.2470  0.7600
   48MPD2    C2  746   0.017   2.731   9.635 -0.3023 -0.4116  0.4090
   48MPD2    C3  747   0.075   2.769   9.754 -0.5366  0.2296  0.2223
   48MPD2    C4  748   0.050   2.895   9.803 -0.2301 -0.3786  0.5441
   48MPD2    C5  749   4.707   2.983   9.736 -0.5820 -0.4103 -0.1020
   48MPD2     H  750   0.040   2.633   9.595 -1.1460 -0.3360 -0.2604
   48MPD2    H1  751   0.102   2.938   9.887 -2.6416 -1.3907  2.5628
   48MPD2    H2  752   4.560   2.996   9.586  0.6627  0.2974  1.2104
   48MPD2    H3  753   4.686   3.076   9.788 -0.2985 -0.7909  0.6964
   48MPD2     N  754   0.178   2.691   9.818  0.2922 -0.2383  0.5093
   48MPD2    H5  755   0.194   2.597   9.784 -1.2724 -0.6658  0.9554
   48MPD2    N1  756   4.612   2.752   9.452  0.1386 -0.6698  0.8849
   48MPD2    H7  757   4.635   2.656   9.431  2.5747  0.0494  0.3337
   49TMC2    C1  758   3.058   0.561   9.780  0.3795  0.0278  0.3808
   49TMC2    C2  759   3.044   0.617   9.653  0.4338  0.0941  0.2821
   49TMC2    C3  760   2.929   0.591   9.582 -0.6595  0.3815  0.1085
   49TMC2    C4  761   2.967   0.475   9.821  0.1680 -0.2029  0.4376
   49TMC2    C5  762   2.864   0.435   9.735  0.2025  0.4782 -0.0934
   49TMC2    C6  763   2.839   0.493   9.616 -0.3096  0.6462 -0.1081
   49TMC2     C  764   3.196   0.549   9.823  0.5122 -0.5781  0.0645
   49TMC2     O  765   3.281   0.597   9.747  0.0262 -1.1215 -0.5388
   49TMC2     H  766   3.110   0.699   9.629 -0.9779  0.7124 -1.4971
   49TMC2    H1  767   2.974   0.423   9.916  1.6717 -1.6652 -0.4604
   49TMC2    H2  768   2.753   0.481   9.552 -1.8152  2.8891  1.4841
   49TMC2    C7  769   2.784   0.323   9.779  0.1953  0.4136  0.4434
   49TMC2    C8  770   2.902   0.656   9.452  0.7379 -0.5070  0.5805
   49TMC2    O1  771   2.820   0.266   9.880 -0.5119 -0.0788 -0.0640
   49TMC2    O2  772   2.798   0.645   9.390  0.5076  0.2018 -0.2468
   49TMC2    O5  773   3.016   0.726   9.411 -0.1380 -0.2650 -0.5362
   49TMC2    H5  774   3.100   0.712   9.459 -0.2433  1.0928  0.0164
   50MPD2     C  775   3.453   0.486   9.964  0.7835  0.3020 -0.1808
   50MPD2    C1  776   3.324   0.469  10.016 -0.9654  0.2702  0.3802
   50MPD2    C2  777   3.309   0.407  10.139 -0.5369  0.3394 -0.3264
   50MPD2    C3  778   3.416   0.388  10.219 -0.0647  0.3725 -0.3917
   50MPD2    C4  779   3.539   0.404  10.168 -0.5093  0.1850  0.0347
   50MPD2    C5  780   3.554   0.448  10.038 -0.2399  0.4280  0.3164
   50MPD2     H  781   3.207   0.388  10.169  0.0483 -1.6441  0.3901
   50MPD2    H1  782   3.633   0.385  10.221 -1.0122 -1.4796  0.3159
   50MPD2    H2  783   3.486   0.514   9.864  1.4604 -0.5093 -0.1878
   50MPD2    H3  784   3.654   0.449   9.994 -0.1281  0.9932  0.5815
   50MPD2     N  785   3.400   0.342  10.354  0.1865 -0.2221  0.1143
   50MPD2    H5  786   3.481   0.319  10.410 -0.3554 -1.5399  0.3497
   50MPD2    N1  787   3.203   0.493   9.951 -0.0630  0.0714  0.1634
   50MPD2    H7  788   3.118   0.473  10.003  0.4613  0.2721  1.1100
   51TMC2    C1  789   3.421   4.186   1.310 -0.5748  0.7557  0.2089
   51TMC2    C2  790   3.305   4.267   1.327  0.1907 -0.1805 -0.2244
   51TMC2    C3  791   3.293   4.369   1.236 -0.2965 -0.8459  0.3090
   51TMC2    C4  792   3.513   4.215   1.212  0.3829  0.0982 -0.3189
   51TMC2    C5  793   3.481   4.311   1.121 -0.2636  0.0557 -0.3221
   51TMC2    C6  794   3.368   4.387   1.120 -0.5190  0.4521 -0.0128
   51TMC2     C  795   3.429   4.062   1.381 -0.4070  0.5724  0.3797
   51TMC2     O  796   3.487   3.973   1.321 -0.4803 -0.0276 -0.1778
   51TMC2     H  797   3.227   4.246   1.399  0.2914  0.5444  0.0998
   51TMC2    H1  798   3.608   4.163   1.213  0.8409  0.8696 -2.4485
   51TMC2    H2  799   3.348   4.467   1.050  0.8378  1.2242  0.4840
   51TMC2    C7  800   3.568   4.305   1.003  0.5330  0.4575 -0.0974
   51TMC2    C8  801   3.145   4.400   1.218  0.2078 -0.1689  0.0591
   51TMC2    O1  802   3.639   4.206   0.988  0.4347 -0.1971 -0.2107
   51TMC2    O2  803   3.082   4.372   1.121 -0.5271  0.5536 -0.1727
   51TMC2    O5  804   3.100   4.434   1.342 -0.3037  0.3575  0.3767
   51TMC2    H5  805   3.178   4.441   1.401  0.1786  0.2910 -0.2546
   52MPD2     C  806   3.371   3.746   1.774 -0.2818  0.0546 -0.2226
   52MPD2    C1  807   3.454   3.746   1.665 -0.5485  0.2065 -0.2383
   52MPD2    C2  808   3.439   3.854   1.583  0.2095  0.3317 -0.3065
   52MPD2    C3  809   3.351   3.956   1.588 -0.3394 -0.6145 -1.3102
   52MPD2    C4  810   3.274   3.957   1.700 -0.5300 -0.4491  0.4016
   52MPD2    C5  811   3.284   3.849   1.791 -0.4062 -0.6279  0.1663
   52MPD2     H  812   3.502   3.849   1.496 -1.0471 -1.6177 -1.1146
   52MPD2    H1  813   3.201   4.035   1.716  2.1433  2.3244 -0.7972
   52MPD2    H2  814   3.386   3.670   1.850  1.2276  1.6173  1.0474
   52MPD2    H3  815   3.217   3.855   1.876  0.3739 -0.7232  0.7946
   52MPD2     N  816   3.350   4.061   1.493  0.2255 -0.1569  0.0148
   52MPD2    H5  817   3.297   4.145   1.516  0.1798 -0.4886  1.0992
   52MPD2    N1  818   3.549   3.649   1.631 -0.4796  0.3103 -0.1165
   52MPD2    H7  819   3.588   3.653   1.537 -1.3946  0.9313 -0.4717
   53TMC2    C1  820   3.505   2.466  11.582  0.4518  0.7047  0.2587
   53TMC2    C2  821   3.632   2.509  11.541 -0.4165  0.4070  0.0759
   53TMC2    C3  822   3.728   2.526  11.638  0.4766  0.4943 -0.3925
   53TMC2    C4  823   3.478   2.445  11.714 -0.3169 -0.7835  0.5477
   53TMC2    C5  824   3.581   2.462  11.803  0.7347  0.5284  0.6863
   53TMC2    C6  825   3.702   2.507  11.769 -0.0109 -0.0184 -0.3702
   53TMC2     C  826   3.400   2.456  11.479  0.2725 -1.0092  0.6204
   53TMC2     O  827   3.398   2.525  11.378  0.8060 -0.8750 -0.4011
   53TMC2     H  828   3.660   2.514  11.436 -1.1480  0.5966 -0.1169
   53TMC2    H1  829   3.377   2.431  11.749 -0.7453 -2.0710 -1.2653
   53TMC2    H2  830   3.779   2.526  11.843 -0.9265  1.4381  0.2037
   53TMC2    C7  831   3.544   2.432  11.941  0.3402  0.5015 -0.1304
   53TMC2    C8  832   3.871   2.518  11.618 -0.0773  0.1348 -0.2812
   53TMC2    O1  833   3.428   2.457  11.967  0.4320  0.4001 -0.5957
   53TMC2    O2  834   3.947   2.476  11.705 -0.4624  0.1301 -0.0921
   53TMC2    O5  835   3.895   2.611  11.518 -0.1781  0.4324 -0.3486
   53TMC2    H5  836   3.830   2.639  11.449 -1.5674  0.7704  1.0923
   54MPD2     C  837   3.117   2.447  11.384  0.0384  0.4578 -0.0680
   54MPD2    C1  838   3.173   2.376  11.484 -0.5920  0.0113 -0.1213
   54MPD2    C2  839   3.085   2.300  11.557  0.0422  0.1276 -0.2239
   54MPD2    C3  840   2.946   2.307  11.542 -0.4552 -0.1603 -0.4922
   54MPD2    C4  841   2.897   2.399  11.454  0.3100  0.3286 -0.4354
   54MPD2    C5  842   2.982   2.458  11.366 -0.4506  0.5200 -0.2442
   54MPD2     H  843   3.129   2.230  11.627  2.1973  2.2117  0.5446
   54MPD2    H1  844   2.791   2.412  11.436 -0.3126  2.0986  4.5633
   54MPD2    H2  845   3.179   2.510  11.321 -0.2044  0.4170 -0.3531
   54MPD2    H3  846   2.931   2.509  11.285 -2.9354  0.2207  1.1118
   54MPD2     N  847   2.859   2.246  11.636 -0.3418  0.5752 -0.6456
   54MPD2    H5  848   2.760   2.251  11.613 -0.7205  0.5961  1.0260
   54MPD2    N1  849   3.308   2.372  11.522 -0.1457 -0.4026  0.5451
   54MPD2    H7  850   3.328   2.312  11.601 -3.3766 -2.2421 -0.0440
   55TMC2    C1  851   0.449   4.334  17.491  0.0661 -0.0925  0.5455
   55TMC2    C2  852   0.407   4.256  17.386 -0.0631 -0.4616  0.0821
   55TMC2    C3  853   0.433   4.120  17.389 -0.6017  0.1550 -0.0892
   55TMC2    C4  854   0.511   4.278  17.606  0.2555  0.2135 -0.1056
   55TMC2    C5  855   0.512   4.138  17.611  0.1748 -0.3375  0.9936
   55TMC2    C6  856   0.475   4.062  17.503  0.0762  0.3801 -0.3078
   55TMC2     C  857   0.446   4.480  17.486  0.2729 -0.0030 -0.5514
   55TMC2     O  858   0.472   4.550  17.585  0.2451 -0.2160 -0.2692
   55TMC2     H  859   0.335   4.297  17.315 -1.0401  0.1985  1.4381
   55TMC2    H1  860   0.539   4.342  17.689 -1.7436 -2.9264  2.9588
   55TMC2    H2  861   0.498   3.956  17.499 -1.8398 -0.0336 -0.4988
   55TMC2    C7  862   0.515   4.067  17.739  0.0623  0.2825 -0.0226
   55TMC2    C8  863   0.368   4.038  17.299 -0.0806  0.0166 -0.5938
   55TMC2    O1  864   0.495   3.948  17.733 -0.4111 -0.4318  0.1196
   55TMC2    O2  865   0.376   3.914  17.301  0.5099  0.3565  0.2410
   55TMC2    O5  866   0.336   4.100  17.183  0.2028 -0.1751 -0.0221
   55TMC2    H5  867   0.365   4.194  17.173  0.6911 -0.5250 -1.8409
   56MPD2     C  868   0.423   4.703  17.186 -0.0687  0.0456  0.0811
   56MPD2    C1  869   0.418   4.678  17.321  0.3752 -0.5615  0.3170
   56MPD2    C2  870   0.387   0.047  17.409 -1.1319  0.5503 -0.1359
   56MPD2    C3  871   0.374   0.178  17.353 -0.4164 -0.1675 -0.3316
   56MPD2    C4  872   0.376   0.197  17.220 -0.0103 -0.4896 -0.5877
   56MPD2    C5  873   0.408   0.089  17.138 -0.4389 -0.2564 -0.3597
   56MPD2     H  874   0.363   0.033  17.514  1.3814  1.9614  0.6482
   56MPD2    H1  875   0.359   0.293  17.174  1.5520 -1.1280 -2.4805
   56MPD2    H2  876   0.443   4.624  17.114  1.7634 -2.0021  2.8526
   56MPD2    H3  877   0.429   0.108  17.033 -0.3805 -0.7005 -0.4304
   56MPD2     N  878   0.343   0.273  17.449 -0.1743 -0.2579 -0.0858
   56MPD2    H5  879   0.356   0.249  17.547 -1.2728  0.2162  0.1676
   56MPD2    N1  880   0.433   4.539  17.360 -0.1592 -0.3049  0.1872
   56MPD2    H7  881   0.425   4.484  17.275 -1.3365 -0.7137  0.5612
   57TMC2    C1  882   3.736   0.453  13.749  0.6799 -0.6761 -0.0758
   57TMC2    C2  883   3.705   0.335  13.685 -0.3858 -0.6250  0.5117
   57TMC2    C3  884   3.765   0.315  13.562 -0.2308 -0.4645  0.4135
   57TMC2    C4  885   3.827   0.538  13.701  0.1572 -0.0210  0.3034
   57TMC2    C5  886   3.886   0.508  13.584  0.2966  0.4925  0.4131
   57TMC2    C6  887   3.856   0.402  13.504 -0.0516 -0.1758 -0.0171
   57TMC2     C  888   3.633   0.512  13.824 -0.4479 -0.0466  0.0940
   57TMC2     O  889   3.645   0.632  13.844 -0.6467  0.2036 -0.0637
   57TMC2     H  890   3.626   0.270  13.718  0.4395 -1.8298  0.1410
   57TMC2    H1  891   3.859   0.623  13.760 -0.0410  0.4441 -0.2656
   57TMC2    H2  892   3.891   0.387  13.403 -1.8253 -0.7980 -0.5367
   57TMC2    C7  893   3.918   0.631  13.513  0.6630  0.3581  0.2224
   57TMC2    C8  894   3.710   0.203  13.493  0.2180  0.1142  0.2544
   57TMC2    O1  895   3.837   0.720  13.513 -0.5952 -0.2142  0.3567
   57TMC2    O2  896   3.654   0.112  13.547 -0.0287 -0.3950  0.6778
   57TMC2    O5  897   3.744   0.205  13.366  0.0240  0.3779  0.2153
   57TMC2    H5  898   3.742   0.297  13.331 -2.3776  0.9311  1.8896
   58MPD2     C  899   3.161   0.508  13.982 -0.6512 -0.1200  0.5608
   58MPD2    C1  900   3.242   0.614  13.957  1.0525  0.0292  0.4135
   58MPD2    C2  901   3.376   0.593  13.954 -0.6289  0.1849 -0.6286
   58MPD2    C3  902   3.429   0.462  13.950  0.2976 -0.1053 -0.4199
   58MPD2    C4  903   3.350   0.359  13.980 -0.4124  0.2563 -0.3336
   58MPD2    C5  904   3.215   0.381  14.000 -0.9582 -0.3243  0.1523
   58MPD2     H  905   3.442   0.674  13.925 -1.5383  0.5279 -1.7369
   58MPD2    H1  906   3.388   0.257  13.981  0.5550  0.5721 -3.6137
   58MPD2    H2  907   3.055   0.516  14.002 -0.7671 -0.8885  0.2581
   58MPD2    H3  908   3.151   0.298  14.029 -0.6780  0.5940  3.3767
   58MPD2     N  909   3.553   0.434  13.898  0.0140 -0.5114 -1.0173
   58MPD2    H5  910   3.583   0.337  13.907 -0.1250 -0.4200  0.4153
   58MPD2    N1  911   3.195   0.748  13.938  0.2637  0.4916  0.1569
   58MPD2    H7  912   3.272   0.815  13.937  1.5165 -0.8868  2.5665
   59TMC2    C1  913   1.342   0.952  12.804 -1.0063  1.8822 -0.1160
   59TMC2    C2  914   1.446   1.032  12.781 -0.9224  0.3771  0.5548
   59TMC2    C3  915   1.464   1.070  12.649  0.3200 -0.0534  0.3090
   59TMC2    C4  916   1.258   0.911  12.705  0.0974  0.2676 -0.4175
   59TMC2    C5  917   1.286   0.945  12.570  0.2938 -0.6388 -0.5877
   59TMC2    C6  918   1.387   1.027  12.535 -0.2740 -0.2374  0.1052
   59TMC2     C  919   1.297   0.950  12.943 -0.3422 -0.3547  0.1371
   59TMC2     O  920   1.181   0.961  12.980 -0.4352  0.4645 -0.2879
   59TMC2     H  921   1.503   1.072  12.864 -1.5888  1.2844  0.5729
   59TMC2    H1  922   1.172   0.849  12.725  1.5284 -0.1591  4.4945
   59TMC2    H2  923   1.421   1.054  12.436 -0.0584  1.3730  0.6194
   59TMC2    C7  924   1.169   0.930  12.482 -0.6165 -0.1210 -0.0013
   59TMC2    C8  925   1.572   1.164  12.635 -0.1819 -0.0539  0.5001
   59TMC2    O1  926   1.101   0.828  12.476 -0.4268  0.4262 -0.1265
   59TMC2    O2  927   1.679   1.163  12.694  0.1527  0.0515  0.1129
   59TMC2    O5  928   1.518   1.283  12.590 -0.1054  0.6237 -0.1218
   59TMC2    H5  929   1.426   1.264  12.564 -0.0887 -1.8788  1.6014
   60MPD2     C  930   1.283   1.032  13.236  0.2800 -0.4892  0.4241
   60MPD2    C1  931   1.396   0.995  13.166  0.5216  0.6251  0.6677
   60MPD2    C2  932   1.517   1.012  13.227 -0.5212 -0.1943  0.0586
   60MPD2    C3  933   1.532   1.045  13.361 -0.1565 -0.0104 -0.6895
   60MPD2    C4  934   1.416   1.076  13.426  0.1681 -0.6321  0.2646
   60MPD2    C5  935   1.288   1.071  13.367 -0.5954  0.2369  0.0297
   60MPD2     H  936   1.605   0.982  13.170  1.6144  0.8204  2.8148
   60MPD2    H1  937   1.416   1.127  13.522 -1.7179 -0.8454  0.3678
   60MPD2    H2  938   1.186   1.038  13.189  1.1538  1.2015 -1.1810
   60MPD2    H3  939   1.203   1.109  13.421 -0.5033  0.4637  0.0165
   60MPD2     N  940   1.658   1.056  13.426  0.7938  0.2369 -0.0015
   60MPD2    H5  941   1.657   1.085  13.523 -1.2432  3.9088 -1.1080
   60MPD2    N1  942   1.401   0.950  13.032 -0.3608  0.0937 -0.0342
   60MPD2    H7  943   1.495   0.931  13.000  0.2252 -0.6817  2.2101
   61TMC2    C1  944   1.124   1.610  14.510  0.1460  0.2936 -0.0708
   61TMC2    C2  945   1.211   1.525  14.566 -0.4847  0.3268 -1.2748
   61TMC2    C3  946   1.213   1.517  14.699 -0.4029 -0.4753 -0.4097
   61TMC2    C4  947   1.033   1.681  14.584 -0.2479  0.0564 -0.2285
   61TMC2    C5  948   1.049   1.689  14.719 -0.3154  0.3064  0.4354
   61TMC2    C6  949   1.141   1.604  14.776  0.8277  0.4011 -0.0853
   61TMC2     C  950   1.178   1.681  14.395  0.6534 -0.1348 -0.2711
   61TMC2     O  951   1.249   1.617  14.319 -0.2459 -0.1166  0.1922
   61TMC2     H  952   1.291   1.487  14.503 -0.6614 -0.6414 -0.9214
   61TMC2    H1  953   0.953   1.732  14.532 -0.9837 -0.3440  0.5213
   61TMC2    H2  954   1.141   1.599  14.884  1.1567 -0.7059 -0.1459
   61TMC2    C7  955   1.052   1.829  14.758 -1.0098  0.2317  0.3012
   61TMC2    C8  956   1.342   1.462  14.748  0.1339 -0.6503 -0.2603
   61TMC2    O1  957   1.053   1.911  14.668 -0.2086 -0.1081  0.6047
   61TMC2    O2  958   1.442   1.473  14.676 -0.7084 -0.0461 -0.7204
   61TMC2    O5  959   1.340   1.493  14.873  0.0722  0.4930  0.0652
   61TMC2    H5  960   1.257   1.456  14.910  0.2995 -0.9646 -0.9194
   62MPD2     C  961   1.290   1.896  14.225  0.2525  0.5971 -0.6162
   62MPD2    C1  962   1.211   1.921  14.333 -0.1128  0.2129  0.5396
   62MPD2    C2  963   1.179   2.053  14.369  1.4272 -0.6447 -0.1148
   62MPD2    C3  964   1.245   2.159  14.300  0.0219 -0.1201 -0.5232
   62MPD2    C4  965   1.344   2.130  14.201 -0.1566  0.0558  0.3332
   62MPD2    C5  966   1.361   1.999  14.162 -0.3055 -0.1936 -0.7389
   62MPD2     H  967   1.119   2.066  14.458  1.7677 -0.7335  0.1280
   62MPD2    H1  968   1.404   2.204  14.149 -1.2036  0.3609 -0.4422
   62MPD2    H2  969   1.315   1.798  14.188  1.4880  0.5729  0.2828
   62MPD2    H3  970   1.433   1.973  14.085  1.0281  1.1221  0.0767
   62MPD2     N  971   1.234   2.296  14.328 -0.3616  0.1570  0.2897
   62MPD2    H5  972   1.305   2.355  14.286  0.3414 -0.8387  0.0731
   62MPD2    N1  973   1.162   1.819  14.415  0.0963 -0.1290 -0.2513
   62MPD2    H7  974   1.113   1.856  14.496  0.1293 -1.5300  0.3951
   63TMC2    C1  975   4.323   3.254  10.204  0.0380 -0.4098  0.0122
   63TMC2    C2  976   4.427   3.284  10.289 -0.3059  0.0958 -0.5778
   63TMC2    C3  977   4.455   3.416  10.306  1.0662 -0.3503 -1.1209
   63TMC2    C4  978   4.252   3.353  10.144  0.4936 -0.0462 -0.1345
   63TMC2    C5  979   4.292   3.482  10.164 -0.3256  0.3159  0.1693
   63TMC2    C6  980   4.393   3.523  10.250  0.4246  0.3889 -0.0980
   63TMC2     C  981   4.266   3.126  10.202  0.2601  0.4051  0.1714
   63TMC2     O  982   4.184   3.108  10.112  0.2953 -0.2949 -0.0309
   63TMC2     H  983   4.492   3.208  10.331  2.2297  2.4833 -0.1755
   63TMC2    H1  984   4.176   3.323  10.072 -0.3396 -0.4326  0.9045
   63TMC2    H2  985   4.432   3.624  10.251  0.4076  0.4146 -1.4049
   63TMC2    C7  986   4.253   3.555  10.041 -0.0170 -0.1898  0.0655
   63TMC2    C8  987   4.571   3.444  10.388  0.6356 -0.3674 -0.2032
   63TMC2    O1  988   4.270   3.502   9.934  0.5131  0.1836 -0.3682
   63TMC2    O2  989   4.649   3.358  10.418 -0.1530  0.0022  0.4900
   63TMC2    O5  990   4.561   3.560  10.469  0.2254 -0.1400 -0.0358
   63TMC2    H5  991   4.471   3.600  10.467 -0.5330 -2.0113 -2.6095
   64MPD2     C  992   4.180   2.643  10.323  0.3459  0.3242 -0.3922
   64MPD2    C1  993   4.313   2.668  10.358 -0.1491 -0.4152  0.5765
   64MPD2    C2  994   4.358   2.802  10.354 -0.7150 -0.0881  0.2164
   64MPD2    C3  995   4.274   2.905  10.308 -0.1742 -0.3728 -1.2835
   64MPD2    C4  996   4.147   2.870  10.269  0.3637  0.1264 -0.5793
   64MPD2    C5  997   4.098   2.740  10.274  0.1200  0.4076  0.1598
   64MPD2     H  998   4.462   2.828  10.370 -0.2406 -2.4346  0.9269
   64MPD2    H1  999   4.092   2.950  10.220 -2.2454 -0.4913  1.3495
   64MPD2    H2 1000   4.145   2.540  10.322 -1.8480  1.0946 -1.6148
   64MPD2    H3 1001   3.994   2.722  10.251  0.1859 -1.0256  1.0071
   64MPD2     N 1002   4.321   3.035  10.298 -0.4572  0.2287  0.1493
   64MPD2    H5 1003   4.406   3.061  10.347  0.7523 -1.7496 -0.9127
   64MPD2    N1 1004   4.384   2.559  10.407 -0.7109  0.3063 -0.5356
   64MPD2    H7 1005   4.343   2.467  10.410 -1.9210  0.8271 -1.0872
   65TMC2    C1 1006   1.359   2.466  14.924  0.2849 -0.7670 -0.2055
   65TMC2    C2 1007   1.426   2.569  14.875  0.1876 -0.8813 -0.2092
   65TMC2    C3 1008   1.408   2.688  14.943 -0.5478  0.0084 -0.1387
   65TMC2    C4 1009   1.271   2.474  15.024 -0.5285 -0.1191 -0.8561
   65TMC2    C5 1010   1.267   2.589  15.103  0.1151 -0.2755 -0.0610
   65TMC2    C6 1011   1.330   2.700  15.054  0.0910 -0.4830 -0.1597
   65TMC2     C 1012   1.347   2.355  14.838  0.5802  0.0545 -0.5178
   65TMC2     O 1013   1.348   2.368  14.714 -0.0122  0.1202 -0.7571
   65TMC2     H 1014   1.488   2.561  14.787  0.2183  2.9530 -0.5351
   65TMC2    H1 1015   1.213   2.386  15.052  1.7762 -1.4360 -0.2817
   65TMC2    H2 1016   1.326   2.800  15.097 -0.0123 -0.7065  0.3493
   65TMC2    C7 1017   1.163   2.604  15.208 -0.0065  0.0738  0.1887
   65TMC2    C8 1018   1.435   2.801  14.866  0.1850 -0.4837 -0.4621
   65TMC2    O1 1019   1.077   2.516  15.210  0.3249  0.1171  0.2702
   65TMC2    O2 1020   1.538   2.815  14.799 -0.1821 -0.7478 -0.1285
   65TMC2    O5 1021   1.307   2.825  14.818 -0.4385  0.3388 -0.6860
   65TMC2    H5 1022   1.242   2.778  14.875  1.7037 -2.3728 -0.4411
   66MPD2     C 1023   1.347   2.070  14.741  0.0332 -0.3700 -0.3640
   66MPD2    C1 1024   1.359   2.109  14.870 -0.9154  0.1255  0.0420
   66MPD2    C2 1025   1.386   2.011  14.956 -0.6004  1.3004 -0.0077
   66MPD2    C3 1026   1.392   1.876  14.930  0.1446 -0.8234  0.0602
   66MPD2    C4 1027   1.395   1.841  14.799 -0.0641 -0.1206  1.1769
   66MPD2    C5 1028   1.369   1.938  14.702 -0.5277 -0.5107  0.6560
   66MPD2     H 1029   1.403   2.047  15.056  0.0359  0.1499  0.2939
   66MPD2    H1 1030   1.415   1.737  14.775 -1.2980 -0.1797  0.3822
   66MPD2    H2 1031   1.319   2.148  14.670 -0.5979  0.7436  1.1104
   66MPD2    H3 1032   1.360   1.907  14.599  2.0769 -0.1895  0.3196
   66MPD2     N 1033   1.412   1.776  15.030  0.0672 -0.4904  0.3698
   66MPD2    H5 1034   1.419   1.685  14.986  0.7958  0.0040 -0.5357
   66MPD2    N1 1035   1.368   2.242  14.913 -0.1360  0.2659  0.2124
   66MPD2    H7 1036   1.389   2.266  15.009  1.6877  1.4073 -0.4665
   67TMC2    C1 1037   1.391   1.282  14.009  0.1237 -0.2597  0.3322
   67TMC2    C2 1038   1.393   1.417  14.018 -0.2334 -0.1418 -0.5734
   67TMC2    C3 1039   1.486   1.484  14.093  0.8078 -0.1844 -0.2034
   67TMC2    C4 1040   1.487   1.208  14.077 -0.3448 -0.3749 -0.5274
   67TMC2    C5 1041   1.575   1.280  14.149 -0.6099 -0.0736  0.1783
   67TMC2    C6 1042   1.586   1.418  14.158  0.8292 -0.0307 -0.1607
   67TMC2     C 1043   1.292   1.203  13.927 -0.0731 -0.5035  0.5193
   67TMC2     O 1044   1.329   1.092  13.887 -0.3376 -0.4627  0.2447
   67TMC2     H 1045   1.331   1.474  13.950 -0.8364 -0.4890 -0.3130
   67TMC2    H1 1046   1.485   1.100  14.078 -0.1452 -0.3532  2.0880
   67TMC2    H2 1047   1.678   1.469  14.180  1.8090 -1.2831 -1.3670
   67TMC2    C7 1048   1.662   1.198  14.230 -0.8259  0.0736 -0.0258
   67TMC2    C8 1049   1.492   1.629  14.092 -0.6737  0.5913 -0.5447
   67TMC2    O1 1050   1.676   1.085  14.193 -0.1648  0.4755 -0.1463
   67TMC2    O2 1051   1.454   1.691  13.996 -0.1172  0.4156  0.0331
   67TMC2    O5 1052   1.568   1.676  14.194  0.0854  0.5155  0.5013
   67TMC2    H5 1053   1.572   1.607  14.264 -1.4541 -1.4559 -1.3802
   68MPD2     C 1054   1.091   1.123  13.723 -0.2186  0.0321 -0.7618
   68MPD2    C1 1055   1.073   1.213  13.829 -0.9894  0.0951 -0.3179
   68MPD2    C2 1056   0.946   1.269  13.842  0.1314 -0.2753  0.6074
   68MPD2    C3 1057   0.838   1.232  13.761  0.0910  0.3715 -0.3716
   68MPD2    C4 1058   0.860   1.127  13.674 -0.0710 -0.4182  0.5038
   68MPD2    C5 1059   0.985   1.081  13.654 -0.6673  0.2339  0.0554
   68MPD2     H 1060   0.932   1.344  13.920  1.6605  0.4466  0.1912
   68MPD2    H1 1061   0.779   1.076  13.623  0.3233  1.8435 -2.4230
   68MPD2    H2 1062   1.189   1.079  13.713  0.6524  1.4738  1.1907
   68MPD2    H3 1063   1.006   1.005  13.580  0.5324  1.7643 -1.1876
   68MPD2     N 1064   0.711   1.292  13.771 -0.0325 -0.0750 -0.0409
   68MPD2    H5 1065   0.646   1.260  13.700  1.6510  1.3222 -2.2330
   68MPD2    N1 1066   1.175   1.264  13.918  0.1540 -0.1204 -0.1545
   68MPD2    H7 1067   1.139   1.337  13.979  0.2992 -0.2314  0.0634
   69TMC2    C1 1068   3.221   2.600  12.240  0.2390 -0.3744  0.5482
   69TMC2    C2 1069   3.083   2.608  12.228  0.5167 -0.1669  0.3087
   69TMC2    C3 1070   3.040   2.685  12.125  0.2016  0.3453 -0.1407
   69TMC2    C4 1071   3.306   2.648  12.151 -0.8262  0.4566  0.1042
   69TMC2    C5 1072   3.254   2.717  12.040 -0.7196  0.3080 -0.0432
   69TMC2    C6 1073   3.123   2.744  12.030 -0.1536 -0.0996  0.4202
   69TMC2     C 1074   3.279   2.554  12.365 -0.0207  0.1325  0.7249
   69TMC2     O 1075   3.213   2.477  12.433 -0.1205  0.1775 -0.3137
   69TMC2     H 1076   3.020   2.551  12.295 -1.4466 -0.6774 -1.9562
   69TMC2    H1 1077   3.410   2.617  12.145 -0.9668  0.0581 -0.2608
   69TMC2    H2 1078   3.077   2.803  11.951  0.4850 -3.6560 -2.5992
   69TMC2    C7 1079   3.359   2.770  11.955 -0.5049  0.1051 -0.0375
   69TMC2    C8 1080   2.903   2.730  12.125 -0.2802 -0.5030  0.4742
   69TMC2    O1 1081   3.459   2.816  12.010  0.0212  0.0957  0.3132
   69TMC2    O2 1082   2.844   2.689  12.220 -0.3529 -0.7105  0.4917
   69TMC2    O5 1083   2.883   2.849  12.066  0.3258 -0.4447  0.3423
   69TMC2    H5 1084   2.949   2.880  12.000 -1.0428 -0.3565 -0.9902
   70MPD2     C 1085   3.613   2.679  12.482 -0.5096 -0.9015  0.4152
   70MPD2    C1 1086   3.493   2.599  12.489  0.5985 -0.2078 -0.2408
   70MPD2    C2 1087   3.491   2.489  12.576  0.5390 -0.3021 -0.1631
   70MPD2    C3 1088   3.605   2.454  12.646 -0.7207 -0.6068  0.2248
   70MPD2    C4 1089   3.714   2.537  12.642  0.1535 -0.0040  0.1914
   70MPD2    C5 1090   3.721   2.645  12.555  0.2276 -0.0039  0.0006
   70MPD2     H 1091   3.403   2.427  12.577 -0.6075  1.3686  1.7236
   70MPD2    H1 1092   3.807   2.503  12.688  0.0378  0.9092  1.1100
   70MPD2    H2 1093   3.624   2.754  12.404 -2.1824 -0.1145  0.9477
   70MPD2    H3 1094   3.810   2.705  12.550  1.3997 -1.7475 -0.1612
   70MPD2     N 1095   3.620   2.340  12.721  0.6874  0.4642 -0.6894
   70MPD2    H5 1096   3.715   2.305  12.736 -0.3532 -1.7839  0.5821
   70MPD2    N1 1097   3.398   2.618  12.388  0.2052  0.0586 -0.5533
   70MPD2    H7 1098   3.431   2.683  12.318  2.5468 -1.0993 -0.5302
   71TMC2    C1 1099   2.150   2.629   1.543  0.0746  0.0239  0.0372
   71TMC2    C2 1100   2.250   2.570   1.615 -0.0794 -0.2333  0.2132
   71TMC2    C3 1101   2.212   2.467   1.695 -0.1184  0.0763  0.4012
   71TMC2    C4 1102   2.024   2.584   1.543  0.0180 -0.4777 -0.1674
   71TMC2    C5 1103   1.993   2.476   1.627 -0.0058 -0.1134  0.5453
   71TMC2    C6 1104   2.087   2.416   1.704 -0.2274  0.6791  1.3722
   71TMC2     C 1105   2.190   2.731   1.436 -0.7193 -0.4766  0.3434
   71TMC2     O 1106   2.103   2.780   1.367 -0.5817 -0.0784  0.3506
   71TMC2     H 1107   2.345   2.618   1.637 -0.0157 -0.4411  0.3949
   71TMC2    H1 1108   1.952   2.620   1.471  0.6074 -1.1841 -1.1189
   71TMC2    H2 1109   2.065   2.332   1.769  0.0565  0.0381  0.6318
   71TMC2    C7 1110   1.852   2.433   1.643  0.3933  0.2069  0.1405
   71TMC2    C8 1111   2.310   2.423   1.791 -0.2408 -1.0339 -0.8701
   71TMC2    O1 1112   1.834   2.342   1.721 -0.3345 -0.1572  0.5634
   71TMC2    O2 1113   2.383   2.498   1.853 -0.2025  0.1237 -0.3310
   71TMC2    O5 1114   2.334   2.293   1.775  0.1701 -0.7843  0.2604
   71TMC2    H5 1115   2.272   2.247   1.714 -0.2965 -0.2823  0.3551
   72MPD2     C 1116   2.528   3.028   1.192 -0.7778  0.0172  0.8471
   72MPD2    C1 1117   2.395   2.997   1.163  0.1424 -0.1658  0.0313
   72MPD2    C2 1118   2.326   2.902   1.235 -0.1114 -0.3093 -0.2233
   72MPD2    C3 1119   2.392   2.822   1.329 -0.2422 -0.3973 -0.6446
   72MPD2    C4 1120   2.528   2.838   1.341  0.1432  0.7284  0.5449
   72MPD2    C5 1121   2.592   2.940   1.277  0.3824 -0.0150 -0.3111
   72MPD2     H 1122   2.225   2.884   1.200 -0.7901 -0.9453  2.0560
   72MPD2    H1 1123   2.580   2.782   1.419  1.4988  1.3434  0.0878
   72MPD2    H2 1124   2.597   3.094   1.141 -1.0201  0.7722  1.5085
   72MPD2    H3 1125   2.700   2.937   1.283  0.3969 -1.7959 -1.4650
   72MPD2     N 1126   2.326   2.741   1.422 -0.1530  0.6300 -0.2825
   72MPD2    H5 1127   2.387   2.691   1.485  0.1949  1.3753 -0.0331
   72MPD2    N1 1128   2.320   3.046   1.050  0.8575 -0.1274 -0.2189
   72MPD2    H7 1129   2.228   3.004   1.040 -0.0003  1.0181  2.6916
   73TMC2    C1 1130   1.071   4.738  13.994  0.6151  0.8386 -0.5512
   73TMC2    C2 1131   1.025   4.714  14.113  0.6439  0.0397  0.2787
   73TMC2    C3 1132   1.116   4.705  14.217 -0.2280  0.1971 -0.1952
   73TMC2    C4 1133   1.208   0.019  13.970 -0.1576 -0.7466 -0.4444
   73TMC2    C5 1134   1.301   0.026  14.077  0.0347 -0.3389 -0.1276
   73TMC2    C6 1135   1.249   0.002  14.198  0.5461  0.3520  0.7891
   73TMC2     C 1136   1.003   0.098  13.917  0.0204 -0.0732 -0.2568
   73TMC2     O 1137   1.053   0.210  13.919  0.1801  0.1989 -0.5825
   73TMC2     H 1138   0.924   4.684  14.138  0.4585 -1.1841 -1.9643
   73TMC2    H1 1139   1.246   0.058  13.877 -0.6050  0.2926 -0.1853
   73TMC2    H2 1140   1.315   0.012  14.284  2.4324  0.2104 -0.6414
   73TMC2    C7 1141   1.393   0.141  14.078  0.4282  0.2268  0.5132
   73TMC2    C8 1142   1.082   4.681  14.354  0.1248  0.0235  0.1659
   73TMC2    O1 1143   1.507   0.122  14.111  0.3056  0.1810 -0.8855
   73TMC2    O2 1144   1.174   4.664  14.432 -0.1103  0.6879  0.2229
   73TMC2    O5 1145   0.972   0.011  14.385 -0.1786 -0.3512  0.4331
   73TMC2    H5 1146   0.911   0.025  14.309 -0.9424 -1.8852  0.7672
   74MPD2     C 1147   0.857   0.190  13.446 -0.2356 -0.5240 -0.6020
   74MPD2    C1 1148   0.882   0.279  13.548  0.2049 -0.4905 -0.7069
   74MPD2    C2 1149   0.901   0.230  13.678 -0.4041 -0.2393 -0.0554
   74MPD2    C3 1150   0.886   0.093  13.702  0.0198 -0.1317 -0.1413
   74MPD2    C4 1151   0.846   0.011  13.601 -0.0124  0.7279 -0.1444
   74MPD2    C5 1152   0.833   0.061  13.475  0.1504 -0.0486  0.2914
   74MPD2     H 1153   0.932   0.293  13.760 -0.1533 -1.8966  1.1138
   74MPD2    H1 1154   0.838   4.642  13.610  1.6747  0.5333 -1.0316
   74MPD2    H2 1155   0.844   0.232  13.347 -0.0056  2.3770  0.5973
   74MPD2    H3 1156   0.812   4.723  13.401  0.3052 -0.5016  0.7209
   74MPD2     N 1157   0.920   0.037  13.822 -0.2473 -0.3324 -0.5994
   74MPD2    H5 1158   0.892   4.680  13.837  0.6890 -0.5676 -0.3570
   74MPD2    N1 1159   0.917   0.411  13.518  0.0538 -0.3991 -0.4090
   74MPD2    H7 1160   0.884   0.447  13.429  0.2144 -2.3447 -1.2469
   75TMC2    C1 1161   0.543   1.455  13.823 -0.6694  0.2304  0.1745
   75TMC2    C2 1162   0.498   1.553  13.910  0.4585 -0.0657 -0.7986
   75TMC2    C3 1163   0.422   1.656  13.860 -0.1552 -0.0402  0.0028
   75TMC2    C4 1164   0.514   1.462  13.690 -0.0531 -0.3119 -0.0018
   75TMC2    C5 1165   0.447   1.575  13.642 -0.2276 -0.5120  0.3834
   75TMC2    C6 1166   0.398   1.673  13.728 -0.1391 -0.6008  0.6504
   75TMC2     C 1167   0.662   1.372  13.870 -0.1748 -0.9074  0.2884
   75TMC2     O 1168   0.713   1.386  13.980 -0.7169 -0.1437 -0.2733
   75TMC2     H 1169   0.527   1.554  14.014 -2.0425  0.0737 -0.1048
   75TMC2    H1 1170   0.539   1.382  13.621 -1.9489 -1.7150  0.9221
   75TMC2    H2 1171   0.341   1.757  13.690  1.9185  0.4211 -0.1899
   75TMC2    C7 1172   0.447   1.599  13.498 -0.4646 -0.4467  0.7221
   75TMC2    C8 1173   0.333   1.723  13.946 -0.0959  0.4915 -0.2834
   75TMC2    O1 1174   0.443   1.505  13.423  0.1794  0.3099  0.1501
   75TMC2    O2 1175   0.289   1.662  14.046 -0.6191 -0.1389 -0.0026
   75TMC2    O5 1176   0.310   1.847  13.911 -0.5324  0.0124 -0.1572
   75TMC2    H5 1177   0.367   1.869  13.834  0.9467  4.5081  2.2249
   76TMC2    C1 1178   4.163   1.904  11.860  0.6509 -0.8994  0.0239
   76TMC2    C2 1179   4.045   1.875  11.924  0.2331  0.0869  0.6051
   76TMC2    C3 1180   4.008   1.740  11.932  0.2454 -0.0955 -0.9944
   76TMC2    C4 1181   4.247   1.813  11.800 -0.0424 -0.2553 -0.2987
   76TMC2    C5 1182   4.202   1.681  11.808 -0.2027 -0.2743  0.4135
   76TMC2    C6 1183   4.082   1.646  11.872  0.4864 -0.9326 -0.0259
   76TMC2     C 1184   4.183   2.038  11.821 -0.3419  0.1531 -0.7446
   76TMC2     O 1185   4.087   2.114  11.827 -0.1361 -0.3303 -0.3096
   76TMC2     H 1186   3.966   1.945  11.948  1.9241  0.8441  3.9462
   76TMC2    H1 1187   4.327   1.828  11.729 -0.1588  0.8374 -0.2114
   76TMC2    H2 1188   4.060   1.540  11.883  1.1432 -1.2551 -1.9237
   76TMC2    C7 1189   4.303   1.568  11.797 -0.6450 -0.1480  0.4229
   76TMC2    C8 1190   3.866   1.707  11.954 -0.0252 -0.3524  0.6391
   76TMC2    O1 1191   4.263   1.452  11.829 -0.0715  0.4933 -0.6319
   76TMC2    O2 1192   3.778   1.791  11.966  0.6765  0.0243 -0.4464
   76TMC2    O5 1193   3.857   1.581  11.991  0.4958  0.1848  0.0656
   76TMC2    H5 1194   3.942   1.547  12.028  0.2849  2.4402  2.6542
   77MPD2     C 1195   4.482   2.443  11.742  0.4080  0.2387  0.3017
   77MPD2    C1 1196   4.345   2.443  11.733 -0.3272 -0.4005  0.5652
   77MPD2    C2 1197   4.291   2.317  11.751  0.0989 -0.4292  0.0029
   77MPD2    C3 1198   4.361   2.201  11.781  0.2097 -0.4458  0.1557
   77MPD2    C4 1199   4.496   2.211  11.782  0.7526 -0.2457 -0.1836
   77MPD2    C5 1200   4.556   2.332  11.767 -0.6491 -0.5508  0.3013
   77MPD2     H 1201   4.183   2.310  11.743  0.0833  0.3326 -0.4535
   77MPD2    H1 1202   4.564   2.130  11.805  1.9669  0.6904 -0.4552
   77MPD2    H2 1203   4.538   2.534  11.722  1.8413 -0.9366 -1.0049
   77MPD2    H3 1204   4.663   2.338  11.779 -0.7521  1.8077  0.2026
   77MPD2     N 1205   4.314   2.072  11.795 -0.0172 -0.3318 -0.1064
   77MPD2    H5 1206   4.383   2.003  11.822  0.9624  0.7124  0.0539
   77MPD2    N1 1207   4.262   2.559  11.719 -0.1413 -0.3914 -0.8749
   77MPD2    H7 1208   4.162   2.539  11.714  0.3366 -2.5714 -1.8323
   78TMC2    C1 1209   1.553   2.216   1.304 -0.2582 -0.3835  0.5687
   78TMC2    C2 1210   1.468   2.240   1.197 -0.0132  0.1632 -0.3888
   78TMC2    C3 1211   1.513   2.330   1.101  0.2954  0.8397 -0.2847
   78TMC2    C4 1212   1.678   2.269   1.318  0.2658  0.2710  0.5891
   78TMC2    C5 1213   1.711   2.367   1.225  0.3053  0.1885  0.0367
   78TMC2    C6 1214   1.631   2.398   1.115  0.2457  0.6158  0.4301
   78TMC2     C 1215   1.522   2.117   1.400  0.6569 -0.3437  0.4935
   78TMC2     O 1216   1.604   2.091   1.488  0.6380  0.4109 -0.6437
   78TMC2     H 1217   1.373   2.190   1.184 -0.3322  0.9725 -1.2303
   78TMC2    H1 1218   1.737   2.242   1.405 -1.1255 -0.5927  1.2667
   78TMC2    H2 1219   1.662   2.470   1.040 -0.1537  0.6417  0.2903
   78TMC2    C7 1220   1.845   2.415   1.210 -0.2691  0.1080  0.0728
   78TMC2    C8 1221   1.421   2.371   1.006 -0.2516  0.6011 -0.6859
   78TMC2    O1 1222   1.864   2.518   1.143  0.5668 -0.3506 -0.1557
   78TMC2    O2 1223   1.411   2.487   0.970  0.6548  0.0856  0.0437
   78TMC2    O5 1224   1.373   2.265   0.928 -0.3604 -0.4446  0.1661
   78TMC2    H5 1225   1.431   2.189   0.950 -0.3434 -0.4365  0.1489
   79MPD1     C 1226   1.224   1.739   1.555 -0.1503 -0.6095 -0.6018
   79MPD1    C1 1227   1.344   1.778   1.615 -0.0729 -0.6076  0.2732
   79MPD1    C2 1228   1.414   1.885   1.555 -0.4569  0.8473 -0.4083
   79MPD1    C3 1229   1.344   1.965   1.467  0.2560 -0.5836  0.1637
   79MPD1    C4 1230   1.214   1.938   1.439 -0.1309  0.2915 -0.0043
   79MPD1    C5 1231   1.149   1.828   1.479  0.1707 -0.2171  0.4739
   79MPD1     H 1232   1.521   1.895   1.565 -0.5128  1.0027  0.0684
   79MPD1    H1 1233   1.150   1.994   1.371  0.7689  1.0392 -0.2335
   79MPD1    H2 1234   1.180   1.647   1.590 -0.7900  0.0544  0.3587
   79MPD1    H3 1235   1.053   1.803   1.435 -0.9288  0.4025  2.5118
   79MPD1     N 1236   1.395   2.072   1.389 -0.5726  0.0743  0.0104
   79MPD1    H5 1237   1.336   2.104   1.312 -0.5685  2.9642  1.2216
   79MPD1    N1 1238   1.407   1.697   1.711  0.2349 -0.6389  0.2088
   79MPD1    H6 1239   1.334   1.666   1.775  0.3487 -0.2230  0.5509
   79MPD1    H7 1240   1.475   1.752   1.764  0.6417 -1.8531  0.9302
   80TMC2    C1 1241   3.344   1.034  12.126  0.5882 -0.3057 -0.2814
   80TMC2    C2 1242   3.229   1.084  12.067 -0.1470  0.4096  0.2249
   80TMC2    C3 1243   3.112   1.011  12.061  0.9506 -0.4666  0.1935
   80TMC2    C4 1244   3.346   0.907  12.169  0.0090 -0.2433  0.2623
   80TMC2    C5 1245   3.223   0.844  12.172 -0.1070 -0.5622 -0.0118
   80TMC2    C6 1246   3.106   0.886  12.112 -0.3926  0.0127 -0.1410
   80TMC2     C 1247   3.456   1.128  12.139 -0.3515  0.1534 -0.1250
   80TMC2     O 1248   3.568   1.081  12.120 -0.0414 -0.6547  0.0644
   80TMC2     H 1249   3.217   1.191  12.055  3.8507  0.9065  0.8606
   80TMC2    H1 1250   3.435   0.864  12.214 -0.7429 -2.5803 -0.4790
   80TMC2    H2 1251   3.015   0.829  12.105  1.8998 -3.5224 -1.0803
   80TMC2    C7 1252   3.204   0.732  12.264  0.3048 -0.5951 -0.4578
   80TMC2    C8 1253   2.987   1.075  12.026 -0.1024 -0.0262  0.3739
   80TMC2    O1 1254   3.109   0.663  12.242 -0.7936  0.3018  0.0401
   80TMC2    O2 1255   2.883   1.074  12.090  0.4044 -0.6750  0.4521
   80TMC2    O5 1256   3.015   1.162  11.931 -0.6040  0.1712  0.1208
   80TMC2    H5 1257   3.103   1.141  11.894 -1.8876 -0.4345 -2.6544
   81MPD2     C 1258   3.632   1.328  12.261 -0.2895 -0.0734 -0.2538
   81MPD2    C1 1259   3.491   1.338  12.260 -0.7236  0.0705  0.5996
   81MPD2    C2 1260   3.425   1.441  12.325  0.1013 -0.0284  1.1218
   81MPD2    C3 1261   3.506   1.528  12.400 -0.6594 -1.3788 -0.0251
   81MPD2    C4 1262   3.648   1.527  12.401  0.3587 -0.5454 -0.0948
   81MPD2    C5 1263   3.709   1.417  12.338 -0.2411 -0.6803 -0.5080
   81MPD2     H 1264   3.317   1.457  12.323  0.2579  0.8909  0.1841
   81MPD2    H1 1265   3.714   1.593  12.455  0.8546  1.1660 -2.7524
   81MPD2    H2 1266   3.692   1.255  12.209 -0.4344  0.4289 -1.1138
   81MPD2    H3 1267   3.815   1.406  12.358  0.2212  1.9230 -1.4517
   81MPD2     N 1268   3.436   1.623  12.469 -0.2606  0.3583  0.3520
   81MPD2    H5 1269   3.335   1.614  12.462 -0.1531 -0.8355  0.2299
   81MPD2    N1 1270   3.414   1.241  12.190  0.8883 -0.2339 -0.4872
   81MPD2    H7 1271   3.318   1.249  12.219  1.2114  1.5474  0.1131
   82TMC2    C1 1272   1.735   1.282  11.113 -0.2106 -0.5086  0.6684
   82TMC2    C2 1273   1.827   1.327  11.210  0.5927  0.0220  0.1609
   82TMC2    C3 1274   1.839   1.247  11.324  0.4196  0.2664  0.1211
   82TMC2    C4 1275   1.678   1.157  11.121 -0.3938  0.3344  0.3612
   82TMC2    C5 1276   1.707   1.079  11.234 -0.5281  0.5341  0.6703
   82TMC2    C6 1277   1.779   1.127  11.336  0.5623  0.4648  0.0006
   82TMC2     C 1278   1.685   1.375  11.016 -0.5191 -0.5187  0.0874
   82TMC2     O 1279   1.618   1.324  10.923  0.2025 -0.3693  0.2495
   82TMC2     H 1280   1.888   1.413  11.186 -1.4233  1.6656  0.9547
   82TMC2    H1 1281   1.606   1.120  11.049  0.7777 -0.6720 -0.2988
   82TMC2    H2 1282   1.819   1.066  11.416 -1.0261  0.1109  0.5212
   82TMC2    C7 1283   1.642   0.952  11.258  0.8156 -1.1179  0.3707
   82TMC2    C8 1284   1.971   1.255  11.375 -0.1230 -0.3407  0.1017
   82TMC2    O1 1285   1.653   0.908  11.370 -0.2959  0.0654 -0.3155
   82TMC2    O2 1286   2.065   1.185  11.329  0.1534  0.4644  0.1784
   82TMC2    O5 1287   1.985   1.388  11.407  0.3131 -0.3893  0.0570
   82TMC2    H5 1288   1.899   1.434  11.413 -1.0066 -2.7335 -1.0778
   83MPD2     C 1289   1.471   1.833  10.900 -0.0725 -0.3498  0.2623
   83MPD2    C1 1290   1.430   1.699  10.881 -0.5545 -0.0973  0.5212
   83MPD2    C2 1291   1.508   1.596  10.933  0.0999  0.7650  0.7778
   83MPD2    C3 1292   1.620   1.618  11.006 -0.2168 -0.1973  0.8017
   83MPD2    C4 1293   1.665   1.754  11.017 -0.3597  0.0390 -0.4266
   83MPD2    C5 1294   1.587   1.857  10.975  0.3613 -0.3146 -0.4219
   83MPD2     H 1295   1.476   1.493  10.922  1.4139  0.5798 -1.2511
   83MPD2    H1 1296   1.753   1.780  11.074 -1.8085  1.8219  0.9696
   83MPD2    H2 1297   1.410   1.912  10.859 -0.9537 -0.6240  1.0501
   83MPD2    H3 1298   1.615   1.962  10.981  0.4816 -0.3297 -0.7084
   83MPD2     N 1299   1.701   1.509  11.054 -0.5523  0.2137  0.3833
   83MPD2    H5 1300   1.789   1.536  11.098 -0.9218  0.7696  0.7789
   83MPD2    N1 1301   1.320   1.682  10.794  0.7863  0.3078 -0.2937
   83MPD2    H7 1302   1.267   1.765  10.770  0.6584  0.2218 -0.3076
   84TMC2    C1 1303   3.199   0.267  10.769  0.1636  0.4978  0.6547
   84TMC2    C2 1304   3.310   0.204  10.822 -0.3575 -0.1270 -0.1249
   84TMC2    C3 1305   3.410   0.164  10.739  0.3786  0.5294 -0.0922
   84TMC2    C4 1306   3.192   0.310  10.642  0.1239  0.2859 -0.1792
   84TMC2    C5 1307   3.302   0.277  10.560  0.0823  0.8377 -0.2523
   84TMC2    C6 1308   3.411   0.198  10.603 -0.4048 -0.1023 -0.1730
   84TMC2     C 1309   3.091   0.306  10.855  0.0404 -0.0138 -0.3038
   84TMC2     O 1310   3.047   0.422  10.849  0.0324  0.2027  0.4096
   84TMC2     H 1311   3.317   0.176  10.926 -1.4174 -1.3769 -0.3883
   84TMC2    H1 1312   3.111   0.377  10.613 -1.0592 -1.1884 -0.2825
   84TMC2    H2 1313   3.497   0.177  10.542  0.3761  1.3637  0.4104
   84TMC2    C7 1314   3.283   0.331  10.423  0.2834  0.4296  0.2384
   84TMC2    C8 1315   3.505   0.081  10.795 -0.0627 -0.1162  0.0663
   84TMC2    O1 1316   3.172   0.369  10.396 -0.1327 -0.3711 -0.5818
   84TMC2    O2 1317   3.483   4.712  10.846 -0.2304  0.2008 -0.0651
   84TMC2    O5 1318   3.623   0.132  10.743  0.2449  0.7597  0.8171
   84TMC2    H5 1319   3.610   0.228  10.726  2.2938  0.7233 -0.9322
   85TMC2    C1 1320   3.945   3.211  15.594  0.4547 -0.3084 -0.0579
   85TMC2    C2 1321   3.938   3.338  15.552 -0.6533  0.2491 -0.3884
   85TMC2    C3 1322   4.053   3.388  15.485  0.1981  0.0668 -0.1459
   85TMC2    C4 1323   4.060   3.139  15.584 -0.0439 -0.6982 -0.3826
   85TMC2    C5 1324   4.166   3.184  15.511  0.0983 -0.1219 -0.3291
   85TMC2    C6 1325   4.163   3.314  15.455 -0.2285 -0.3849 -0.1703
   85TMC2     C 1326   3.814   3.160  15.628 -0.1456  0.5940 -0.0030
   85TMC2     O 1327   3.716   3.223  15.606 -0.3276 -0.4988 -0.0881
   85TMC2     H 1328   3.849   3.392  15.523  0.6831  2.9474  0.6256
   85TMC2    H1 1329   4.079   3.042  15.630 -1.2723 -0.4605  0.6188
   85TMC2    H2 1330   4.243   3.361  15.398 -0.9665  0.9132 -0.1335
   85TMC2    C7 1331   4.255   3.093  15.439  0.4729 -0.3611  0.7358
   85TMC2    C8 1332   4.042   3.524  15.439 -0.0656  0.6424  0.2908
   85TMC2    O1 1333   4.278   2.985  15.490 -0.1198 -0.0470 -1.0196
   85TMC2    O2 1334   4.093   3.562  15.334  0.1888  0.7304  0.1709
   85TMC2    O5 1335   3.983   3.600  15.531  0.0216 -0.3459  0.4550
   85TMC2    H5 1336   3.981   3.556  15.619 -1.7914 -2.1831 -0.5153
   86MPD2     C 1337   3.497   2.795  15.765  0.3164  0.4632 -0.2695
   86MPD2    C1 1338   3.613   2.729  15.724 -0.1517  0.0564  0.0352
   86MPD2    C2 1339   3.714   2.807  15.692 -0.1477  0.7911 -0.1403
   86MPD2    C3 1340   3.707   2.945  15.699  0.3141 -0.0015  0.2161
   86MPD2    C4 1341   3.585   3.001  15.727  0.3710 -0.2324  0.0703
   86MPD2    C5 1342   3.479   2.927  15.761  0.2789  0.5409  0.2045
   86MPD2     H 1343   3.810   2.762  15.667 -0.2709  0.4707 -0.0291
   86MPD2    H1 1344   3.574   3.107  15.747 -2.3221 -0.5077  0.1234
   86MPD2    H2 1345   3.410   2.742  15.802  0.2337 -0.2024 -1.4332
   86MPD2    H3 1346   3.387   2.973  15.796  0.1245  0.6756 -0.3794
   86MPD2     N 1347   3.819   3.024  15.663 -0.0292 -0.3905 -0.2981
   86MPD2    H5 1348   3.908   2.975  15.661  0.9645  1.3367  1.0663
   86MPD2    N1 1349   3.628   2.592  15.741  0.4332  0.7936  0.2455
   86MPD2    H7 1350   3.708   2.547  15.696  0.0820  0.9316 -0.5226
   87TMC2    C1 1351   1.776   1.112   0.418 -0.1332  0.1081  0.4469
   87TMC2    C2 1352   1.820   1.223   0.352  0.3643 -0.0092  0.2183
   87TMC2    C3 1353   1.806   1.344   0.417 -0.3139  0.8789  0.4426
   87TMC2    C4 1354   1.711   1.122   0.547 -0.1498 -0.0507  0.3453
   87TMC2    C5 1355   1.700   1.248   0.601  0.2914  0.1861  0.9767
   87TMC2    C6 1356   1.741   1.359   0.531  0.8924  0.3770  0.2097
   87TMC2     C 1357   1.840   0.991   0.377  0.0413  0.2624 -0.6231
   87TMC2     O 1358   1.831   0.960   0.264  0.2168  0.8684  0.4909
   87TMC2     H 1359   1.882   1.214   0.264  0.7500  2.1774  0.2652
   87TMC2    H1 1360   1.701   1.035   0.610  1.2992 -0.9253 -0.6376
   87TMC2    H2 1361   1.710   1.456   0.569 -0.2461  0.1404 -0.1123
   87TMC2    C7 1362   1.590   1.269   0.697 -0.9081  0.1248  0.7572
   87TMC2    C8 1363   1.860   1.461   0.355  0.3434 -0.2799  0.2260
   87TMC2    O1 1364   1.578   1.381   0.743  0.3233 -0.0867  0.1466
   87TMC2    O2 1365   1.898   1.446   0.237  0.2876 -0.1011 -0.1309
   87TMC2    O5 1366   1.938   1.512   0.455  0.2705  0.7885  0.2384
   87TMC2    H5 1367   1.903   1.492   0.545 -3.4299 -3.0814 -2.0855
   88MPD2     C 1368   1.283   1.077   0.737 -1.1509  0.6502  0.5608
   88MPD2    C1 1369   1.383   1.165   0.768 -0.2340 -0.7750  0.1059
   88MPD2    C2 1370   1.362   1.255   0.873 -0.1539  0.2960  0.2475
   88MPD2    C3 1371   1.252   1.244   0.955  0.4577 -0.6418 -0.2515
   88MPD2    C4 1372   1.161   1.147   0.926  0.4459 -0.3718 -0.0501
   88MPD2    C5 1373   1.169   1.066   0.816 -0.2496  0.0698 -0.0690
   88MPD2     H 1374   1.442   1.319   0.908  0.1379 -0.7379  1.4548
   88MPD2    H1 1375   1.077   1.124   0.991  1.0590 -0.2069  0.7900
   88MPD2    H2 1376   1.288   1.019   0.646 -2.1392  0.6663  0.5009
   88MPD2    H3 1377   1.092   0.992   0.796  2.4125 -2.3508 -1.4198
   88MPD2     N 1378   1.226   1.341   1.054  0.6612  0.1794 -0.7336
   88MPD2    H5 1379   1.132   1.329   1.090  1.0540  0.2162  0.3137
   88MPD2    N1 1380   1.505   1.162   0.695 -0.7554  0.3891  0.2915
   88MPD2    H7 1381   1.519   1.101   0.615 -2.0443  0.8191 -0.2483
   89TMC2    C1 1382   2.254   0.227   1.514 -0.6380  0.8344  0.0431
   89TMC2    C2 1383   2.253   0.181   1.384  0.1864  1.1153  0.3378
   89TMC2    C3 1384   2.308   0.262   1.291  0.2214  0.2462  1.2893
   89TMC2    C4 1385   2.309   0.346   1.547  0.4455 -0.2144  0.2365
   89TMC2    C5 1386   2.372   0.415   1.454 -0.2504  0.0367  0.0903
   89TMC2    C6 1387   2.370   0.382   1.318  0.6387  0.0279  0.2631
   89TMC2     C 1388   2.157   0.163   1.607 -0.8120  0.0993  0.4519
   89TMC2     O 1389   2.087   0.223   1.687  0.4394  0.2980  0.2415
   89TMC2     H 1390   2.199   0.101   1.335  0.8522  0.4589  0.6839
   89TMC2    H1 1391   2.292   0.374   1.650  1.2018 -1.4844  0.7060
   89TMC2    H2 1392   2.416   0.439   1.238  0.7275 -1.7234 -0.9451
   89TMC2    C7 1393   2.435   0.538   1.498  0.1152  0.5612  0.4002
   89TMC2    C8 1394   2.309   0.218   1.155  0.1837  0.3627 -0.9744
   89TMC2    O1 1395   2.400   0.572   1.608  0.6263 -0.2148  0.8798
   89TMC2    O2 1396   2.305   0.100   1.118 -0.2202 -0.0713 -0.2743
   89TMC2    O5 1397   2.281   0.322   1.069 -0.0054  0.5133 -0.2178
   89TMC2    H5 1398   2.257   0.406   1.114 -1.0829 -0.0979  0.3655
   90MPD2     C 1399   1.849   4.491   1.639  0.6551  0.3829  0.1826
   90MPD2    C1 1400   1.970   4.455   1.589 -0.3709 -0.3287 -0.1251
   90MPD2    C2 1401   2.060   4.554   1.567  0.1368  0.1602 -0.3873
   90MPD2    C3 1402   2.039   4.685   1.599 -0.2914 -0.2588  0.5223
   90MPD2    C4 1403   1.911   4.726   1.645 -0.2705  0.1294  0.6449
   90MPD2    C5 1404   1.817   4.629   1.667 -0.1748 -0.0836  0.0935
   90MPD2     H 1405   2.159   4.528   1.532  0.3221  0.0598  0.2168
   90MPD2    H1 1406   1.888   0.089   1.675 -1.1552  0.0974  0.0783
   90MPD2    H2 1407   1.769   4.419   1.645  1.3074 -0.5533 -2.3221
   90MPD2    H3 1408   1.717   4.651   1.703 -0.2743  2.2938 -1.6540
   90MPD2     N 1409   2.142   0.034   1.569 -0.3502 -0.1634  0.8414
   90MPD2    H5 1410   2.218   4.737   1.511  1.1113  0.9898  2.0422
   90MPD2    N1 1411   2.012   4.323   1.564 -0.1730 -0.2519  0.4495
   90MPD2    H7 1412   2.097   4.306   1.510 -0.1917  1.8369 -0.2229
   91TMC2    C1 1413   3.896   4.031  16.351 -0.1503  0.4472 -0.4816
   91TMC2    C2 1414   3.959   4.142  16.401 -0.4483  0.5493 -0.8789
   91TMC2    C3 1415   3.884   4.250  16.447  0.7509  1.0659  0.4323
   91TMC2    C4 1416   3.770   4.043  16.323 -0.4708 -0.1403 -0.4907
   91TMC2    C5 1417   3.692   4.151  16.352  0.0016 -0.4108 -0.1774
   91TMC2    C6 1418   3.750   4.256  16.418 -0.3118 -0.1475  0.0229
   91TMC2     C 1419   3.959   3.901  16.348 -0.1614  0.0843  0.2751
   91TMC2     O 1420   3.886   3.808  16.375 -0.6454  0.0571 -0.0349
   91TMC2     H 1421   4.064   4.131  16.429 -1.0259 -0.7485  0.7339
   91TMC2    H1 1422   3.729   3.951  16.283  0.6950 -0.6545 -0.5136
   91TMC2    H2 1423   3.695   4.348  16.438  0.8846 -0.0750  3.0594
   91TMC2    C7 1424   3.543   4.143  16.353  0.2629 -0.1505  0.1284
   91TMC2    C8 1425   3.946   4.379  16.473 -0.3184 -0.6566 -0.4491
   91TMC2    O1 1426   3.494   4.210  16.442 -0.1454 -0.0537  0.0503
   91TMC2    O2 1427   3.882   4.471  16.429  0.3493  0.4377  0.3805
   91TMC2    O5 1428   4.078   4.359  16.453 -0.0373  0.0861  0.3338
   91TMC2    H5 1429   4.119   4.283  16.499  2.5916  1.3698  0.1184
   92MPD2     C 1430   4.162   3.680  16.382 -0.0677  0.1287  0.1210
   92MPD2    C1 1431   4.187   3.811  16.351 -0.5355  0.2153 -0.1409
   92MPD2    C2 1432   4.318   3.846  16.336  0.4446 -0.0969  0.7564
   92MPD2    C3 1433   4.420   3.759  16.349 -0.0674 -0.5370  0.1473
   92MPD2    C4 1434   4.397   3.625  16.371 -0.5075 -0.3350 -0.2067
   92MPD2    C5 1435   4.267   3.594  16.396  0.2919  0.8019  0.3081
   92MPD2     H 1436   4.336   3.950  16.310 -1.9057  0.9448  3.2531
   92MPD2    H1 1437   4.474   3.549  16.370  0.8210  0.9914 -0.2967
   92MPD2    H2 1438   4.067   3.628  16.383  0.6827 -1.2387 -0.0235
   92MPD2    H3 1439   4.249   3.489  16.415 -1.1024  0.8031 -0.9867
   92MPD2     N 1440   4.547   3.819  16.342  0.2335 -0.0550 -0.3468
   92MPD2    H5 1441   4.565   3.911  16.304  0.4539 -1.2699 -3.1835
   92MPD2    N1 1442   4.093   3.914  16.338  0.1839 -0.5858 -0.3707
   92MPD2    H7 1443   4.129   4.006  16.317 -0.6833 -0.2296 -0.2743
   93TMC2    C1 1444   0.932   3.903  13.112 -0.0465  0.0531 -0.2779
   93TMC2    C2 1445   0.889   4.005  13.034 -0.2167 -0.3362  0.2484
   93TMC2    C3 1446   0.943   4.135  13.055  0.0397  0.1147  0.9521
   93TMC2    C4 1447   1.031   3.924  13.209 -0.1685 -0.0241 -0.2450
   93TMC2    C5 1448   1.093   4.049  13.209  0.1747  0.5420  0.2031
   93TMC2    C6 1449   1.043   4.161  13.145 -0.2845 -0.7763 -0.5432
   93TMC2     C 1450   0.852   3.785  13.109  0.0720 -0.7244 -0.7846
   93TMC2     O 1451   0.900   3.685  13.154  0.6780  0.3439  0.1405
   93TMC2     H 1452   0.813   4.003  12.957  1.0726  0.5701 -1.0481
   93TMC2    H1 1453   1.063   3.842  13.272 -1.3224 -0.8926 -0.7925
   93TMC2    H2 1454   1.089   4.258  13.161 -2.2938  0.1982 -0.6883
   93TMC2    C7 1455   1.185   4.067  13.320  0.3865  0.7416  0.4094
   93TMC2    C8 1456   0.897   4.245  12.970  0.0628 -0.4363  0.3167
   93TMC2    O1 1457   1.230   3.970  13.370 -0.1048  0.5627  0.0075
   93TMC2    O2 1458   0.978   4.324  12.920 -0.6931 -0.1770 -0.0214
   93TMC2    O5 1459   0.763   4.237  12.949 -0.4575  0.3608 -0.5868
   93TMC2    H5 1460   0.712   4.189  13.018 -0.9985  0.6729 -0.7632
   94MPD2     C 1461   0.636   3.586  13.131  0.3233  0.4403 -0.5064
   94MPD2    C1 1462   0.617   3.717  13.088  0.3196  0.0927  0.3655
   94MPD2    C2 1463   0.485   3.758  13.072  1.0042  0.7035 -0.4824
   94MPD2    C3 1464   0.375   3.673  13.098  0.4778 -0.5504 -0.1115
   94MPD2    C4 1465   0.393   3.551  13.140  0.0114 -0.2156 -0.0847
   94MPD2    C5 1466   0.526   3.516  13.162 -0.1241 -0.3052 -0.0400
   94MPD2     H 1467   0.478   3.860  13.035 -0.8469  0.8283  0.1802
   94MPD2    H1 1468   0.315   3.479  13.165 -1.4566  2.8143  4.0259
   94MPD2    H2 1469   0.728   3.542  13.166  0.0604 -0.3914 -0.8699
   94MPD2    H3 1470   0.548   3.420  13.206  0.8288  0.4203  1.0716
   94MPD2     N 1471   0.243   3.720  13.096  0.1951  0.5152 -0.1159
   94MPD2    H5 1472   0.173   3.661  13.141  0.6347 -2.2142 -2.9552
   94MPD2    N1 1473   0.723   3.809  13.072 -0.5397 -0.2385 -0.3643
   94MPD2    H7 1474   0.689   3.903  13.055  0.6099  0.4635  1.2364
   95TMC2    C1 1475   0.990   1.560  16.105 -0.8198  0.1369 -0.2837
   95TMC2    C2 1476   0.964   1.436  16.163  0.8191 -0.0791 -0.8070
   95TMC2    C3 1477   0.988   1.421  16.295 -0.0742  0.0568 -0.9325
   95TMC2    C4 1478   1.032   1.669  16.170  0.0826 -0.0282  0.2459
   95TMC2    C5 1479   1.053   1.654  16.310 -0.2925 -0.6513 -0.4295
   95TMC2    C6 1480   1.029   1.530  16.369 -0.0741 -0.4744  0.8314
   95TMC2     C 1481   1.002   1.567  15.965  0.0129  0.7773  0.1164
   95TMC2     O 1482   1.100   1.627  15.923 -0.0255  0.6032  0.2520
   95TMC2     H 1483   0.956   1.352  16.095  0.8877 -1.1789  0.5622
   95TMC2    H1 1484   1.054   1.762  16.118  2.5594 -0.7781 -0.0724
   95TMC2    H2 1485   1.048   1.523  16.476 -0.0266 -0.2836  0.8357
   95TMC2    C7 1486   1.062   1.771  16.389 -0.7019  0.6962 -0.2001
   95TMC2    C8 1487   0.967   1.285  16.354 -0.5955 -0.0812 -0.1072
   95TMC2    O1 1488   1.029   1.761  16.505  0.3014  0.3611  0.4224
   95TMC2    O2 1489   1.058   1.240  16.428  0.2150 -0.4056  0.4717
   95TMC2    O5 1490   0.899   1.213  16.267  0.4751 -0.2771 -0.4787
   95TMC2    H5 1491   0.832   1.266  16.218 -1.1736 -0.6613  1.3375
   96MPD2     C 1492   0.952   1.263  15.545 -0.7040 -0.1113 -0.2381
   96MPD2    C1 1493   1.031   1.372  15.565 -0.4377 -0.0797  0.0768
   96MPD2    C2 1494   1.028   1.445  15.686  0.2305 -0.0480  0.1378
   96MPD2    C3 1495   0.933   1.409  15.782 -0.5711  0.1528  0.4015
   96MPD2    C4 1496   0.850   1.301  15.748 -0.1680  0.4216  0.1756
   96MPD2    C5 1497   0.861   1.232  15.634 -0.0559  0.1949  0.2954
   96MPD2     H 1498   1.086   1.536  15.700  2.9610 -1.2346 -3.2217
   96MPD2    H1 1499   0.778   1.259  15.818  2.3078 -1.7555  1.4045
   96MPD2    H2 1500   0.938   1.208  15.452  1.5691  1.1082 -1.2836
   96MPD2    H3 1501   0.792   1.152  15.609 -2.1052  0.8719  3.7341
   96MPD2     N 1502   0.918   1.468  15.912  0.2405 -0.0262 -0.1950
   96MPD2    H5 1503   0.842   1.425  15.964 -0.6975  0.9755 -0.7389
   96MPD2    N1 1504   1.114   1.412  15.455 -0.2779 -0.0092 -0.4802
   96MPD2    H7 1505   1.123   1.349  15.376  1.8257  0.2972 -0.4858
   97TMC2    C1 1506   3.705   3.855   0.396  0.8630 -0.5944 -0.6186
   97TMC2    C2 1507   3.652   3.810   0.282  0.1962  0.6712 -0.4988
   97TMC2    C3 1508   3.655   3.884   0.171  0.2592 -0.0035  0.3922
   97TMC2    C4 1509   3.774   3.972   0.403  0.3487 -0.0944  0.4060
   97TMC2    C5 1510   3.764   4.048   0.291  0.5628  0.0782  0.2842
   97TMC2    C6 1511   3.702   4.008   0.173 -0.5754  0.4496  0.3128
   97TMC2     C 1512   3.691   3.777   0.520 -0.1340  0.1267  0.0325
   97TMC2     O 1513   3.641   3.663   0.506  0.0740 -0.1695  0.9016
   97TMC2     H 1514   3.611   3.710   0.278 -0.8536  1.0839 -0.1086
   97TMC2    H1 1515   3.843   3.992   0.485  2.0910 -2.0701 -0.5995
   97TMC2    H2 1516   3.716   4.051   0.075 -1.1351  1.3857  0.6405
   97TMC2    C7 1517   3.820   4.179   0.290 -0.2613  1.4804  0.6811
   97TMC2    C8 1518   3.661   3.818   0.043 -0.0420 -0.0680  0.3166
   97TMC2    O1 1519   3.901   4.203   0.378 -0.0344  0.3120 -0.3284
   97TMC2    O2 1520   3.721   3.867  17.701 -0.5112  0.0400  0.1526
   97TMC2    O5 1521   3.610   3.697   0.041  0.0633 -0.2904  0.0625
   97TMC2    H5 1522   3.543   3.685   0.112 -2.2955 -1.5017 -2.3660
   98MPD2     C 1523   3.720   3.744   1.035 -0.0418  0.1494  0.2353
   98MPD2    C1 1524   3.662   3.654   0.947 -0.1681 -0.0630 -0.3178
   98MPD2    C2 1525   3.663   3.685   0.810 -0.1253 -0.1620 -0.3431
   98MPD2    C3 1526   3.708   3.811   0.768  0.5849 -0.2752  0.0834
   98MPD2    C4 1527   3.778   3.892   0.859 -0.3384 -0.8037 -0.3762
   98MPD2    C5 1528   3.785   3.853   0.988 -0.1951 -0.0722  0.1453
   98MPD2     H 1529   3.621   3.620   0.734 -0.2849  1.6967 -1.8600
   98MPD2    H1 1530   3.838   3.977   0.828 -0.9436 -0.7554 -1.4206
   98MPD2    H2 1531   3.739   3.717   1.138  0.1762 -2.4390 -0.4805
   98MPD2    H3 1532   3.841   3.915   1.057 -1.3188  1.1094 -0.0016
   98MPD2     N 1533   3.711   3.852   0.635 -0.5721 -0.1812 -0.0675
   98MPD2    H5 1534   3.746   3.946   0.618 -0.5778 -0.8404 -3.7381
   98MPD2    N1 1535   3.609   3.537   1.004 -0.3414  0.6422  0.2389
   98MPD2    H7 1536   3.623   3.525   1.104  0.8501  1.7301  0.2150
   99TMC2    C1 1537   2.238   1.073   1.099  1.1231  0.8706 -0.1579
   99TMC2    C2 1538   2.302   1.178   1.167  0.0650  0.4306 -0.8169
   99TMC2    C3 1539   2.238   1.231   1.276 -0.0784  0.4739  0.3306
   99TMC2    C4 1540   2.117   1.021   1.137  0.1422 -0.0565  0.2503
   99TMC2    C5 1541   2.062   1.083   1.245  0.7828  0.1462  0.0160
   99TMC2    C6 1542   2.117   1.189   1.312  0.3927  0.4099 -0.4552
   99TMC2     C 1543   2.326   1.015   0.995 -0.5805 -0.0130 -0.1519
   99TMC2     O 1544   2.435   1.068   0.976  0.7340 -0.4699 -0.3364
   99TMC2     H 1545   2.408   1.189   1.150  0.3124 -3.5213 -1.8793
   99TMC2    H1 1546   2.069   0.939   1.084 -0.1381 -0.5323  1.2510
   99TMC2    H2 1547   2.065   1.248   1.387  1.9404  0.8519  0.2510
   99TMC2    C7 1548   1.936   1.033   1.308 -0.6146 -0.1584 -0.4322
   99TMC2    C8 1549   2.316   1.299   1.372  0.7467 -0.6481  0.4968
   99TMC2    O1 1550   1.901   1.093   1.409  0.3939  0.5031 -0.0562
   99TMC2    O2 1551   2.267   1.367   1.464  0.7393  0.3712  0.7670
   99TMC2    O5 1552   2.425   1.227   1.386 -0.5937 -0.5737  0.6800
   99TMC2    H5 1553   2.426   1.152   1.323 -0.5565 -0.5513  0.6542
  100MPD2     C 1554   2.458   0.847   0.791 -0.2129  0.3369  0.4333
  100MPD2    C1 1555   2.343   0.809   0.854  0.4631 -0.4461  0.4009
  100MPD2    C2 1556   2.313   0.674   0.851 -0.5104 -0.5707  0.1426
  100MPD2    C3 1557   2.378   0.582   0.774  0.2210  0.2730 -0.4573
  100MPD2    C4 1558   2.483   0.629   0.696  0.7942 -0.8174  0.0410
  100MPD2    C5 1559   2.531   0.758   0.717  0.1025  0.5798 -0.5595
  100MPD2     H 1560   2.227   0.647   0.910 -0.6101 -1.9620 -0.6289
  100MPD2    H1 1561   2.544   0.564   0.635  2.1884 -0.3019  0.8865
  100MPD2    H2 1562   2.497   0.948   0.796 -1.3941  0.8722 -1.3363
  100MPD2    H3 1563   2.619   0.792   0.663  0.9341  1.0416  1.1065
  100MPD2     N 1564   2.326   0.449   0.776  0.7542  0.4047 -0.3742
  100MPD2    H5 1565   2.246   0.434   0.837  2.3643  0.1160  1.6720
  100MPD2    N1 1566   2.278   0.892   0.949  0.0280  0.0588 -0.3822
  100MPD2    H7 1567   2.196   0.855   0.997 -1.2720  3.4044  0.0135
  101TMC2    C1 1568   2.876   1.060  13.161  0.1990 -0.2146  0.0142
  101TMC2    C2 1569   2.909   1.020  13.036 -0.0312 -1.3806  0.0565
  101TMC2    C3 1570   2.918   1.113  12.932  0.1245  0.4227 -0.3811
  101TMC2    C4 1571   2.859   1.190  13.192  0.0214  0.6499 -0.0356
  101TMC2    C5 1572   2.881   1.278  13.095  0.2020  0.2884  0.3686
  101TMC2    C6 1573   2.908   1.242  12.961  0.3135 -0.1820 -0.2217
  101TMC2     C 1574   2.841   0.958  13.263  0.2827  0.2419  0.9527
  101TMC2     O 1575   2.930   0.880  13.293 -0.2271 -0.0713  0.2576
  101TMC2     H 1576   2.936   0.919  13.006  3.3897 -1.1167  2.1585
  101TMC2    H1 1577   2.819   1.222  13.288 -0.4592  0.9284 -0.3267
  101TMC2    H2 1578   2.935   1.314  12.884  0.7762 -0.7583 -0.5965
  101TMC2    C7 1579   2.837   1.412  13.127  0.0789 -0.2609 -0.1769
  101TMC2    C8 1580   2.968   1.078  12.801  0.0151 -0.0281  0.5242
  101TMC2    O1 1581   2.751   1.428  13.218  0.3005  0.2771  0.7565
  101TMC2    O2 1582   3.019   0.971  12.779 -0.2954 -0.5218 -0.0982
  101TMC2    O5 1583   2.896   1.146  12.711  0.4041  0.6280  0.1665
  101TMC2    H5 1584   2.830   1.213  12.739 -0.4077  0.1658 -0.6413
  102MPD2     C 1585   2.744   0.870  13.529 -0.5370 -0.0807  0.1853
  102MPD2    C1 1586   2.663   0.936  13.439  0.1284  0.4014  0.9984
  102MPD2    C2 1587   2.526   0.951  13.462 -0.0058  0.4915 -0.0536
  102MPD2    C3 1588   2.464   0.903  13.574 -0.6417 -0.3741 -0.1050
  102MPD2    C4 1589   2.553   0.844  13.668 -0.6166  0.8212  0.3090
  102MPD2    C5 1590   2.689   0.828  13.640 -0.4114  0.2605 -0.5073
  102MPD2     H 1591   2.471   1.013  13.393 -1.4424 -0.6079  0.1028
  102MPD2    H1 1592   2.514   0.811  13.763  0.3734  1.3814  0.9105
  102MPD2    H2 1593   2.851   0.857  13.511 -0.5332 -0.1395  0.2494
  102MPD2    H3 1594   2.746   0.789  13.724 -2.8898  1.0232  1.5539
  102MPD2     N 1595   2.324   0.913  13.594  0.1480  0.1039 -0.2445
  102MPD2    H5 1596   2.285   0.865  13.675  1.7533 -0.2022  0.3440
  102MPD2    N1 1597   2.716   0.988  13.319 -0.6293 -0.4444 -0.5511
  102MPD2    H7 1598   2.653   1.041  13.260 -0.8748 -0.8448 -0.6537
  103TMC2    C1 1599   0.309   1.694  11.974  0.3899 -0.4459  0.0101
  103TMC2    C2 1600   0.417   1.609  11.954  0.8200 -0.0450  0.3716
  103TMC2    C3 1601   0.501   1.594  12.063 -0.2325  0.2499 -0.0238
  103TMC2    C4 1602   0.276   1.759  12.090 -0.6562 -0.2880  0.0494
  103TMC2    C5 1603   0.361   1.733  12.196  0.1600 -0.3303  1.0371
  103TMC2    C6 1604   0.476   1.655  12.183  0.0605  0.2227  0.2222
  103TMC2     C 1605   0.197   1.681  11.884 -0.3193  0.5707  0.1976
  103TMC2     O 1606   0.129   1.781  11.871 -0.4307  0.1315 -0.3345
  103TMC2     H 1607   0.442   1.566  11.858 -1.4245 -1.1865  0.3004
  103TMC2    H1 1608   0.193   1.826  12.105  0.3210  0.7344  0.8888
  103TMC2    H2 1609   0.536   1.636  12.271 -1.0445 -0.0251  0.9258
  103TMC2    C7 1610   0.358   1.812  12.318 -0.1367  0.4198  0.0098
  103TMC2    C8 1611   0.615   1.507  12.058 -0.3905  1.4158  0.1918
  103TMC2    O1 1612   0.431   1.782  12.412  0.2784  0.1258  0.2020
  103TMC2    O2 1613   0.712   1.528  12.127  0.1860  0.2388  0.9093
  103TMC2    O5 1614   0.586   1.383  12.005  0.1310 -0.2307  0.1846
  103TMC2    H5 1615   0.499   1.379  11.959 -0.5696 -2.1991  1.6807
  104MPD2     C 1616   0.041   1.370  11.753 -0.7276 -0.4332  0.3181
  104MPD2    C1 1617   0.052   1.504  11.790  1.3709 -0.4013 -1.3576
  104MPD2    C2 1618   4.675   1.578  11.798 -0.1644 -0.1081  0.0506
  104MPD2    C3 1619   4.552   1.530  11.783  0.8507  0.0397 -0.0911
  104MPD2    C4 1620   4.542   1.392  11.758 -0.1481 -0.4244  0.6371
  104MPD2    C5 1621   4.650   1.320  11.736  0.1489  0.1759 -0.2014
  104MPD2     H 1622   4.681   1.686  11.802  0.4076 -0.1908  1.6696
  104MPD2    H1 1623   4.448   1.339  11.741  0.1580 -0.0789 -2.2101
  104MPD2    H2 1624   0.124   1.301  11.740  0.3551  0.9775 -0.2732
  104MPD2    H3 1625   4.632   1.215  11.718 -0.0562  0.6991 -3.0317
  104MPD2     N 1626   4.437   1.615  11.790  0.0153  0.1578 -0.4695
  104MPD2    H5 1627   4.444   1.715  11.800  0.6280 -0.2145  2.6688
  104MPD2    N1 1628   0.183   1.551  11.825 -0.5045  0.8930 -0.6522
  104MPD2    H7 1629   0.262   1.488  11.827 -1.5828 -0.3721  1.4441
  105TMC2    C1 1630   2.235   0.359  17.707 -1.0329 -0.0870  0.5947
  105TMC2    C2 1631   2.137   0.370  17.622 -0.7139 -0.3943  0.0494
  105TMC2    C3 1632   2.007   0.367  17.675 -0.3744  0.5441  0.8133
  105TMC2    C4 1633   2.219   0.342   0.089 -0.2566  0.4513 -0.8429
  105TMC2    C5 1634   2.091   0.331   0.135  0.0848 -1.4707 -0.0412
  105TMC2    C6 1635   1.980   0.350   0.058 -0.2036  0.8491 -0.9758
  105TMC2     C 1636   2.368   0.402  17.673  0.1296  0.6974  0.3020
  105TMC2     O 1637   2.465   0.335  17.709  0.3128 -0.3711 -0.1724
  105TMC2     H 1638   2.156   0.392  17.517 -1.3088 -0.7638 -0.1370
  105TMC2    H1 1639   2.304   0.349   0.156 -0.5451  1.6919 -0.6143
  105TMC2    H2 1640   1.882   0.359   0.105  0.6226 -0.8424  1.0771
  105TMC2    C7 1641   2.076   0.366   0.276  0.0338 -0.2643  0.6797
  105TMC2    C8 1642   1.907   0.352  17.575  0.2349 -0.4669  0.5820
  105TMC2    O1 1643   2.154   0.304   0.349 -0.2613 -0.2485  0.0500
  105TMC2    O2 1644   1.926   0.325  17.460 -0.1812  0.7132  0.1075
  105TMC2    O5 1645   1.801   0.427  17.617 -0.1151 -0.4824 -0.4485
  105TMC2    H5 1646   1.818   0.470  17.703  0.4387  2.5513 -2.0630
  106MPD2     C 1647   2.687   0.694  17.384  0.0248 -0.5746  0.3286
  106MPD2    C1 1648   2.566   0.760  17.400  0.5413  0.5575  0.1861
  106MPD2    C2 1649   2.472   0.708  17.491  0.4402 -0.5417  0.1364
  106MPD2    C3 1650   2.485   0.584  17.550 -0.7297 -0.7905 -0.6961
  106MPD2    C4 1651   2.606   0.519  17.523 -0.5175  0.1438  0.5995
  106MPD2    C5 1652   2.710   0.578  17.453 -0.6122  0.2399  0.8022
  106MPD2     H 1653   2.376   0.757  17.498  0.5017 -0.5295  0.8802
  106MPD2    H1 1654   2.617   0.420  17.566  1.7337 -1.7834 -4.3390
  106MPD2    H2 1655   2.759   0.710  17.304 -1.2728 -1.9741 -1.1234
  106MPD2    H3 1656   2.793   0.510  17.439 -0.7307  0.5379 -1.4364
  106MPD2     N 1657   2.373   0.528  17.613 -0.6975 -0.8654 -0.1859
  106MPD2    H5 1658   2.288   0.575  17.587 -0.9292 -1.0894  0.1541
  106MPD2    N1 1659   2.525   0.871  17.322  0.0468  0.4192  0.6048
  106MPD2    H7 1660   2.425   0.888  17.324 -0.1210 -0.5614  1.1377
  107TMC2    C1 1661   2.499   0.775  11.446  0.2121  0.0894 -0.7719
  107TMC2    C2 1662   2.562   0.873  11.371  0.6403 -0.1434  0.3162
  107TMC2    C3 1663   2.636   0.823  11.272 -0.3761 -0.0581  0.4409
  107TMC2    C4 1664   2.523   0.639  11.430  0.1347 -0.3812 -0.6759
  107TMC2    C5 1665   2.607   0.603  11.334  0.0938 -0.3633  0.3801
  107TMC2    C6 1666   2.650   0.692  11.242 -0.4449  1.0694 -0.3177
  107TMC2     C 1667   2.427   0.808  11.571 -0.0714  0.2437 -0.6735
  107TMC2     O 1668   2.415   0.713  11.647 -0.3754 -0.3638 -0.6706
  107TMC2     H 1669   2.558   0.979  11.394 -0.7734 -0.6283  2.3491
  107TMC2    H1 1670   2.489   0.566  11.502  1.1105 -0.8792 -0.7241
  107TMC2    H2 1671   2.715   0.671  11.158  0.6114 -0.4682  0.8879
  107TMC2    C7 1672   2.637   0.455  11.324  0.4674  0.2411 -0.5167
  107TMC2    C8 1673   2.703   0.928  11.196 -0.8310  0.2377  0.7312
  107TMC2    O1 1674   2.588   0.374  11.404  0.1687  0.0352  0.0196
  107TMC2    O2 1675   2.729   1.027  11.256 -0.7548  0.0196 -0.3074
  107TMC2    O5 1676   2.687   0.915  11.066 -0.1306  0.0535 -0.1481
  107TMC2    H5 1677   2.670   0.825  11.030 -0.9061 -0.7790  2.3189
  108MPD2     C 1678   2.223   1.103  11.667  0.7547 -0.2504 -0.5927
  108MPD2    C1 1679   2.303   0.984  11.681 -0.1059 -0.3541  0.1747
  108MPD2    C2 1680   2.293   0.924  11.804  0.1123 -0.0049 -0.1158
  108MPD2    C3 1681   2.200   0.958  11.899 -0.1804 -0.6394  0.0168
  108MPD2    C4 1682   2.116   1.062  11.879 -0.1702 -0.2945 -0.8488
  108MPD2    C5 1683   2.129   1.139  11.761 -0.7711 -0.3392  0.6340
  108MPD2     H 1684   2.361   0.844  11.829  0.2217  0.1247  0.0006
  108MPD2    H1 1685   2.054   1.097  11.961 -1.2072 -0.7145 -1.4612
  108MPD2    H2 1686   2.220   1.163  11.577  2.0102 -1.4190 -1.4125
  108MPD2    H3 1687   2.072   1.230  11.746  2.0572  1.3447  0.2029
  108MPD2     N 1688   2.183   0.900  12.027  0.5616  0.6932  0.7949
  108MPD2    H5 1689   2.121   0.951  12.089  1.4457  2.7736 -0.0226
  108MPD2    N1 1690   2.375   0.936  11.570  0.6387  0.7971  0.0084
  108MPD2    H7 1691   2.379   1.001  11.493  0.2318 -0.6888 -1.2535
  109TMC2    C1 1692   2.581   3.739   0.637 -0.2141 -0.0358  0.8167
  109TMC2    C2 1693   2.597   3.854   0.563  0.6498  0.7641 -0.2824
  109TMC2    C3 1694   2.638   3.969   0.627  0.3618  0.7116 -0.3826
  109TMC2    C4 1695   2.608   3.726   0.768 -0.2687  0.0407 -0.0132
  109TMC2    C5 1696   2.649   3.848   0.823  0.2593  0.0356  0.1405
  109TMC2    C6 1697   2.666   3.964   0.754  0.1269 -0.5049  0.0491
  109TMC2     C 1698   2.517   3.624   0.570 -0.4613 -0.4612  0.5194
  109TMC2     O 1699   2.467   3.653   0.461  0.3517  0.4929  0.3501
  109TMC2     H 1700   2.578   3.853   0.456 -2.5359 -3.1360  0.3275
  109TMC2    H1 1701   2.587   3.641   0.832 -0.5881 -0.8464 -1.2940
  109TMC2    H2 1702   2.702   4.054   0.803  1.1556 -0.8366 -0.0927
  109TMC2    C7 1703   2.695   3.839   0.958  0.1090 -0.6104  0.0688
  109TMC2    C8 1704   2.718   4.069   0.549  0.1826 -0.5160  0.1801
  109TMC2    O1 1705   2.681   3.921   1.047  0.5694  0.8408  0.1989
  109TMC2    O2 1706   2.744   4.181   0.595  0.3841 -0.2820 -0.5010
  109TMC2    O5 1707   2.809   4.001   0.471 -0.0101 -0.3454 -0.2695
  109TMC2    H5 1708   2.833   3.909   0.497  0.8993  0.3819  1.4626
  110MPD2     C 1709   2.384   3.128   0.491  0.4982 -0.4470  0.0012
  110MPD2    C1 1710   2.471   3.140   0.603  0.3769 -0.1231 -0.5373
  110MPD2    C2 1711   2.524   3.262   0.646  0.1073 -0.2848  0.5558
  110MPD2    C3 1712   2.485   3.374   0.580 -0.6775  0.8246  0.5851
  110MPD2    C4 1713   2.409   3.366   0.463 -0.8872  0.0670 -0.0450
  110MPD2    C5 1714   2.359   3.245   0.420  0.5129  0.7978 -0.3678
  110MPD2     H 1715   2.570   3.269   0.744  1.5128 -0.4631 -0.0887
  110MPD2    H1 1716   2.386   3.458   0.411 -0.1941 -0.5970 -1.5297
  110MPD2    H2 1717   2.355   3.033   0.450  1.0125 -0.1701 -0.9902
  110MPD2    H3 1718   2.296   3.239   0.332 -0.9328 -3.7012  0.9683
  110MPD2     N 1719   2.529   3.502   0.632  0.2613 -0.2619  0.6658
  110MPD2    H5 1720   2.590   3.494   0.713  1.0951  2.3690  0.2896
  110MPD2    N1 1721   2.499   3.029   0.686 -0.7609  0.3203  0.2747
  110MPD2    H7 1722   2.565   3.052   0.760 -1.3235  0.2571  0.7941
  111TMC2    C1 1723   2.095   2.596  12.162  0.2258 -0.6426  0.2173
  111TMC2    C2 1724   2.054   2.637  12.291  0.6674  0.3749  0.3261
  111TMC2    C3 1725   2.089   2.557  12.397  0.0256  0.2565 -0.2470
  111TMC2    C4 1726   2.189   2.496  12.148 -0.1021 -0.5603  0.4988
  111TMC2    C5 1727   2.255   2.453  12.264 -0.2293 -0.0675  0.3187
  111TMC2    C6 1728   2.199   2.472  12.388  0.6505 -0.1014 -0.4125
  111TMC2     C 1729   2.069   2.674  12.035  1.1018  0.2801 -0.1471
  111TMC2     O 1730   2.140   2.641  11.942 -0.0432 -0.0162  0.0428
  111TMC2     H 1731   1.982   2.718  12.302 -1.6711 -1.4566 -1.5747
  111TMC2    H1 1732   2.218   2.459  12.051  0.1996  1.2534 -0.1031
  111TMC2    H2 1733   2.254   2.443  12.477  0.6181 -0.6191 -0.5573
  111TMC2    C7 1734   2.394   2.404  12.267 -0.0064 -0.8447 -0.7647
  111TMC2    C8 1735   2.076   2.610  12.533 -0.5696 -0.2905  0.4868
  111TMC2    O1 1736   2.418   2.330  12.357  0.3796  0.2031 -0.0838
  111TMC2    O2 1737   2.064   2.727  12.561  0.3511  0.2439 -0.2402
  111TMC2    O5 1738   2.015   2.514  12.599  0.2829 -0.1266  0.5628
  111TMC2    H5 1739   2.037   2.423  12.567  1.1714  0.8115 -1.4870
  112MPD2     C 1740   1.853   3.053  11.763 -0.0909 -0.0298  0.1725
  112MPD2    C1 1741   1.937   2.954  11.725 -0.2081  0.1398 -0.4999
  112MPD2    C2 1742   1.972   2.856  11.816  0.0584  0.0981  0.5285
  112MPD2    C3 1743   1.899   2.839  11.939  0.5977  0.6004 -0.2019
  112MPD2    C4 1744   1.815   2.946  11.969  0.2584  0.1058 -0.3005
  112MPD2    C5 1745   1.789   3.048  11.882  0.6309 -0.0691  0.4828
  112MPD2     H 1746   2.046   2.783  11.787 -0.9446 -0.4346 -0.6777
  112MPD2    H1 1747   1.753   2.940  12.058 -0.5204 -0.6701 -0.8931
  112MPD2    H2 1748   1.825   3.128  11.691  0.4234  0.3273  0.3413
  112MPD2    H3 1749   1.710   3.118  11.908  0.8321  1.1288 -2.1537
  112MPD2     N 1750   1.946   2.748  12.039 -0.3566  0.3685 -0.3507
  112MPD2    H5 1751   1.900   2.749  12.129 -0.1559  1.3164 -0.2616
  112MPD2    N1 1752   2.001   2.961  11.599  0.3924 -0.0538  0.7159
  112MPD2    H7 1753   2.067   2.886  11.580  0.5822  0.5894 -1.2294
  113TMC2    C1 1754   0.890   0.131   0.495  0.0608  0.6428  0.6899
  113TMC2    C2 1755   0.780   0.182   0.433 -0.2600 -0.5578 -0.2705
  113TMC2    C3 1756   0.679   0.095   0.408 -0.4044 -0.0160 -0.6915
  113TMC2    C4 1757   0.905   4.738   0.500  0.6921  0.1480  0.2007
  113TMC2    C5 1758   0.813   4.646   0.449  0.2044  0.4621 -0.8814
  113TMC2    C6 1759   0.690   4.701   0.424  0.7974  0.1711  0.6035
  113TMC2     C 1760   0.982   0.227   0.555  0.9663  0.2141  0.4989
  113TMC2     O 1761   0.936   0.339   0.573 -0.0285 -0.0602  0.1434
  113TMC2     H 1762   0.772   0.290   0.427  1.5111 -0.4177 -0.2264
  113TMC2    H1 1763   0.978   4.698   0.570  2.0401  1.4394 -0.4789
  113TMC2    H2 1764   0.600   4.645   0.399  1.8385 -0.7241 -1.1005
  113TMC2    C7 1765   0.846   4.508   0.485  0.1897  0.5206  0.3093
  113TMC2    C8 1766   0.545   0.138   0.395  1.0969 -0.2126 -0.7170
  113TMC2    O1 1767   0.966   4.487   0.490 -0.1778 -0.0164  0.5240
  113TMC2    O2 1768   0.448   0.081   0.441  0.6466  0.5223  0.3242
  113TMC2    O5 1769   0.551   0.268   0.379  0.1043 -0.1321  0.0044
  113TMC2    H5 1770   0.626   0.309   0.330 -0.4931  2.6412  1.3916
  114MPD2     C 1771   1.437   0.396   0.704  1.2722 -0.1980 -0.5819
  114MPD2    C1 1772   1.309   0.452   0.721  0.4782  0.3482  0.1185
  114MPD2    C2 1773   1.202   0.387   0.662  0.0108  0.6603 -0.0096
  114MPD2    C3 1774   1.217   0.260   0.607  0.1746  0.4571  0.2756
  114MPD2    C4 1775   1.341   0.207   0.583  0.1385 -0.3133 -0.2856
  114MPD2    C5 1776   1.446   0.280   0.630 -0.2434  0.0591 -0.2035
  114MPD2     H 1777   1.104   0.425   0.685 -0.3104 -0.0046 -0.2731
  114MPD2    H1 1778   1.369   0.111   0.540 -0.3115 -0.4585 -0.2527
  114MPD2    H2 1779   1.525   0.449   0.738 -0.0515  0.7137  1.4435
  114MPD2    H3 1780   1.543   0.231   0.628  0.1922  0.8736  0.6844
  114MPD2     N 1781   1.111   0.185   0.563  0.1655 -0.0035  0.1996
  114MPD2    H5 1782   1.125   0.091   0.529 -2.5657 -0.7119  1.0895
  114MPD2    N1 1783   1.290   0.571   0.802  0.4648  0.4097  0.1150
  114MPD2    H7 1784   1.196   0.608   0.810  0.0320 -1.2069  2.4505
  115TMC2    C1 1785   2.069   2.752   0.165  0.0319 -0.2988 -0.3358
  115TMC2    C2 1786   2.147   2.767   0.054 -0.4742 -0.1279 -0.2084
  115TMC2    C3 1787   2.208   2.882   0.024  0.2600  0.3764  0.2645
  115TMC2    C4 1788   2.049   2.864   0.245 -0.0603  0.0097 -0.0872
  115TMC2    C5 1789   2.109   2.983   0.207  0.1212  0.1931 -0.0765
  115TMC2    C6 1790   2.196   2.993   0.104  0.2888  0.1368  0.0258
  115TMC2     C 1791   1.966   2.649   0.155  0.3477  0.2433  0.2024
  115TMC2     O 1792   1.963   2.593   0.046 -0.6064  0.1104 -0.3713
  115TMC2     H 1793   2.153   2.680  17.742 -0.5567 -1.7287  1.9515
  115TMC2    H1 1794   1.979   2.856   0.328  0.8309 -0.7990  0.5895
  115TMC2    H2 1795   2.268   3.074   0.100 -1.1864  1.3333 -2.8340
  115TMC2    C7 1796   2.075   3.106   0.272 -0.6540 -0.5863  0.0282
  115TMC2    C8 1797   2.342   2.873  17.714  0.0940  0.6121 -0.6089
  115TMC2    O1 1798   2.063   3.112   0.393  0.4170  0.1715  0.6687
  115TMC2    O2 1799   2.387   2.763  17.677  0.3572  0.0945  0.2599
  115TMC2    O5 1800   2.357   2.986  17.635  0.1374  0.2815 -0.6390
  115TMC2    H5 1801   2.309   3.066  17.667  0.9368  0.2308  0.6791
  116MPD2     C 1802   1.526   2.412   0.300  0.6377 -0.8985  0.1634
  116MPD2    C1 1803   1.614   2.393   0.195 -0.7420  0.1335 -0.2887
  116MPD2    C2 1804   1.744   2.452   0.191 -0.2176 -0.2278  0.5875
  116MPD2    C3 1805   1.782   2.546   0.285  0.1359 -0.1348  0.2591
  116MPD2    C4 1806   1.707   2.547   0.401 -0.4405 -0.9213  0.2526
  116MPD2    C5 1807   1.585   2.474   0.408  0.0174  0.2933  0.3514
  116MPD2     H 1808   1.806   2.436   0.103  2.1758  2.1990  1.8321
  116MPD2    H1 1809   1.731   2.601   0.491 -1.7779 -1.0904  0.7126
  116MPD2    H2 1810   1.429   2.366   0.312  1.7099 -3.2071  0.0556
  116MPD2    H3 1811   1.516   2.468   0.491 -1.2055 -0.4775 -0.7142
  116MPD2     N 1812   1.894   2.633   0.266  0.7152 -0.0449 -0.1300
  116MPD2    H5 1813   1.933   2.678   0.348  1.3281 -0.5021 -0.1739
  116MPD2    N1 1814   1.568   2.317   0.089  0.0059  0.4475  0.0865
  116MPD2    H7 1815   1.475   2.279   0.102 -0.6294  1.4363 -1.4995
  117TMC2    C1 1816   0.829   4.063  13.862  0.1062 -0.3251  0.3952
  117TMC2    C2 1817   0.959   4.038  13.896 -0.2808 -0.2995 -0.5617
  117TMC2    C3 1818   1.041   4.145  13.921 -0.0812  0.2737 -0.5584
  117TMC2    C4 1819   0.780   4.191  13.871  0.6539 -0.6092 -0.1742
  117TMC2    C5 1820   0.868   4.291  13.907 -0.2544  0.3670  0.5657
  117TMC2    C6 1821   0.997   4.268  13.937  0.4961 -0.4740  0.0804
  117TMC2     C 1822   0.733   3.954  13.830  0.3580  0.0796 -0.9250
  117TMC2     O 1823   0.777   3.848  13.790 -0.1283  0.5773  0.3380
  117TMC2     H 1824   0.998   3.937  13.891  0.5480 -0.0174  0.0674
  117TMC2    H1 1825   0.688   4.215  13.819  0.9641  0.1787 -0.3549
  117TMC2    H2 1826   1.066   4.341  13.979  2.5021 -1.5307 -1.3413
  117TMC2    C7 1827   0.812   4.421  13.916  0.1829 -0.0233 -0.3766
  117TMC2    C8 1828   1.180   4.124  13.956  0.2119  0.5558  0.4813
  117TMC2    O1 1829   0.890   4.515  13.902  0.3043 -0.3030 -0.2618
  117TMC2    O2 1830   1.237   4.184  14.046 -0.3385 -0.1622 -0.0005
  117TMC2    O5 1831   1.246   4.092  13.843 -0.0606  0.4238  0.4278
  117TMC2    H5 1832   1.178   4.070  13.776 -1.4321 -0.5869  2.1554
  118MPD2     C 1833   0.441   4.475  13.908  0.6959 -0.2593  0.1839
  118MPD2    C1 1834   0.573   4.515  13.911  0.4126  0.1034  0.6153
  118MPD2    C2 1835   0.597   4.654  13.905 -0.5375  0.5788 -0.4166
  118MPD2    C3 1836   0.486   4.736  13.910 -0.3965 -0.3372 -0.3596
  118MPD2    C4 1837   0.352   4.693  13.903 -0.5099 -0.0351  0.0062
  118MPD2    C5 1838   0.330   4.558  13.899  0.4640 -1.0495 -0.8178
  118MPD2     H 1839   0.696   4.697  13.913 -0.3624 -0.4096  2.8676
  118MPD2    H1 1840   0.268   0.023  13.896 -0.5547  0.2030  2.9470
  118MPD2    H2 1841   0.418   4.370  13.911  0.8292 -0.3852 -3.2067
  118MPD2    H3 1842   0.229   4.520  13.887 -0.6579  2.0288 -1.1201
  118MPD2     N 1843   0.490   0.138  13.919  0.2133 -0.1196 -0.1008
  118MPD2    H5 1844   0.413   0.202  13.910  0.1669  0.0444  1.4855
  118MPD2    N1 1845   0.674   4.417  13.928  0.2921 -0.3418 -0.1143
  118MPD2    H7 1846   0.633   4.325  13.944 -0.5161  0.0653  0.1603
  119TMC2    C1 1847   2.787   0.459  13.592  0.0483  0.4816 -0.2814
  119TMC2    C2 1848   2.735   0.528  13.485  0.3382  0.1143 -0.0996
  119TMC2    C3 1849   2.602   0.540  13.462  0.2464  0.5042  0.4212
  119TMC2    C4 1850   2.696   0.411  13.688  0.4306 -0.4156 -0.2774
  119TMC2    C5 1851   2.563   0.426  13.664 -0.1028 -0.4610  0.6727
  119TMC2    C6 1852   2.515   0.506  13.558 -0.4674  0.2332  0.8058
  119TMC2     C 1853   2.925   0.464  13.625 -0.4331  0.6585 -0.8062
  119TMC2     O 1854   2.976   0.382  13.705 -0.5377  0.1373  0.3311
  119TMC2     H 1855   2.801   0.562  13.406 -2.3026 -0.3477 -2.4905
  119TMC2    H1 1856   2.738   0.361  13.774  1.0527 -1.7495 -1.3469
  119TMC2    H2 1857   2.408   0.525  13.551 -0.2006  0.6985 -2.0227
  119TMC2    C7 1858   2.472   0.416  13.773 -0.0463 -0.3290  0.2890
  119TMC2    C8 1859   2.559   0.593  13.334  0.6165 -0.0434 -0.4373
  119TMC2    O1 1860   2.371   0.484  13.763 -0.0856 -0.4258 -0.4270
  119TMC2    O2 1861   2.643   0.606  13.241  0.0339  0.1632 -0.2755
  119TMC2    O5 1862   2.430   0.554  13.328  0.7042  0.0056  0.0631
  119TMC2    H5 1863   2.397   0.572  13.237  2.0464  1.8362 -0.0641
  120MPD2     C 1864   3.387   0.685  13.595 -1.0076 -0.0899  0.1129
  120MPD2    C1 1865   3.290   0.771  13.555 -0.1238  0.0892 -0.3784
  120MPD2    C2 1866   3.161   0.722  13.537 -0.0632 -0.3815 -0.1033
  120MPD2    C3 1867   3.121   0.599  13.569 -0.4599 -0.0360  0.1794
  120MPD2    C4 1868   3.224   0.512  13.619  0.1725  0.2867  0.1987
  120MPD2    C5 1869   3.349   0.551  13.616  0.0497  0.1709 -0.6124
  120MPD2     H 1870   3.085   0.793  13.507 -0.2632 -0.4603  0.2261
  120MPD2    H1 1871   3.195   0.412  13.648 -2.2205  1.3134  1.3690
  120MPD2    H2 1872   3.488   0.709  13.625 -0.2970 -0.6163 -1.8391
  120MPD2    H3 1873   3.417   0.473  13.649  0.8905  0.6431 -1.2560
  120MPD2     N 1874   2.980   0.576  13.574 -0.2358 -0.1367 -0.0585
  120MPD2    H5 1875   2.919   0.643  13.528  1.3356  1.3103 -0.0576
  120MPD2    N1 1876   3.330   0.908  13.544  0.1558  0.8128 -0.8116
  120MPD2    H7 1877   3.428   0.931  13.529  0.2806 -0.0371 -1.2987
  121TMC2    C1 1878   4.307   2.590  13.596  0.0802 -0.0337  0.4083
  121TMC2    C2 1879   4.437   2.556  13.555 -0.2238 -0.1919  0.8739
  121TMC2    C3 1880   4.467   2.419  13.545  0.6671 -0.2149  0.3513
  121TMC2    C4 1881   4.229   2.502  13.644 -0.8832  0.7438  0.4408
  121TMC2    C5 1882   4.256   2.367  13.636 -0.3296  0.0593  0.0308
  121TMC2    C6 1883   4.372   2.326  13.579  0.0931 -0.1464 -0.6534
  121TMC2     C 1884   4.276   2.731  13.633 -0.8181  0.2253 -0.0168
  121TMC2     O 1885   4.227   2.752  13.742  0.3351  0.1948  0.1315
  121TMC2     H 1886   4.511   2.630  13.525  0.6318 -1.6419 -0.5736
  121TMC2    H1 1887   4.161   2.538  13.721 -0.5723  1.3234  0.4407
  121TMC2    H2 1888   4.395   2.221  13.567 -2.4305 -0.5748 -1.5435
  121TMC2    C7 1889   4.155   2.266  13.686 -0.2433 -0.5617  0.3290
  121TMC2    C8 1890   4.585   2.386  13.469 -0.0176 -0.9699 -0.1229
  121TMC2    O1 1891   4.186   2.147  13.689  0.0572  0.4288  0.3573
  121TMC2    O2 1892   4.686   2.451  13.477  0.1689 -0.2282  0.6634
  121TMC2    O5 1893   4.562   2.290  13.375  0.6215  0.1612 -0.3881
  121TMC2    H5 1894   4.494   2.227  13.407  1.2882 -1.1200 -1.4962
  122MPD2     C 1895   4.149   3.000  13.634 -0.3574 -0.2946  0.5745
  122MPD2    C1 1896   4.185   2.926  13.520 -0.4071  0.5552  0.0631
  122MPD2    C2 1897   4.149   2.978  13.394 -0.0248 -0.2298 -0.9273
  122MPD2    C3 1898   4.078   3.100  13.386  0.4146 -0.2918  0.1285
  122MPD2    C4 1899   4.034   3.165  13.500 -0.1091  1.0414  0.5080
  122MPD2    C5 1900   4.074   3.112  13.618 -1.2837 -0.0282 -0.7764
  122MPD2     H 1901   4.188   2.926  13.306 -1.6493 -2.4495 -0.3339
  122MPD2    H1 1902   3.991   3.264  13.500 -0.1422  1.0266 -1.1657
  122MPD2    H2 1903   4.178   2.972  13.735  1.0738  2.7255  1.0025
  122MPD2    H3 1904   4.042   3.168  13.705 -2.1389 -1.5640 -0.1107
  122MPD2     N 1905   4.054   3.161  13.260  0.3239 -0.0154 -0.2346
  122MPD2    H5 1906   4.002   3.248  13.269 -0.8627 -0.6417 -1.1782
  122MPD2    N1 1907   4.252   2.804  13.523  0.1135 -0.3284  0.3976
  122MPD2    H7 1908   4.264   2.757  13.434 -1.4550 -1.3154  0.7073
  123TMC2    C1 1909   3.610   1.918  10.329 -0.1897 -0.4085  0.5179
  123TMC2    C2 1910   3.720   1.991  10.368 -0.0515  0.0044  0.4533
  123TMC2    C3 1911   3.838   1.956  10.312  0.2479 -1.0412  0.2189
  123TMC2    C4 1912   3.615   1.820  10.233 -0.4027 -0.1946  0.4697
  123TMC2    C5 1913   3.738   1.795  10.173  0.4351 -0.2856  0.0549
  123TMC2    C6 1914   3.849   1.861  10.216 -0.2494 -0.5721 -0.0033
  123TMC2     C 1915   3.476   1.966  10.377 -0.3404 -0.5149 -0.0054
  123TMC2     O 1916   3.465   2.080  10.414 -0.7146 -0.1870  0.0503
  123TMC2     H 1917   3.713   2.058  10.453  1.4871 -2.0664  2.1823
  123TMC2    H1 1918   3.523   1.787  10.186 -1.9920 -3.3626  5.9087
  123TMC2    H2 1919   3.945   1.849  10.169 -0.3050 -0.1499 -0.2300
  123TMC2    C7 1920   3.726   1.687  10.070 -1.0429 -0.2942 -0.2287
  123TMC2    C8 1921   3.953   2.040  10.330  0.2571  0.2664  0.2535
  123TMC2    O1 1922   3.619   1.633  10.053  0.3377 -0.2575 -0.3897
  123TMC2    O2 1923   3.942   2.155  10.378 -0.2881 -0.2954  0.3054
  123TMC2    O5 1924   4.059   1.955  10.340  0.1624 -0.2589  0.0895
  123TMC2    H5 1925   4.030   1.862  10.342 -1.4030  0.2201 -0.4512
  124MPD2     C 1926   3.031   1.859  10.597  0.6729 -0.3441 -0.1435
  124MPD2    C1 1927   3.070   1.744  10.540  0.3553 -0.2328  0.3302
  124MPD2    C2 1928   3.182   1.757  10.459  0.2760 -0.2762 -0.6536
  124MPD2    C3 1929   3.262   1.870  10.452 -0.4703  0.0924 -1.0476
  124MPD2    C4 1930   3.208   1.984  10.511  0.1528  0.0614 -0.2501
  124MPD2    C5 1931   3.098   1.976  10.590 -0.7246  0.7515 -0.0060
  124MPD2     H 1932   3.217   1.664  10.414  0.5897  0.2953 -1.5952
  124MPD2    H1 1933   3.265   2.076  10.500 -1.2009  1.0674  1.1723
  124MPD2    H2 1934   2.933   1.860  10.643  0.3494  1.0043 -0.8867
  124MPD2    H3 1935   3.054   2.056  10.649 -1.4553 -0.5541  1.1990
  124MPD2     N 1936   3.381   1.865  10.380  0.2998 -0.0898 -0.5914
  124MPD2    H5 1937   3.410   1.775  10.342 -1.3511 -0.9687  0.2045
  124MPD2    N1 1938   2.997   1.621  10.550 -0.2155  0.1524 -0.4069
  124MPD2    H7 1939   2.935   1.604  10.628  1.2372  0.2823  0.7856
  125TMC2    C1 1940   3.348   3.020   9.111 -0.3914  0.4521  0.5987
  125TMC2    C2 1941   3.284   3.141   9.098  0.1703  0.3151  0.2224
  125TMC2    C3 1942   3.326   3.232   9.012  0.2893 -0.7152  0.6582
  125TMC2    C4 1943   3.455   2.990   9.034 -0.0501 -0.1666  0.7553
  125TMC2    C5 1944   3.502   3.090   8.950 -0.3357 -0.5289  0.2596
  125TMC2    C6 1945   3.430   3.203   8.931  0.0920  0.3108  0.6763
  125TMC2     C 1946   3.291   2.912   9.197  0.1168 -0.5511  0.2843
  125TMC2     O 1947   3.245   2.959   9.303 -0.4825  0.3825  0.4041
  125TMC2     H 1948   3.191   3.148   9.153 -1.0233  1.8437 -2.0289
  125TMC2    H1 1949   3.508   2.897   9.046  0.9398  0.3347  0.2907
  125TMC2    H2 1950   3.472   3.274   8.860 -0.8032 -0.3318 -0.5083
  125TMC2    C7 1951   3.618   3.068   8.870  0.1003  0.1385 -0.1703
  125TMC2    C8 1952   3.226   3.331   8.960  0.4827  0.0542 -0.1251
  125TMC2    O1 1953   3.637   3.130   8.770 -0.1217 -0.4249 -0.0077
  125TMC2    O2 1954   3.214   3.368   8.845 -0.1015  0.0526 -0.2111
  125TMC2    O5 1955   3.135   3.355   9.056 -0.6325 -0.1881 -0.0700
  125TMC2    H5 1956   3.165   3.337   9.148 -0.5987  0.1891 -0.0089
  126MPD1     C 1957   3.266   2.418   9.360  0.7199 -0.2213  0.0109
  126MPD1    C1 1958   3.351   2.430   9.253 -0.4959 -0.1338 -0.3492
  126MPD1    C2 1959   3.365   2.559   9.193 -0.1506  0.0173 -0.6508
  126MPD1    C3 1960   3.299   2.670   9.235  0.3403  0.5729 -0.0804
  126MPD1    C4 1961   3.219   2.658   9.347 -0.8490 -0.2808 -0.2350
  126MPD1    C5 1962   3.207   2.539   9.405 -0.1011 -0.3114 -0.3881
  126MPD1     H 1963   3.425   2.567   9.103  1.9362  1.6748  0.8757
  126MPD1    H1 1964   3.162   2.740   9.390  0.6185 -0.0713  1.3031
  126MPD1    H2 1965   3.237   2.323   9.404  0.9618 -1.3681 -2.3091
  126MPD1    H3 1966   3.149   2.522   9.495  0.5532  0.3834  0.1660
  126MPD1     N 1967   3.337   2.791   9.167  0.8056 -0.2305 -0.6099
  126MPD1    H5 1968   3.400   2.766   9.091  1.4953 -0.7001  0.1263
  126MPD1    N1 1969   3.407   2.316   9.194 -0.0722  0.3594 -0.2773
  126MPD1    H6 1970   3.489   2.329   9.136  0.0668 -3.2908 -0.8992
  126MPD1    H7 1971   3.432   2.248   9.265 -1.3362  0.2142  0.0432
  127TMC2    C1 1972   4.435   1.717  10.448  0.2005 -0.8059 -0.6830
  127TMC2    C2 1973   4.494   1.631  10.535 -0.2170 -0.1400 -0.3841
  127TMC2    C3 1974   4.409   1.525  10.581 -0.5184 -0.3160 -0.6111
  127TMC2    C4 1975   4.303   1.702  10.413  0.0233 -0.7555 -0.4995
  127TMC2    C5 1976   4.233   1.595  10.459 -0.2502  0.1173  0.7459
  127TMC2    C6 1977   4.277   1.508  10.556 -0.1983  0.4813  0.2379
  127TMC2     C 1978   4.508   1.838  10.397  0.3186 -0.2042  0.3210
  127TMC2     O 1979   4.627   1.836  10.421  0.2928 -0.1280 -0.6712
  127TMC2     H 1980   4.596   1.648  10.567 -0.7082 -1.6875  1.9772
  127TMC2    H1 1981   4.258   1.766  10.338  0.3088 -1.7691 -1.5225
  127TMC2    H2 1982   4.216   1.431  10.601 -0.4545  0.5328 -0.0226
  127TMC2    C7 1983   4.096   1.596  10.427  0.8996 -0.7614 -0.6739
  127TMC2    C8 1984   4.483   1.436  10.665  0.2164 -0.2794 -0.5398
  127TMC2    O1 1985   4.048   1.704  10.391  0.0036 -0.1449 -0.0643
  127TMC2    O2 1986   4.603   1.436  10.640 -0.2031  0.0803  0.5875
  127TMC2    O5 1987   4.408   1.326  10.677  0.5197  0.7284 -0.2122
  127TMC2    H5 1988   4.315   1.331  10.710  0.8682 -1.8206  1.1316
  128MPD2     C 1989   4.360   2.156  10.285 -0.1184 -0.3671 -0.0729
  128MPD2    C1 1990   4.468   2.069  10.310  0.4085 -0.7204  0.1366
  128MPD2    C2 1991   4.601   2.104  10.287  0.1060  0.4248  0.0872
  128MPD2    C3 1992   4.627   2.234  10.231  0.5076  0.4215  0.2109
  128MPD2    C4 1993   4.516   2.313  10.206 -0.3694  0.7828 -0.4072
  128MPD2    C5 1994   4.393   2.276  10.235 -0.9888  0.3722 -0.1566
  128MPD2     H 1995   4.683   2.038  10.312 -1.1904 -1.2792 -0.1835
  128MPD2    H1 1996   4.521   2.413  10.163  1.5512  1.6903  1.8857
  128MPD2    H2 1997   4.259   2.126  10.314 -0.7351  0.6008 -1.2154
  128MPD2    H3 1998   4.312   2.346  10.218 -0.3723  0.7733 -1.4446
  128MPD2     N 1999   0.018   2.275  10.201 -0.0946 -0.2588 -0.6856
  128MPD2    H5 2000   0.081   2.197  10.186  2.8742  1.8604  0.8299
  128MPD2    N1 2001   4.429   1.942  10.365  0.3023  0.9070 -0.2792
  128MPD2    H7 2002   4.331   1.928  10.388  0.4041 -3.0588 -2.2544
  129TMC2    C1 2003   3.782   2.377   1.201  0.3132 -0.4927 -0.4642
  129TMC2    C2 2004   3.727   2.461   1.112  0.4594 -0.7960 -0.2895
  129TMC2    C3 2005   3.640   2.401   1.026  0.1875 -0.0061  0.8515
  129TMC2    C4 2006   3.782   2.239   1.199  0.0063 -0.0109 -0.6490
  129TMC2    C5 2007   3.704   2.186   1.098 -0.4035 -0.2162  0.3949
  129TMC2    C6 2008   3.630   2.265   1.010 -0.0504 -0.3776 -0.2852
  129TMC2     C 2009   3.813   2.442   1.333  0.7993 -0.4106  0.4637
  129TMC2     O 2010   3.880   2.374   1.407  0.1750 -0.4203  0.6148
  129TMC2     H 2011   3.758   2.565   1.103 -0.2836 -0.5231  0.2961
  129TMC2    H1 2012   3.819   2.164   1.268 -0.6107 -0.2249 -0.5534
  129TMC2    H2 2013   3.567   2.220   0.935 -0.4992 -2.2950  1.2528
  129TMC2    C7 2014   3.674   2.045   1.094 -0.0284  0.3848  0.1303
  129TMC2    C8 2015   3.577   2.493   0.932 -0.2602 -0.1613  0.3880
  129TMC2    O1 2016   3.565   2.017   1.043 -0.5347 -0.3804 -0.2237
  129TMC2    O2 2017   3.550   2.609   0.963 -0.1192  0.3340  0.6616
  129TMC2    O5 2018   3.600   2.449   0.809 -0.5273  0.1694 -0.4772
  129TMC2    H5 2019   3.630   2.356   0.798 -0.5169  0.1942 -0.6557
  130MPD2     C 2020   3.861   2.608   1.575 -0.5485  0.2002 -0.0658
  130MPD2    C1 2021   3.800   2.655   1.458 -0.0125  0.2140 -0.2310
  130MPD2    C2 2022   3.780   2.795   1.451  0.2004 -0.7701  0.2563
  130MPD2    C3 2023   3.812   2.881   1.555  0.3032  0.6020 -0.7392
  130MPD2    C4 2024   3.877   2.832   1.665  0.3943  0.2062  0.0091
  130MPD2    C5 2025   3.894   2.694   1.675 -0.4317  0.5364  0.0719
  130MPD2     H 2026   3.733   2.840   1.364  2.3776 -0.7669 -0.9308
  130MPD2    H1 2027   3.901   2.890   1.753 -0.0281  1.1667 -0.5107
  130MPD2    H2 2028   3.884   2.504   1.595 -0.1186  0.5762  1.4193
  130MPD2    H3 2029   3.940   2.655   1.765  0.9814  1.3257 -0.3101
  130MPD2     N 2030   3.778   3.017   1.540 -0.2228 -0.3944 -0.2373
  130MPD2    H5 2031   3.753   3.055   1.450  4.3434  2.3855 -0.3087
  130MPD2    N1 2032   3.776   2.573   1.343 -0.0518 -0.2240  0.1827
  130MPD2    H7 2033   3.721   2.617   1.270  0.6594  1.5918  0.7298
  131TMC2    C1 2034   2.531   1.201   9.672  0.4782 -0.3798 -0.8992
  131TMC2    C2 2035   2.531   1.088   9.592 -0.0752  0.5418 -0.0571
  131TMC2    C3 2036   2.510   1.102   9.459  0.3051  0.1273 -0.0126
  131TMC2    C4 2037   2.500   1.325   9.620 -0.3364  0.5043 -0.4122
  131TMC2    C5 2038   2.475   1.332   9.486  0.1732  0.5656  0.0196
  131TMC2    C6 2039   2.470   1.221   9.404  0.4542  0.4613  0.2698
  131TMC2     C 2040   2.552   1.199   9.817  0.3878 -0.0653 -0.5591
  131TMC2     O 2041   2.599   1.297   9.872  0.1696  0.3389  0.0193
  131TMC2     H 2042   2.527   0.990   9.639 -1.0891  0.6017 -0.0175
  131TMC2    H1 2043   2.508   1.413   9.682  1.4202  0.3490 -0.4233
  131TMC2    H2 2044   2.450   1.238   9.299 -1.1309 -1.3345  0.2755
  131TMC2    C7 2045   2.412   1.455   9.424  0.2191  0.3025  0.0885
  131TMC2    C8 2046   2.489   0.985   9.391 -0.1746  0.0861 -0.0669
  131TMC2    O1 2047   2.320   1.429   9.345  0.2901 -0.2974 -0.6510
  131TMC2    O2 2048   2.404   0.980   9.304 -0.2665  0.4852 -0.1133
  131TMC2    O5 2049   2.608   0.918   9.391 -0.0346  0.2924  0.2758
  131TMC2    H5 2050   2.676   0.955   9.452 -0.2940  3.5592 -1.3952
  132MPD2     C 2051   2.488   0.916  10.047 -0.1268  0.6635  0.0912
  132MPD2    C1 2052   2.540   1.033   9.999  0.1158 -0.3496 -0.6485
  132MPD2    C2 2053   2.638   1.097  10.075 -0.2991  0.0566  0.2623
  132MPD2    C3 2054   2.677   1.050  10.199  0.0204 -0.9080  0.3204
  132MPD2    C4 2055   2.613   0.936  10.247 -0.2259 -0.3699 -0.0552
  132MPD2    C5 2056   2.523   0.871  10.172 -0.1279  0.1855  0.1872
  132MPD2     H 2057   2.688   1.188  10.044 -1.4470  0.6610  0.1590
  132MPD2    H1 2058   2.638   0.890  10.342 -0.8320  0.1237  0.3470
  132MPD2    H2 2059   2.409   0.860   9.998 -0.7680  0.0416  1.8469
  132MPD2    H3 2060   2.475   0.783  10.214  1.1115 -1.3444 -1.5780
  132MPD2     N 2061   2.783   1.116  10.267  0.5636  0.0771  0.7933
  132MPD2    H5 2062   2.818   1.193  10.211 -0.7751  1.1627  1.4288
  132MPD2    N1 2063   2.507   1.081   9.868 -0.1577 -0.3879 -0.1152
  132MPD2    H7 2064   2.451   1.031   9.799  0.0487  0.8337 -1.1608
  133TMC2    C1 2065   1.650   0.900   9.831  0.3147 -0.2631 -0.1662
  133TMC2    C2 2066   1.626   0.843   9.950 -0.1486 -0.3557  0.2485
  133TMC2    C3 2067   1.546   0.732   9.956  0.5333 -0.3632 -0.2311
  133TMC2    C4 2068   1.605   0.841   9.712 -0.4022 -0.2577 -0.4045
  133TMC2    C5 2069   1.539   0.722   9.723  1.3547 -0.0790 -0.8608
  133TMC2    C6 2070   1.516   0.657   9.846  0.8895  0.0530  0.3119
  133TMC2     C 2071   1.752   0.993   9.814 -0.3861 -0.3828 -0.9728
  133TMC2     O 2072   1.740   1.061   9.711  0.4195  0.1262 -0.1389
  133TMC2     H 2073   1.655   0.903  10.036 -0.2970  1.0170 -0.6614
  133TMC2    H1 2074   1.641   0.880   9.618 -0.3946 -1.6484 -0.9640
  133TMC2    H2 2075   1.479   0.556   9.857 -1.7907  1.1275  1.1230
  133TMC2    C7 2076   1.536   0.633   9.611 -0.4172 -0.0376  0.0456
  133TMC2    C8 2077   1.536   0.658  10.081  0.6667 -0.2469  0.2949
  133TMC2    O1 2078   1.534   0.509   9.626 -0.0578 -0.1970 -0.1148
  133TMC2    O2 2079   1.581   0.713  10.181  0.4080 -0.1233 -0.3370
  133TMC2    O5 2080   1.431   0.577  10.078 -0.3161 -0.6025  0.2525
  133TMC2    H5 2081   1.379   0.589   9.995  1.1700  0.8282 -0.4886
  134MPD2     C 2082   2.059   1.072  10.006 -0.1147 -0.7066 -0.4871
  134MPD2    C1 2083   1.960   1.089   9.911  0.2081  0.9244  0.0613
  134MPD2    C2 2084   1.964   1.200   9.821 -0.1769 -0.6595  0.3331
  134MPD2    C3 2085   2.080   1.283   9.821 -0.6693 -0.2239 -0.6692
  134MPD2    C4 2086   2.185   1.252   9.909 -0.1044  0.5956 -0.3066
  134MPD2    C5 2087   2.170   1.155  10.004  0.3230 -0.1230 -0.1833
  134MPD2     H 2088   1.870   1.234   9.779  0.4959  0.1816 -0.4778
  134MPD2    H1 2089   2.280   1.303   9.899 -0.2276  0.5839 -1.6410
  134MPD2    H2 2090   2.058   0.990  10.076  0.1666 -1.0050 -0.8342
  134MPD2    H3 2091   2.253   1.129  10.068  0.4689 -0.6688 -0.5936
  134MPD2     N 2092   2.095   1.407   9.752 -0.6630 -0.2160 -0.5058
  134MPD2    H5 2093   2.171   1.467   9.780 -0.6465 -0.8990  0.9470
  134MPD2    N1 2094   1.853   1.000   9.909  0.1442 -0.0178 -0.6368
  134MPD2    H7 2095   1.858   0.928   9.981 -0.4888 -2.4911 -3.0565
  135TMC2    C1 2096   3.294   3.223   9.508  0.4377  0.0662  0.3299
  135TMC2    C2 2097   3.170   3.166   9.522  1.0472  0.4138  0.2823
  135TMC2    C3 2098   3.142   3.094   9.636  0.3411  0.0257 -0.4784
  135TMC2    C4 2099   3.390   3.205   9.604  0.2136  0.2774 -0.5167
  135TMC2    C5 2100   3.352   3.143   9.721 -0.2305  0.0384  0.3121
  135TMC2    C6 2101   3.230   3.080   9.736 -0.4357 -0.4218 -1.0940
  135TMC2     C 2102   3.325   3.294   9.381 -0.3541  0.1011  0.3980
  135TMC2     O 2103   3.229   3.336   9.318 -0.6347  0.2077  0.0511
  135TMC2     H 2104   3.096   3.184   9.444  2.7809 -0.4557 -1.5650
  135TMC2    H1 2105   3.485   3.256   9.599 -0.0563  0.8710  0.3687
  135TMC2    H2 2106   3.186   3.057   9.832 -0.2007 -0.2932 -0.9561
  135TMC2    C7 2107   3.451   3.125   9.825 -0.6402 -0.1920 -0.0981
  135TMC2    C8 2108   3.009   3.036   9.653  0.5921  0.1274 -0.6544
  135TMC2    O1 2109   3.528   3.217   9.833  0.0589  0.5705  0.1702
  135TMC2    O2 2110   2.986   2.920   9.683 -0.4087  0.4572  0.5702
  135TMC2    O5 2111   2.919   3.120   9.602  0.5100  0.1168  0.4645
  135TMC2    H5 2112   2.939   3.216   9.596 -0.3434  0.1167 -2.5078
  136MPD2     C 2113   3.485   3.461   9.197  0.1973 -0.2104 -0.5339
  136MPD2    C1 2114   3.533   3.345   9.250  0.5334  0.0468  0.0287
  136MPD2    C2 2115   3.656   3.296   9.208 -0.0715  0.0895 -0.9160
  136MPD2    C3 2116   3.723   3.363   9.106 -0.4138 -0.0789 -0.3837
  136MPD2    C4 2117   3.664   3.475   9.047 -0.2931 -0.1476  0.0839
  136MPD2    C5 2118   3.539   3.520   9.084  0.4608 -0.4393 -0.3550
  136MPD2     H 2119   3.701   3.213   9.261 -1.1663  0.5478  0.7087
  136MPD2    H1 2120   3.715   3.527   8.967  0.5118 -2.7992 -1.1210
  136MPD2    H2 2121   3.401   3.513   9.242 -0.4533  0.2785 -2.2998
  136MPD2    H3 2122   3.487   3.609   9.051  1.6490 -0.8136 -3.2522
  136MPD2     N 2123   3.844   3.320   9.056  0.4692 -0.5677  0.3096
  136MPD2    H5 2124   3.881   3.376   8.980  0.4593 -0.1221  0.6348
  136MPD2    N1 2125   3.459   3.272   9.344  0.2107 -0.0989 -0.2830
  136MPD2    H7 2126   3.495   3.194   9.398 -0.5672 -0.8986 -0.9283
  137TMC2    C1 2127   3.373   2.803   8.746 -0.1720 -0.0802 -0.2029
  137TMC2    C2 2128   3.407   2.896   8.653 -0.1124  0.0812 -0.6343
  137TMC2    C3 2129   3.332   3.008   8.637  0.2420  0.6591  0.1243
  137TMC2    C4 2130   3.261   2.815   8.825  0.1765 -0.0908 -0.3728
  137TMC2    C5 2131   3.177   2.919   8.795 -0.7352  0.3270  0.0764
  137TMC2    C6 2132   3.211   3.017   8.709 -0.1805 -0.0453 -0.2353
  137TMC2     C 2133   3.480   2.723   8.809 -0.0245  0.0362  0.1271
  137TMC2     O 2134   3.482   2.726   8.930  0.1536  0.0094  0.0506
  137TMC2     H 2135   3.509   2.906   8.618  0.1260  2.5532  0.7624
  137TMC2    H1 2136   3.240   2.756   8.914 -1.0021 -1.1270 -1.3454
  137TMC2    H2 2137   3.148   3.104   8.697  2.4217  1.7379 -1.0857
  137TMC2    C7 2138   3.077   2.950   8.895  0.1142 -0.0993 -0.2308
  137TMC2    C8 2139   3.349   3.091   8.528 -0.4503  0.0587  0.2036
  137TMC2    O1 2140   3.057   3.068   8.908  0.0468 -0.8060  0.5345
  137TMC2    O2 2141   3.445   3.069   8.450 -0.1366 -0.1172 -0.6995
  137TMC2    O5 2142   3.314   3.214   8.565  0.0133  0.1225  0.8316
  137TMC2    H5 2143   3.232   3.205   8.617  0.3990  1.5616  1.7238
  138MPD2     C 2144   3.767   2.591   8.640  0.1095  0.2017 -0.1226
  138MPD2    C1 2145   3.685   2.614   8.744  0.2249 -0.1170 -0.1919
  138MPD2    C2 2146   3.728   2.575   8.874 -0.4399 -0.3772  0.0507
  138MPD2    C3 2147   3.852   2.514   8.888  0.1843 -0.0322 -0.0136
  138MPD2    C4 2148   3.921   2.466   8.779 -0.9001 -0.3882  0.3429
  138MPD2    C5 2149   3.886   2.514   8.654  0.0297 -0.0828 -0.0492
  138MPD2     H 2150   3.671   2.600   8.963 -0.4976 -0.4419  0.0311
  138MPD2    H1 2151   4.014   2.411   8.780 -1.0655 -0.6676  0.6637
  138MPD2    H2 2152   3.752   2.609   8.534  0.9467  0.2799 -0.2296
  138MPD2    H3 2153   3.936   2.483   8.564  0.5777 -0.1599  0.2818
  138MPD2     N 2154   3.877   2.472   9.018  0.0791  0.1292 -0.1963
  138MPD2    H5 2155   3.811   2.503   9.088  0.0406  1.7565 -0.9564
  138MPD2    N1 2156   3.563   2.676   8.715 -0.0306 -0.5087 -0.3709
  138MPD2    H7 2157   3.532   2.692   8.620 -0.0450 -0.6559 -0.3915
  139TMC2    C1 2158   0.045   0.912  13.395 -0.3246  0.5598 -0.0636
  139TMC2    C2 2159   0.123   0.999  13.325  0.2724 -0.5218 -0.3878
  139TMC2    C3 2160   0.062   1.083  13.233  0.0358  1.0928  0.1518
  139TMC2    C4 2161   4.650   0.913  13.374  0.0829  0.3958  0.0144
  139TMC2    C5 2162   4.586   1.003  13.295  0.0411  0.7748 -0.8789
  139TMC2    C6 2163   4.662   1.089  13.224 -0.9371  0.1152 -0.5722
  139TMC2     C 2164   0.110   0.791  13.447 -0.2373 -1.1239  0.0784
  139TMC2     O 2165   0.233   0.781  13.438  0.2303  0.0842 -0.2974
  139TMC2     H 2166   0.230   0.980  13.330  0.6061  1.1494 -1.2207
  139TMC2    H1 2167   4.585   0.844  13.426 -3.0749  1.9603 -1.8513
  139TMC2    H2 2168   4.607   1.144  13.149 -2.1269 -0.7343 -0.3350
  139TMC2    C7 2169   4.458   1.058  13.334 -0.4317 -0.2802  0.2163
  139TMC2    C8 2170   0.120   1.073  13.103  0.2677 -0.4749  0.5534
  139TMC2    O1 2171   4.413   1.152  13.269  0.4770  0.0555  0.3216
  139TMC2    O2 2172   0.059   1.026  13.009 -0.2636  0.2318 -0.2429
  139TMC2    O5 2173   0.254   1.088  13.120 -0.3086  0.3077  0.1774
  139TMC2    H5 2174   0.269   1.162  13.182 -2.0925  1.8393 -1.2049
  140MPD2     C 2175   4.662   0.498  13.595  0.0778 -0.0689  0.3195
  140MPD2    C1 2176   0.033   0.564  13.543  0.1842  0.0064 -0.8719
  140MPD2    C2 2177   0.148   0.488  13.528 -0.6679  0.1506  0.1481
  140MPD2    C3 2178   0.157   0.352  13.568  0.0667  0.0479  0.3181
  140MPD2    C4 2179   0.038   0.294  13.612 -0.3031  0.2439 -0.1596
  140MPD2    C5 2180   4.658   0.364  13.624 -0.4203 -0.3724 -0.8075
  140MPD2     H 2181   0.221   0.548  13.474 -0.5315 -0.2695 -0.1299
  140MPD2    H1 2182   0.028   0.189  13.636 -1.3355  0.6157  1.0440
  140MPD2    H2 2183   4.563   0.541  13.600 -0.6708 -1.7770  0.3228
  140MPD2    H3 2184   4.560   0.325  13.646  0.0082  0.3798  2.3644
  140MPD2     N 2185   0.276   0.283  13.564 -0.2682 -0.2390  0.4316
  140MPD2    H5 2186   0.358   0.330  13.528 -0.1294 -2.2337 -1.9126
  140MPD2    N1 2187   0.015   0.701  13.502  0.2423  0.2114 -0.4385
  140MPD2    H7 2188   4.658   0.725  13.526  0.1666 -0.4738 -0.0462
  141TMC2    C1 2189   0.104   2.726  13.945  0.1208  0.4596 -0.1099
  141TMC2    C2 2190   0.031   2.639  14.027 -0.3421 -0.2739 -0.3124
  141TMC2    C3 2191   0.051   2.664  14.160 -0.3043 -0.4635 -0.0954
  141TMC2    C4 2192   0.195   2.816  13.996  0.2784  0.0505  0.1665
  141TMC2    C5 2193   0.220   2.825  14.128 -0.2123  0.1855 -0.8004
  141TMC2    C6 2194   0.142   2.753  14.214  0.2331  0.5024 -0.0278
  141TMC2     C 2195   0.109   2.693  13.803  0.3483 -0.3496  0.3292
  141TMC2     O 2196   0.071   2.577  13.771  0.5702 -0.7034 -0.4752
  141TMC2     H 2197   4.701   2.565  13.988 -0.6690 -0.1379  0.0092
  141TMC2    H1 2198   0.256   2.875  13.929 -0.0963 -0.3552 -0.5352
  141TMC2    H2 2199   0.171   2.746  14.319 -0.9124 -0.7942  0.2012
  141TMC2    C7 2200   0.317   2.907  14.192  0.1646 -0.2276  0.1656
  141TMC2    C8 2201   4.710   2.593  14.257  0.1555 -0.2146 -0.8493
  141TMC2    O1 2202   0.334   3.016  14.138 -0.2203 -0.0766  0.4141
  141TMC2    O2 2203   4.663   2.643  14.356  0.1686  0.3201 -0.2145
  141TMC2    O5 2204   4.735   2.464  14.240  0.5172 -0.4127  0.3557
  141TMC2    H5 2205   0.063   2.443  14.171 -1.4873  0.1410 -1.7446
  142TMC2    C1 2206   3.307   1.077   9.620  0.9339  0.1218  0.1078
  142TMC2    C2 2207   3.324   1.045   9.484  0.9237  0.4342  0.6434
  142TMC2    C3 2208   3.434   1.096   9.426  0.6123  0.1419  0.3340
  142TMC2    C4 2209   3.397   1.150   9.693  0.4508  0.1166 -0.0227
  142TMC2    C5 2210   3.504   1.205   9.626 -0.0039  0.0137  0.3190
  142TMC2    C6 2211   3.528   1.166   9.492 -0.3258 -0.0730 -0.2739
  142TMC2     C 2212   3.186   1.026   9.683  0.6725  0.5694  0.0685
  142TMC2     O 2213   3.094   0.992   9.606  0.1849 -0.0495  0.4246
  142TMC2     H 2214   3.248   0.982   9.440 -2.7687  3.0287  3.2015
  142TMC2    H1 2215   3.387   1.168   9.800  0.2566 -1.2272  0.1891
  142TMC2    H2 2216   3.607   1.216   9.437  1.8864 -0.2231  2.7922
  142TMC2    C7 2217   3.578   1.304   9.704 -0.4177  0.0457 -0.5814
  142TMC2    C8 2218   3.455   1.102   9.279 -0.4410  0.2157  0.0616
  142TMC2    O1 2219   3.509   1.356   9.793 -0.4443 -0.7724  0.2165
  142TMC2    O2 2220   3.559   1.120   9.223  0.2891  0.2668 -0.2482
  142TMC2    O5 2221   3.332   1.116   9.222 -0.3491 -0.3632 -0.0556
  142TMC2    H5 2222   3.257   1.141   9.280  0.6958 -0.7113  1.4504
  143MPD2     C 2223   2.951   0.843  10.093  0.4808 -0.5947 -0.2812
  143MPD2    C1 2224   2.913   0.837   9.960 -0.1716  0.5727  0.2291
  143MPD2    C2 2225   2.989   0.909   9.867  0.0341  0.2987  0.9470
  143MPD2    C3 2226   3.102   0.982   9.907 -0.0985 -0.4297  0.3671
  143MPD2    C4 2227   3.145   0.977  10.041 -0.1405  0.0581  0.3781
  143MPD2    C5 2228   3.066   0.909  10.132  0.3582 -0.0739  0.1352
  143MPD2     H 2229   2.954   0.894   9.766  1.0283  0.3373  0.6048
  143MPD2    H1 2230   3.232   1.032  10.076 -1.6119  3.0178 -0.6157
  143MPD2    H2 2231   2.895   0.781  10.162  0.2344 -0.0278  0.0262
  143MPD2    H3 2232   3.089   0.911  10.238  2.5578  0.0753 -0.3427
  143MPD2     N 2233   3.184   1.048   9.815  0.2407  0.7729  0.4234
  143MPD2    H5 2234   3.268   1.087   9.856 -0.7334  3.0103  0.3021
  143MPD2    N1 2235   2.797   0.765   9.943  0.0490  1.0226  0.1559
  143MPD2    H7 2236   2.749   0.731  10.026  0.0299  0.7380  0.0285
  144TMC2    C1 2237   1.822   4.006   0.544 -0.6524  0.0668 -0.5517
  144TMC2    C2 2238   1.914   3.912   0.503 -0.5218 -0.2722  0.4501
  144TMC2    C3 2239   2.042   3.920   0.547  0.0715  0.5960  0.3128
  144TMC2    C4 2240   1.863   4.112   0.620  0.5268 -0.0210  0.3277
  144TMC2    C5 2241   1.997   4.120   0.651  0.5850 -1.0452 -0.7178
  144TMC2    C6 2242   2.084   4.021   0.620 -0.2965  0.6919 -0.0126
  144TMC2     C 2243   1.686   3.992   0.496  0.8103 -0.2062  0.3052
  144TMC2     O 2244   1.659   3.913   0.406 -0.0237 -0.3473 -0.0769
  144TMC2     H 2245   1.890   3.832   0.435 -1.6067 -0.1931  0.7257
  144TMC2    H1 2246   1.800   4.187   0.666  0.7472  0.7767 -0.6809
  144TMC2    H2 2247   2.189   4.021   0.647 -0.4228 -1.8155  0.4626
  144TMC2    C7 2248   2.052   4.222   0.748 -0.6221  0.6707  0.1414
  144TMC2    C8 2249   2.147   3.865   0.469  0.0377 -1.0150  0.9998
  144TMC2    O1 2250   2.169   4.210   0.779  0.0060 -0.2661 -0.0381
  144TMC2    O2 2251   2.142   3.867   0.351  0.2430  0.0887  0.5611
  144TMC2    O5 2252   2.257   3.836   0.546 -1.0023 -0.2773  0.0321
  144TMC2    H5 2253   2.235   3.840   0.642 -4.3770  3.8581 -0.9215
  145MPD2     C 2254   1.220   4.192   0.404  0.1486  0.2052 -0.5785
  145MPD2    C1 2255   1.275   4.075   0.356  0.1019 -0.7140  0.5173
  145MPD2    C2 2256   1.403   4.038   0.402 -0.1310  0.0922 -0.0119
  145MPD2    C3 2257   1.468   4.113   0.496  0.4099  0.7884  0.2486
  145MPD2    C4 2258   1.406   4.228   0.540  0.7820 -0.0670 -0.2293
  145MPD2    C5 2259   1.281   4.267   0.493 -0.1810 -0.4041  0.2660
  145MPD2     H 2260   1.435   3.940   0.369  0.5574 -0.3335  1.9796
  145MPD2    H1 2261   1.460   4.290   0.611  1.1721 -0.1649 -0.4388
  145MPD2    H2 2262   1.125   4.234   0.372  0.9415  0.8358 -2.1293
  145MPD2    H3 2263   1.242   4.365   0.519  3.4354  1.3534 -0.8898
  145MPD2     N 2264   1.599   4.085   0.547  0.1476  0.1864 -0.0973
  145MPD2    H5 2265   1.637   4.148   0.617 -0.1092 -2.3405  2.3385
  145MPD2    N1 2266   1.212   3.998   0.256  0.3623  0.4438  0.3628
  145MPD2    H7 2267   1.254   3.907   0.240  0.9428  1.0120 -1.3456
  146TMC2    C1 2268   1.974   3.186  12.653  0.2852  0.1378  0.1179
  146TMC2    C2 2269   1.916   3.298  12.600 -0.0545 -0.0722  0.9730
  146TMC2    C3 2270   1.896   3.304  12.464 -0.1106 -0.2736  0.5552
  146TMC2    C4 2271   2.032   3.091  12.569 -0.3478 -0.3994 -0.1298
  146TMC2    C5 2272   2.025   3.115  12.434  0.1281 -0.0036 -0.9961
  146TMC2    C6 2273   1.947   3.216  12.376 -0.2351 -0.2185 -0.2221
  146TMC2     C 2274   1.989   3.187  12.800  0.5511 -0.5576 -0.2023
  146TMC2     O 2275   1.920   3.269  12.857 -0.2347  0.3806 -0.4466
  146TMC2     H 2276   1.886   3.382  12.662 -1.6617 -0.2690  0.4563
  146TMC2    H1 2277   2.070   2.993  12.597 -0.8593 -0.0781  1.6444
  146TMC2    H2 2278   1.929   3.228  12.269  0.5423 -0.7465 -0.4157
  146TMC2    C7 2279   2.087   3.019  12.340 -0.9563 -0.8879 -0.3277
  146TMC2    C8 2280   1.809   3.405  12.407  0.4644 -0.0485  0.4415
  146TMC2    O1 2281   2.049   3.020  12.221 -0.2575  0.5807  0.2417
  146TMC2    O2 2282   1.735   3.477  12.475  0.0509  0.7322  0.8455
  146TMC2    O5 2283   1.863   3.455  12.295  0.1195 -0.0734 -0.0494
  146TMC2    H5 2284   1.950   3.417  12.269  1.9190  1.8912  3.1540
  147MPD2     C 2285   2.512   2.758  12.169  0.7742  0.6322 -0.2535
  147MPD2    C1 2286   2.497   2.752  12.311 -0.2265 -0.3473 -0.5164
  147MPD2    C2 2287   2.391   2.816  12.380  0.0794 -0.4217 -0.1698
  147MPD2    C3 2288   2.300   2.890  12.314 -0.7059  0.5977  0.4480
  147MPD2    C4 2289   2.313   2.883  12.172  0.0425  0.8113 -0.1468
  147MPD2    C5 2290   2.410   2.818  12.101 -0.1991 -0.7218  0.4833
  147MPD2     H 2291   2.390   2.803  12.488 -0.2033 -1.4654 -0.3000
  147MPD2    H1 2292   2.232   2.937  12.124 -0.5992  0.9016  1.0264
  147MPD2    H2 2293   2.585   2.695  12.119 -0.6399 -0.1181 -1.3665
  147MPD2    H3 2294   2.413   2.830  11.993 -2.5225 -3.4482  0.1161
  147MPD2     N 2295   2.198   2.950  12.392 -0.3369  0.1521 -0.0967
  147MPD2    H5 2296   2.215   2.947  12.493  0.2468 -1.9097 -0.2496
  147MPD2    N1 2297   2.601   2.685  12.381  0.2018 -1.0403  0.0185
  147MPD2    H7 2298   2.684   2.667  12.324 -1.1544  0.6582 -2.4846
  148TMC2    C1 2299   2.275   2.046  10.680 -0.2184 -0.1292 -0.6300
  148TMC2    C2 2300   2.386   2.096  10.732 -1.0821  0.0625  0.1220
  148TMC2    C3 2301   2.457   2.026  10.821  0.0681 -0.0857  0.1847
  148TMC2    C4 2302   2.232   1.924  10.714 -0.1169  0.5781 -0.7201
  148TMC2    C5 2303   2.303   1.845  10.798 -0.8286  0.7913  0.3771
  148TMC2    C6 2304   2.419   1.899  10.856  0.4086  0.5562 -0.9362
  148TMC2     C 2305   2.187   2.137  10.605  0.1409 -0.3798 -0.1577
  148TMC2     O 2306   2.219   2.254  10.628 -0.0307 -0.2051  0.0284
  148TMC2     H 2307   2.426   2.193  10.703  1.5971 -0.6498  1.4351
  148TMC2    H1 2308   2.140   1.873  10.686  0.4182 -1.7755  1.8527
  148TMC2    H2 2309   2.485   1.845  10.923 -2.6005 -2.3484 -0.3046
  148TMC2    C7 2310   2.313   1.709  10.761 -0.1804 -0.5808 -0.1558
  148TMC2    C8 2311   2.576   2.083  10.866 -0.6510  0.9012  0.3217
  148TMC2    O1 2312   2.255   1.672  10.659 -0.5382  0.2032  0.1674
  148TMC2    O2 2313   2.596   2.202  10.867 -0.3313 -0.3870 -0.4058
  148TMC2    O5 2314   2.670   2.003  10.818 -0.4476 -0.1114 -0.0678
  148TMC2    H5 2315   2.630   1.915  10.802  0.6511 -1.3933  4.0992
  149MPD2     C 2316   1.981   2.287  10.462  0.1011  0.7870 -0.0149
  149MPD2    C1 2317   1.997   2.156  10.444 -0.2414  0.4169  0.0884
  149MPD2    C2 2318   1.913   2.085  10.351 -0.0951  0.1918 -0.4003
  149MPD2    C3 2319   1.817   2.161  10.285  0.2206 -0.0985  1.0516
  149MPD2    C4 2320   1.812   2.298  10.304  0.2099 -0.4697 -0.4985
  149MPD2    C5 2321   1.890   2.357  10.392  0.1962 -0.3370  0.0138
  149MPD2     H 2322   1.945   1.984  10.326 -1.9873 -0.3552 -0.5661
  149MPD2    H1 2323   1.732   2.351  10.255  0.0602 -0.1178  0.1174
  149MPD2    H2 2324   2.051   2.346  10.522 -1.1055  0.8222  1.3591
  149MPD2    H3 2325   1.886   2.464  10.413  0.8461 -0.0063 -1.5086
  149MPD2     N 2326   1.726   2.098  10.197 -0.2301 -0.5588 -0.2610
  149MPD2    H5 2327   1.673   2.158  10.134  0.9972  0.8286  0.0301
  149MPD2    N1 2328   2.100   2.086  10.509  0.0838 -0.8218 -0.5307
  149MPD2    H7 2329   2.098   1.985  10.506 -0.5164 -0.8135 -0.2642
  150TMC2    C1 2330   4.447   1.359  12.110 -0.0244 -0.4842 -0.1536
  150TMC2    C2 2331   4.372   1.472  12.134 -0.0453  0.4130 -0.1508
  150TMC2    C3 2332   4.445   1.593  12.162  1.0753 -0.1585 -0.4566
  150TMC2    C4 2333   4.582   1.355  12.128  0.1403 -0.9315 -0.2868
  150TMC2    C5 2334   4.647   1.471  12.153 -0.4387  0.0755 -0.8839
  150TMC2    C6 2335   4.581   1.592  12.168 -0.3425  0.5810 -1.0962
  150TMC2     C 2336   4.380   1.230  12.106  0.1835  0.4027  0.1207
  150TMC2     O 2337   4.435   1.129  12.148 -0.4786  0.8146  0.4493
  150TMC2     H 2338   4.265   1.479  12.122 -0.1167 -2.0256 -0.9864
  150TMC2    H1 2339   4.628   1.258  12.114  0.7012 -0.7869  0.6199
  150TMC2    H2 2340   4.635   1.682  12.195  0.0267  0.6965 -2.1896
  150TMC2    C7 2341   0.049   1.464  12.202  0.1028 -0.1448 -0.1213
  150TMC2    C8 2342   4.381   1.725  12.164  0.4049 -0.0249 -0.2892
  150TMC2    O1 2343   0.091   1.576  12.229 -0.3956 -0.7930 -0.2507
  150TMC2    O2 2344   4.453   1.825  12.165  0.9686 -0.5122  0.5155
  150TMC2    O5 2345   4.252   1.711  12.201 -0.0169 -0.7723  0.3923
  150TMC2    H5 2346   4.211   1.624  12.180 -1.3216  0.2473 -1.2394
  151MPD2     C 2347   3.926   1.004  12.092  0.0893 -0.0219 -0.4513
  151MPD2    C1 2348   3.926   1.106  11.996 -0.0591  0.6791  0.8928
  151MPD2    C2 2349   4.045   1.169  11.965  0.0102  0.5880  0.0637
  151MPD2    C3 2350   4.163   1.139  12.037  0.3821 -0.9645 -0.0488
  151MPD2    C4 2351   4.161   1.043  12.138  0.1521  0.2476 -0.1592
  151MPD2    C5 2352   4.041   0.972  12.156  0.1781  0.3384  0.3936
  151MPD2     H 2353   4.053   1.238  11.881 -2.7210 -0.4173 -1.0143
  151MPD2    H1 2354   4.240   1.010  12.205 -0.6794 -1.2190  0.0788
  151MPD2    H2 2355   3.832   0.952  12.111 -0.2584  1.7080  2.4454
  151MPD2    H3 2356   4.036   0.895  12.233  1.8202 -0.6361 -0.4552
  151MPD2     N 2357   4.263   1.235  12.035 -0.6748  0.1970 -0.0083
  151MPD2    H5 2358   4.257   1.321  11.981 -0.4299  0.5100  0.4694
  151MPD2    N1 2359   3.801   1.140  11.934  0.3411  0.2307  0.5066
  151MPD2    H7 2360   3.723   1.079  11.959 -0.6221  1.0407 -0.5001
  152TMC2    C1 2361   4.195   0.782  12.569  0.2300 -0.2243  0.2638
  152TMC2    C2 2362   4.294   0.700  12.515  0.2034 -0.1228  0.2535
  152TMC2    C3 2363   4.377   0.764  12.429  0.0481  0.3526  0.2935
  152TMC2    C4 2364   4.182   0.916  12.545 -0.1753 -0.0383  0.6732
  152TMC2    C5 2365   4.269   0.969  12.459  0.1620  0.2105 -0.2669
  152TMC2    C6 2366   4.369   0.899  12.406 -0.1890  0.1954 -0.4712
  152TMC2     C 2367   4.107   0.722  12.671 -0.3595 -0.1685  0.7501
  152TMC2     O 2368   3.993   0.771  12.683 -0.1627 -0.0449  0.4841
  152TMC2     H 2369   4.309   0.594  12.530 -1.4163 -0.3380  0.3174
  152TMC2    H1 2370   4.120   0.977  12.610 -2.3647 -1.6246  0.0792
  152TMC2    H2 2371   4.441   0.941  12.336 -0.2947 -1.0541 -1.3449
  152TMC2    C7 2372   4.283   1.114  12.472  0.4378  0.1266  0.3882
  152TMC2    C8 2373   4.483   0.694  12.362 -0.5276 -0.4580 -0.2525
  152TMC2    O1 2374   4.178   1.172  12.505 -0.4129 -0.7461 -0.0568
  152TMC2    O2 2375   4.473   0.584  12.313 -0.1836  0.0390  0.1574
  152TMC2    O5 2376   4.590   0.774  12.352 -0.5720  0.6545  0.1373
  152TMC2    H5 2377   4.576   0.854  12.406  0.6694 -0.9347  2.8468
  153MPD2     C 2378   4.171   0.469  12.930 -0.0478 -0.0231  0.2562
  153MPD2    C1 2379   4.105   0.574  12.869 -0.4419  0.6101  0.0979
  153MPD2    C2 2380   3.988   0.623  12.918 -0.5079 -0.2426 -0.0035
  153MPD2    C3 2381   3.925   0.551  13.021 -0.4247  0.0858 -0.2110
  153MPD2    C4 2382   3.985   0.443  13.078 -0.1658 -0.3421  0.8947
  153MPD2    C5 2383   4.112   0.401  13.037  0.4709 -0.3532 -0.2189
  153MPD2     H 2384   3.963   0.724  12.887 -1.2895 -1.1302 -2.2643
  153MPD2    H1 2385   3.935   0.386  13.156  1.0055 -3.3641 -0.5453
  153MPD2    H2 2386   4.266   0.430  12.896  0.8959  1.1985  1.4659
  153MPD2    H3 2387   4.160   0.316  13.084  2.1925  0.5560 -0.3420
  153MPD2     N 2388   3.796   0.598  13.065  0.5298  0.1503 -0.4193
  153MPD2    H5 2389   3.761   0.684  13.024 -1.4934 -0.4809 -0.0592
  153MPD2    N1 2390   4.166   0.629  12.756  0.2661 -0.4638 -0.6661
  153MPD2    H7 2391   4.258   0.587  12.744 -1.0014 -3.4006 -0.0435
  154TMC2    C1 2392   1.281   0.607   0.399  0.6234 -0.0049 -0.0851
  154TMC2    C2 2393   1.368   0.684   0.468 -0.4267  0.1524  0.0547
  154TMC2    C3 2394   1.495   0.650   0.467  0.0841 -0.5693 -0.0828
  154TMC2    C4 2395   1.311   0.489   0.331 -0.0363 -0.1855 -0.1226
  154TMC2    C5 2396   1.449   0.461   0.333 -0.6898  0.4964 -0.2938
  154TMC2    C6 2397   1.543   0.541   0.391  0.1807 -0.0554 -0.0119
  154TMC2     C 2398   1.147   0.646   0.383 -0.0247 -0.1492  0.1042
  154TMC2     O 2399   1.086   0.693   0.479 -0.2550 -0.2895  0.2970
  154TMC2     H 2400   1.325   0.777   0.503  1.8323  0.8217  1.0786
  154TMC2    H1 2401   1.243   0.412   0.297 -0.8185 -1.4179  4.1999
  154TMC2    H2 2402   1.648   0.518   0.395 -0.1454 -1.9420 -2.3519
  154TMC2    C7 2403   1.492   0.333   0.276  0.2688  0.4419 -0.5150
  154TMC2    C8 2404   1.585   0.700   0.570  0.2907  0.5297 -0.2372
  154TMC2    O1 2405   1.418   0.278   0.196  0.1574 -0.4800 -0.1372
  154TMC2    O2 2406   1.691   0.654   0.610  0.0481  0.3709  0.4256
  154TMC2    O5 2407   1.543   0.822   0.617 -0.3370  0.4202 -0.1331
  154TMC2    H5 2408   1.504   0.877   0.545 -0.8189  0.1825 -0.0572
  155MPD2     C 2409   1.041   0.783   0.072  0.5827  0.3058 -0.4453
  155MPD2    C1 2410   1.025   0.749   0.202 -0.2609 -0.0942 -0.7478
  155MPD2    C2 2411   0.928   0.816   0.275  0.4417  0.3126  0.5485
  155MPD2    C3 2412   0.844   0.913   0.226 -0.2696 -0.2884  0.5089
  155MPD2    C4 2413   0.866   0.955   0.095  0.5385 -0.2712  0.4132
  155MPD2    C5 2414   0.959   0.881   0.020 -0.0409 -1.0550  0.3255
  155MPD2     H 2415   0.910   0.787   0.378 -1.2616 -0.8920 -0.0952
  155MPD2    H1 2416   0.818   1.041   0.050  1.6167 -0.2771 -0.7615
  155MPD2    H2 2417   1.112   0.740   0.002 -1.6814 -0.7988 -2.0455
  155MPD2    H3 2418   0.963   0.914  17.669  0.6069 -1.4920  0.2122
  155MPD2     N 2419   0.736   0.959   0.310  0.1617  0.5496 -0.0401
  155MPD2    H5 2420   0.733   0.907   0.397  1.5932  1.0762  0.3098
  155MPD2    N1 2421   1.119   0.663   0.253 -0.6449 -0.6239 -0.0033
  155MPD2    H7 2422   1.191   0.631   0.188 -1.1529  1.1986 -1.4446
  156TMC2    C1 2423   3.856   3.262  11.761  0.1428 -0.1275 -0.3245
  156TMC2    C2 2424   3.758   3.211  11.686 -0.6596 -0.1786 -0.4061
  156TMC2    C3 2425   3.711   3.276  11.577  0.4203  0.6885  0.1097
  156TMC2    C4 2426   3.920   3.373  11.719  0.2360  0.0385  0.6229
  156TMC2    C5 2427   3.870   3.443  11.613 -0.4993  0.2134  0.3163
  156TMC2    C6 2428   3.762   3.399  11.542 -0.0942 -0.7122  0.2970
  156TMC2     C 2429   3.877   3.216  11.894  0.0276 -0.3756  0.0030
  156TMC2     O 2430   3.807   3.118  11.922 -0.2416  0.1646 -0.5304
  156TMC2     H 2431   3.708   3.118  11.711  2.0195 -0.6911  3.2110
  156TMC2    H1 2432   3.994   3.429  11.775  2.0433  0.4193 -2.1296
  156TMC2    H2 2433   3.734   3.455  11.453  2.7648  0.3650  0.0644
  156TMC2    C7 2434   3.954   3.537  11.543 -0.2780 -0.1196  0.1107
  156TMC2    C8 2435   3.577   3.250  11.542 -0.8766  0.9665 -0.1807
  156TMC2    O1 2436   3.905   3.620  11.472 -0.4458  0.3940 -0.0539
  156TMC2    O2 2437   3.505   3.188  11.618  0.2126 -0.5139  0.4493
  156TMC2    O5 2438   3.543   3.323  11.432  0.1534 -0.1502 -0.6209
  156TMC2    H5 2439   3.621   3.323  11.373  0.1758 -1.7419 -0.5938
  157MPD2     C 2440   3.968   3.177  12.179 -0.0207  0.1543 -0.2004
  157MPD2    C1 2441   3.999   3.284  12.104  0.4388  0.0774  0.5608
  157MPD2    C2 2442   4.050   3.398  12.169  0.6498  0.2323  0.8395
  157MPD2    C3 2443   4.068   3.398  12.300 -0.8841 -0.1010  0.3171
  157MPD2    C4 2444   4.059   3.282  12.377  0.1235 -0.6354  0.1860
  157MPD2    C5 2445   4.001   3.179  12.319 -0.7283 -0.6043 -0.7710
  157MPD2     H 2446   4.073   3.487  12.112 -1.0199  1.1441  1.6046
  157MPD2    H1 2447   4.077   3.292  12.483 -0.0870 -1.5181  0.3005
  157MPD2    H2 2448   3.923   3.093  12.127 -2.6921  0.3907  1.7156
  157MPD2    H3 2449   3.986   3.087  12.374  0.8616  0.2270  1.0223
  157MPD2     N 2450   4.110   3.527  12.348  0.9414  0.3050  0.6248
  157MPD2    H5 2451   4.128   3.596  12.275  3.4747 -0.0700  0.8887
  157MPD2    N1 2452   3.964   3.294  11.970 -0.1760  0.1749 -0.5060
  157MPD2    H7 2453   4.004   3.382  11.940 -2.4452  0.4801 -2.6547
  158TMC2    C1 2454   4.681   1.935  12.802 -0.4469 -0.6523 -1.0540
  158TMC2    C2 2455   4.707   1.962  12.673 -0.7352 -0.2592 -0.9896
  158TMC2    C3 2456   4.662   2.081  12.626  0.6697  0.8467  0.0984
  158TMC2    C4 2457   4.584   1.997  12.868  0.2151  0.0091 -0.2934
  158TMC2    C5 2458   4.518   2.104  12.804  0.8014 -0.2548  0.2376
  158TMC2    C6 2459   4.566   2.152  12.688 -0.4415 -0.4504 -0.1590
  158TMC2     C 2460   4.696   1.800  12.846  0.3107 -0.2469  0.1806
  158TMC2     O 2461   4.689   1.718  12.757 -0.6577  0.5551  0.8940
  158TMC2     H 2462   0.030   1.893  12.616  1.1988 -0.1481  0.9719
  158TMC2    H1 2463   4.556   1.970  12.970  0.8509 -0.2608 -0.1922
  158TMC2    H2 2464   4.512   2.237  12.648 -0.2370 -1.0981 -1.8104
  158TMC2    C7 2465   4.372   2.127  12.833 -0.4136 -0.9290  0.5391
  158TMC2    C8 2466   4.688   2.102  12.489  0.2167  0.2408  0.6356
  158TMC2    O1 2467   4.301   2.188  12.748  0.5151 -0.3860  0.5017
  158TMC2    O2 2468   4.707   2.011  12.413 -0.1569 -0.1114  0.0007
  158TMC2    O5 2469   4.650   2.224  12.452  0.2489 -0.3633 -0.2552
  158TMC2    H5 2470   4.654   2.293  12.521 -1.5007  0.1053 -0.6055
  159MPD2     C 2471   0.073   1.457  13.203  0.1432 -0.4549 -0.0692
  159MPD2    C1 2472   0.042   1.576  13.264 -0.1697 -0.1580  0.3372
  159MPD2    C2 2473   0.020   1.684  13.184  0.3074 -0.8835 -0.9256
  159MPD2    C3 2474   0.020   1.677  13.049  0.2150 -0.2160 -0.3315
  159MPD2    C4 2475   0.030   1.551  12.986  0.5666 -0.1790 -0.5115
  159MPD2    C5 2476   0.062   1.444  13.066 -0.3370  0.1971  0.3142
  159MPD2     H 2477   4.728   1.775  13.233  0.1387 -2.1938  1.4410
  159MPD2    H1 2478   0.023   1.544  12.878  0.6204  0.7090 -0.5702
  159MPD2    H2 2479   0.088   1.363  13.256 -1.0846  1.2804  3.3184
  159MPD2    H3 2480   0.087   1.355  13.008 -1.1971 -1.2083  2.1036
  159MPD2     N 2481   4.729   1.793  12.978 -0.0736 -0.2904 -0.0712
  159MPD2    H5 2482   4.731   1.877  13.035  2.2162  1.0513 -2.1458
  159MPD2    N1 2483   0.042   1.580  13.410 -0.0006 -0.4399  0.0208
  159MPD2    H7 2484   0.068   1.491  13.451  1.7749 -0.8918 -2.0483
  160TMC2    C1 2485   4.392   0.058   1.188  0.1621  0.2764  0.2775
  160TMC2    C2 2486   4.286   4.707   1.192  0.5000 -0.2237  0.1840
  160TMC2    C3 2487   4.322   4.584   1.232  0.1189 -0.0786 -0.7448
  160TMC2    C4 2488   4.520   0.033   1.209  0.5400  0.1852  0.1227
  160TMC2    C5 2489   4.551   4.646   1.245  0.2515  0.3619 -0.4231
  160TMC2    C6 2490   4.453   4.555   1.269  0.1990 -0.1395 -0.7549
  160TMC2     C 2491   4.359   0.196   1.149  0.2419  0.0962  0.0951
  160TMC2     O 2492   4.248   0.205   1.101 -0.5569  0.3089 -0.1550
  160TMC2     H 2493   4.189   0.006   1.159  0.3802 -0.1485  0.6277
  160TMC2    H1 2494   4.595   0.110   1.194  2.8938 -1.9785  0.8399
  160TMC2    H2 2495   4.476   4.456   1.307 -1.3992  0.8486  2.7692
  160TMC2    C7 2496   4.682   4.594   1.207 -0.4342  0.1634 -0.6199
  160TMC2    C8 2497   4.228   4.489   1.273  0.4373  0.3917  0.1081
  160TMC2    O1 2498   4.701   4.477   1.238  0.1798 -0.5300 -0.0182
  160TMC2    O2 2499   4.256   4.391   1.341  0.1159 -0.4448  0.0842
  160TMC2    O5 2500   4.107   4.530   1.249 -0.0860 -0.1762  0.7302
  160TMC2    H5 2501   4.086   4.585   1.171 -1.7313 -0.2337  1.1145
  161MPD2     C 2502   4.563   0.494   1.197 -0.8971 -0.1847  0.3061
  161MPD2    C1 2503   4.444   0.428   1.163 -0.3245  0.6023 -0.0783
  161MPD2    C2 2504   4.349   0.494   1.082 -0.0163 -0.4844  0.1702
  161MPD2    C3 2505   4.368   0.626   1.041  0.0395  0.1029 -0.8364
  161MPD2    C4 2506   4.483   0.694   1.082  0.3018  0.8936 -0.2230
  161MPD2    C5 2507   4.577   0.624   1.150 -0.0823 -0.3417  0.3006
  161MPD2     H 2508   4.261   0.435   1.058 -0.4406 -0.1891  0.9931
  161MPD2    H1 2509   4.509   0.793   1.045  1.6899  0.5603 -0.1354
  161MPD2    H2 2510   4.648   0.439   1.234 -1.0624 -0.4915  0.2248
  161MPD2    H3 2511   4.674   0.670   1.139  0.3357 -1.3540 -0.2648
  161MPD2     N 2512   4.283   0.694   0.955  0.7616  0.0430 -0.6862
  161MPD2    H5 2513   4.289   0.795   0.944 -1.4555  0.1317 -1.1915
  161MPD2    N1 2514   4.448   0.289   1.187 -0.0477 -0.4597 -0.4472
  161MPD2    H7 2515   4.532   0.258   1.236 -0.9196 -1.1404  0.6343
  162TMC2    C1 2516   2.994   2.416   1.131  0.4885 -0.2962  0.7956
  162TMC2    C2 2517   2.997   2.535   1.195  0.1730 -0.4935  0.2335
  162TMC2    C3 2518   2.979   2.533   1.326 -0.8855 -0.1724 -0.1080
  162TMC2    C4 2519   2.951   2.303   1.189 -0.0941  0.2642  0.4707
  162TMC2    C5 2520   2.908   2.314   1.322 -1.0517 -0.4581  0.2817
  162TMC2    C6 2521   2.938   2.425   1.400 -0.2450 -0.4421  0.4394
  162TMC2     C 2522   3.009   2.419   0.985  0.2376 -0.4240  0.1793
  162TMC2     O 2523   2.971   2.311   0.928  0.7586  0.1197  0.3645
  162TMC2     H 2524   3.015   2.629   1.145 -2.7392 -0.1347 -0.1297
  162TMC2    H1 2525   2.935   2.214   1.128 -2.7112  0.6581  0.5685
  162TMC2    H2 2526   2.933   2.432   1.509  2.5126  0.3618  0.5154
  162TMC2    C7 2527   2.837   2.204   1.374  0.4155 -0.2423 -0.7652
  162TMC2    C8 2528   2.983   2.654   1.391  0.2830  0.1918  0.3270
  162TMC2    O1 2529   2.738   2.216   1.443 -0.3329  0.3233 -0.3591
  162TMC2    O2 2530   2.911   2.667   1.489  0.0890  0.2103  0.4555
  162TMC2    O5 2531   3.097   2.721   1.360 -0.3835 -0.3088  0.4399
  162TMC2    H5 2532   3.157   2.672   1.299 -0.4813  1.2603 -0.9305
  163MPD2     C 2533   3.260   2.561   0.557 -0.3929  0.0851  1.0175
  163MPD2    C1 2534   3.168   2.457   0.578  0.4407 -0.1993  0.3420
  163MPD2    C2 2535   3.120   2.434   0.705 -0.0987 -0.4961 -0.4917
  163MPD2    C3 2536   3.171   2.499   0.816 -0.0309 -0.3350  1.1153
  163MPD2    C4 2537   3.269   2.598   0.790 -0.7783 -0.2360  0.1334
  163MPD2    C5 2538   3.312   2.624   0.662  0.4718 -0.1330 -0.3644
  163MPD2     H 2539   3.034   2.368   0.710 -1.6596  1.4572 -1.4793
  163MPD2    H1 2540   3.313   2.652   0.874 -0.5522  1.8803 -1.3435
  163MPD2    H2 2541   3.280   2.603   0.459  0.3219 -0.2199  1.0299
  163MPD2    H3 2542   3.374   2.710   0.639 -3.3795  1.5920 -4.1549
  163MPD2     N 2543   3.119   2.497   0.947  0.6092  0.0855  0.0315
  163MPD2    H5 2544   3.174   2.540   1.021 -1.8910 -0.2857  2.1404
  163MPD2    N1 2545   3.118   2.383   0.464  0.1890  0.2843  0.0999
  163MPD2    H7 2546   3.167   2.395   0.375 -0.2535  1.2001 -0.0203
  164TMC2    C1 2547   2.679   1.393  11.202  0.6215 -0.4432  0.3319
  164TMC2    C2 2548   2.659   1.348  11.325 -0.8924 -0.4501 -0.6919
  164TMC2    C3 2549   2.603   1.425  11.423  0.3519  0.2981 -0.1950
  164TMC2    C4 2550   2.625   1.516  11.167  0.4961 -0.4614 -0.2964
  164TMC2    C5 2551   2.567   1.589  11.268 -0.0181 -0.2983 -0.0664
  164TMC2    C6 2552   2.556   1.550  11.395 -0.6753 -0.9179  0.3196
  164TMC2     C 2553   2.807   1.364  11.137 -0.7748  0.1837  0.1968
  164TMC2     O 2554   2.853   1.440  11.057 -0.4577  0.5080  0.1489
  164TMC2     H 2555   2.688   1.251  11.361  0.0315 -0.2517 -0.8902
  164TMC2    H1 2556   2.625   1.559  11.067 -1.5053  1.6148  0.6190
  164TMC2    H2 2557   2.503   1.608  11.470 -0.3301  0.9790 -0.9069
  164TMC2    C7 2558   2.509   1.717  11.220  0.3384  0.1487  0.4393
  164TMC2    C8 2559   2.647   1.400  11.557 -0.0128 -0.0891  0.0996
  164TMC2    O1 2560   2.443   1.722  11.117 -0.1785 -0.9308  0.1130
  164TMC2    O2 2561   2.758   1.351  11.579  0.4295 -0.4375  0.6044
  164TMC2    O5 2562   2.554   1.440  11.647 -0.0579 -0.0351 -0.3707
  164TMC2    H5 2563   2.471   1.465  11.602 -0.2834 -1.5020 -0.7714
  165TMC2    C1 2564   4.137   4.207   0.626 -0.1152  0.2768 -0.1362
  165TMC2    C2 2565   4.168   4.261   0.498 -0.1358 -0.2558  0.3321
  165TMC2    C3 2566   4.299   4.254   0.464  0.2948 -0.3277 -0.8930
  165TMC2    C4 2567   4.223   4.129   0.700  0.1481  0.1546 -0.1164
  165TMC2    C5 2568   4.347   4.107   0.637 -0.4286  0.8959  0.3802
  165TMC2    C6 2569   4.390   4.178   0.528  0.0867 -0.0540 -0.3765
  165TMC2     C 2570   4.020   4.253   0.700  0.0584 -0.0119 -0.1882
  165TMC2     O 2571   3.977   4.184   0.788  0.8253  0.2200  0.3994
  165TMC2     H 2572   4.088   4.304   0.439  1.9580 -0.0723 -2.3309
  165TMC2    H1 2573   4.213   4.096   0.803 -0.0059 -1.7970 -0.7593
  165TMC2    H2 2574   4.493   4.175   0.496  0.8854 -0.4896  2.2731
  165TMC2    C7 2575   4.448   4.034   0.704  0.0895 -0.4497 -0.6948
  165TMC2    C8 2576   4.342   4.288   0.331 -0.0458 -0.4525  0.2539
  165TMC2    O1 2577   4.564   4.066   0.686  0.1219  0.1786 -0.2365
  165TMC2    O2 2578   4.441   4.231   0.283 -0.0129  0.0344  0.0078
  165TMC2    O5 2579   4.267   4.388   0.281  0.0340 -0.1690 -0.1773
  165TMC2    H5 2580   4.193   4.428   0.333 -2.4359 -4.2653 -0.5252
  166MPD2     C 2581   3.586   4.541   0.729  0.4986  0.4638 -0.6588
  166MPD2    C1 2582   3.637   4.445   0.807  0.6930 -0.1997  0.1473
  166MPD2    C2 2583   3.763   4.390   0.791  0.1438  1.0623  0.2016
  166MPD2    C3 2584   3.846   4.435   0.689  0.3881  0.4913  0.6626
  166MPD2    C4 2585   3.796   4.538   0.612 -0.3308  0.2123  0.1123
  166MPD2    C5 2586   3.669   4.591   0.633 -0.0761  0.1949  0.4354
  166MPD2     H 2587   3.799   4.314   0.859  2.8733 -0.5163 -3.0296
  166MPD2    H1 2588   3.852   4.562   0.522  0.1362 -1.7038 -0.1149
  166MPD2    H2 2589   3.492   4.591   0.749  1.1827  1.1638  0.7742
  166MPD2    H3 2590   3.640   4.666   0.560  3.1340  2.5171  1.5282
  166MPD2     N 2591   3.959   4.360   0.640 -0.2788  0.1459  0.2391
  166MPD2    H5 2592   4.007   4.401   0.560 -1.7182  0.0601 -0.6745
  166MPD2    N1 2593   3.552   4.412   0.916 -0.7306 -0.4820  0.0747
  166MPD2    H7 2594   3.471   4.470   0.935 -2.2082 -1.6490 -2.5868
  167TMC2    C1 2595   2.358   1.541  13.182  0.5521 -0.0214  0.9511
  167TMC2    C2 2596   2.283   1.519  13.290  0.4855 -0.5953  0.1662
  167TMC2    C3 2597   2.280   1.391  13.340 -0.2681 -0.7766  0.5547
  167TMC2    C4 2598   2.443   1.447  13.127  0.4662 -0.3696  0.4225
  167TMC2    C5 2599   2.431   1.319  13.170  0.0255 -0.4900  0.0649
  167TMC2    C6 2600   2.344   1.288  13.277  0.6282 -0.4079 -0.3479
  167TMC2     C 2601   2.329   1.671  13.119 -0.0184 -0.0845  0.2893
  167TMC2     O 2602   2.275   1.753  13.191 -0.1537  0.3040  0.0596
  167TMC2     H 2603   2.191   1.574  13.306  1.6026  0.8590  1.5985
  167TMC2    H1 2604   2.508   1.465  13.043  0.2099 -0.4446  0.2082
  167TMC2    H2 2605   2.314   1.187  13.304  1.8304 -1.1464 -1.8023
  167TMC2    C7 2606   2.497   1.209  13.105  0.0888 -0.0902 -0.0949
  167TMC2    C8 2607   2.176   1.365  13.438 -0.3005 -0.2285  0.2490
  167TMC2    O1 2608   2.511   1.111  13.178 -0.2206 -0.3062  0.5373
  167TMC2    O2 2609   2.141   1.255  13.476 -0.5286 -0.7554 -0.5434
  167TMC2    O5 2610   2.150   1.479  13.512 -0.0572  0.2775  0.3982
  167TMC2    H5 2611   2.226   1.541  13.513  0.0284  0.1144  2.9803
  168MPD2     C 2612   2.311   1.912  12.942 -0.3871  0.0093  0.0573
  168MPD2    C1 2613   2.312   1.778  12.897 -0.7329 -0.5704  0.5103
  168MPD2    C2 2614   2.317   1.751  12.758  0.8710 -0.5589  0.7878
  168MPD2    C3 2615   2.316   1.854  12.661 -0.0627  0.0624 -0.6142
  168MPD2    C4 2616   2.286   1.982  12.704 -0.1040  0.0561  0.0093
  168MPD2    C5 2617   2.282   2.007  12.837  0.0978  0.1631  0.2546
  168MPD2     H 2618   2.335   1.649  12.725  0.9907 -1.2257  2.9460
  168MPD2    H1 2619   2.262   2.071  12.647  1.8959  0.8584  0.4260
  168MPD2    H2 2620   2.305   1.944  13.045  1.1743  1.7350 -0.3763
  168MPD2    H3 2621   2.274   2.112  12.861 -0.9240 -0.1710  1.4054
  168MPD2     N 2622   2.331   1.820  12.525  0.2104 -0.1761 -0.4960
  168MPD2    H5 2623   2.307   1.888  12.453 -4.0095  1.0889  2.1091
  168MPD2    N1 2624   2.345   1.672  12.980 -0.3459 -0.8537  0.8310
  168MPD2    H7 2625   2.367   1.585  12.932  0.3998 -0.7105  0.9015
  169MPD1     C 2626   3.459   0.867   9.961 -0.7859  0.3805  0.4840
  169MPD1    C1 2627   3.530   0.869   9.843 -0.2429  0.2514  1.0354
  169MPD1    C2 2628   3.640   0.961   9.832  0.2662 -0.6038  0.2207
  169MPD1    C3 2629   3.677   1.050   9.927  0.5578  0.1182  0.0981
  169MPD1    C4 2630   3.600   1.050  10.042 -0.4047  0.0970 -0.5261
  169MPD1    C5 2631   3.492   0.965  10.055 -0.8048 -0.3451  0.2648
  169MPD1     H 2632   3.698   0.954   9.741 -0.1249  2.9714 -0.2859
  169MPD1    H1 2633   3.616   1.117  10.127 -1.6544  0.1450 -0.3295
  169MPD1    H2 2634   3.374   0.805   9.988  0.0939 -0.5607  1.1058
  169MPD1    H3 2635   3.436   0.966  10.147 -0.5386  1.8281  0.4177
  169MPD1     N 2636   3.790   1.132   9.906  0.2581 -0.6029  0.2710
  169MPD1    H5 2637   3.850   1.119   9.825 -0.4717 -1.6423 -0.0995
  169MPD1    N1 2638   3.483   0.805   9.728 -0.3283 -0.6280  0.0360
  169MPD1    H6 2639   3.549   0.798   9.651  2.6814  0.6440  2.5418
  169MPD1    H7 2640   3.443   0.714   9.751 -2.4326  0.1097 -0.7042
  170MPD1     C 2641   3.166   3.587  12.772  0.2754 -0.1508 -0.2325
  170MPD1    C1 2642   3.207   3.714  12.747  0.1771 -0.8903 -0.2042
  170MPD1    C2 2643   3.218   3.795  12.864  0.2717  0.4507  0.0944
  170MPD1    C3 2644   3.161   3.763  12.984 -0.3007 -0.0175 -0.2365
  170MPD1    C4 2645   3.084   3.646  12.991  0.0919 -0.6077  1.3620
  170MPD1    C5 2646   3.091   3.557  12.884  0.0972 -0.5933 -0.0353
  170MPD1     H 2647   3.272   3.889  12.859  0.8711  0.1283  0.4960
  170MPD1    H1 2648   3.025   3.612  13.075 -0.4080 -1.1077  0.8154
  170MPD1    H2 2649   3.164   3.516  12.690  0.7882  1.5629 -1.7312
  170MPD1    H3 2650   3.039   3.464  12.902 -0.8587 -0.1118 -0.3112
  170MPD1     N 2651   3.196   3.837  13.101 -0.0746  0.4688  0.6284
  170MPD1    H5 2652   3.258   3.916  13.094  1.1933 -0.6871 -1.0854
  170MPD1    N1 2653   3.275   3.755  12.634  1.0761  0.1793  0.3222
  170MPD1    H6 2654   3.238   3.708  12.551 -0.9184 -0.7755  1.7709
  170MPD1    H7 2655   3.276   3.856  12.620  0.4612 -0.0524 -1.4664
  171MPD1     C 2656   2.884   4.307  15.552 -0.5789  0.5012 -0.5037
  171MPD1    C1 2657   2.792   4.410  15.547  0.9549 -0.7963  0.1432
  171MPD1    C2 2658   2.661   4.390  15.531  0.1771  0.0862 -0.0427
  171MPD1    C3 2659   2.615   4.256  15.548 -0.3830 -0.0925 -0.0878
  171MPD1    C4 2660   2.707   4.150  15.551  0.4268  0.1938 -1.5617
  171MPD1    C5 2661   2.840   4.178  15.549 -0.0221  0.4793  0.1890
  171MPD1     H 2662   2.583   4.465  15.518  0.2014  0.0216 -0.5582
  171MPD1    H1 2663   2.691   4.042  15.555 -1.0855  0.4204 -1.4682
  171MPD1    H2 2664   2.992   4.310  15.536 -0.5012 -1.2402 -0.3148
  171MPD1    H3 2665   2.916   4.100  15.542  1.2028  1.9876 -3.3973
  171MPD1     N 2666   2.483   4.216  15.559 -0.6654 -0.1986  0.1604
  171MPD1    H5 2667   2.477   4.117  15.579 -1.3752 -0.0756  0.5291
  171MPD1    N1 2668   2.850   4.537  15.533  0.4636  0.7071 -0.4661
  171MPD1    H6 2669   2.785   4.615  15.526 -0.2766  0.1118 -0.1038
  171MPD1    H7 2670   2.926   4.550  15.599 -1.8487  1.0520  2.0997
  172MPD1     C 2671   1.492   3.524   0.028  0.5396 -0.2909 -0.1117
  172MPD1    C1 2672   1.509   3.616  17.685 -0.4162  0.4691 -0.2804
  172MPD1    C2 2673   1.505   3.751  17.713  0.0534  0.2397 -0.0295
  172MPD1    C3 2674   1.533   3.785   0.093  0.2076  0.6222 -0.1938
  172MPD1    C4 2675   1.532   3.693   0.195 -0.2382  0.8085 -0.2588
  172MPD1    C5 2676   1.512   3.566   0.158 -0.5591  0.2777  0.2777
  172MPD1     H 2677   1.522   3.817  17.628  0.0668  0.4654  0.1464
  172MPD1    H1 2678   1.564   3.722   0.295  0.5267 -2.7467  0.5187
  172MPD1    H2 2679   1.470   3.419   0.012  0.4619 -0.5094  1.3811
  172MPD1    H3 2680   1.505   3.495   0.240 -1.0935  1.4431  1.2344
  172MPD1     N 2681   1.564   3.917   0.135 -0.6282  0.2340 -0.3381
  172MPD1    H5 2682   1.616   3.921   0.222 -0.7682 -0.8040 -0.2046
  172MPD1    N1 2683   1.503   3.585  17.549  0.1886 -0.0818 -0.3137
  172MPD1    H6 2684   1.519   3.666  17.489  0.5686 -0.0794 -0.2092
  172MPD1    H7 2685   1.567   3.510  17.526 -2.1327 -1.5696 -1.8244
  173MPD1     C 2686   2.957   4.531  13.568  0.6984  0.0424  0.1091
  173MPD1    C1 2687   2.829   4.498  13.612 -0.7604 -0.5762 -0.2725
  173MPD1    C2 2688   2.811   4.431  13.731  0.0747  0.9060  0.1033
  173MPD1    C3 2689   2.924   4.380  13.801 -0.2763 -0.0721 -0.0647
  173MPD1    C4 2690   3.052   4.409  13.749 -0.2084 -0.4825  0.2349
  173MPD1    C5 2691   3.061   4.481  13.638 -0.2201  0.0906 -0.6597
  173MPD1     H 2692   2.713   4.418  13.774  0.4061  2.0606  1.2083
  173MPD1    H1 2693   3.136   4.376  13.808 -1.3619 -1.6886  1.2124
  173MPD1    H2 2694   2.965   4.609  13.492 -0.5951  1.1617  1.1275
  173MPD1    H3 2695   3.162   4.501  13.604 -0.0168 -0.6993 -0.5323
  173MPD1     N 2696   2.904   4.307  13.916  0.0602  0.1745 -0.0461
  173MPD1    H5 2697   2.807   4.291  13.939 -0.1559  0.7671 -0.5659
  173MPD1    N1 2698   2.721   4.553  13.551 -0.1739  0.7924 -0.1965
  173MPD1    H6 2699   2.635   4.510  13.586 -0.3291  3.7302  3.1912
  173MPD1    H7 2700   2.736   4.545  13.451 -2.4591 -2.5049 -0.2568
  174MPD1     C 2701   3.391   3.555  14.425  1.2769 -0.1474 -0.2823
  174MPD1    C1 2702   3.271   3.584  14.475  0.0493 -0.7498  0.1154
  174MPD1    C2 2703   3.194   3.667  14.398 -0.7274 -0.8832  0.1658
  174MPD1    C3 2704   3.224   3.713  14.269  1.3403 -0.0639  0.4728
  174MPD1    C4 2705   3.345   3.666  14.217  0.0774 -0.2730 -0.3253
  174MPD1    C5 2706   3.424   3.592  14.299 -0.3892  0.2094 -0.4114
  174MPD1     H 2707   3.101   3.693  14.448  1.0778  1.0831  2.5402
  174MPD1    H1 2708   3.375   3.693  14.116 -1.6957 -2.1336 -1.3531
  174MPD1    H2 2709   3.464   3.504  14.487  0.5135  1.5044  1.9347
  174MPD1    H3 2710   3.515   3.549  14.259  1.9981  3.6086  1.2868
  174MPD1     N 2711   3.132   3.792  14.194 -0.0201 -0.1239 -0.3324
  174MPD1    H5 2712   3.173   3.819  14.105  2.4458 -1.2606  0.4549
  174MPD1    N1 2713   3.237   3.560  14.608 -0.0900 -0.5737 -0.1462
  174MPD1    H6 2714   3.286   3.471  14.621 -0.7517 -0.8176  0.6768
  174MPD1    H7 2715   3.137   3.549  14.617 -0.3185  0.3170 -1.6557
  175MPD1     C 2716   0.870   4.703  15.180 -0.4179  0.7760  0.1395
  175MPD1    C1 2717   0.940   4.599  15.241 -0.1606  0.7016 -0.4038
  175MPD1    C2 2718   0.906   4.574  15.375  0.4661  0.0695  0.5115
  175MPD1    C3 2719   0.822   4.659  15.452 -0.5240 -0.2515 -0.2181
  175MPD1    C4 2720   0.755   0.021  15.387  0.3984  0.1911 -0.1198
  175MPD1    C5 2721   0.782   0.034  15.251 -0.3724  0.6536 -0.3073
  175MPD1     H 2722   0.975   4.505  15.423  2.1917  2.3059  1.2396
  175MPD1    H1 2723   0.701   0.096  15.444  0.3522  1.7514 -2.2396
  175MPD1    H2 2724   0.885   4.728  15.076  2.9175 -1.1280  0.1579
  175MPD1    H3 2725   0.724   0.113  15.204 -1.0447  0.8195  0.7945
  175MPD1     N 2726   0.820   4.660  15.592 -0.1651  0.1221  0.3522
  175MPD1    H5 2727   0.772   4.736  15.639  1.0104 -0.7060  2.8968
  175MPD1    N1 2728   1.017   4.505  15.170 -0.1206 -0.5678 -0.2919
  175MPD1    H6 2729   1.078   4.456  15.235  0.2674  0.0723 -0.1745
  175MPD1    H7 2730   1.075   4.553  15.101 -1.6442 -0.0913 -1.2438
  176MPD1     C 2731   2.948   2.426  15.933 -0.0153 -0.1609  0.6354
  176MPD1    C1 2732   2.985   2.554  15.959  0.1197 -0.6610  0.4918
  176MPD1    C2 2733   2.973   2.600  16.093 -0.3154 -0.5347 -0.0584
  176MPD1    C3 2734   2.909   2.521  16.187  0.0266  0.9517  0.2408
  176MPD1    C4 2735   2.876   2.391  16.160  0.1010  0.4166  0.6781
  176MPD1    C5 2736   2.896   2.353  16.031  0.1383  0.0804  0.0495
  176MPD1     H 2737   2.999   2.705  16.106 -2.0362  0.0497 -1.2985
  176MPD1    H1 2738   2.831   2.327  16.235  0.4204  1.3225  1.6420
  176MPD1    H2 2739   2.967   2.381  15.836 -0.5958  0.7345  0.1091
  176MPD1    H3 2740   2.876   2.249  16.005 -0.6476  0.3559 -0.4352
  176MPD1     N 2741   2.895   2.576  16.318  0.0180  0.2391  0.3857
  176MPD1    H5 2742   2.922   2.674  16.321 -2.8196  1.0548 -0.2453
  176MPD1    N1 2743   3.051   2.624  15.854  0.0284  0.0345  0.1123
  176MPD1    H6 2744   3.024   2.722  15.855  1.3856  0.4381 -1.2250
  176MPD1    H7 2745   3.038   2.586  15.761  0.0240 -1.3210  0.6741
  177MPD1     C 2746   0.720   2.139   9.509  0.4548  0.0419 -0.1740
  177MPD1    C1 2747   0.621   2.224   9.457 -0.3424 -0.6509 -0.3764
  177MPD1    C2 2748   0.524   2.271   9.541  0.6772 -0.5229  0.4112
  177MPD1    C3 2749   0.519   2.232   9.670 -0.5705 -0.0626 -0.0091
  177MPD1    C4 2750   0.619   2.147   9.718 -0.7235  0.8169 -0.1932
  177MPD1    C5 2751   0.722   2.102   9.641  0.5893  0.6426  0.4307
  177MPD1     H 2752   0.458   2.346   9.498  0.6904 -1.1544 -0.7008
  177MPD1    H1 2753   0.625   2.109   9.819 -1.5027  1.0617 -0.0581
  177MPD1    H2 2754   0.798   2.095   9.448  0.9903  0.9088 -0.1196
  177MPD1    H3 2755   0.808   2.045   9.675  0.9313  0.8127 -0.1561
  177MPD1     N 2756   0.418   2.283   9.743 -0.1572 -0.1021 -0.2651
  177MPD1    H5 2757   0.351   2.344   9.697 -0.2590  0.4650  0.6228
  177MPD1    N1 2758   0.641   2.271   9.329 -0.2880  0.1649 -0.2591
  177MPD1    H6 2759   0.682   2.202   9.267 -0.8089 -1.0317  0.7235
  177MPD1    H7 2760   0.553   2.299   9.285 -0.5068  1.0832  0.7478
  178MPD1     C 2761   2.895   3.538  16.889 -0.9427  0.3556 -0.5359
  178MPD1    C1 2762   2.964   3.523  17.010 -0.3647 -0.1957 -0.4577
  178MPD1    C2 2763   3.093   3.480  17.013  0.4191  0.0063  0.1107
  178MPD1    C3 2764   3.162   3.444  16.901  0.1709 -0.3329  0.0310
  178MPD1    C4 2765   3.094   3.450  16.780 -0.2185 -0.2720  0.2540
  178MPD1    C5 2766   2.962   3.497  16.773  0.1860  0.0553 -0.2535
  178MPD1     H 2767   3.139   3.465  17.110 -0.0390  2.7420  0.7677
  178MPD1    H1 2768   3.138   3.424  16.684  1.4842 -2.9686  1.7661
  178MPD1    H2 2769   2.789   3.562  16.888 -0.9586  0.2568 -1.5278
  178MPD1    H3 2770   2.910   3.511  16.679  0.6359  0.2861 -0.4698
  178MPD1     N 2771   3.288   3.393  16.893 -0.1891 -0.5509  0.0468
  178MPD1    H5 2772   3.317   3.342  16.810  0.3597 -0.9777  0.5049
  178MPD1    N1 2773   2.905   3.575  17.124 -1.0570 -0.0157 -0.4173
  178MPD1    H6 2774   2.805   3.594  17.112 -1.3354 -1.8373 -0.9985
  178MPD1    H7 2775   2.941   3.667  17.146 -0.5394 -0.7411  1.7362
  179MPD1     C 2776   3.476   0.669  15.463  0.4456 -0.2269 -0.0834
  179MPD1    C1 2777   3.342   0.616  15.459 -0.4897 -0.1637  0.4298
  179MPD1    C2 2778   3.249   0.641  15.560 -0.5588 -0.8285  0.3489
  179MPD1    C3 2779   3.287   0.712  15.667  0.1232  0.1365 -0.1682
  179MPD1    C4 2780   3.415   0.763  15.675 -0.5155 -0.8872 -0.8461
  179MPD1    C5 2781   3.510   0.743  15.575  0.2642 -0.8268  0.3182
  179MPD1     H 2782   3.153   0.590  15.560 -1.0157  0.0358  1.8851
  179MPD1    H1 2783   3.451   0.819  15.761 -0.2883  0.1922 -1.6373
  179MPD1    H2 2784   3.547   0.641  15.386 -0.7586 -1.8126 -0.6221
  179MPD1    H3 2785   3.613   0.778  15.577  0.0672 -0.2485  0.3725
  179MPD1     N 2786   3.201   0.747  15.775 -0.2024 -0.0615 -0.3266
  179MPD1    H5 2787   3.243   0.808  15.844 -2.3109  1.3632 -0.2760
  179MPD1    N1 2788   3.314   0.512  15.368 -0.2853  0.9821 -0.0184
  179MPD1    H6 2789   3.214   0.504  15.352 -0.1947  0.3021 -0.2339
  179MPD1    H7 2790   3.346   0.537  15.275  1.9167  0.2986  0.5460
  180MPD1     C 2791   2.154   2.330  15.077  0.0584  0.5987  0.5886
  180MPD1    C1 2792   2.255   2.403  15.018 -0.3776  0.2702 -0.0637
  180MPD1    C2 2793   2.324   2.360  14.907 -0.2632 -0.1163 -0.4296
  180MPD1    C3 2794   2.281   2.242  14.849  0.1347  0.6500 -0.9384
  180MPD1    C4 2795   2.167   2.176  14.901 -0.2831 -0.2409 -0.1963
  180MPD1    C5 2796   2.101   2.220  15.009  0.1908 -0.5794 -0.2116
  180MPD1     H 2797   2.411   2.417  14.876 -0.5735  1.3367  1.3847
  180MPD1    H1 2798   2.124   2.088  14.853 -0.4088 -1.0923  1.4812
  180MPD1    H2 2799   2.098   2.365  15.163 -0.8211 -0.1599  0.3146
  180MPD1    H3 2800   2.009   2.177  15.048  1.4279 -0.8405  2.4069
  180MPD1     N 2801   2.354   2.195  14.731  0.0764  0.1226  0.1272
  180MPD1    H5 2802   2.449   2.226  14.715 -0.2596 -0.1984 -2.6326
  180MPD1    N1 2803   2.315   2.504  15.093 -0.6110 -0.3309  0.6660
  180MPD1    H6 2804   2.374   2.573  15.047 -0.8619  1.6106  3.2294
  180MPD1    H7 2805   2.242   2.553  15.144 -1.7763 -0.7266 -0.6115
  181MPD1     C 2806   3.311   4.551   9.478  0.4208 -0.2235  0.2668
  181MPD1    C1 2807   3.359   4.679   9.481  0.1890 -0.0477  0.0714
  181MPD1    C2 2808   3.447   4.702   9.587  0.9838  0.0585  0.1950
  181MPD1    C3 2809   3.468   4.619   9.697  1.2283  0.6348 -0.3015
  181MPD1    C4 2810   3.415   4.495   9.682 -0.0499  0.4475  0.1059
  181MPD1    C5 2811   3.332   4.464   9.583 -0.1312 -0.1933  0.3584
  181MPD1     H 2812   3.500   0.058   9.581 -0.0363  0.5989 -0.1912
  181MPD1    H1 2813   3.432   4.421   9.759  1.8792  0.8686  0.0689
  181MPD1    H2 2814   3.243   4.511   9.404  2.5548 -2.8166 -0.3254
  181MPD1    H3 2815   3.288   4.365   9.585 -0.9750  0.1787 -0.0524
  181MPD1     N 2816   3.542   4.651   9.811  0.4699  0.4659 -0.1961
  181MPD1    H5 2817   3.567   4.571   9.867  0.4024 -0.0545 -0.9152
  181MPD1    N1 2818   3.348   0.021   9.363 -0.7159 -0.2956 -0.4617
  181MPD1    H6 2819   3.376   0.117   9.382  0.4462 -0.9243  1.1165
  181MPD1    H7 2820   3.254   0.022   9.326 -0.7501 -3.0422 -0.4679
  182MPD1     C 2821   1.226   3.195   1.212  0.6024 -0.6132  0.0750
  182MPD1    C1 2822   1.282   3.166   1.088  0.0954 -0.6402 -0.1286
  182MPD1    C2 2823   1.221   3.208   0.972  0.0619 -0.4738 -0.4966
  182MPD1    C3 2824   1.095   3.270   0.985 -0.2044 -0.1324 -0.4593
  182MPD1    C4 2825   1.044   3.284   1.110  0.6376 -0.4179 -0.5554
  182MPD1    C5 2826   1.111   3.253   1.216  1.0890  0.4226 -0.8683
  182MPD1     H 2827   1.265   3.194   0.874 -1.7465 -1.4318 -1.1795
  182MPD1    H1 2828   0.945   3.322   1.130  0.4223 -1.4137  0.2880
  182MPD1    H2 2829   1.280   3.174   1.304  1.6469 -3.2802 -1.1631
  182MPD1    H3 2830   1.062   3.262   1.313 -0.3557  2.2557 -1.7594
  182MPD1     N 2831   1.025   3.312   0.873 -0.1327  0.0711 -0.3251
  182MPD1    H5 2832   0.936   3.355   0.898  0.0066  1.2041 -1.7843
  182MPD1    N1 2833   1.417   3.117   1.080 -0.3485  0.2742  0.0681
  182MPD1    H6 2834   1.442   3.068   0.994  1.2059 -3.1156  2.4157
  182MPD1    H7 2835   1.457   3.071   1.161  0.9176  0.1817 -0.6053
  183MPD1     C 2836   0.146   3.843   9.008  0.6331 -0.0187 -0.1846
  183MPD1    C1 2837   0.183   3.975   9.041  1.0513 -0.5425 -0.4980
  183MPD1    C2 2838   0.176   4.019   9.176  0.1913 -0.1841 -0.0681
  183MPD1    C3 2839   0.139   3.923   9.276  1.1018 -0.0629 -0.5956
  183MPD1    C4 2840   0.101   3.790   9.242 -0.3357 -0.1918  0.1668
  183MPD1    C5 2841   0.110   3.749   9.108  0.0362  0.4414  0.1547
  183MPD1     H 2842   0.201   4.121   9.204 -1.2429  0.3327 -0.7153
  183MPD1    H1 2843   0.065   3.713   9.309  0.2335 -0.8450 -0.2639
  183MPD1    H2 2844   0.166   3.797   8.912 -0.4367  0.7207 -0.7500
  183MPD1    H3 2845   0.085   3.648   9.078 -1.2514  0.6692  0.4706
  183MPD1     N 2846   0.141   3.963   9.419 -0.0624  0.5026 -0.3878
  183MPD1    H5 2847   0.161   4.060   9.443 -0.4220  0.6285 -0.5897
  183MPD1    N1 2848   0.203   4.070   8.932  0.0251 -0.0150 -0.9190
  183MPD1    H6 2849   0.253   4.035   8.851  0.0356  0.7320 -1.2405
  183MPD1    H7 2850   0.238   4.160   8.966  1.1999  1.0100 -4.8656
  184MPD1     C 2851   3.683   2.693   9.774  0.7573 -0.0089  0.2843
  184MPD1    C1 2852   3.729   2.569   9.819  0.3774 -0.2290  0.2678
  184MPD1    C2 2853   3.862   2.556   9.826  0.1749  0.2598  0.2363
  184MPD1    C3 2854   3.948   2.667   9.818  0.0603  0.4448 -0.3579
  184MPD1    C4 2855   3.895   2.790   9.786 -0.6858 -0.4261  0.6433
  184MPD1    C5 2856   3.764   2.802   9.769 -0.4113 -0.0929  0.1903
  184MPD1     H 2857   3.912   2.460   9.833 -1.3107 -0.5655 -0.4013
  184MPD1    H1 2858   3.957   2.871   9.749  0.8563 -1.9412 -0.0442
  184MPD1    H2 2859   3.578   2.704   9.748  0.7638 -1.1992 -0.2163
  184MPD1    H3 2860   3.715   2.889   9.726  0.7682  0.6218  0.2897
  184MPD1     N 2861   4.087   2.661   9.831 -0.3265 -0.7918  0.4688
  184MPD1    H5 2862   4.133   2.751   9.823 -3.5879  0.9131  0.8000
  184MPD1    N1 2863   3.647   2.455   9.816 -0.4511 -0.5779 -0.5380
  184MPD1    H6 2864   3.680   2.385   9.883 -0.1647 -0.8648 -0.9832
  184MPD1    H7 2865   3.549   2.466   9.843 -0.0475  2.6877 -0.3348
  185MPD1     C 2866   4.735   1.937   9.593 -0.6106  0.0133 -0.2230
  185MPD1    C1 2867   0.078   2.047   9.632 -0.5690  0.2789  0.1620
  185MPD1    C2 2868   0.017   2.158   9.687  0.1859  0.6356  0.3005
  185MPD1    C3 2869   4.622   2.152   9.715 -0.3241  0.2233  0.0012
  185MPD1    C4 2870   4.541   2.052   9.675  0.4531  0.2024  0.0335
  185MPD1    C5 2871   4.600   1.941   9.623 -0.1666 -0.3644 -0.0332
  185MPD1     H 2872   0.079   2.243   9.712 -2.6945  2.1686  2.1759
  185MPD1    H1 2873   4.436   2.060   9.698  0.2465 -0.0892 -0.7989
  185MPD1    H2 2874   0.037   1.852   9.539 -0.7638 -1.6948  2.3494
  185MPD1    H3 2875   4.538   1.853   9.607 -1.9533  0.5289  1.9291
  185MPD1     N 2876   4.551   2.266   9.763 -0.3937  0.7269  0.6127
  185MPD1    H5 2877   4.450   2.274   9.763 -0.4235  0.3068  0.2618
  185MPD1    N1 2878   0.204   2.047   9.575 -0.0107 -0.5158 -0.0034
  185MPD1    H6 2879   0.279   2.104   9.615  0.3853  0.9368 -2.8452
  185MPD1    H7 2880   0.229   1.950   9.556  1.9276 -1.0877  5.4628
  186MPD1     C 2881   3.838   0.922  15.620  0.0298 -0.3716  0.2259
  186MPD1    C1 2882   3.807   0.892  15.750  0.2373 -0.3525 -0.3130
  186MPD1    C2 2883   3.719   0.979  15.817 -0.7125 -0.5801  0.1669
  186MPD1    C3 2884   3.690   1.101  15.754  0.4822  0.3432  0.1592
  186MPD1    C4 2885   3.731   1.132  15.630  0.5481  0.2535  0.1295
  186MPD1    C5 2886   3.803   1.045  15.559 -0.1172 -0.4718  0.0590
  186MPD1     H 2887   3.692   0.962  15.921  0.1845 -0.5299  0.4078
  186MPD1    H1 2888   3.709   1.232  15.593 -1.9021 -0.3250  0.0371
  186MPD1    H2 2889   3.886   0.854  15.550 -0.2761 -0.0394 -0.3058
  186MPD1    H3 2890   3.841   1.061  15.458 -0.1576  1.7119  0.3956
  186MPD1     N 2891   3.637   1.218  15.822 -0.0172  0.1874  0.2902
  186MPD1    H5 2892   3.628   1.302  15.767  0.6434 -0.0960 -0.2460
  186MPD1    N1 2893   3.838   0.764  15.795  0.4549 -0.4781 -0.3851
  186MPD1    H6 2894   3.835   0.746  15.895  0.8148 -1.4464 -0.5391
  186MPD1    H7 2895   3.929   0.730  15.762  1.5367  0.1381  1.9754
  187MPD1     C 2896   3.098   2.958  16.941 -0.3282 -0.1645 -0.6478
  187MPD1    C1 2897   3.034   2.906  17.048 -0.7679 -0.2547 -0.8863
  187MPD1    C2 2898   2.917   2.962  17.095  0.7647  0.3270  0.0768
  187MPD1    C3 2899   2.880   3.080  17.042 -0.4165  0.3388  0.0720
  187MPD1    C4 2900   2.953   3.145  16.941  0.1913 -1.1563  0.6608
  187MPD1    C5 2901   3.064   3.085  16.895 -0.1857  0.2914 -0.2679
  187MPD1     H 2902   2.852   2.904  17.159 -0.7731  2.4061  0.4075
  187MPD1    H1 2903   2.925   3.245  16.910 -0.8343 -1.4451  0.6537
  187MPD1    H2 2904   3.169   2.896  16.888  0.6430 -1.2343  1.8979
  187MPD1    H3 2905   3.126   3.136  16.822 -0.9908 -0.3172 -1.3898
  187MPD1     N 2906   2.769   3.156  17.085 -0.1172 -0.2843  0.0893
  187MPD1    H5 2907   2.739   3.245  17.049 -0.4997  0.1425  1.4358
  187MPD1    N1 2908   3.078   2.777  17.088 -0.8575 -0.0069 -0.5489
  187MPD1    H6 2909   3.178   2.760  17.073 -0.8561 -0.0800 -0.4595
  187MPD1    H7 2910   3.048   2.756  17.183 -0.7392  1.9022 -0.0993
  188MPD1     C 2911   3.231   3.384   9.962 -0.4992 -0.9651  0.6800
  188MPD1    C1 2912   3.121   3.403   9.882  0.1568  0.1533  0.4292
  188MPD1    C2 2913   2.994   3.355   9.918 -0.1748 -1.1578 -0.2257
  188MPD1    C3 2914   2.971   3.292  10.040 -1.2297 -0.1227  0.4638
  188MPD1    C4 2915   3.085   3.274  10.118  0.1015 -0.0285 -0.7495
  188MPD1    C5 2916   3.215   3.322  10.084 -0.1072 -0.1550  0.3270
  188MPD1     H 2917   2.911   3.361   9.849 -1.7301  1.7867  1.8904
  188MPD1    H1 2918   3.076   3.230  10.217  1.2806 -1.4543 -1.2826
  188MPD1    H2 2919   3.328   3.430   9.945 -0.4468 -0.9330  1.0538
  188MPD1    H3 2920   3.302   3.333  10.148 -1.8061 -0.6242  2.7068
  188MPD1     N 2921   2.846   3.245  10.097 -0.0205 -0.1547  0.1289
  188MPD1    H5 2922   2.849   3.222  10.195  1.1146 -0.6108 -0.0210
  188MPD1    N1 2923   3.135   3.471   9.756  0.9433  0.3665  0.7645
  188MPD1    H6 2924   3.080   3.423   9.684  0.5266  1.4585  0.3490
  188MPD1    H7 2925   3.232   3.490   9.730  1.0268 -0.8816  0.1799
  189MPD1     C 2926   0.264   4.534   0.181  0.0653  0.1807 -0.2148
  189MPD1    C1 2927   0.241   4.670   0.176 -0.9678  0.2723  0.0303
  189MPD1    C2 2928   0.113   4.718   0.216 -0.2609 -0.4485 -0.3213
  189MPD1    C3 2929   0.020   4.645   0.286 -0.3320  0.0362 -0.3807
  189MPD1    C4 2930   0.058   4.512   0.304  0.7309 -0.3447  0.0795
  189MPD1    C5 2931   0.173   4.459   0.247 -0.2216  0.5620 -0.2584
  189MPD1     H 2932   0.083   0.081   0.193 -0.4306 -0.3266  0.4510
  189MPD1    H1 2933   4.725   4.447   0.353  0.9410 -0.5802  0.0721
  189MPD1    H2 2934   0.355   4.490   0.143  0.8977  1.6037  0.1043
  189MPD1    H3 2935   0.203   4.358   0.274  0.0971  0.9366  0.7905
  189MPD1     N 2936   4.638   4.702   0.327 -0.2329  0.5404 -0.1970
  189MPD1    H5 2937   4.626   0.060   0.297 -2.1078 -0.3118 -2.2111
  189MPD1    N1 2938   0.317   0.018   0.102 -0.3431  0.1196  0.4930
  189MPD1    H6 2939   0.411   4.718   0.106 -0.5322 -0.7373 -2.6831
  189MPD1    H7 2940   0.313   0.114   0.136  1.1530  0.5120 -0.3991
  190MPD1     C 2941   3.245   2.129  16.125  0.4290  0.2758  0.0578
  190MPD1    C1 2942   3.219   2.260  16.109 -0.2516 -0.0494  0.4252
  190MPD1    C2 2943   3.230   2.304  15.979  0.5965 -0.6370  0.2103
  190MPD1    C3 2944   3.259   2.224  15.868 -0.6302 -0.2389  0.4151
  190MPD1    C4 2945   3.284   2.090  15.898 -0.4064  0.0572  0.3228
  190MPD1    C5 2946   3.279   2.048  16.029 -0.1880  0.7673  0.0442
  190MPD1     H 2947   3.228   2.408  15.947 -2.3345 -0.3938  1.2219
  190MPD1    H1 2948   3.302   2.020  15.818 -1.8077 -0.6819  0.6500
  190MPD1    H2 2949   3.255   2.090  16.226  0.5395  0.8081  0.2545
  190MPD1    H3 2950   3.297   1.943  16.050  1.2369  1.0919  0.4487
  190MPD1     N 2951   3.261   2.279  15.736 -0.0660 -0.0376 -0.1574
  190MPD1    H5 2952   3.235   2.377  15.731  4.0400  1.1332  1.2337
  190MPD1    N1 2953   3.183   2.345  16.216 -0.7058  0.1841 -0.1356
  190MPD1    H6 2954   3.108   2.409  16.194 -1.3307 -1.0781 -1.6445
  190MPD1    H7 2955   3.162   2.285  16.296 -2.0049  0.3991 -0.3285
  191MPD1     C 2956   2.252   3.949  13.344  0.6277 -0.3820  0.8236
  191MPD1    C1 2957   2.301   4.048  13.263  0.6660 -0.4175  0.5524
  191MPD1    C2 2958   2.199   4.116  13.201  0.0223 -0.0615 -0.7387
  191MPD1    C3 2959   2.064   4.125  13.247 -0.4595  0.0367 -0.4603
  191MPD1    C4 2960   2.029   4.038  13.345 -0.4365 -0.8386 -0.1358
  191MPD1    C5 2961   2.124   3.950  13.386 -0.0239 -0.4791  0.0361
  191MPD1     H 2962   2.230   4.195  13.134  1.2471 -0.9484 -1.2079
  191MPD1    H1 2963   1.926   4.030  13.376 -0.5309  0.5739 -0.0979
  191MPD1    H2 2964   2.323   3.873  13.375  1.6390 -0.2027 -1.0324
  191MPD1    H3 2965   2.097   3.867  13.450 -0.9473  0.7684  1.2803
  191MPD1     N 2966   1.984   4.225  13.195  0.5591 -0.3015 -0.3317
  191MPD1    H5 2967   2.027   4.290  13.131  0.3202 -0.2074 -0.3975
  191MPD1    N1 2968   2.427   4.045  13.214  0.3273 -0.0570 -0.3230
  191MPD1    H6 2969   2.493   4.030  13.290 -0.4658  0.5834  0.4953
  191MPD1    H7 2970   2.445   4.139  13.178  1.5997 -0.4102 -0.6037
  192MPD1     C 2971   1.227   0.254  13.414 -0.0790 -0.3377 -0.7861
  192MPD1    C1 2972   1.238   0.133  13.477  0.4525  0.2537  0.0506
  192MPD1    C2 2973   1.337   0.054  13.427  0.2563  0.2103  0.4227
  192MPD1    C3 2974   1.403   0.074  13.307  0.0455 -0.3515 -0.3607
  192MPD1    C4 2975   1.382   0.192  13.243  0.2533 -0.4925 -0.1173
  192MPD1    C5 2976   1.292   0.276  13.297  0.1295  0.2922  0.7973
  192MPD1     H 2977   1.364   4.708  13.489 -3.9231  0.0509  2.0812
  192MPD1    H1 2978   1.429   0.218  13.148  1.2582 -0.2148  0.4560
  192MPD1    H2 2979   1.164   0.329  13.462  1.4762 -0.3548  1.3143
  192MPD1    H3 2980   1.280   0.370  13.244 -0.8369 -0.8080 -0.9291
  192MPD1     N 2981   1.490   4.716  13.245  0.2048 -0.5588 -0.1573
  192MPD1    H5 2982   1.541   0.005  13.162 -1.4305 -0.1176 -1.0176
  192MPD1    N1 2983   1.196   0.122  13.611  0.1551 -0.0069  0.3113
  192MPD1    H6 2984   1.114   0.180  13.629  0.3132  0.3859 -0.2447
  192MPD1    H7 2985   1.166   0.027  13.634 -0.6963  0.5261  1.4260
  193MPD1     C 2986   1.751   4.357  16.920  0.7125 -0.0714 -0.0147
  193MPD1    C1 2987   1.784   4.373  16.789 -0.0747 -0.1269 -0.1039
  193MPD1    C2 2988   1.907   4.425  16.753  0.5617  0.2462 -0.8380
  193MPD1    C3 2989   1.975   4.495  16.847  0.7795 -0.3982 -0.5155
  193MPD1    C4 2990   1.926   4.499  16.975  0.4901  0.4480  0.7128
  193MPD1    C5 2991   1.821   4.421  17.014  0.0025  0.0086  0.8112
  193MPD1     H 2992   1.929   4.438  16.647  1.0264 -0.2141 -0.8004
  193MPD1    H1 2993   1.986   4.555  17.046 -0.3052  1.3830  0.6398
  193MPD1    H2 2994   1.660   4.306  16.951  1.0632 -0.7463 -0.0917
  193MPD1    H3 2995   1.778   4.421  17.114 -0.6780 -1.9571  0.5294
  193MPD1     N 2996   2.082   4.582  16.819  0.6783 -0.6166  0.6531
  193MPD1    H5 2997   2.126   4.630  16.897 -0.6652  1.8586 -0.0945
  193MPD1    N1 2998   1.700   4.310  16.688  0.0635 -0.0016  0.1002
  193MPD1    H6 2999   1.604   4.284  16.711 -0.6876  1.6375 -1.1950
  193MPD1    H7 3000   1.702   4.355  16.597 -3.0456 -0.8496 -0.3871
  194MPD1     C 3001   0.616   2.111  16.229 -0.1760  0.2984  0.2609
  194MPD1    C1 3002   0.499   2.047  16.212 -0.4353 -0.1317  0.0379
  194MPD1    C2 3003   0.466   1.956  16.299 -0.4928  0.1020 -0.3880
  194MPD1    C3 3004   0.541   1.917  16.413 -0.1497 -0.3363 -0.7642
  194MPD1    C4 3005   0.666   1.975  16.429 -0.4752  0.2071 -0.0729
  194MPD1    C5 3006   0.699   2.072  16.336  0.0460  0.3652 -0.5907
  194MPD1     H 3007   0.371   1.907  16.279 -0.2541 -0.5574  0.1277
  194MPD1    H1 3008   0.734   1.952  16.511  1.6748 -0.1309 -1.9584
  194MPD1    H2 3009   0.649   2.179  16.152  2.4111 -1.2686 -0.0243
  194MPD1    H3 3010   0.799   2.111  16.347 -1.1627  3.2528  0.4664
  194MPD1     N 3011   0.511   1.820  16.514 -0.1577  0.3100 -0.1465
  194MPD1    H5 3012   0.594   1.786  16.562 -0.3046 -1.1788 -0.9273
  194MPD1    N1 3013   0.432   2.076  16.097 -0.0595  0.0582  0.6463
  194MPD1    H6 3014   0.437   2.171  16.060 -1.2459  0.1299  0.6770
  194MPD1    H7 3015   0.333   2.054  16.102 -0.5479  1.5858 -2.1401
  195MPD1     C 3016   3.179   3.301  17.399  0.0944  0.3613 -0.2666
  195MPD1    C1 3017   3.226   3.285  17.527 -0.0150  0.6562  0.4625
  195MPD1    C2 3018   3.164   3.184  17.601 -0.3074  0.0672  0.4929
  195MPD1    C3 3019   3.073   3.099  17.545 -0.1212  0.5619 -0.0735
  195MPD1    C4 3020   3.039   3.115  17.412 -0.5515  0.0273 -0.1891
  195MPD1    C5 3021   3.092   3.215  17.342  0.0296 -0.1652  0.1758
  195MPD1     H 3022   3.189   3.176  17.706  2.3684  0.2727 -0.1395
  195MPD1    H1 3023   2.979   3.039  17.363  0.0682 -0.8482  0.3923
  195MPD1    H2 3024   3.216   3.388  17.345 -2.5555  2.0713  0.6703
  195MPD1    H3 3025   3.060   3.231  17.240 -1.3056 -2.5091  0.2362
  195MPD1     N 3026   3.006   2.998  17.616  0.4473  0.3264 -0.0270
  195MPD1    H5 3027   2.939   2.941  17.566  1.3565  0.1129 -1.0043
  195MPD1    N1 3028   3.288   3.396  17.591 -0.1846  0.4882  0.2246
  195MPD1    H6 3029   3.344   3.385  17.675 -1.6860 -0.6327  1.0554
  195MPD1    H7 3030   3.337   3.454  17.523 -1.7458  0.8061 -0.6278
  196MPD1     C 3031   1.546   2.827   0.564 -0.2452 -0.5057 -0.1649
  196MPD1    C1 3032   1.616   2.801   0.686  0.0004  0.2199 -0.0989
  196MPD1    C2 3033   1.733   2.873   0.703  0.1165  0.6137 -0.0965
  196MPD1    C3 3034   1.794   2.938   0.603 -1.2055  0.0335  0.2529
  196MPD1    C4 3035   1.735   2.930   0.478  0.5035  0.0377 -0.4458
  196MPD1    C5 3036   1.608   2.883   0.466  0.7543 -0.9798  0.1757
  196MPD1     H 3037   1.767   2.890   0.805 -0.7661  1.5828  0.0311
  196MPD1    H1 3038   1.776   2.977   0.390  0.5045  0.5608 -0.1672
  196MPD1    H2 3039   1.440   2.802   0.558 -0.7369  1.6135 -0.1620
  196MPD1    H3 3040   1.565   2.890   0.367 -1.0047 -1.1313  0.9293
  196MPD1     N 3041   1.903   3.018   0.627 -0.6785  0.4120 -0.0231
  196MPD1    H5 3042   1.930   3.077   0.549 -0.2206 -0.8832 -0.8505
  196MPD1    N1 3043   1.556   2.763   0.806 -0.5007  0.5832 -0.4204
  196MPD1    H6 3044   1.618   2.740   0.884 -1.2317  1.6601  0.4932
  196MPD1    H7 3045   1.482   2.693   0.801 -1.5844  1.7248 -0.5069
  197MPD1     C 3046   0.449   4.583  16.801  0.4898 -0.0574 -0.3828
  197MPD1    C1 3047   0.563   4.584  16.864 -0.0517  0.1991 -0.2194
  197MPD1    C2 3048   0.637   4.704  16.859 -0.1161  0.3341  0.2405
  197MPD1    C3 3049   0.595   0.084  16.788  0.8329  0.0550 -0.2098
  197MPD1    C4 3050   0.463   0.080  16.739 -0.1678  0.4502 -0.7102
  197MPD1    C5 3051   0.394   4.697  16.751  0.4297  0.2813  0.0631
  197MPD1     H 3052   0.736   4.712  16.903  0.6311  0.5449 -1.5056
  197MPD1    H1 3053   0.419   0.171  16.702  1.1217  0.9719 -0.9569
  197MPD1    H2 3054   0.399   4.487  16.802  0.3961 -0.0079 -0.3208
  197MPD1    H3 3055   0.293   4.685  16.713 -0.8180  4.7168  2.0404
  197MPD1     N 3056   0.671   0.197  16.764 -0.4351 -0.6451  0.4081
  197MPD1    H5 3057   0.623   0.265  16.706  1.8243 -1.0828 -2.0003
  197MPD1    N1 3058   0.627   4.468  16.916  0.0110 -0.2033 -0.1628
  197MPD1    H6 3059   0.717   4.459  16.869  0.7706  1.9805  0.8491
  197MPD1    H7 3060   0.659   4.506  17.005  1.5623 -0.9561 -0.3965
  198MPD1     C 3061   2.539   3.388  15.245 -0.0383 -0.2324 -0.1845
  198MPD1    C1 3062   2.676   3.377  15.229  0.2481  0.6725  0.1436
  198MPD1    C2 3063   2.749   3.452  15.317  0.3115  0.2349  0.5532
  198MPD1    C3 3064   2.694   3.540  15.414 -0.3433 -0.6159  0.5664
  198MPD1    C4 3065   2.560   3.560  15.414  0.6216  0.2891  0.1563
  198MPD1    C5 3066   2.483   3.476  15.336  0.0813 -0.0415 -0.5584
  198MPD1     H 3067   2.856   3.456  15.300  0.6294 -3.4135  1.6716
  198MPD1    H1 3068   2.512   3.630  15.481 -0.1958  0.5572 -0.7169
  198MPD1    H2 3069   2.470   3.321  15.194  1.1601 -1.1123 -0.6565
  198MPD1    H3 3070   2.376   3.487  15.347 -0.0570 -0.2834 -1.6641
  198MPD1     N 3071   2.786   3.616  15.492 -0.3850  0.3257 -0.2676
  198MPD1    H5 3072   2.886   3.603  15.475 -0.5047 -0.7618 -0.1488
  198MPD1    N1 3073   2.739   3.273  15.158 -0.6141  0.3315  0.5838
  198MPD1    H6 3074   2.832   3.301  15.129 -0.7066  2.9378  2.7643
  198MPD1    H7 3075   2.675   3.264  15.079  1.6033  0.3562 -1.2118
  199MPD1     C 3076   4.489   4.717   9.676  0.1281 -0.3304  0.1868
  199MPD1    C1 3077   4.392   4.673   9.595 -0.7446 -0.6006 -0.0263
  199MPD1    C2 3078   4.313   0.032   9.534 -0.5361  0.0038  0.7901
  199MPD1    C3 3079   4.332   0.164   9.551 -0.6669 -0.7825  0.6464
  199MPD1    C4 3080   4.437   0.206   9.636 -0.0757 -0.4507  0.4030
  199MPD1    C5 3081   4.509   0.108   9.697  0.9286 -0.3495 -0.0561
  199MPD1     H 3082   4.225   4.736   9.481  1.2483  0.0244 -2.1468
  199MPD1    H1 3083   4.472   0.308   9.652  0.1588 -0.3416 -0.8051
  199MPD1    H2 3084   4.555   4.641   9.718 -1.6081 -0.4001  2.7727
  199MPD1    H3 3085   4.581   0.145   9.769  3.3573 -1.8192 -1.6788
  199MPD1     N 3086   4.255   0.269   9.488 -0.0843  0.2050  0.3255
  199MPD1    H5 3087   4.288   0.364   9.502  2.5937 -0.3327 -2.3275
  199MPD1    N1 3088   4.359   4.536   9.589 -0.4098 -0.5678  0.4051
  199MPD1    H6 3089   4.451   4.493   9.586 -0.0003  0.4258 -0.8355
  199MPD1    H7 3090   4.325   4.511   9.496 -0.4827  0.4767  0.1583
  200MPD1     C 3091   4.127   4.682  15.192  0.4199 -0.3666 -0.7928
  200MPD1    C1 3092   4.022   4.680  15.101  0.9284 -0.2426  0.2301
  200MPD1    C2 3093   4.043   4.724  14.972 -0.6639 -0.0477  0.7363
  200MPD1    C3 3094   4.164   0.038  14.936  0.0514 -0.3214  0.5901
  200MPD1    C4 3095   4.262   0.058  15.033 -0.4459  0.0046 -0.3412
  200MPD1    C5 3096   4.237   0.012  15.159  0.3558 -0.1534 -0.7305
  200MPD1     H 3097   3.966   4.719  14.897 -0.4402  1.9605  0.3649
  200MPD1    H1 3098   4.361   0.091  15.003 -0.6107 -0.4333 -1.3763
  200MPD1    H2 3099   4.109   4.658  15.296 -0.4896  1.4507 -0.5420
  200MPD1    H3 3100   4.318   0.015  15.232 -0.0897 -2.1751 -0.1564
  200MPD1     N 3101   4.176   0.079  14.800 -0.0828 -0.3962  0.1614
  200MPD1    H5 3102   4.097   0.066  14.738 -0.0301 -0.1244  0.0393
  200MPD1    N1 3103   3.900   4.617  15.125 -0.5483  0.4600 -0.2884
  200MPD1    H6 3104   3.901   4.592  15.223 -1.8221 -1.1691 -0.6746
  200MPD1    H7 3105   3.894   4.536  15.063  3.1385  1.0148 -1.3381
  201MPD1     C 3106   1.315   4.250  12.709 -0.5617  0.2022  0.4454
  201MPD1    C1 3107   1.406   4.190  12.621 -0.2276 -0.1692 -0.4287
  201MPD1    C2 3108   1.444   4.061  12.649 -0.4657 -0.2917  0.1034
  201MPD1    C3 3109   1.403   3.996  12.765 -0.3517 -0.0005  0.2645
  201MPD1    C4 3110   1.311   4.056  12.851  0.3145  0.2227  0.4898
  201MPD1    C5 3111   1.264   4.184  12.818 -0.4819  0.4187  0.5612
  201MPD1     H 3112   1.514   4.015  12.580  1.3095  0.3563  1.4466
  201MPD1    H1 3113   1.271   4.011  12.941 -2.7035 -0.3432 -1.1320
  201MPD1    H2 3114   1.276   4.349  12.688  0.1372  0.0337 -1.7034
  201MPD1    H3 3115   1.194   4.230  12.887 -1.0777 -0.4680  0.5471
  201MPD1     N 3116   1.456   3.866  12.804  0.1514 -0.2399 -0.2965
  201MPD1    H5 3117   1.514   3.828  12.730 -1.1558  0.5437 -1.7220
  201MPD1    N1 3118   1.453   4.257  12.509 -0.1998 -0.3551  0.2941
  201MPD1    H6 3119   1.478   4.196  12.431 -1.0510 -0.7319  0.3116
  201MPD1    H7 3120   1.395   4.336  12.480  1.6267  1.0381  0.4653
  202MPD1     C 3121   0.511   3.149   9.241 -0.3299 -0.4980 -0.4367
  202MPD1    C1 3122   0.598   3.050   9.287  0.1011 -0.8672  0.8339
  202MPD1    C2 3123   0.676   3.092   9.398 -0.0199  0.3402  0.1201
  202MPD1    C3 3124   0.633   3.194   9.483  0.3195  0.0976 -0.3221
  202MPD1    C4 3125   0.529   3.279   9.440 -0.1399  0.4716 -0.4496
  202MPD1    C5 3126   0.480   3.258   9.318  0.3531  0.5054  0.2495
  202MPD1     H 3127   0.743   3.019   9.442 -0.2354 -0.5193 -0.9801
  202MPD1    H1 3128   0.500   3.367   9.496  0.8567 -1.0190  2.4398
  202MPD1    H2 3129   0.469   3.135   9.143  2.0989 -3.4201 -1.0764
  202MPD1    H3 3130   0.410   3.336   9.290 -1.2243 -1.2093 -0.5789
  202MPD1     N 3131   0.687   3.221   9.609  0.2787  0.2760 -1.1461
  202MPD1    H5 3132   0.639   3.297   9.657 -0.0518 -0.7049  0.0852
  202MPD1    N1 3133   0.655   2.955   9.202  0.0087  0.4473  0.1333
  202MPD1    H6 3134   0.600   2.914   9.127 -2.2302 -0.0731  2.0486
  202MPD1    H7 3135   0.696   2.889   9.267 -1.0257 -0.2480  0.0825
  203MPD1     C 3136   0.368   4.487  13.100  0.7191 -0.2582 -0.1302
  203MPD1    C1 3137   0.235   4.498  13.080  0.4869 -0.5696 -1.3080
  203MPD1    C2 3138   0.179   4.421  12.975 -0.6980 -0.1149  0.0926
  203MPD1    C3 3139   0.260   4.325  12.918 -0.1338 -0.1564 -0.0602
  203MPD1    C4 3140   0.386   4.301  12.957 -0.0023  0.0285  0.0415
  203MPD1    C5 3141   0.444   4.384  13.053  0.4357  0.6524 -0.4008
  203MPD1     H 3142   0.076   4.440  12.944 -0.4461 -2.1632 -1.9869
  203MPD1    H1 3143   0.445   4.223  12.909  1.2843  0.7971  0.3816
  203MPD1    H2 3144   0.405   4.566  13.164  0.6628  0.0442 -0.4655
  203MPD1    H3 3145   0.552   4.387  13.062  0.5625 -2.8299 -0.7602
  203MPD1     N 3146   0.205   4.244  12.806  0.2464 -0.2430  0.0156
  203MPD1    H5 3147   0.106   4.259  12.787  0.3346 -2.5343 -2.2940
  203MPD1    N1 3148   0.169   4.599  13.146  0.2651  0.2286  0.0493
  203MPD1    H6 3149   0.070   4.573  13.141  0.4119 -0.6585  1.8157
  203MPD1    H7 3150   0.192   4.612  13.244  3.0061 -1.0299 -0.4220
  204MPD1     C 3151   4.492   0.786  17.542  0.2807  0.6685 -0.3863
  204MPD1    C1 3152   4.559   0.799  17.420 -0.5642  0.2043  0.0137
  204MPD1    C2 3153   4.618   0.684  17.371 -0.0429  0.4303  0.2898
  204MPD1    C3 3154   4.591   0.564  17.419 -0.4921  0.1491 -0.3120
  204MPD1    C4 3155   4.498   0.549  17.518 -0.3410 -0.0259 -0.4081
  204MPD1    C5 3156   4.456   0.660  17.581  0.2292 -1.1526  0.6340
  204MPD1     H 3157   4.676   0.701  17.281  1.3381  0.0578  1.1070
  204MPD1    H1 3158   4.472   0.453  17.561 -1.3929  0.6798  0.5389
  204MPD1    H2 3159   4.460   0.866  17.607  1.2023 -0.3502  1.3059
  204MPD1    H3 3160   4.391   0.654  17.667 -1.2732  1.4283 -0.3172
  204MPD1     N 3161   4.644   0.453  17.345  0.1492  0.9209  0.0222
  204MPD1    H5 3162   4.695   0.476  17.260  0.3745 -0.9793 -0.3464
  204MPD1    N1 3163   4.608   0.921  17.372  0.1869  0.6918 -0.2444
  204MPD1    H6 3164   4.649   0.925  17.279  0.5977  1.0929 -0.0429
  204MPD1    H7 3165   4.545   0.993  17.407 -0.0355 -1.3726  3.7420
  205MPD1     C 3166   0.516   3.766  16.715  0.5502  0.4682  0.1592
  205MPD1    C1 3167   0.406   3.682  16.696  0.2569 -0.2854 -0.6245
  205MPD1    C2 3168   0.289   3.698  16.774 -0.2662  0.6696 -0.1022
  205MPD1    C3 3169   0.299   3.789  16.878 -0.3870 -0.1869 -0.0668
  205MPD1    C4 3170   0.417   3.863  16.902 -0.3572  0.7763 -0.0737
  205MPD1    C5 3171   0.522   3.849  16.823 -0.3629  0.8050 -0.7328
  205MPD1     H 3172   0.202   3.638  16.751 -0.1703  0.2606  0.6083
  205MPD1    H1 3173   0.421   3.931  16.986 -0.6708  0.5339  0.1371
  205MPD1    H2 3174   0.606   3.770  16.654 -1.1027 -2.6891 -2.4362
  205MPD1    H3 3175   0.606   3.915  16.839 -1.2061  1.6425  0.3491
  205MPD1     N 3176   0.178   3.825  16.948  0.3357 -0.2759 -0.3361
  205MPD1    H5 3177   0.185   3.898  17.017  0.1313 -0.7865  0.2192
  205MPD1    N1 3178   0.403   3.582  16.593  0.6647  1.3947  0.6888
  205MPD1    H6 3179   0.494   3.580  16.548 -0.4765 -0.7658 -1.5504
  205MPD1    H7 3180   0.376   3.497  16.642 -0.4661  1.0058 -0.5931
  206MPD1     C 3181   4.637   1.959  16.832 -0.3231 -0.2467  0.1709
  206MPD1    C1 3182   4.706   1.864  16.760 -0.3964  0.3744  0.0544
  206MPD1    C2 3183   4.674   1.851  16.629 -1.3437 -0.0867  0.5682
  206MPD1    C3 3184   4.575   1.917  16.566  0.1450 -0.7325  0.3173
  206MPD1    C4 3185   4.513   2.017  16.637  0.0940 -0.4292  0.2987
  206MPD1    C5 3186   4.537   2.028  16.770 -0.6573  0.1142  0.3415
  206MPD1     H 3187   4.733   1.782  16.569 -1.4015  1.2626 -1.0468
  206MPD1    H1 3188   4.437   2.083  16.596 -0.2929 -0.2948  1.2441
  206MPD1    H2 3189   4.658   1.983  16.936 -1.3475 -0.8318  0.5190
  206MPD1    H3 3190   4.485   2.108  16.821 -1.4609 -0.6168  0.6715
  206MPD1     N 3191   4.525   1.892  16.434 -0.2456 -0.1082  0.0127
  206MPD1    H5 3192   4.461   1.961  16.396  0.6090  1.0680  0.6823
  206MPD1    N1 3193   0.087   1.800  16.808 -0.0351  0.1310 -0.1707
  206MPD1    H6 3194   0.098   1.777  16.907  1.1710  0.4664 -0.2296
  206MPD1    H7 3195   0.100   1.709  16.765  0.1780 -1.2092  2.7479
  207MPD1     C 3196   1.887   0.510   9.348  0.3347 -0.1484 -0.4826
  207MPD1    C1 3197   1.972   0.613   9.342 -0.5916 -0.2281 -0.4480
  207MPD1    C2 3198   2.079   0.615   9.422 -0.4399 -0.2084 -0.3145
  207MPD1    C3 3199   2.106   0.523   9.523 -0.0247  0.3087 -0.4445
  207MPD1    C4 3200   2.011   0.423   9.531 -0.4092  0.3106 -1.0287
  207MPD1    C5 3201   1.899   0.415   9.446 -0.0621  0.0687  0.2100
  207MPD1     H 3202   2.154   0.692   9.409 -1.0721  0.4001 -0.3051
  207MPD1    H1 3203   2.009   0.354   9.614 -1.6511  0.5617 -0.8506
  207MPD1    H2 3204   1.801   0.506   9.282 -0.2816 -0.0548  0.3139
  207MPD1    H3 3205   1.829   0.334   9.461  0.6725 -0.5621  0.2620
  207MPD1     N 3206   2.219   0.531   9.605 -0.2222 -0.5148 -0.0356
  207MPD1    H5 3207   2.239   0.448   9.660  2.2021 -1.0277 -1.7151
  207MPD1    N1 3208   1.977   0.690   9.225 -0.3460 -0.5106  0.3518
  207MPD1    H6 3209   1.886   0.690   9.179 -1.2227  2.8562  2.1615
  207MPD1    H7 3210   2.002   0.788   9.232 -3.0732  0.1675  0.3485
  208MPD1     C 3211   0.619   3.311  16.634  0.1851 -0.8948 -0.4170
  208MPD1    C1 3212   0.590   3.181  16.649  0.4200  0.4761 -0.2863
  208MPD1    C2 3213   0.577   3.138  16.780  0.1277  0.5092 -0.6272
  208MPD1    C3 3214   0.604   3.212  16.892  0.4321 -0.6291 -0.4663
  208MPD1    C4 3215   0.661   3.337  16.869 -0.5638 -0.4524 -0.0841
  208MPD1    C5 3216   0.660   3.382  16.744 -0.4627  0.1089  0.4373
  208MPD1     H 3217   0.528   3.041  16.789 -0.2984  0.8352  0.4722
  208MPD1    H1 3218   0.682   3.411  16.946  1.2212 -0.6843 -0.3406
  208MPD1    H2 3219   0.636   3.353  16.535 -1.5897  1.2113  0.1768
  208MPD1    H3 3220   0.701   3.481  16.728  1.5723 -0.7524  0.3906
  208MPD1     N 3221   0.578   3.160  17.026  0.2340 -0.0474  0.5218
  208MPD1    H5 3222   0.501   3.094  17.037 -1.1278  1.8682  2.3815
  208MPD1    N1 3223   0.558   3.096  16.547 -0.6364  0.4008 -0.0171
  208MPD1    H6 3224   0.457   3.084  16.541 -0.3623 -1.7855 -0.2788
  208MPD1    H7 3225   0.580   3.146  16.461  2.7808  0.8806  1.1215
  209MPD1     C 3226   2.521   4.488  11.407  0.1821 -0.8950 -0.0323
  209MPD1    C1 3227   2.465   4.609  11.450  0.0069 -0.8147  0.1950
  209MPD1    C2 3228   2.434   4.704  11.354 -0.2475 -0.0734 -0.3516
  209MPD1    C3 3229   2.450   4.679  11.215 -0.7414 -0.1048 -0.5190
  209MPD1    C4 3230   2.513   4.556  11.177 -0.2152  0.0560 -0.3122
  209MPD1    C5 3231   2.542   4.462  11.275 -0.0292  0.4356 -0.0560
  209MPD1     H 3232   2.398   0.064  11.383 -0.3934 -0.1308 -0.3389
  209MPD1    H1 3233   2.531   4.529  11.073 -0.9255 -3.0618  0.3761
  209MPD1    H2 3234   2.557   4.411  11.473  0.6758 -0.5981  0.0418
  209MPD1    H3 3235   2.595   4.373  11.242  0.2341  0.4798  0.2460
  209MPD1     N 3236   2.408   0.040  11.126 -0.2163 -0.2223  0.2290
  209MPD1    H5 3237   2.374   0.126  11.169  0.5313  1.4221 -2.4597
  209MPD1    N1 3238   2.475   4.643  11.584 -0.0587 -0.4822  0.4607
  209MPD1    H6 3239   2.461   4.557  11.637 -3.0876 -0.3633 -0.1592
  209MPD1    H7 3240   2.393   4.691  11.619 -0.6995 -0.8065 -0.6014
  210MPD1     C 3241   2.185   0.835  11.321 -0.0530 -0.1618 -0.0534
  210MPD1    C1 3242   2.234   0.855  11.196  0.5982  0.4343 -0.4768
  210MPD1    C2 3243   2.307   0.756  11.130 -0.4435 -0.0159 -0.0581
  210MPD1    C3 3244   2.283   0.622  11.170 -0.2089  0.2743 -0.0585
  210MPD1    C4 3245   2.215   0.598  11.289 -0.2811 -0.0855  0.3814
  210MPD1    C5 3246   2.173   0.703  11.361 -0.5486  0.4882  0.3338
  210MPD1     H 3247   2.367   0.782  11.043 -0.0488 -2.3219 -0.4645
  210MPD1    H1 3248   2.205   0.501  11.336 -2.7512  0.4058  0.8758
  210MPD1    H2 3249   2.141   0.918  11.376 -0.6347 -0.1138 -0.5790
  210MPD1    H3 3250   2.125   0.673  11.453  0.9132  1.5775  1.4581
  210MPD1     N 3251   2.329   0.514  11.092  0.0692 -0.1669 -0.3354
  210MPD1    H5 3252   2.321   0.422  11.135 -0.5938 -0.3429 -0.8274
  210MPD1    N1 3253   2.259   0.987  11.154 -0.3933  0.2267  0.9713
  210MPD1    H6 3254   2.255   0.991  11.053 -2.2162  1.7662  1.1030
  210MPD1    H7 3255   2.181   1.038  11.195 -1.1835 -1.0350  1.0420
  211MPD1     C 3256   0.690   3.383  16.206  0.4424  0.3768 -0.2723
  211MPD1    C1 3257   0.565   3.341  16.249  0.2858 -0.6566  0.7598
  211MPD1    C2 3258   0.476   3.436  16.285 -0.6038  0.3630 -0.6332
  211MPD1    C3 3259   0.505   3.570  16.266 -0.4246 -0.1003 -0.6305
  211MPD1    C4 3260   0.626   3.611  16.221  0.1720  0.4676  0.3084
  211MPD1    C5 3261   0.716   3.516  16.187  0.7557 -0.5074 -0.2162
  211MPD1     H 3262   0.393   3.403  16.347  0.0986 -0.5654 -0.1755
  211MPD1    H1 3263   0.639   3.716  16.198  0.2966 -0.1371 -2.3181
  211MPD1    H2 3264   0.767   3.311  16.179 -1.4888 -2.3397  1.4861
  211MPD1    H3 3265   0.809   3.552  16.145  1.9426 -2.0772  1.0593
  211MPD1     N 3266   0.401   3.660  16.297  0.0116  0.2427  0.4008
  211MPD1    H5 3267   0.313   3.611  16.306 -1.3751  2.9908  1.7865
  211MPD1    N1 3268   0.541   3.205  16.264  0.0088 -0.4504 -0.2956
  211MPD1    H6 3269   0.591   3.156  16.190  1.6646 -1.1673  1.3017
  211MPD1    H7 3270   0.444   3.177  16.253  0.4639 -2.4917  0.9422
  212MPD1     C 3271   4.279   2.518  16.077 -0.2598 -0.2617 -0.0146
  212MPD1    C1 3272   4.341   2.397  16.060 -0.1915  0.1808  0.2262
  212MPD1    C2 3273   4.301   2.301  16.150  0.0543  0.2155 -0.6491
  212MPD1    C3 3274   4.192   2.315  16.240  0.1127 -0.2010  0.1541
  212MPD1    C4 3275   4.123   2.430  16.238  0.3136 -0.6884 -0.2706
  212MPD1    C5 3276   4.169   2.530  16.154 -0.0086 -0.0042  0.4258
  212MPD1     H 3277   4.364   2.213  16.155 -0.5033 -0.2739 -2.0495
  212MPD1    H1 3278   4.036   2.447  16.300  2.3611  1.6020  2.0408
  212MPD1    H2 3279   4.302   2.601  16.012 -1.5014 -0.5534 -0.8152
  212MPD1    H3 3280   4.113   2.623  16.149 -1.9151 -1.1249  0.9892
  212MPD1     N 3281   4.147   2.221  16.334  0.2955  0.4739  0.1734
  212MPD1    H5 3282   4.072   2.239  16.400 -0.7068  0.7222 -1.0266
  212MPD1    N1 3283   4.463   2.394  15.999 -0.3835  0.0713  0.5167
  212MPD1    H6 3284   4.485   2.304  15.957  0.1803  1.2143 -1.6572
  212MPD1    H7 3285   4.468   2.461  15.922 -0.9474 -1.0397 -0.4983
  213MPD1     C 3286   2.185   2.670  15.400 -0.0728  0.6614  0.3422
  213MPD1    C1 3287   2.064   2.625  15.361 -0.1459  0.1643 -0.0685
  213MPD1    C2 3288   2.034   2.644  15.231 -0.6412 -0.0284  0.2916
  213MPD1    C3 3289   2.106   2.730  15.153 -0.1763 -0.6605  0.0350
  213MPD1    C4 3290   2.214   2.805  15.208  0.1652  0.5744  0.2433
  213MPD1    C5 3291   2.251   2.768  15.333 -0.1970 -0.4130 -0.4785
  213MPD1     H 3292   1.951   2.590  15.187 -1.2241  1.3649 -0.3086
  213MPD1    H1 3293   2.273   2.886  15.167 -1.0658  0.6915 -1.2890
  213MPD1    H2 3294   2.220   2.649  15.501 -1.8653 -0.6303  0.6969
  213MPD1    H3 3295   2.338   2.814  15.378 -1.3935 -0.0867  1.5077
  213MPD1     N 3296   2.074   2.736  15.015  0.2964  0.0003  0.3271
  213MPD1    H5 3297   1.987   2.691  14.988  0.9915 -0.5980 -0.9043
  213MPD1    N1 3298   2.021   2.506  15.421  0.2681 -0.7475  0.5254
  213MPD1    H6 3299   2.003   2.530  15.518 -0.2911  2.0314 -0.2576
  213MPD1    H7 3300   1.926   2.492  15.386 -0.2312  1.8457  0.8511
  214MPD1     C 3301   1.653   2.271  14.299 -0.5013  0.8715  0.1424
  214MPD1    C1 3302   1.603   2.315  14.419  0.1771 -0.4292 -0.3233
  214MPD1    C2 3303   1.670   2.422  14.476  0.1396  0.3752 -0.0245
  214MPD1    C3 3304   1.765   2.494  14.406  0.2731  0.3356  0.4896
  214MPD1    C4 3305   1.800   2.455  14.277  0.1833  0.1384  0.1614
  214MPD1    C5 3306   1.739   2.343  14.219  0.1974 -0.4843  0.8120
  214MPD1     H 3307   1.628   2.452  14.571 -0.8526  0.3105 -0.4426
  214MPD1    H1 3308   1.872   2.507  14.216 -0.0202  0.5393  0.2659
  214MPD1    H2 3309   1.618   2.177  14.258 -2.0362  1.2033  0.6858
  214MPD1    H3 3310   1.745   2.310  14.116 -2.1494  0.9587  0.2080
  214MPD1     N 3311   1.829   2.605  14.470  0.8950 -0.1632  0.1946
  214MPD1    H5 3312   1.891   2.655  14.406 -0.2987 -1.2158 -1.7893
  214MPD1    N1 3313   1.512   2.240  14.502 -0.1623 -0.3379  0.0242
  214MPD1    H6 3314   1.435   2.197  14.452 -0.2792 -1.1014  0.8691
  214MPD1    H7 3315   1.473   2.295  14.578  0.6446 -0.8035  0.7748
  215MPD1     C 3316   2.158   3.863  10.934 -0.0353 -0.2566 -0.0779
  215MPD1    C1 3317   2.117   3.862  11.066 -0.1901  0.4215 -0.5652
  215MPD1    C2 3318   2.121   3.983  11.135 -0.7733  0.2304  0.0554
  215MPD1    C3 3319   2.181   4.094  11.074  0.1810  0.2471 -0.1093
  215MPD1    C4 3320   2.251   4.078  10.957  0.0682  0.0025  0.3675
  215MPD1    C5 3321   2.243   3.960  10.887 -0.0929 -0.4407 -0.1522
  215MPD1     H 3322   2.085   3.984  11.238 -0.5996 -1.6991  0.1466
  215MPD1    H1 3323   2.323   4.153  10.925 -2.7841  2.1678 -1.0184
  215MPD1    H2 3324   2.157   3.771  10.877  0.6352  0.2258 -0.8599
  215MPD1    H3 3325   2.305   3.939  10.800  0.8679 -1.4208  0.7664
  215MPD1     N 3326   2.175   4.213  11.146  0.0497  0.2909  0.2730
  215MPD1    H5 3327   2.099   4.214  11.214 -0.3351  0.3013 -0.1552
  215MPD1    N1 3328   2.032   3.757  11.107  0.2217 -0.0163  0.4037
  215MPD1    H6 3329   2.026   3.773  11.207 -2.1267  2.5211 -0.1435
  215MPD1    H7 3330   2.058   3.663  11.078 -3.6876 -1.4360  1.5034
  216MPD1     C 3331   3.986   2.221  17.419  0.0423 -0.0079  0.0645
  216MPD1    C1 3332   4.041   2.125  17.502 -0.8975 -0.4095  0.5855
  216MPD1    C2 3333   4.124   2.031  17.434 -0.3656 -0.5780 -0.7527
  216MPD1    C3 3334   4.136   2.028  17.299  0.5703  0.3730 -0.0526
  216MPD1    C4 3335   4.065   2.122  17.223 -0.2490  0.0552 -0.3256
  216MPD1    C5 3336   3.994   2.220  17.286 -0.9242  0.2001  0.5686
  216MPD1     H 3337   4.163   1.952  17.497 -1.1312  1.6222  2.5245
  216MPD1    H1 3338   4.057   2.124  17.115  0.2047  3.1507 -0.2981
  216MPD1    H2 3339   3.942   2.313  17.457 -1.3346 -0.3915 -0.5819
  216MPD1    H3 3340   3.950   2.298  17.226 -0.3382  0.3956  0.3972
  216MPD1     N 3341   4.215   1.926  17.235  0.3115  0.0553 -0.1116
  216MPD1    H5 3342   4.244   1.862  17.308  1.8291  0.7020 -0.1569
  216MPD1    N1 3343   4.047   2.144  17.643 -0.2714 -0.9905  0.3209
  216MPD1    H6 3344   4.056   2.056  17.693 -4.4902 -1.0711  0.9749
  216MPD1    H7 3345   3.980   2.209  17.684  1.1220 -0.4235  1.6648
  217MPD1     C 3346   3.923   3.247   8.184  0.0573  0.3184 -0.2484
  217MPD1    C1 3347   4.055   3.257   8.221 -0.3953  0.4915  0.1487
  217MPD1    C2 3348   4.087   3.254   8.361 -0.2011 -0.4458  0.1060
  217MPD1    C3 3349   3.984   3.229   8.455 -0.3004  0.0746 -0.3364
  217MPD1    C4 3350   3.852   3.204   8.408 -0.2521 -0.4357 -0.2196
  217MPD1    C5 3351   3.824   3.219   8.276 -0.2817 -0.3977 -0.6444
  217MPD1     H 3352   4.189   3.262   8.396 -0.3743  1.4713  0.1328
  217MPD1    H1 3353   3.767   3.192   8.474 -0.7165  2.0767 -0.3486
  217MPD1    H2 3354   3.895   3.252   8.080 -1.3583 -0.2590  0.1024
  217MPD1    H3 3355   3.721   3.214   8.244 -0.8338  0.9856  0.9367
  217MPD1     N 3356   4.010   3.236   8.592 -0.7904 -0.5054  0.2293
  217MPD1    H5 3357   3.930   3.225   8.653  1.2555 -2.1865  2.6332
  217MPD1    N1 3358   4.155   3.288   8.128  0.0045 -0.0913  0.2617
  217MPD1    H6 3359   4.123   3.253   8.038 -1.0058  0.7560  0.2954
  217MPD1    H7 3360   4.246   3.246   8.150  0.0489  0.2677  0.7763
  218MPD1     C 3361   1.235   4.596  12.950 -0.6315  0.1831 -0.5707
  218MPD1    C1 3362   1.307   4.499  13.017  0.3474 -0.7192  0.1113
  218MPD1    C2 3363   1.418   4.449  12.956  0.1103 -0.4685 -0.1634
  218MPD1    C3 3364   1.467   4.498  12.836  0.2881  0.5201 -0.1881
  218MPD1    C4 3365   1.401   4.610  12.783  0.0001  0.0017  0.0229
  218MPD1    C5 3366   1.281   4.657  12.837  0.6842  0.5906  0.9687
  218MPD1     H 3367   1.462   4.367  13.012  0.2834 -0.2944 -0.0476
  218MPD1    H1 3368   1.443   4.667  12.700  0.6140  0.0043  0.3358
  218MPD1    H2 3369   1.137   4.628  12.984  0.5288  2.3205  0.8028
  218MPD1    H3 3370   1.220   4.730  12.786  0.8368 -0.4510 -0.7013
  218MPD1     N 3371   1.573   4.434  12.770  0.0075 -0.3132 -0.2835
  218MPD1    H5 3372   1.609   4.355  12.823  1.2566 -0.4358 -1.3263
  218MPD1    N1 3373   1.248   4.440  13.125  0.1973  0.0632  0.8333
  218MPD1    H6 3374   1.177   4.497  13.171  1.1742  1.0509  1.1245
  218MPD1    H7 3375   1.320   4.417  13.193 -1.3794 -1.2787  2.0353
  219MPD1     C 3376   2.322   0.028  12.129  0.0071 -0.4375  0.6557
  219MPD1    C1 3377   2.352   4.641  12.175  0.8085 -0.1241  0.8210
  219MPD1    C2 3378   2.260   4.575  12.259 -0.0230 -0.3721  0.4527
  219MPD1    C3 3379   2.141   4.628  12.294 -0.5975 -0.3641 -0.9731
  219MPD1    C4 3380   2.109   0.008  12.235 -0.2959 -0.1323 -0.4043
  219MPD1    C5 3381   2.199   0.071  12.163 -0.2926 -0.0424 -0.2544
  219MPD1     H 3382   2.292   4.480  12.301 -1.6442 -0.5515  1.2898
  219MPD1    H1 3383   2.014   0.052  12.265  0.6556  1.0321  0.8965
  219MPD1    H2 3384   2.391   0.092  12.075 -0.2037 -3.0302 -2.6646
  219MPD1    H3 3385   2.181   0.170  12.122  1.6188  0.2572 -0.3718
  219MPD1     N 3386   2.044   4.558  12.375  0.0727 -0.4898  0.0030
  219MPD1    H5 3387   1.961   4.614  12.394 -0.0761  1.3533 -6.1380
  219MPD1    N1 3388   2.481   4.586  12.158  0.9011 -0.1927 -0.4960
  219MPD1    H6 3389   2.532   4.615  12.075  0.5867  0.7332 -0.3656
  219MPD1    H7 3390   2.476   4.485  12.148  0.5000 -0.0962 -1.2538
  220MPD1     C 3391   2.001   0.724   9.788  0.4853  0.0933 -0.0526
  220MPD1    C1 3392   2.053   0.716   9.912  0.2354 -1.2276 -0.3348
  220MPD1    C2 3393   1.990   0.626   9.995  0.8708  0.7990  0.4604
  220MPD1    C3 3394   1.881   0.552   9.947  0.3037  0.7596 -0.0588
  220MPD1    C4 3395   1.831   0.553   9.820  0.4764  0.0235  0.1118
  220MPD1    C5 3396   1.896   0.644   9.739 -0.1094 -0.6909  0.6293
  220MPD1     H 3397   2.026   0.603  10.094 -3.5411 -0.5044  1.7748
  220MPD1    H1 3398   1.747   0.494   9.786  1.3072 -1.2501  0.2627
  220MPD1    H2 3399   2.044   0.781   9.706  0.8505 -0.8186 -0.4924
  220MPD1    H3 3400   1.860   0.663   9.639  0.0944 -1.6737  0.3635
  220MPD1     N 3401   1.827   0.459  10.043  0.3787  0.0493 -0.7808
  220MPD1    H5 3402   1.844   0.478  10.142 -0.4337 -2.2553 -0.2149
  220MPD1    N1 3403   2.172   0.784   9.942  0.4626 -0.3942  0.1507
  220MPD1    H6 3404   2.168   0.800  10.042  0.5768 -3.4342  0.6200
  220MPD1    H7 3405   2.175   0.872   9.889  0.4322  0.6799  1.9290
  221MPD1     C 3406   3.884   4.010  16.009  0.1994 -0.3282  0.8683
  221MPD1    C1 3407   3.880   3.875  15.998  0.1723  0.2915 -0.1147
  221MPD1    C2 3408   3.998   3.812  15.999  0.0626 -0.4954 -0.4837
  221MPD1    C3 3409   4.127   3.870  16.001  0.6193 -0.1256 -0.3047
  221MPD1    C4 3410   4.127   4.008  16.014  0.3886 -0.2221  0.9828
  221MPD1    C5 3411   4.009   4.073  16.013  0.2083 -0.5729  0.2650
  221MPD1     H 3412   3.988   3.705  15.990  1.6077 -0.6225 -0.6960
  221MPD1    H1 3413   4.217   4.067  16.033  0.3709  0.5897 -1.3837
  221MPD1    H2 3414   3.790   4.061  16.025 -0.0682 -0.5892  0.1576
  221MPD1    H3 3415   3.999   4.181  16.013  0.1122 -0.5826  0.6965
  221MPD1     N 3416   4.253   3.800  16.009  0.2705 -0.1712  0.3636
  221MPD1    H5 3417   4.336   3.858  16.009 -1.0037  1.6354 -0.3129
  221MPD1    N1 3418   3.765   3.797  16.003 -0.3324  0.5949  0.1249
  221MPD1    H6 3419   3.690   3.848  15.958  3.1500  4.3875 -1.3185
  221MPD1    H7 3420   3.764   3.706  15.956 -1.0372  0.5100  0.2972
  222MPD1     C 3421   0.066   2.232   0.939  0.4073 -0.1452 -0.5417
  222MPD1    C1 3422   0.058   2.370   0.932  0.0462  0.1675 -0.1116
  222MPD1    C2 3423   4.679   2.414   0.883 -0.0814 -0.4270 -0.1323
  222MPD1    C3 3424   4.572   2.329   0.846  0.0156 -0.3305 -0.0537
  222MPD1    C4 3425   4.588   2.193   0.870 -0.0192  0.3020  0.3897
  222MPD1    C5 3426   4.708   2.144   0.913 -0.1899 -0.0302 -0.5532
  222MPD1     H 3427   4.667   2.521   0.891 -0.7881 -0.3155 -2.6435
  222MPD1    H1 3428   4.505   2.125   0.857  0.9734 -0.5076 -1.7686
  222MPD1    H2 3429   0.159   2.186   0.971  0.1958 -0.2612 -0.0920
  222MPD1    H3 3430   4.718   2.039   0.935 -0.3196 -0.2635 -1.6230
  222MPD1     N 3431   4.458   2.368   0.779  0.0084 -0.2221  0.3811
  222MPD1    H5 3432   4.398   2.291   0.753  0.8427  0.1289 -2.6619
  222MPD1    N1 3433   0.166   2.454   0.964 -0.4736  0.5389  0.2188
  222MPD1    H6 3434   0.222   2.404   1.032 -0.3584  1.4104  0.7635
  222MPD1    H7 3435   0.147   2.537   1.020 -1.1261  0.5408 -0.0083
  223MPD1     C 3436   3.997   1.802   0.421 -0.1505 -0.9020  0.8195
  223MPD1    C1 3437   4.126   1.825   0.466 -0.9321  0.1622  0.0046
  223MPD1    C2 3438   4.177   1.951   0.467 -0.2811 -0.1535 -0.1879
  223MPD1    C3 3439   4.097   2.060   0.447 -0.0766 -0.0587  0.1781
  223MPD1    C4 3440   3.963   2.039   0.416 -0.0157 -0.1200 -0.3437
  223MPD1    C5 3441   3.917   1.910   0.397 -0.0037  0.0989  1.2378
  223MPD1     H 3442   4.280   1.958   0.499 -1.3645  2.4620  2.6838
  223MPD1    H1 3443   3.883   2.111   0.425 -0.6622 -0.9606  0.6224
  223MPD1    H2 3444   3.953   1.703   0.430 -0.7710 -0.7391 -0.4749
  223MPD1    H3 3445   3.810   1.902   0.379 -0.1179 -1.0170  2.4117
  223MPD1     N 3446   4.145   2.186   0.476  0.1531  0.2356 -0.3289
  223MPD1    H5 3447   4.240   2.182   0.509  0.3088  1.1487 -0.6503
  223MPD1    N1 3448   4.203   1.708   0.494  1.2225  0.0532 -0.1708
  223MPD1    H6 3449   4.265   1.724   0.573 -1.0320  0.2053  1.5930
  223MPD1    H7 3450   4.147   1.627   0.522  0.4681  0.5820 -0.1680
  224MPD1     C 3451   4.362   4.600   9.175  0.2512  0.2944  0.6366
  224MPD1    C1 3452   4.463   4.500   9.168  0.1615 -0.6991  0.6223
  224MPD1    C2 3453   4.444   4.392   9.252  0.7980 -0.2868 -0.3282
  224MPD1    C3 3454   4.321   4.363   9.315 -0.2940  0.2598  0.3211
  224MPD1    C4 3455   4.220   4.455   9.309 -0.1654 -0.0960 -0.2136
  224MPD1    C5 3456   4.246   4.570   9.240  0.1005  0.0997 -0.1813
  224MPD1     H 3457   4.529   4.327   9.267  1.7644  0.4863 -2.4259
  224MPD1    H1 3458   4.122   4.433   9.352 -1.1555  0.8773 -1.9690
  224MPD1    H2 3459   4.368   4.693   9.120  0.8664  1.4409  2.6141
  224MPD1    H3 3460   4.166   4.641   9.223 -1.2951 -1.3769  0.3289
  224MPD1     N 3461   4.290   4.242   9.381 -0.0030 -0.0766 -0.3289
  224MPD1    H5 3462   4.207   4.230   9.437 -0.3387 -1.0851 -1.0464
  224MPD1    N1 3463   4.586   4.514   9.104  0.5830 -0.0314 -0.5183
  224MPD1    H6 3464   4.631   4.425   9.083 -0.1901 -0.8935  1.4237
  224MPD1    H7 3465   4.573   4.556   9.012  1.8734 -1.8818 -1.5507
  225MPD1     C 3466   2.061   0.384  12.215 -0.1862 -0.2612  0.9153
  225MPD1    C1 3467   2.019   0.360  12.343  0.9563 -0.2650  0.3361
  225MPD1    C2 3468   1.888   0.319  12.365 -0.0796  0.0097  0.0390
  225MPD1    C3 3469   1.812   0.294  12.253  0.1198  0.0120  0.3890
  225MPD1    C4 3470   1.860   0.307  12.124 -0.5630 -0.4120 -0.4163
  225MPD1    C5 3471   1.981   0.367  12.107 -0.3084 -0.1924 -0.0629
  225MPD1     H 3472   1.844   0.320  12.464  1.0108  1.9070  0.5003
  225MPD1    H1 3473   1.803   0.284  12.035  2.0410 -2.6379 -1.5177
  225MPD1    H2 3474   2.158   0.434  12.210  0.0414 -0.6659  1.2864
  225MPD1    H3 3475   2.028   0.383  12.011  2.2049  0.4593  1.2638
  225MPD1     N 3476   1.684   0.244  12.285  0.4559 -0.2003  0.0935
  225MPD1    H5 3477   1.664   0.251  12.384 -0.9668 -0.1039 -0.2058
  225MPD1    N1 3478   2.092   0.414  12.456  0.2071  0.0608 -0.2232
  225MPD1    H6 3479   2.078   0.361  12.542 -0.8207  0.7034 -0.0073
  225MPD1    H7 3480   2.191   0.425  12.435  0.2228  0.3245 -0.0037
  226MPD1     C 3481   3.977   0.731   9.712  0.0236  0.4826 -0.5576
  226MPD1    C1 3482   4.102   0.676   9.743 -0.2070  0.0317 -0.2923
  226MPD1    C2 3483   4.109   0.538   9.755  0.1642 -0.5377 -0.2427
  226MPD1    C3 3484   4.003   0.456   9.710 -0.9228  0.0595  0.1434
  226MPD1    C4 3485   3.883   0.512   9.681  0.0072  0.9160  0.3839
  226MPD1    C5 3486   3.875   0.645   9.684  0.6759 -0.3266  0.1325
  226MPD1     H 3487   4.202   0.488   9.778  0.0612  0.9079  3.2276
  226MPD1    H1 3488   3.797   0.458   9.643  0.8454 -0.4639  0.4459
  226MPD1    H2 3489   3.968   0.839   9.702 -3.7835  0.1028 -0.8685
  226MPD1    H3 3490   3.780   0.694   9.666  1.2124  0.2962 -1.0592
  226MPD1     N 3491   4.016   0.314   9.722 -0.4535 -0.5417 -0.4231
  226MPD1    H5 3492   4.110   0.277   9.727 -0.1808  0.2612  0.3916
  226MPD1    N1 3493   4.207   0.761   9.787  0.6482 -0.5475  0.3226
  226MPD1    H6 3494   4.296   0.712   9.789  2.6575  3.0814 -0.3502
  226MPD1    H7 3495   4.214   0.845   9.730 -1.9756 -0.9594 -0.6188
  227MPD1     C 3496   3.608   4.051   9.653  0.1153  0.6561 -0.0766
  227MPD1    C1 3497   3.609   4.140   9.548  0.1183 -0.1271  0.1954
  227MPD1    C2 3498   3.674   4.257   9.572  0.2378 -0.2312  0.2436
  227MPD1    C3 3499   3.726   4.295   9.690  0.3284  0.1023  0.5835
  227MPD1    C4 3500   3.728   4.208   9.801 -0.3750  0.4000  0.1551
  227MPD1    C5 3501   3.661   4.084   9.778 -0.0717 -0.4879  0.7065
  227MPD1     H 3502   3.677   4.316   9.481 -0.2742  1.0887  1.0838
  227MPD1    H1 3503   3.768   4.243   9.896 -2.1146 -1.8290  1.7026
  227MPD1    H2 3504   3.555   3.957   9.640  1.3932 -0.4144  2.3319
  227MPD1    H3 3505   3.653   4.017   9.863 -0.6245  0.6056  1.5178
  227MPD1     N 3506   3.806   4.403   9.712 -0.1202  0.2834 -0.7178
  227MPD1    H5 3507   3.843   4.407   9.806  1.3050 -2.9726 -1.1310
  227MPD1    N1 3508   3.562   4.111   9.422  0.4791  0.1849  0.3061
  227MPD1    H6 3509   3.489   4.040   9.433 -0.2024  0.8827  0.3139
  227MPD1    H7 3510   3.526   4.185   9.362 -1.7127 -0.3351  0.9419
  228MPD1     C 3511   3.323   3.076  12.301 -0.2799 -0.0059 -0.5610
  228MPD1    C1 3512   3.199   3.060  12.242 -0.1725 -0.0057 -0.5551
  228MPD1    C2 3513   3.117   2.974  12.300  0.8816  0.0738  0.1735
  228MPD1    C3 3514   3.153   2.909  12.416 -0.1077 -0.1261 -0.3196
  228MPD1    C4 3515   3.277   2.915  12.466  0.4605 -0.4088 -0.2094
  228MPD1    C5 3516   3.364   3.004  12.407 -1.3150  0.3648  0.0164
  228MPD1     H 3517   3.015   2.963  12.264  1.1073 -0.5856 -0.2639
  228MPD1    H1 3518   3.310   2.854  12.549  3.4699  0.2436 -0.9409
  228MPD1    H2 3519   3.385   3.157  12.267  0.2357 -0.2321 -0.1621
  228MPD1    H3 3520   3.466   3.025  12.436 -0.3507 -1.7126 -1.8562
  228MPD1     N 3521   3.057   2.830  12.475  0.1535 -1.4916 -0.2727
  228MPD1    H5 3522   2.967   2.841  12.429 -0.5722 -0.8893  1.2874
  228MPD1    N1 3523   3.150   3.142  12.142  0.4993  0.2744  0.5399
  228MPD1    H6 3524   3.229   3.160  12.080 -0.2918  1.6959 -0.0601
  228MPD1    H7 3525   3.084   3.086  12.088 -0.2007 -0.1487  1.8298
  229MPD1     C 3526   2.602   1.433  14.311  0.1808 -0.5635  0.5531
  229MPD1    C1 3527   2.599   1.288  14.301  0.2760 -0.1276 -0.3957
  229MPD1    C2 3528   2.691   1.218  14.365  0.4589 -0.3184  0.5985
  229MPD1    C3 3529   2.782   1.279  14.457 -0.1186  1.0240  0.2295
  229MPD1    C4 3530   2.764   1.415  14.475 -0.3514  1.5885 -0.1634
  229MPD1    C5 3531   2.680   1.498  14.404 -0.0726 -0.7795 -0.2267
  229MPD1     H 3532   2.702   1.110  14.358 -1.3482 -0.5467  1.4402
  229MPD1    H1 3533   2.830   1.463  14.546  0.4758  0.1318  0.0600
  229MPD1    H2 3534   2.533   1.489  14.249 -1.5203 -1.9452  1.2101
  229MPD1    H3 3535   2.678   1.606  14.402 -1.1697 -0.7793  0.6380
  229MPD1     N 3536   2.898   1.212  14.506  0.0393 -0.6705 -0.0609
  229MPD1    H5 3537   2.965   1.276  14.548 -1.1852  0.6544 -0.1301
  229MPD1    N1 3538   2.530   1.237  14.196 -0.3718  0.2265  0.2367
  229MPD1    H6 3539   2.513   1.137  14.196 -2.1036  0.5200  2.6696
  229MPD1    H7 3540   2.446   1.290  14.175 -1.2202 -1.0007  0.5197
  230MPD1     C 3541   3.618   1.319  15.168 -1.0512 -0.0439 -0.4801
  230MPD1    C1 3542   3.652   1.194  15.132  0.7895  0.2757  0.5058
  230MPD1    C2 3543   3.569   1.126  15.036 -0.3354  0.5642  0.0248
  230MPD1    C3 3544   3.441   1.181  14.996 -0.4192  0.2385 -0.0817
  230MPD1    C4 3545   3.426   1.314  15.025  0.2095  0.5760  0.1016
  230MPD1    C5 3546   3.510   1.386  15.110  0.0985 -0.5636 -0.0615
  230MPD1     H 3547   3.592   1.020  15.030 -2.0011  0.1157  1.5376
  230MPD1    H1 3548   3.344   1.376  14.989 -1.1635 -1.3621 -0.0866
  230MPD1    H2 3549   3.678   1.375  15.238  1.2143 -2.9414 -0.1380
  230MPD1    H3 3550   3.480   1.486  15.139 -2.2708 -0.9017 -1.3606
  230MPD1     N 3551   3.356   1.111  14.906 -0.7937  0.0023 -0.0111
  230MPD1    H5 3552   3.386   1.017  14.882  2.2459  1.0059 -0.0401
  230MPD1    N1 3553   3.746   1.121  15.199  0.5206 -0.1348 -0.2226
  230MPD1    H6 3554   3.780   1.043  15.144  1.4728 -0.6649  1.1431
  230MPD1    H7 3555   3.823   1.175  15.237  0.0695  0.9347 -0.7943
  231MPD1     C 3556   1.987   3.110  15.006 -0.6843 -0.4774  0.0159
  231MPD1    C1 3557   1.875   3.074  14.940  0.1917  0.4062  0.3641
  231MPD1    C2 3558   1.853   3.139  14.815  0.3203  1.2022  0.3614
  231MPD1    C3 3559   1.927   3.242  14.770  0.7257  0.0661  1.3907
  231MPD1    C4 3560   2.038   3.284  14.846 -0.6573  0.3964  0.2025
  231MPD1    C5 3561   2.060   3.219  14.967  0.2345  0.3001  0.1724
  231MPD1     H 3562   1.768   3.118  14.751  0.0253  0.3121  1.0320
  231MPD1    H1 3563   2.100   3.368  14.818 -1.3927  0.0755 -2.3392
  231MPD1    H2 3564   2.012   3.073  15.105  1.1676 -2.2650 -1.1114
  231MPD1    H3 3565   2.129   3.252  15.045  0.5452  0.3302 -0.1142
  231MPD1     N 3566   1.890   3.298  14.649 -0.3446 -0.5669  0.7552
  231MPD1    H5 3567   1.820   3.255  14.590 -1.4046 -0.7262  2.1346
  231MPD1    N1 3568   1.797   2.964  14.974  0.1362  0.0283 -0.3539
  231MPD1    H6 3569   1.707   2.971  14.926  1.0106  1.5483 -1.8179
  231MPD1    H7 3570   1.786   2.945  15.073  0.7231  1.3166 -0.0477
  232MPD1     C 3571   3.187   1.307  17.647  0.1595 -0.0435  0.2402
  232MPD1    C1 3572   3.080   1.251  17.715  0.2778 -0.4174  0.3521
  232MPD1    C2 3573   3.101   1.122   0.006 -0.5288 -0.3273  1.2491
  232MPD1    C3 3574   3.212   1.050  17.706  0.3431 -0.1337 -0.1592
  232MPD1    C4 3575   3.300   1.103  17.615 -0.2477 -0.5510  0.3792
  232MPD1    C5 3576   3.289   1.237  17.597  0.7796 -0.9824  0.1186
  232MPD1     H 3577   3.034   1.060   0.066 -0.8138  0.1904  1.4633
  232MPD1    H1 3578   3.379   1.053  17.560  0.5812 -1.3734  2.3384
  232MPD1    H2 3579   3.178   1.413  17.622 -0.3334 -0.5586 -1.7461
  232MPD1    H3 3580   3.362   1.296  17.543  0.5947 -1.7071 -0.9125
  232MPD1     N 3581   3.217   0.912  17.739  1.0904 -0.0309 -0.3372
  232MPD1    H5 3582   3.149   0.873   0.051  0.9197  0.2914 -0.3185
  232MPD1    N1 3583   2.969   1.324   0.006 -0.1525  0.0067  0.1138
  232MPD1    H6 3584   2.896   1.274   0.057 -0.9401  1.7143  0.6673
  232MPD1    H7 3585   2.918   1.380  17.691 -1.6198 -0.3222  0.9233
  233MPD1     C 3586   4.327   3.699   1.459  0.3438  0.0977 -0.7350
  233MPD1    C1 3587   4.355   3.570   1.494 -0.3489 -0.1901  0.9596
  233MPD1    C2 3588   4.488   3.534   1.476 -0.3999 -0.5884  0.0981
  233MPD1    C3 3589   4.587   3.631   1.454 -0.0653  0.1707 -0.0651
  233MPD1    C4 3590   4.551   3.765   1.440  0.8012  0.1873 -0.0360
  233MPD1    C5 3591   4.421   3.794   1.438 -0.2227 -0.0926 -0.0752
  233MPD1     H 3592   4.508   3.428   1.488  0.3077 -0.5285 -0.5580
  233MPD1    H1 3593   4.629   3.839   1.426 -0.4384  1.7072  1.1573
  233MPD1    H2 3594   4.226   3.739   1.460  0.4882  0.4387  0.3164
  233MPD1    H3 3595   4.384   3.895   1.426  1.5043  0.6458  0.9205
  233MPD1     N 3596   4.726   3.600   1.448  0.5654 -0.3532  0.4884
  233MPD1    H5 3597   0.051   3.678   1.435  0.1274 -0.5133 -2.5099
  233MPD1    N1 3598   4.252   3.478   1.503  0.0250  0.1939  0.0051
  233MPD1    H6 3599   4.280   3.396   1.557  0.6828  0.9779  0.8445
  233MPD1    H7 3600   4.166   3.513   1.544  0.0069  0.7448 -0.4983
  234MPD1     C 3601   0.710   2.601   9.917 -0.0762 -0.0558  0.2891
  234MPD1    C1 3602   0.680   2.714   9.980  0.1255  0.5019 -0.7867
  234MPD1    C2 3603   0.604   2.813   9.924 -0.6518 -0.6256 -0.9716
  234MPD1    C3 3604   0.579   2.807   9.787 -0.5463 -0.3417 -0.3648
  234MPD1    C4 3605   0.609   2.693   9.721  0.3765  0.5211 -0.2630
  234MPD1    C5 3606   0.674   2.590   9.788 -0.1506 -0.1415 -0.2612
  234MPD1     H 3607   0.575   2.899   9.984 -0.0311 -2.0008  1.3024
  234MPD1    H1 3608   0.577   2.671   9.620  0.0524 -0.8592  0.1450
  234MPD1    H2 3609   0.748   2.515   9.970  0.3284  1.0277  1.7636
  234MPD1    H3 3610   0.688   2.494   9.739 -0.8386  0.8822 -2.4682
  234MPD1     N 3611   0.497   2.910   9.736  0.4936  0.2312 -0.0959
  234MPD1    H5 3612   0.470   2.982   9.802  1.3981 -0.1029  0.6358
  234MPD1    N1 3613   0.690   2.714  10.120 -0.0026  0.2686 -0.4948
  234MPD1    H6 3614   0.767   2.665  10.165 -0.6558 -0.6052 -0.3330
  234MPD1    H7 3615   0.691   2.810  10.154  0.4039  1.5435 -4.0904
  235MPD1     C 3616   3.551   0.895  10.900 -0.0391 -0.8012  0.0061
  235MPD1    C1 3617   3.429   0.829  10.918 -0.2312  0.1850  0.2166
  235MPD1    C2 3618   3.327   0.879  10.852 -0.0746 -0.1559 -0.3645
  235MPD1    C3 3619   3.329   1.003  10.787  0.6438  0.5412 -0.1545
  235MPD1    C4 3620   3.452   1.060  10.765  0.0598 -0.9869  0.5643
  235MPD1    C5 3621   3.566   1.002  10.818 -0.5310 -0.1387  0.7378
  235MPD1     H 3622   3.232   0.829  10.864 -1.0632  1.5872 -0.8833
  235MPD1    H1 3623   3.480   1.135  10.692  3.0968 -2.5392  0.1322
  235MPD1    H2 3624   3.641   0.849  10.939  0.9829  0.1520 -1.2120
  235MPD1    H3 3625   3.661   1.053  10.808  0.6891 -2.1904  1.6964
  235MPD1     N 3626   3.211   1.063  10.734  0.5476 -0.1548 -0.1120
  235MPD1    H5 3627   3.121   1.023  10.759  0.0773  0.7873 -0.3187
  235MPD1    N1 3628   3.421   0.696  10.978 -0.4194 -0.5199  0.2647
  235MPD1    H6 3629   3.477   0.691  11.063  0.7126 -1.7041 -0.5563
  235MPD1    H7 3630   3.324   0.676  11.001 -0.3355 -0.4115  0.7180
  236MPD1     C 3631   1.229   2.515   9.700 -0.3407 -0.0931  0.0434
  236MPD1    C1 3632   1.226   2.396   9.634 -0.2197 -0.3951 -0.0630
  236MPD1    C2 3633   1.312   2.300   9.672 -0.8668 -0.7180 -0.4486
  236MPD1    C3 3634   1.379   2.299   9.797 -0.3828 -0.4102  0.3466
  236MPD1    C4 3635   1.371   2.422   9.863 -0.1281  0.0886  0.5170
  236MPD1    C5 3636   1.300   2.528   9.817  0.0460 -0.8511 -0.5452
  236MPD1     H 3637   1.318   2.209   9.613 -0.4940 -1.5883  0.9344
  236MPD1    H1 3638   1.421   2.438   9.958 -1.4969 -1.8259  1.5413
  236MPD1    H2 3639   1.173   2.597   9.656  0.8080 -0.0784 -1.4104
  236MPD1    H3 3640   1.306   2.624   9.867 -0.1582 -2.3974  2.4016
  236MPD1     N 3641   1.436   2.187   9.860  0.8033 -0.2364 -0.1291
  236MPD1    H5 3642   1.472   2.195   9.954  2.0991  0.4444 -0.6883
  236MPD1    N1 3643   1.148   2.385   9.512 -0.1210 -0.1484  0.1545
  236MPD1    H6 3644   1.054   2.418   9.530 -0.5618 -1.3515  0.0894
  236MPD1    H7 3645   1.139   2.287   9.483 -1.4266  0.6379 -2.1227
  237MPD1     C 3646   2.575   4.143  14.669  0.1333  0.0436 -0.1251
  237MPD1    C1 3647   2.562   4.129  14.805 -0.4635 -0.2885  0.0590
  237MPD1    C2 3648   2.432   4.113  14.849  0.2199 -0.3122  0.0454
  237MPD1    C3 3649   2.333   4.070  14.762  0.3105 -0.1322  0.0173
  237MPD1    C4 3650   2.362   4.057  14.625 -0.2926  0.0630  0.1950
  237MPD1    C5 3651   2.488   4.091  14.585  0.4448  0.4839  0.3194
  237MPD1     H 3652   2.427   4.112  14.957 -0.3732  1.1233  0.0325
  237MPD1    H1 3653   2.288   4.009  14.561  2.7011 -3.3998 -0.6412
  237MPD1    H2 3654   2.655   4.200  14.623  1.9454 -2.2067  0.2829
  237MPD1    H3 3655   2.500   4.097  14.477  0.3573 -1.2665  0.2169
  237MPD1     N 3656   2.204   4.038  14.809 -0.3353  0.1517  0.1100
  237MPD1    H5 3657   2.147   3.994  14.738 -1.0238  0.1425  0.6749
  237MPD1    N1 3658   2.668   4.168  14.889  0.2538  0.0300  0.3530
  237MPD1    H6 3659   2.761   4.157  14.847 -1.0615 -2.4376 -1.9497
  237MPD1    H7 3660   2.656   4.129  14.982 -0.9025  1.7619  0.9330
  238MPD1     C 3661   3.452   3.144  15.069  0.0440 -0.3633 -0.4953
  238MPD1    C1 3662   3.326   3.167  15.121 -0.1571 -0.2930 -0.3374
  238MPD1    C2 3663   3.223   3.091  15.074  0.3026 -0.1120  0.3578
  238MPD1    C3 3664   3.241   2.997  14.981 -0.3255  0.5454 -0.9290
  238MPD1    C4 3665   3.368   2.972  14.927 -0.0617 -0.9478 -0.0748
  238MPD1    C5 3666   3.474   3.044  14.976  0.0500  0.2560 -0.7284
  238MPD1     H 3667   3.129   3.109  15.126  0.3461  1.7983 -0.2386
  238MPD1    H1 3668   3.382   2.909  14.839  0.2560 -0.7947 -0.1309
  238MPD1    H2 3669   3.539   3.201  15.099 -1.2311  0.6933  1.2679
  238MPD1    H3 3670   3.573   3.022  14.937  1.1395  1.4647  1.3348
  238MPD1     N 3671   3.136   2.923  14.925  0.1645  0.7059 -0.3507
  238MPD1    H5 3672   3.160   2.850  14.859 -1.5703  1.3941 -1.7578
  238MPD1    N1 3673   3.299   3.277  15.214 -0.2320  0.2350  0.4257
  238MPD1    H6 3674   3.218   3.248  15.268 -0.1402  0.3920  0.6536
  238MPD1    H7 3675   3.374   3.288  15.283  0.7513 -2.9365 -0.1200
  239MPD1     C 3676   3.703   3.369  14.817  0.1275  0.2379 -0.6047
  239MPD1    C1 3677   3.792   3.393  14.717 -0.3999  0.2760  0.3231
  239MPD1    C2 3678   3.784   3.505  14.632  0.2317 -0.0405 -0.3277
  239MPD1    C3 3679   3.682   3.602  14.661 -0.1277  0.2600 -0.5231
  239MPD1    C4 3680   3.585   3.571  14.754  0.6444 -0.1995  0.0496
  239MPD1    C5 3681   3.597   3.450  14.833  0.3199 -0.1014  0.2916
  239MPD1     H 3682   3.858   3.506  14.553  1.1363 -1.4494  0.5075
  239MPD1    H1 3683   3.500   3.636  14.769 -0.3058 -1.3147 -0.4976
  239MPD1    H2 3684   3.723   3.292  14.890 -1.8224  0.9762  0.6894
  239MPD1    H3 3685   3.531   3.435  14.918  1.9943 -2.5221  1.1684
  239MPD1     N 3686   3.660   3.719  14.583 -0.4691 -0.0017 -0.0830
  239MPD1    H5 3687   3.579   3.779  14.596  0.0494  0.2556  1.9842
  239MPD1    N1 3688   3.901   3.305  14.705 -0.4327 -0.4526  1.1383
  239MPD1    H6 3689   3.912   3.290  14.605  1.2641  2.3977  0.8988
  239MPD1    H7 3690   3.871   3.217  14.746 -2.0743 -0.8735 -0.9584
  240MPD1     C 3691   2.574   3.951  13.720 -0.5021  0.1022  0.3833
  240MPD1    C1 3692   2.485   3.847  13.738  0.2303  0.3342 -0.6032
  240MPD1    C2 3693   2.530   3.731  13.795  0.4650  0.4390  0.7416
  240MPD1    C3 3694   2.665   3.726  13.836  0.2883 -0.1987 -0.1206
  240MPD1    C4 3695   2.741   3.838  13.831  0.1047 -0.2307  0.3411
  240MPD1    C5 3696   2.704   3.947  13.759  0.0116  0.3565  0.2684
  240MPD1     H 3697   2.469   3.642  13.809  1.2895 -0.1550  0.5425
  240MPD1    H1 3698   2.839   3.840  13.879  0.3469 -0.3371 -0.1478
  240MPD1    H2 3699   2.551   4.040  13.662  1.3199 -0.1733 -0.7615
  240MPD1    H3 3700   2.775   4.029  13.753  1.0907 -0.9065 -4.0897
  240MPD1     N 3701   2.713   3.607  13.899  0.4087  0.2159  0.4772
  240MPD1    H5 3702   2.651   3.529  13.915 -0.8300  0.8316 -1.2948
  240MPD1    N1 3703   2.365   3.844  13.669  0.1295 -0.0839 -0.3612
  240MPD1    H6 3704   2.291   3.787  13.708  1.0818 -0.2538  1.1853
  240MPD1    H7 3705   2.334   3.939  13.650  1.3505  0.2182 -0.8743
  241MPD1     C 3706   3.362   3.214  14.566  0.5691 -0.0817 -0.0036
  241MPD1    C1 3707   3.240   3.242  14.625  0.1062 -0.5553 -0.2703
  241MPD1    C2 3708   3.123   3.268  14.549  0.3654 -0.0886 -0.7805
  241MPD1    C3 3709   3.140   3.282  14.413 -0.0326 -0.6244 -0.1948
  241MPD1    C4 3710   3.263   3.263  14.360  0.0977 -0.3549 -0.2336
  241MPD1    C5 3711   3.373   3.228  14.430 -0.0734 -0.5376 -0.2151
  241MPD1     H 3712   3.032   3.300  14.598  3.0253  2.7971  2.3183
  241MPD1    H1 3713   3.271   3.277  14.253 -0.6367  0.2742 -0.2068
  241MPD1    H2 3714   3.448   3.201  14.631  0.5431 -2.5293 -0.4606
  241MPD1    H3 3715   3.466   3.220  14.375 -1.2369 -0.9617 -2.1188
  241MPD1     N 3716   3.040   3.320  14.323  0.3896  0.6921  0.1352
  241MPD1    H5 3717   3.065   3.350  14.229 -0.1235 -0.9862 -0.5345
  241MPD1    N1 3718   3.228   3.250  14.768  0.0463 -0.0178 -0.3174
  241MPD1    H6 3719   3.300   3.197  14.817 -1.6644 -0.8621  1.2597
  241MPD1    H7 3720   3.136   3.225  14.801 -0.0709 -0.0057 -0.6353
  242MPD1     C 3721   3.007   2.705  15.248  0.0088 -0.1402 -0.2006
  242MPD1    C1 3722   2.889   2.628  15.270 -0.9472 -0.5763  0.3213
  242MPD1    C2 3723   2.877   2.509  15.202 -0.0460 -0.4671  0.2071
  242MPD1    C3 3724   2.964   2.481  15.097  0.1649  0.1534  0.3461
  242MPD1    C4 3725   3.071   2.556  15.067 -0.0918 -0.4330 -0.5504
  242MPD1    C5 3726   3.089   2.669  15.144 -0.5864  0.0752  0.1238
  242MPD1     H 3727   2.799   2.449  15.248  0.5600 -1.1617  0.3332
  242MPD1    H1 3728   3.137   2.528  14.986  1.0714  1.4395 -0.2591
  242MPD1    H2 3729   3.031   2.802  15.289 -0.6972 -1.1375  2.5205
  242MPD1    H3 3730   3.168   2.733  15.108 -1.4226  1.4045  0.6524
  242MPD1     N 3731   2.959   2.357  15.023 -0.0450  0.3343  0.9333
  242MPD1    H5 3732   3.037   2.341  14.961 -2.4538  0.6856 -2.1411
  242MPD1    N1 3733   2.803   2.662  15.368  0.2312  0.0403 -0.4566
  242MPD1    H6 3734   2.798   2.761  15.390 -1.5346 -0.1615  0.0392
  242MPD1    H7 3735   2.709   2.630  15.348  0.1801 -1.1301  1.5983
  243MPD1     C 3736   4.027   0.618  17.626  0.2232 -0.3659 -0.6893
  243MPD1    C1 3737   4.107   0.533  17.696 -0.8059  0.3313  0.2306
  243MPD1    C2 3738   4.169   0.431  17.618 -0.4414  0.9377 -0.4244
  243MPD1    C3 3739   4.163   0.429  17.480  1.3023 -0.4039 -0.1214
  243MPD1    C4 3740   4.073   0.512  17.413 -0.1863 -0.1989 -0.1536
  243MPD1    C5 3741   4.011   0.614  17.487  0.2099 -0.4558  0.1147
  243MPD1     H 3742   4.229   0.358  17.671  0.4248  1.3665 -0.8142
  243MPD1    H1 3743   4.063   0.506  17.306 -2.3398 -0.6381  0.0748
  243MPD1    H2 3744   3.993   0.710  17.672  3.7709  0.9560 -0.6611
  243MPD1    H3 3745   3.954   0.688  17.431  0.5408  0.4288  0.9603
  243MPD1     N 3746   4.230   0.324  17.409  0.6175 -0.1709 -0.0869
  243MPD1    H5 3747   4.276   0.255  17.468 -0.0889  1.0357  1.9049
  243MPD1    N1 3748   4.090   0.522   0.079  0.6432 -0.4699 -0.3571
  243MPD1    H6 3749   4.090   0.613   0.125 -1.8201  1.1859 -3.6546
  243MPD1    H7 3750   4.157   0.463   0.128  0.4245 -0.9706 -0.6614
  244MPD1     C 3751   4.385   4.116  17.454  0.1674 -0.8450 -0.5327
  244MPD1    C1 3752   4.322   4.146  17.332  0.4169 -0.8030 -0.3185
  244MPD1    C2 3753   4.345   4.272  17.274  0.3067  0.6979  0.2401
  244MPD1    C3 3754   4.402   4.371  17.349 -0.2195  0.1136 -0.0970
  244MPD1    C4 3755   4.459   4.340  17.474 -0.2100 -0.2488 -0.1249
  244MPD1    C5 3756   4.459   4.208  17.513 -0.1756 -0.1599 -0.0797
  244MPD1     H 3757   4.291   4.302  17.185  3.7451  0.2233 -2.0048
  244MPD1    H1 3758   4.514   4.410  17.535  2.9460 -0.9423 -2.1744
  244MPD1    H2 3759   4.380   4.014  17.490  1.4985 -0.7069  0.0410
  244MPD1    H3 3760   4.502   4.189  17.611  0.1117  1.4039  0.0919
  244MPD1     N 3761   4.403   4.500  17.298  0.2316 -0.5517  0.4351
  244MPD1    H5 3762   4.349   4.503  17.212  0.0659  1.8961  0.6345
  244MPD1    N1 3763   4.239   4.046  17.271 -0.3014  0.1295 -0.5112
  244MPD1    H6 3764   4.267   4.032  17.174 -1.0874 -0.6750 -0.6198
  244MPD1    H7 3765   4.249   3.961  17.326  1.0240  0.7520  0.2280
  245MPD1     C 3766   0.655   0.879  13.163 -0.2692  0.3337  0.2498
  245MPD1    C1 3767   0.772   0.829  13.111  0.2677  0.2812 -0.1095
  245MPD1    C2 3768   0.875   0.923  13.077  0.0951  0.3024 -0.1356
  245MPD1    C3 3769   0.862   1.061  13.104 -0.1071 -0.0438  0.0136
  245MPD1    C4 3770   0.743   1.104  13.159 -0.1672  0.0699  0.0502
  245MPD1    C5 3771   0.639   1.016  13.177  0.2674  0.1740  0.0660
  245MPD1     H 3772   0.966   0.885  13.034  0.8775 -0.7608  2.4268
  245MPD1    H1 3773   0.736   1.210  13.180  1.0232 -0.0892  1.2055
  245MPD1    H2 3774   0.575   0.809  13.186  0.4560 -0.0784  1.5070
  245MPD1    H3 3775   0.541   1.058  13.195  0.1439 -0.5249  0.9740
  245MPD1     N 3776   0.966   1.151  13.069 -0.1157 -0.6767 -0.6963
  245MPD1    H5 3777   1.044   1.097  13.034  0.1044 -1.0843  0.4033
  245MPD1    N1 3778   0.782   0.694  13.069 -0.1226  0.9099  0.2282
  245MPD1    H6 3779   0.727   0.630  13.128 -0.5195  1.9009  0.9364
  245MPD1    H7 3780   0.880   0.669  13.061 -0.2696  0.6252 -0.6996
  246MPD1     C 3781   1.494   0.541   9.117 -0.2918  0.1766 -0.1153
  246MPD1    C1 3782   1.496   0.675   9.128 -0.3025  0.5188 -0.3431
  246MPD1    C2 3783   1.518   0.719   9.253 -0.1823 -0.5245 -0.6228
  246MPD1    C3 3784   1.523   0.640   9.369  0.4966  0.7110 -0.9213
  246MPD1    C4 3785   1.511   0.504   9.351  0.4738 -0.3137 -0.0433
  246MPD1    C5 3786   1.513   0.458   9.223 -0.1654  0.6108  0.3781
  246MPD1     H 3787   1.533   0.826   9.263 -0.6396 -0.4072 -1.1867
  246MPD1    H1 3788   1.503   0.433   9.433  1.7364 -1.0806 -0.5808
  246MPD1    H2 3789   1.483   0.500   9.017 -0.6274  0.2074 -0.0928
  246MPD1    H3 3790   1.510   0.350   9.212  0.7904  0.8715 -2.4361
  246MPD1     N 3791   1.536   0.705   9.499 -0.5736 -0.5170  0.2588
  246MPD1    H5 3792   1.541   0.805   9.513 -1.3892 -0.5941  1.1248
  246MPD1    N1 3793   1.522   0.758   9.019 -0.1890  0.0263  0.4454
  246MPD1    H6 3794   1.509   0.857   9.040  0.6790  0.7666 -2.5013
  246MPD1    H7 3795   1.473   0.736   8.933  3.3201 -0.5354 -1.4229
  247MPD1     C 3796   1.101   2.282  16.442 -0.0112 -0.0115 -1.0243
  247MPD1    C1 3797   1.104   2.179  16.537 -0.7004 -0.0081  0.5346
  247MPD1    C2 3798   1.087   2.051  16.493  0.0172 -0.9259  0.5886
  247MPD1    C3 3799   1.088   2.016  16.357  0.5249  0.6349  0.5980
  247MPD1    C4 3800   1.100   2.115  16.261 -0.1457  0.1132 -0.3891
  247MPD1    C5 3801   1.098   2.246  16.309 -0.5077 -0.1145 -0.9447
  247MPD1     H 3802   1.071   1.973  16.567 -0.7134 -1.1901  0.1528
  247MPD1    H1 3803   1.092   2.087  16.157  0.8183  1.4977 -0.8323
  247MPD1    H2 3804   1.105   2.387  16.468  0.0130 -0.1968 -0.2808
  247MPD1    H3 3805   1.117   2.326  16.238  0.2201  1.8023  1.3767
  247MPD1     N 3806   1.088   1.882  16.312 -0.2699 -0.7412  0.3021
  247MPD1    H5 3807   1.101   1.870  16.213 -1.1227  0.5167  0.0324
  247MPD1    N1 3808   1.101   2.215  16.674  0.4774 -0.2307  0.0381
  247MPD1    H6 3809   1.140   2.135  16.723  1.1097  0.4727  0.6922
  247MPD1    H7 3810   1.157   2.298  16.692  1.4678 -0.9047  0.0730
  248MPD1     C 3811   1.826   4.702   0.190  0.1201 -0.0982  0.8677
  248MPD1    C1 3812   1.891   0.058   0.270  0.2404  0.8246  0.7730
  248MPD1    C2 3813   1.815   0.162   0.321  0.3849 -0.0375  0.4819
  248MPD1    C3 3814   1.685   0.175   0.283 -0.2356  0.3159 -0.9773
  248MPD1    C4 3815   1.619   0.074   0.214 -0.3039  0.2610 -0.2230
  248MPD1    C5 3816   1.695   4.706   0.168 -0.6326 -0.7548 -0.4389
  248MPD1     H 3817   1.864   0.217   0.400  3.0521 -0.6065 -0.7924
  248MPD1    H1 3818   1.517   0.069   0.177 -0.5082 -1.3191  0.5281
  248MPD1    H2 3819   1.874   4.614   0.151  1.2427  0.0798  1.8483
  248MPD1    H3 3820   1.647   4.627   0.111  1.2950 -1.0031 -1.7369
  248MPD1     N 3821   1.607   0.289   0.329  0.4528  0.6873  0.5322
  248MPD1    H5 3822   1.650   0.348   0.399  0.0892  0.9121  0.5641
  248MPD1    N1 3823   2.021   0.043   0.315 -0.0226  0.4270 -0.6570
  248MPD1    H6 3824   2.078   0.007   0.239 -1.6606 -1.6486 -0.8859
  248MPD1    H7 3825   2.054   0.136   0.339  1.4832 -0.6885  1.5869
  249MPD1     C 3826   2.390   4.717   9.779  0.3554  0.3328  0.6842
  249MPD1    C1 3827   2.382   0.052   9.662 -0.6820  0.8307  0.0665
  249MPD1    C2 3828   2.469   0.163   9.651 -0.5297 -0.0215 -0.4708
  249MPD1    C3 3829   2.569   0.199   9.745 -0.3439  0.5454 -0.1695
  249MPD1    C4 3830   2.575   0.119   9.854  0.5111 -0.4163 -0.1517
  249MPD1    C5 3831   2.485   0.010   9.871  0.0943 -0.2483  0.0795
  249MPD1     H 3832   2.457   0.222   9.561 -0.6025 -0.4153 -0.7230
  249MPD1    H1 3833   2.648   0.127   9.934 -1.0450 -1.1937  1.3363
  249MPD1    H2 3834   2.333   4.628   9.802  1.2851 -0.3187  0.4867
  249MPD1    H3 3835   2.506   4.688   9.958  1.3225 -0.6963 -0.5338
  249MPD1     N 3836   2.660   0.301   9.714  0.3993 -0.4438  0.9235
  249MPD1    H5 3837   2.646   0.359   9.632  0.8880 -1.8718 -0.1807
  249MPD1    N1 3838   2.306   0.009   9.547 -0.1280  0.4985 -0.9866
  249MPD1    H6 3839   2.220   4.705   9.582 -0.6336  2.9302  0.6854
  249MPD1    H7 3840   2.297   0.077   9.472 -1.4977  1.5003  0.0831
  250MPD2     C 3841   4.659   0.348  12.405  0.0274  0.0287 -0.1140
  250MPD2    C1 3842   4.589   0.371  12.521 -0.0755  0.0329 -0.2148
  250MPD2    C2 3843   4.485   0.280  12.551 -0.2662 -0.5096 -0.1259
  250MPD2    C3 3844   4.455   0.183  12.459 -0.7195 -0.2140  0.4511
  250MPD2    C4 3845   4.520   0.173  12.339 -0.4974  0.6680 -0.0197
  250MPD2    C5 3846   4.624   0.255  12.314 -0.0693 -0.1217  0.2942
  250MPD2     H 3847   4.436   0.284  12.648 -0.6356 -0.0050 -0.3322
  250MPD2    H1 3848   4.493   0.102  12.262  1.9761 -1.8210  1.4192
  250MPD2    H2 3849   4.737   0.421  12.381  1.4940 -0.9988  1.5076
  250MPD2    H3 3850   4.671   0.254  12.216 -0.6213  0.0752  0.0240
  250MPD2     N 3851   4.339   0.099  12.478  0.0274 -0.3428 -0.0868
  250MPD2    H5 3852   4.317   0.027  12.410  0.2456 -1.5326  1.0980
  250MPD2    N1 3853   4.622   0.482  12.604 -0.3713 -0.1142 -0.6922
  250MPD2    H7 3854   4.702   0.536  12.573 -0.8515  0.8565 -0.2303
  251TMC3    C1 3855   4.596   0.626  12.794  0.3616  0.7752  0.8381
  251TMC3    C2 3856   4.505   0.669  12.883 -0.7881 -0.0143  0.1753
  251TMC3    C3 3857   4.554   0.696  13.003 -0.3161 -0.1410 -0.0997
  251TMC3    C4 3858   4.730   0.624  12.808  0.2064  0.2466  0.0713
  251TMC3    C5 3859   0.035   0.661  12.933 -0.3323 -1.4036  0.5321
  251TMC3    C6 3860   4.690   0.687  13.032 -0.0690 -0.3249  0.1025
  251TMC3     C 3861   4.539   0.527  12.703 -0.0077 -0.4321  0.0175
  251TMC3     O 3862   4.423   0.510  12.720 -0.8453 -0.5792 -0.4082
  251TMC3     H 3863   4.399   0.663  12.863 -0.4012 -2.6033 -1.1402
  251TMC3    H1 3864   0.061   0.611  12.725  0.3713  2.0546 -0.0926
  251TMC3    H2 3865   4.714   0.709  13.135 -2.0954 -0.0608  0.5091
  251TMC3    C7 3866   0.164   0.611  12.985  0.1695 -0.1881  0.2748
  251TMC3    C8 3867   4.467   0.705  13.123  0.0860  0.3781 -1.2406
  251TMC3    O1 3868   0.171   0.599  13.106 -0.6309  0.5337  0.1283
  251TMC3    O2 3869   4.503   0.673  13.236 -0.5697  0.1619  0.2184
  252TMC3    C1 3870   3.970   1.259   9.972 -0.0657  0.7785 -0.0735
  252TMC3    C2 3871   4.012   1.372  10.041 -0.2275 -0.3849  0.3233
  252TMC3    C3 3872   4.134   1.409  10.023 -0.3004  0.1087 -0.1695
  252TMC3    C4 3873   4.053   1.184   9.895  0.0347  0.3641 -0.0389
  252TMC3    C5 3874   4.177   1.236   9.866  0.4395 -0.2782 -0.0411
  252TMC3    C6 3875   4.216   1.339   9.939 -0.2170 -0.0826  0.2559
  252TMC3     C 3876   3.829   1.226   9.994  0.4310  0.7595  0.1090
  252TMC3     O 3877   3.762   1.282  10.080  0.0065  0.5431  0.4766
  252TMC3     H 3878   3.950   1.422  10.115  0.0274 -0.8671  0.8640
  252TMC3    H1 3879   4.032   1.082   9.864  2.0409 -0.2622  0.6481
  252TMC3    H2 3880   4.308   1.385   9.906  0.6191 -1.1910  1.0222
  252TMC3    C7 3881   4.277   1.149   9.810  0.1368  0.1929  0.7625
  252TMC3    C8 3882   4.164   1.548  10.055  0.6135  0.1674  0.4503
  252TMC3    O1 3883   4.387   1.161   9.854  0.2150 -0.0185  0.1233
  252TMC3    O2 3884   4.074   1.623  10.095  0.6917  0.4128 -0.0879
  253MPD2     C 3885   1.286   4.137  14.953 -0.0179 -0.7624  0.1946
  253MPD2    C1 3886   1.150   4.117  14.944  0.1148  0.1688 -1.1498
  253MPD2    C2 3887   1.068   4.117  15.055  0.3517 -0.0030 -0.1920
  253MPD2    C3 3888   1.125   4.148  15.180 -0.2372 -0.9405 -0.7133
  253MPD2    C4 3889   1.265   4.158  15.188  0.1222 -0.1267  0.0889
  253MPD2    C5 3890   1.346   4.157  15.072 -0.5988  0.2496 -0.9046
  253MPD2     H 3891   0.962   4.097  15.042  0.3576  0.2370 -0.5972
  253MPD2    H1 3892   1.311   4.192  15.280  0.3032  1.1949 -0.4981
  253MPD2    H2 3893   1.348   4.126  14.864  0.8737 -1.6891  0.9318
  253MPD2    H3 3894   1.454   4.160  15.086 -0.8754 -0.1487  1.3245
  253MPD2     N 3895   1.054   4.177  15.302  1.2581  0.6516  0.0767
  253MPD2    H5 3896   1.113   4.193  15.383  1.1785  1.4514 -0.0268
  253MPD2    N1 3897   1.087   4.103  14.817 -0.2739 -0.2228 -0.3071
  253MPD2    H7 3898   0.986   4.092  14.815 -0.1686 -1.2968  0.2610
  254TMC3    C1 3899   0.883   4.167  15.454 -1.1429  0.1386  1.0823
  254TMC3    C2 3900   0.746   4.194  15.477 -0.3259  0.0798  0.2746
  254TMC3    C3 3901   0.685   4.144  15.595 -0.1373  0.0388  0.6464
  254TMC3    C4 3902   0.956   4.097  15.552  0.3316  0.2982  0.2729
  254TMC3    C5 3903   0.891   4.060  15.665 -0.0456  0.6286  0.4608
  254TMC3    C6 3904   0.759   4.078  15.688 -0.2153  0.3511  0.7381
  254TMC3     C 3905   0.920   4.177  15.318 -0.1042  0.3815 -0.1566
  254TMC3     O 3906   0.831   4.181  15.235  0.3142 -0.3794 -0.7398
  254TMC3     H 3907   0.691   4.241  15.397  1.2533  0.7501 -0.4263
  254TMC3    H1 3908   1.053   4.059  15.522  0.2742  0.7012 -0.4212
  254TMC3    H2 3909   0.714   4.042  15.780 -1.0107 -1.2802 -0.2942
  254TMC3    C7 3910   0.970   4.094  15.783  0.1356  0.3768  0.9327
  254TMC3    C8 3911   0.567   4.216  15.640  0.9600  0.4945  0.0537
  254TMC3    O1 3912   0.915   4.075  15.890  0.0716 -0.9284  0.1282
  254TMC3    O2 3913   0.529   4.178  15.755  0.0841 -0.1071 -0.0078
  255MPD2     C 3914   3.651   1.884   9.784  0.3079  0.1473 -0.8894
  255MPD2    C1 3915   3.705   1.995   9.828  0.1043  0.3583 -0.8340
  255MPD2    C2 3916   3.784   2.076   9.747 -0.2950  0.6634 -0.0136
  255MPD2    C3 3917   3.835   2.030   9.624  0.1046 -0.1436 -0.1704
  255MPD2    C4 3918   3.781   1.911   9.581  0.0516  0.2588  0.2934
  255MPD2    C5 3919   3.690   1.843   9.661  0.7206  0.4749  0.0471
  255MPD2     H 3920   3.797   2.182   9.765  0.6644  1.1050 -3.2368
  255MPD2    H1 3921   3.817   1.852   9.498 -0.0987  1.0647 -0.3416
  255MPD2    H2 3922   3.593   1.813   9.842 -0.0988  0.6022 -0.7409
  255MPD2    H3 3923   3.662   1.742   9.634  0.6597  0.5385 -0.1252
  255MPD2     N 3924   3.927   2.113   9.550  0.5337 -0.8902 -0.3889
  255MPD2    H5 3925   3.950   2.201   9.593  1.3077 -0.4674 -1.6563
  255MPD2    N1 3926   3.654   2.050   9.956 -0.2592  0.6223  0.2705
  255MPD2    H7 3927   3.565   2.009   9.980  0.9545 -1.4517  1.2034
  256TMC3    C1 3928   3.624   2.212  10.129  0.1455  0.7819  0.2845
  256TMC3    C2 3929   3.671   2.330  10.189 -0.3021  0.0408  0.0162
  256TMC3    C3 3930   3.586   2.424  10.240 -0.7959 -0.9543  0.0843
  256TMC3    C4 3931   3.487   2.190  10.135 -0.8466 -0.3953  0.3724
  256TMC3    C5 3932   3.404   2.289  10.181  0.1398 -0.1168 -0.6517
  256TMC3    C6 3933   3.453   2.409  10.225 -0.4662 -0.9789  0.1026
  256TMC3     C 3934   3.705   2.163  10.020  0.1419 -0.0482 -0.1708
  256TMC3     O 3935   3.797   2.232   9.977 -0.1279  0.4066 -0.2348
  256TMC3     H 3936   3.779   2.334  10.185 -0.3204 -0.9378 -1.6005
  256TMC3    H1 3937   3.441   2.112  10.076  0.5743  0.3160 -1.6582
  256TMC3    H2 3938   3.378   2.480  10.259  1.4683  0.2690  1.7762
  256TMC3    C7 3939   3.266   2.287  10.144 -0.2249 -0.3361  0.4695
  256TMC3    C8 3940   3.643   2.557  10.234 -0.0073  0.2394 -0.3192
  256TMC3    O1 3941   3.217   2.386  10.092 -0.4189  0.4125 -0.5221
  256TMC3    O2 3942   3.751   2.581  10.290  0.4010  0.1905 -1.1823
  257MPD2     C 3943   3.158   4.686  13.135 -0.3403  0.3332 -0.1241
  257MPD2    C1 3944   3.091   4.590  13.066  0.0573  0.6594 -0.6435
  257MPD2    C2 3945   3.114   4.456  13.120  0.3734  0.0833 -1.0377
  257MPD2    C3 3946   3.184   4.427  13.239  0.6281 -0.1944 -0.4609
  257MPD2    C4 3947   3.243   4.534  13.305  0.4934 -0.1191  0.1559
  257MPD2    C5 3948   3.234   4.659  13.249  0.1650  1.0004 -0.0460
  257MPD2     H 3949   3.065   4.372  13.073  0.3342 -0.7071  0.4163
  257MPD2    H1 3950   3.286   4.525  13.404 -0.5784 -0.8854  0.5539
  257MPD2    H2 3951   3.157   0.051  13.104 -2.2418  0.1579 -0.6118
  257MPD2    H3 3952   3.284   0.007  13.291 -0.2032  0.4407  1.5489
  257MPD2     N 3953   3.198   4.291  13.278 -0.0130  0.0002 -0.4067
  257MPD2    H5 3954   3.157   4.221  13.217 -0.9729 -0.5958  0.9240
  257MPD2    N1 3955   3.014   4.621  12.949 -0.4873  0.8249 -0.2195
  257MPD2    H7 3956   3.011   4.721  12.931 -3.3129  0.1649 -3.4188
  258TMC3    C1 3957   3.272   4.103  13.389 -0.3296 -0.6566 -1.0138
  258TMC3    C2 3958   3.205   4.022  13.300 -0.0434 -0.2250  0.1039
  258TMC3    C3 3959   3.198   3.891  13.327 -0.4241  0.1471  0.3286
  258TMC3    C4 3960   3.322   4.051  13.506  0.3032 -0.1461  0.1832
  258TMC3    C5 3961   3.311   3.910  13.532  0.9310  0.0841 -0.0639
  258TMC3    C6 3962   3.253   3.829  13.437 -0.0376  0.1819 -0.4221
  258TMC3     C 3963   3.270   4.244  13.383 -0.5244  0.1182  0.0985
  258TMC3     O 3964   3.315   4.304  13.479  0.1734 -0.2169 -0.0346
  258TMC3     H 3965   3.140   4.062  13.222 -0.6158 -2.0020 -0.3274
  258TMC3    H1 3966   3.369   4.111  13.582  1.7904  1.2901 -1.8916
  258TMC3    H2 3967   3.224   3.725  13.451  0.0561 -0.1738 -2.9094
  258TMC3    C7 3968   3.390   3.861  13.645 -0.0191  0.3158  0.1709
  258TMC3    C8 3969   3.151   3.811  13.224  0.5998  0.4326 -0.3182
  258TMC3    O1 3970   3.439   3.937  13.727 -0.4617  0.0817 -0.3056
  258TMC3    O2 3971   3.085   3.721  13.269  0.4085  0.4626 -0.3206
  259MPD2     C 3972   2.303   1.499   0.080 -0.1485  0.4291  0.2453
  259MPD2    C1 3973   2.327   1.385   0.149 -0.4481 -0.4381 -0.0951
  259MPD2    C2 3974   2.391   1.273   0.095  0.1434  0.6203  0.0816
  259MPD2    C3 3975   2.446   1.275  17.716 -0.0092 -0.4699  0.4629
  259MPD2    C4 3976   2.414   1.390  17.643 -0.0840  0.8462 -0.1885
  259MPD2    C5 3977   2.342   1.497  17.699 -0.4223  0.8714  0.7257
  259MPD2     H 3978   2.406   1.181   0.150  1.3052  1.7454  1.6147
  259MPD2    H1 3979   2.433   1.389  17.536  0.7047  0.9306 -0.0540
  259MPD2    H2 3980   2.274   1.594   0.124 -0.4238  0.1830  0.6002
  259MPD2    H3 3981   2.323   1.583  17.636  1.6212 -1.0380 -2.4881
  259MPD2     N 3982   2.535   1.176  17.677  0.4195  0.2721 -0.5191
  259MPD2    H5 3983   2.553   1.115   0.003  1.1198 -1.4857 -2.0292
  259MPD2    N1 3984   2.298   1.385   0.288 -0.7395 -0.3067  0.4990
  259MPD2    H7 3985   2.293   1.474   0.337  0.0498  0.0755 -0.1164
  260TMC3    C1 3986   2.690   1.036  17.570  0.2506  0.0021  0.2237
  260TMC3    C2 3987   2.803   1.039  17.491 -0.0209  0.2785 -0.5043
  260TMC3    C3 3988   2.894   0.940  17.520  0.1581 -0.1015 -0.6105
  260TMC3    C4 3989   2.674   0.960  17.678  0.1761 -0.6326  0.8611
  260TMC3    C5 3990   2.771   0.862  17.696 -0.2073  0.3601 -0.6347
  260TMC3    C6 3991   2.876   0.847  17.612  0.1528 -0.2499  0.4603
  260TMC3     C 3992   2.616   1.164  17.568 -0.4650 -0.6755 -0.0239
  260TMC3     O 3993   2.622   1.224  17.459 -0.3418  0.0472  0.0434
  260TMC3     H 3994   2.826   1.124  17.427  2.9481  1.4795  2.1979
  260TMC3    H1 3995   2.576   0.957  17.724 -0.4859  0.0138 -0.5335
  260TMC3    H2 3996   2.947   0.770  17.641 -0.1354  0.5186  3.2215
  260TMC3    C7 3997   2.740   0.742   0.022 -0.2312 -0.1293 -0.3340
  260TMC3    C8 3998   2.993   0.919  17.420 -0.8921  0.4785 -0.2798
  260TMC3    O1 3999   2.810   0.645   0.026  0.0762 -0.5997 -0.0506
  260TMC3    O2 4000   3.029   1.003  17.335  0.1828  0.1110 -0.2351
  261MPD2     C 4001   3.862   4.497  12.051  0.9083  0.0218 -0.2074
  261MPD2    C1 4002   3.869   4.627  12.086  0.1839  0.0902  0.0986
  261MPD2    C2 4003   3.839   4.719  11.992 -0.2600  0.6764 -0.3336
  261MPD2    C3 4004   3.801   4.689  11.863 -0.0934  0.2929 -0.1937
  261MPD2    C4 4005   3.784   4.555  11.837  0.6373  0.0678 -0.4410
  261MPD2    C5 4006   3.809   4.460  11.932 -0.1517 -0.0799  0.7270
  261MPD2     H 4007   3.863   0.083  12.016  0.8286  0.4557 -0.4535
  261MPD2    H1 4008   3.759   4.514  11.740 -1.5711  1.1029 -0.3221
  261MPD2    H2 4009   3.895   4.414  12.113  0.2329  1.0893  1.6033
  261MPD2    H3 4010   3.813   4.360  11.890 -0.1834  0.0516  0.4059
  261MPD2     N 4011   3.777   0.055  11.771 -0.8575  0.8218 -0.4770
  261MPD2    H5 4012   3.803   0.150  11.796  0.1967  0.6953 -1.0937
  261MPD2    N1 4013   3.908   4.679  12.209 -0.2682 -0.0890 -0.1056
  261MPD2    H7 4014   3.916   0.041  12.219 -1.0927 -0.0296 -0.0418
  262TMC3    C1 4015   3.730   0.158  11.571  0.0259 -0.2241  0.1161
  262TMC3    C2 4016   3.700   0.275  11.628  0.7713 -0.1706 -0.2782
  262TMC3    C3 4017   3.731   0.387  11.557  0.3835  0.3306 -0.0393
  262TMC3    C4 4018   3.795   0.151  11.455  0.7666 -0.1540 -0.2048
  262TMC3    C5 4019   3.836   0.264  11.396  0.1600  0.3334  0.2163
  262TMC3    C6 4020   3.810   0.389  11.446 -0.1696  0.1675  0.2610
  262TMC3     C 4021   3.731   0.040  11.644  1.0566 -0.3196 -0.2180
  262TMC3     O 4022   3.696   4.678  11.585 -0.2088  0.1823 -0.2874
  262TMC3     H 4023   3.641   0.284  11.719  1.1448  0.6567 -0.1168
  262TMC3    H1 4024   3.823   0.054  11.416 -0.2766  0.8536 -3.5113
  262TMC3    H2 4025   3.834   0.485  11.402  1.0463 -0.0654  0.4216
  262TMC3    C7 4026   3.963   0.259  11.322 -0.0865 -0.0716  0.4129
  262TMC3    C8 4027   3.649   0.509  11.560  0.3069  0.3970  0.0559
  262TMC3    O1 4028   4.027   0.157  11.333 -0.4303  0.5556  0.0177
  262TMC3    O2 4029   3.698   0.611  11.515 -0.3889 -0.0327  0.1001
  263MPD2     C 4030   4.534   3.890  11.521  0.3973 -0.2796  0.2980
  263MPD2    C1 4031   4.654   3.921  11.467 -0.3047 -0.1107  0.1067
  263MPD2    C2 4032   4.676   4.039  11.398 -0.8141 -0.0355 -0.4145
  263MPD2    C3 4033   4.573   4.137  11.401 -0.2781 -1.0929 -0.5750
  263MPD2    C4 4034   4.462   4.114  11.472 -0.2254 -0.7135  0.2190
  263MPD2    C5 4035   4.441   3.989  11.530 -0.0988 -0.6691  0.0027
  263MPD2     H 4036   0.025   4.052  11.336  0.8536  1.8033  2.2972
  263MPD2    H1 4037   4.379   4.184  11.481  0.5911  0.4025 -0.9211
  263MPD2    H2 4038   4.520   3.794  11.569  1.2672 -0.7037 -0.2995
  263MPD2    H3 4039   4.349   3.965  11.582 -1.2892 -1.2712 -2.3642
  263MPD2     N 4040   4.586   4.255  11.317  0.1742 -0.1222  0.7376
  263MPD2    H5 4041   4.666   4.258  11.254 -0.3412 -3.4987 -0.0840
  263MPD2    N1 4042   0.012   3.823  11.480 -0.5079  0.5945 -0.0172
  263MPD2    H7 4043   0.000   3.743  11.541 -0.4516  0.5474 -0.0687
  264TMC3    C1 4044   4.551   4.475  11.241  0.0108 -0.2966 -0.2821
  264TMC3    C2 4045   4.525   4.601  11.293  0.5512  0.2130  0.3552
  264TMC3    C3 4046   4.558   4.705  11.216  0.5259  0.0348 -0.8327
  264TMC3    C4 4047   4.620   4.452  11.120  1.0030  0.5330 -0.0427
  264TMC3    C5 4048   4.667   4.569  11.058  0.0341  0.1269  0.3518
  264TMC3    C6 4049   4.631   4.694  11.104 -0.0446 -0.2001  0.2847
  264TMC3     C 4050   4.519   4.370  11.341  0.0167 -0.7702  0.0930
  264TMC3     O 4051   4.441   4.395  11.431 -0.1983 -0.0283  0.1230
  264TMC3     H 4052   4.469   4.614  11.385 -1.4361  0.9964 -0.9565
  264TMC3    H1 4053   4.632   4.349  11.091 -0.6443  0.1364  0.6662
  264TMC3    H2 4054   4.661   0.043  11.047  0.1963 -0.1071  0.5534
  264TMC3    C7 4055   0.027   4.564  10.954  0.0013 -0.3596 -0.2221
  264TMC3    C8 4056   4.611   0.079  11.295 -0.2482 -0.1882 -0.4448
  264TMC3    O1 4057   0.050   4.668  10.890  0.4025 -0.2797  0.4667
  264TMC3    O2 4058   4.718   0.122  11.261  0.6248 -0.1303 -0.3055
  265MPD2     C 4059   2.071   3.701  15.334  0.0094 -0.7917 -0.0586
  265MPD2    C1 4060   2.164   3.800  15.307 -0.7012 -0.3897  1.0303
  265MPD2    C2 4061   2.261   3.784  15.213  0.9626 -0.5270 -0.0759
  265MPD2    C3 4062   2.270   3.669  15.133  0.1175  0.2851 -0.7063
  265MPD2    C4 4063   2.180   3.572  15.158  0.4577 -0.1587 -0.7791
  265MPD2    C5 4064   2.083   3.587  15.255  0.0638  0.6903 -0.6058
  265MPD2     H 4065   2.329   3.868  15.203  0.4545 -0.1427 -0.3110
  265MPD2    H1 4066   2.173   3.485  15.094 -2.1954 -0.0182 -0.6845
  265MPD2    H2 4067   1.992   3.712  15.407 -0.7078  1.1548 -1.1595
  265MPD2    H3 4068   2.009   3.508  15.265 -2.1513  2.8321  0.0443
  265MPD2     N 4069   2.367   3.653  15.030 -0.0673  0.2367  0.3276
  265MPD2    H5 4070   2.352   3.570  14.974  0.4642  0.2858  0.1165
  265MPD2    N1 4071   2.151   3.926  15.380  0.2628  0.4035  0.0382
  265MPD2    H7 4072   2.205   4.003  15.341  0.0970  0.8339  0.6618
  266TMC3    C1 4073   2.102   4.073  15.548 -0.2786  0.3805 -0.5874
  266TMC3    C2 4074   2.008   4.126  15.636 -0.2017 -0.0308  1.0877
  266TMC3    C3 4075   2.044   4.229  15.717 -0.5322  0.1990  0.3117
  266TMC3    C4 4076   2.225   4.127  15.533  0.5050  0.1601 -0.5245
  266TMC3    C5 4077   2.256   4.233  15.613 -0.8354 -0.5834 -0.9694
  266TMC3    C6 4078   2.167   4.290  15.705 -0.6789  0.6406 -0.2505
  266TMC3     C 4079   2.076   3.949  15.493  0.4721 -0.5259 -0.4676
  266TMC3     O 4080   2.011   3.876  15.569 -0.1275 -0.3938  0.2865
  266TMC3     H 4081   1.909   4.085  15.644 -0.9600  1.5498 -0.1600
  266TMC3    H1 4082   2.300   4.096  15.461  1.9775  0.2524  0.9856
  266TMC3    H2 4083   2.206   4.360  15.777 -1.1335  0.0369  0.5814
  266TMC3    C7 4084   2.380   4.299  15.585  0.7070  0.2328  0.0632
  266TMC3    C8 4085   1.938   4.292  15.801 -0.3427 -0.2963 -0.6532
  266TMC3    O1 4086   2.374   4.416  15.577 -0.0683 -0.2663  0.2433
  266TMC3    O2 4087   1.822   4.250  15.787 -0.2011  0.0593  0.4669
  267MPD2     C 4088   4.560   1.422   0.026  0.4969  0.7502 -0.6200
  267MPD2    C1 4089   4.653   1.408  17.684 -0.5589  0.2892 -0.2118
  267MPD2    C2 4090   4.639   1.478  17.566 -0.3834 -0.2009 -0.5343
  267MPD2    C3 4091   4.526   1.563  17.547  0.3701  0.5340 -0.1712
  267MPD2    C4 4092   4.438   1.574  17.646 -0.5313 -0.0203  0.0526
  267MPD2    C5 4093   4.462   1.513   0.018  0.0639 -0.4070  0.6026
  267MPD2     H 4094   4.711   1.466  17.486  0.7945  2.6282  0.1299
  267MPD2    H1 4095   4.351   1.638  17.633 -0.8012 -0.8842 -2.3985
  267MPD2    H2 4096   4.579   1.372   0.121 -2.2468 -0.7071 -0.8553
  267MPD2    H3 4097   4.391   1.537   0.097  0.5167  0.8836  0.6230
  267MPD2     N 4098   4.500   1.635  17.428  0.3248 -0.1192 -0.2572
  267MPD2    H5 4099   4.419   1.695  17.433  2.4037  2.7628 -1.1670
  267MPD2    N1 4100   0.021   1.316  17.694 -0.5919  0.4326  0.4800
  267MPD2    H7 4101   0.032   1.276   0.034 -0.9190  1.2832  0.8833
  268TMC3    C1 4102   0.241   1.218  17.655 -0.1349 -0.8008  0.0461
  268TMC3    C2 4103   0.350   1.222  17.571 -0.2015  0.6256 -0.4443
  268TMC3    C3 4104   0.467   1.154  17.612  0.3751 -0.4486  0.2121
  268TMC3    C4 4105   0.240   1.131   0.007 -0.2622  0.1266 -1.1083
  268TMC3    C5 4106   0.351   1.062   0.036 -0.1627  0.4724 -0.0519
  268TMC3    C6 4107   0.470   1.070  17.721  0.3521 -0.1955  0.0121
  268TMC3     C 4108   0.136   1.311  17.613  0.8022  0.0147 -1.0822
  268TMC3     O 4109   0.166   1.387  17.521  0.0451 -0.1135  0.1068
  268TMC3     H 4110   0.351   1.282  17.481 -0.7006  0.1479 -0.7699
  268TMC3    H1 4111   0.143   1.121   0.055 -0.5933 -1.0623 -2.0320
  268TMC3    H2 4112   0.558   1.018   0.003 -0.9216 -2.3734 -0.0385
  268TMC3    C7 4113   0.335   0.955   0.128 -0.1586  0.0021 -0.0226
  268TMC3    C8 4114   0.590   1.183  17.539  0.4902  0.0825  0.6971
  268TMC3    O1 4115   0.428   0.871   0.123 -0.6611  0.2309  0.2365
  268TMC3    O2 4116   0.699   1.175  17.600  0.0703  0.2028  0.2840
  269MPD2     C 4117   0.376   4.669  15.092 -0.7770 -0.9999  0.0688
  269MPD2    C1 4118   0.307   4.701  15.207 -0.3101 -0.0686 -1.0228
  269MPD2    C2 4119   0.278   0.090  15.218  0.3383 -0.3325 -0.7892
  269MPD2    C3 4120   0.297   0.184  15.120 -0.4751  0.1237 -0.5377
  269MPD2    C4 4121   0.352   0.153  14.996 -0.2780 -0.9407  0.3222
  269MPD2    C5 4122   0.399   0.019  14.986  0.1662  0.9712  0.0743
  269MPD2     H 4123   0.229   0.125  15.307  1.2322  0.3755 -0.5734
  269MPD2    H1 4124   0.371   0.222  14.915 -0.3646 -0.3198  0.8368
  269MPD2    H2 4125   0.408   4.568  15.070  2.2780  0.6786 -3.2616
  269MPD2    H3 4126   0.430   4.712  14.893  1.1335  0.5071  0.6243
  269MPD2     N 4127   0.251   0.313  15.153  0.5117 -0.1682 -0.1627
  269MPD2    H5 4128   0.198   0.324  15.239 -2.5252 -0.7291 -1.9759
  269MPD2    N1 4129   0.256   4.606  15.298 -0.4050 -0.0485  0.5112
  269MPD2    H7 4130   0.300   4.515  15.301 -1.2972 -0.5040 -0.1303
  270TMC3    C1 4131   0.114   4.487  15.420 -0.0233  0.3846 -0.7016
  270TMC3    C2 4132   4.716   4.450  15.419  0.0614  0.5568  0.1767
  270TMC3    C3 4133   4.687   4.316  15.447  1.0226  0.0478 -0.1569
  270TMC3    C4 4134   0.218   4.394  15.432 -0.1438  0.0537  0.1784
  270TMC3    C5 4135   0.181   4.275  15.485  0.3441  0.1587 -0.0759
  270TMC3    C6 4136   0.049   4.234  15.488 -0.2830 -0.4332 -0.4084
  270TMC3     C 4137   0.142   4.615  15.373  0.4499 -0.5517  1.1861
  270TMC3     O 4138   0.055   4.701  15.371  0.0461  0.1435 -0.0684
  270TMC3     H 4139   4.636   4.517  15.391  2.6592  2.1149 -3.4227
  270TMC3    H1 4140   0.323   4.421  15.434 -0.0319 -0.3138 -0.8770
  270TMC3    H2 4141   0.021   4.135  15.524  1.5843 -1.6434 -2.3134
  270TMC3    C7 4142   0.278   4.164  15.477 -0.2108 -0.2952 -0.3079
  270TMC3    C8 4143   4.608   4.253  15.347  0.5014 -0.3045  0.0268
  270TMC3    O1 4144   0.382   4.181  15.414 -0.2470  0.5021 -0.4647
  270TMC3    O2 4145   4.627   4.132  15.333 -0.2371  0.0461 -0.0450
  271MPD2     C 4146   4.038   4.462  13.644 -0.4087 -0.1760  0.5547
  271MPD2    C1 4147   3.962   4.431  13.757 -0.0214 -0.4184  0.7040
  271MPD2    C2 4148   3.850   4.501  13.800  0.8003 -0.1614  0.3812
  271MPD2    C3 4149   3.792   4.597  13.715  0.9928 -0.4637  0.0660
  271MPD2    C4 4150   3.858   4.623  13.594 -0.3766 -0.6618  0.4306
  271MPD2    C5 4151   3.975   4.562  13.566  0.0522 -0.8091 -0.5689
  271MPD2     H 4152   3.801   4.477  13.894 -2.3650 -1.2225 -1.5326
  271MPD2    H1 4153   3.829   4.702  13.525 -0.5125 -1.6148 -0.5898
  271MPD2    H2 4154   4.127   4.411  13.610 -0.4185 -0.4694  0.9734
  271MPD2    H3 4155   4.016   4.594  13.471  0.0728 -1.3756 -0.7497
  271MPD2     N 4156   3.670   4.671  13.752  1.2120  0.8852  0.3261
  271MPD2    H5 4157   3.649   4.730  13.672 -1.7952 -0.5452  0.0485
  271MPD2    N1 4158   4.008   4.323  13.837  0.5701  0.4892  0.7516
  271MPD2    H7 4159   3.946   4.293  13.911  0.1963  0.9091  0.6033
  272TMC3    C1 4160   4.163   4.156  13.931  0.7676  1.3738 -0.1602
  272TMC3    C2 4161   4.292   4.114  13.943  0.0789 -0.0665  0.3651
  272TMC3    C3 4162   4.345   4.053  14.046 -0.0161  0.4643  0.6952
  272TMC3    C4 4163   4.097   4.155  14.053  0.2008 -0.5801 -0.1811
  272TMC3    C5 4164   4.152   4.108  14.169  0.3621  0.4010  0.7302
  272TMC3    C6 4165   4.278   4.054  14.166 -0.5984  0.6365 -0.3273
  272TMC3     C 4166   4.129   4.257  13.831  0.3340 -0.6820 -1.0381
  272TMC3     O 4167   4.227   4.287  13.763 -0.3956  0.2764 -0.6284
  272TMC3     H 4168   4.345   4.123  13.849 -0.4334 -2.2465 -0.1376
  272TMC3    H1 4169   4.000   4.204  14.053 -0.1530 -1.2432  2.5991
  272TMC3    H2 4170   4.317   4.003  14.253 -0.9609 -1.9121 -1.6732
  272TMC3    C7 4171   4.090   4.171  14.286  0.2277 -0.0356 -0.6390
  272TMC3    C8 4172   4.475   4.003  14.033  0.6309 -0.1012  0.0531
  272TMC3    O1 4173   3.972   4.193  14.280  0.2990  0.0986 -0.4850
  272TMC3    O2 4174   4.533   4.043  13.935  0.3427  0.6673 -0.0696
  273MPD2     C 4175   0.613   2.299  11.661  0.7986  0.0047  0.0890
  273MPD2    C1 4176   0.683   2.417  11.650  0.1945  0.3852 -0.3189
  273MPD2    C2 4177   0.682   2.484  11.529  0.6532  0.0301  0.8619
  273MPD2    C3 4178   0.632   2.440  11.413  0.4389 -0.7873 -0.0340
  273MPD2    C4 4179   0.566   2.320  11.421  0.6260 -0.6462  0.1049
  273MPD2    C5 4180   0.543   2.259  11.550  0.1992  0.7658  0.0435
  273MPD2     H 4181   0.721   2.584  11.513  0.9930  0.1336  2.4106
  273MPD2    H1 4182   0.518   2.271  11.337  1.1707 -0.8303 -0.1015
  273MPD2    H2 4183   0.600   2.240  11.751  0.9626 -3.8453 -2.3947
  273MPD2    H3 4184   0.479   2.171  11.554  1.3669  0.0231  2.2636
  273MPD2     N 4185   0.632   2.512  11.292 -0.4066  0.8731 -0.0402
  273MPD2    H5 4186   0.546   2.501  11.239 -0.4629 -1.3805  0.4997
  273MPD2    N1 4187   0.751   2.473  11.759 -0.0983  0.3321  0.5641
  273MPD2    H7 4188   0.722   2.438  11.850 -1.4006  2.4373  0.9541
  274TMC3    C1 4189   0.657   2.726  11.191  0.8922 -0.0906 -0.3575
  274TMC3    C2 4190   0.539   2.717  11.119 -0.1619  0.8760 -0.2937
  274TMC3    C3 4191   0.494   2.826  11.061  0.4516 -0.5436 -0.3331
  274TMC3    C4 4192   0.726   2.847  11.202  0.3609 -0.0085 -0.4602
  274TMC3    C5 4193   0.684   2.951  11.135 -1.0777  0.3087 -0.3301
  274TMC3    C6 4194   0.563   2.945  11.064 -1.1366 -0.1959  0.0130
  274TMC3     C 4195   0.715   2.621  11.269 -0.5072 -0.6211  0.3816
  274TMC3     O 4196   0.826   2.646  11.309 -0.0951  0.2284 -0.0803
  274TMC3     H 4197   0.514   2.615  11.094 -0.5318  0.9450 -0.2156
  274TMC3    H1 4198   0.812   2.866  11.265  0.3930  1.4432 -0.9379
  274TMC3    H2 4199   0.528   3.034  11.014  0.3226 -0.7459 -2.0070
  274TMC3    C7 4200   0.685   3.082  11.195  0.1858  0.2681  1.2137
  274TMC3    C8 4201   0.361   2.837  11.004 -0.3151  0.6066  0.1751
  274TMC3    O1 4202   0.680   3.089  11.317 -0.5714  0.4672 -0.0574
  274TMC3    O2 4203   0.336   2.928  10.925 -0.0681  0.2465 -0.2758
  275MPD2     C 4204   0.859   0.637  14.433  0.5596 -0.3537  0.3727
  275MPD2    C1 4205   0.824   0.528  14.507  0.2198  0.1008 -0.2218
  275MPD2    C2 4206   0.710   0.455  14.467  0.2671 -0.4854 -0.2422
  275MPD2    C3 4207   0.633   0.496  14.355  0.0064  0.1676 -0.4949
  275MPD2    C4 4208   0.671   0.610  14.288 -0.1019 -0.5457  0.0117
  275MPD2    C5 4209   0.775   0.686  14.333  1.1001  0.1331  0.7079
  275MPD2     H 4210   0.675   0.366  14.518 -3.0250  1.6930  1.2793
  275MPD2    H1 4211   0.606   0.653  14.212  1.8475  0.2055 -1.2104
  275MPD2    H2 4212   0.952   0.689  14.448  0.1264  1.5488 -3.4538
  275MPD2    H3 4213   0.798   0.778  14.280 -1.1653 -0.2910 -1.0029
  275MPD2     N 4214   0.510   0.428  14.321  0.1328  0.1870 -0.1477
  275MPD2    H5 4215   0.445   0.467  14.254  1.0540  1.2874 -0.3978
  275MPD2    N1 4216   0.895   0.493  14.628  0.3183 -0.2144 -0.9223
  275MPD2    H7 4217   0.858   0.410  14.671  1.1608  0.0990  0.3904
  276TMC3    C1 4218   1.028   0.537  14.813  0.0481 -0.0793 -0.1123
  276TMC3    C2 4219   1.008   0.410  14.864  0.0460 -0.1772  0.4133
  276TMC3    C3 4220   1.032   0.395  15.001  0.3348  0.0076  0.7200
  276TMC3    C4 4221   1.070   0.645  14.892  0.6747 -0.3090  0.5361
  276TMC3    C5 4222   1.077   0.633  15.027  0.2507  0.2910 -0.3243
  276TMC3    C6 4223   1.064   0.507  15.079  0.8507 -0.1371  0.2028
  276TMC3     C 4224   1.000   0.567  14.678 -0.7046  0.4827  0.0800
  276TMC3     O 4225   1.049   0.669  14.634 -0.3836 -0.4043  0.1888
  276TMC3     H 4226   0.979   0.329  14.798 -0.3557  1.1575 -1.0400
  276TMC3    H1 4227   1.080   0.745  14.851  1.5921 -0.4322  0.4526
  276TMC3    H2 4228   1.087   0.495  15.184  0.7144 -0.6649  0.1673
  276TMC3    C7 4229   1.137   0.741  15.095  0.2135 -0.0584  0.3618
  276TMC3    C8 4230   1.087   0.264  15.039 -0.8501  0.5437 -0.0570
  276TMC3    O1 4231   1.067   0.832  15.138 -0.2172 -0.0941  0.1269
  276TMC3    O2 4232   1.160   0.242  15.135  0.1422  0.1455  0.1069
  277MPD2     C 4233   2.394   4.567  13.297  0.2543  0.4406 -0.1808
  277MPD2    C1 4234   2.258   4.586  13.311  0.0786 -0.5634 -0.1261
  277MPD2    C2 4235   2.180   4.509  13.396 -0.6226  0.5333 -0.6411
  277MPD2    C3 4236   2.244   4.404  13.467  0.7639  0.0079  0.9173
  277MPD2    C4 4237   2.378   4.380  13.443  0.3328  0.5027  0.0966
  277MPD2    C5 4238   2.454   4.468  13.372 -0.7406 -0.1481  0.3832
  277MPD2     H 4239   2.075   4.515  13.421 -0.1886 -1.4556  1.6756
  277MPD2    H1 4240   2.422   4.295  13.496 -0.4606 -0.1846 -0.3495
  277MPD2    H2 4241   2.456   4.627  13.231  0.2133 -1.1496 -1.6564
  277MPD2    H3 4242   2.561   4.447  13.374 -0.7687 -0.3053  0.2402
  277MPD2     N 4243   2.152   4.340  13.558 -0.1193  0.0769 -0.5307
  277MPD2    H5 4244   2.058   4.376  13.575  0.3246  1.0406 -0.1492
  277MPD2    N1 4245   2.211   4.698  13.243 -0.0082 -0.3719 -0.3249
  277MPD2    H7 4246   2.270   0.001  13.172  1.0119 -2.0559 -0.4843
  278TMC3    C1 4247   2.070   4.183  13.719 -0.3824  0.1578  0.0936
  278TMC3    C2 4248   2.075   4.046  13.738 -0.4312 -0.3254  0.1061
  278TMC3    C3 4249   1.959   3.975  13.743  0.7604  0.1131  0.8290
  278TMC3    C4 4250   1.947   4.249  13.713  1.0139 -0.1144  0.4430
  278TMC3    C5 4251   1.834   4.174  13.711  0.6136  0.4863 -0.4467
  278TMC3    C6 4252   1.838   4.041  13.722 -0.0866  0.5603  0.1358
  278TMC3     C 4253   2.182   4.234  13.643 -1.1087  0.7090 -0.2013
  278TMC3     O 4254   2.293   4.174  13.650 -0.2775  0.2960 -0.0764
  278TMC3     H 4255   2.172   3.998  13.748 -0.1310  0.1512 -0.4605
  278TMC3    H1 4256   1.938   4.357  13.708 -0.3541 -0.2679 -0.4486
  278TMC3    H2 4257   1.742   3.991  13.729 -0.6090  1.2841 -1.8854
  278TMC3    C7 4258   1.700   4.245  13.713  0.1364  1.5331  0.2033
  278TMC3    C8 4259   1.976   3.841  13.702  0.6331 -0.0272  0.2848
  278TMC3    O1 4260   1.697   4.338  13.791 -0.3883  0.2393 -0.1701
  278TMC3    O2 4261   2.076   3.791  13.747 -0.3701 -0.9586 -0.8546
  279MPD2     C 4262   2.067   4.378   0.017  1.0655  0.1961 -0.1339
  279MPD2    C1 4263   1.931   4.363  17.741  0.3523  0.5666 -0.6255
  279MPD2    C2 4264   1.889   4.419  17.618 -0.0573 -0.4688  0.0562
  279MPD2    C3 4265   1.969   4.489  17.535 -0.2955 -0.3377  0.0342
  279MPD2    C4 4266   2.104   4.493  17.557  0.1710  0.5957 -0.3380
  279MPD2    C5 4267   2.149   4.442  17.674  0.1479  0.1447  0.7293
  279MPD2     H 4268   1.789   4.391  17.589 -0.3332  0.7384 -0.1488
  279MPD2    H1 4269   2.182   4.542  17.500  0.2504 -0.6923 -1.3357
  279MPD2    H2 4270   2.110   4.337   0.108 -1.2808 -2.7493 -0.3512
  279MPD2    H3 4271   2.250   4.454  17.711  0.0601 -1.6314  1.5411
  279MPD2     N 4272   1.911   4.576  17.432  0.3644 -0.2429 -0.1671
  279MPD2    H5 4273   1.975   4.637  17.382  1.9120 -1.2698  0.5842
  279MPD2    N1 4274   1.838   4.305   0.076  0.1018  1.1892  0.0933
  279MPD2    H7 4275   1.742   4.298   0.044 -0.4340  1.5037  1.6260
  280TMC3    C1 4276   1.738   4.245   0.266 -0.2903 -0.2213 -0.3841
  280TMC3    C2 4277   1.694   4.139   0.194  0.0870  1.3338  0.0116
  280TMC3    C3 4278   1.569   4.146   0.138  0.0486 -0.2846 -0.5091
  280TMC3    C4 4279   1.654   4.350   0.296 -0.0220  0.1080  0.5718
  280TMC3    C5 4280   1.525   4.351   0.243 -0.7626  0.4287 -0.5807
  280TMC3    C6 4281   1.477   4.250   0.164  0.1726  0.3747  0.9663
  280TMC3     C 4282   1.863   4.288   0.210 -0.9440 -0.6737 -0.5943
  280TMC3     O 4283   1.947   4.335   0.282 -0.3745  0.4045 -0.3939
  280TMC3     H 4284   1.756   4.051   0.179 -0.7864  0.4192  1.7481
  280TMC3    H1 4285   1.696   4.438   0.343  2.8709 -0.2752 -1.3170
  280TMC3    H2 4286   1.374   4.252   0.131  0.4701 -3.5508 -0.2118
  280TMC3    C7 4287   1.453   4.475   0.267  0.7628  0.2840  0.2543
  280TMC3    C8 4288   1.521   4.024   0.073  0.3897  0.4682  0.1549
  280TMC3    O1 4289   1.490   4.547   0.359  0.3138 -0.4303 -0.8718
  280TMC3    O2 4290   1.444   4.042  17.736  0.1492  0.0731 -0.5104
  281TMC3    C1 4291   0.407   0.106  13.512  0.4322 -0.0084  0.7717
  281TMC3    C2 4292   0.463   0.170  13.405 -0.6143  0.1058 -0.7608
  281TMC3    C3 4293   0.535   0.094  13.314 -0.4635  0.4145  0.6072
  281TMC3    C4 4294   0.432   4.709  13.529  0.3534 -0.2578  0.1285
  281TMC3    C5 4295   0.515   4.647  13.442  0.2924  0.5932 -0.3364
  281TMC3    C6 4296   0.565   4.705  13.333  0.7517  0.5137  0.0810
  281TMC3     C 4297   0.282   0.146  13.566 -0.0867 -0.3580 -0.6754
  281TMC3     O 4298   0.211   0.066  13.625 -0.5566 -0.2302 -0.3717
  281TMC3     H 4299   0.455   0.278  13.397  2.7759  0.2084 -2.8873
  281TMC3    H1 4300   0.383   4.656  13.609 -0.5657  1.8536  0.9913
  281TMC3    H2 4301   0.613   4.645  13.256  0.3889 -2.7464  2.3964
  281TMC3    C7 4302   0.512   4.507  13.438 -0.0187 -0.8244  0.1769
  281TMC3    C8 4303   0.579   0.165  13.195 -0.1111 -0.3973 -0.1554
  281TMC3    O1 4304   0.617   4.453  13.418 -0.1719 -0.0627 -0.5768
  281TMC3    O2 4305   0.678   0.122  13.141  0.1645 -0.6608 -0.0765
  282MPD2     C 4306   1.977   1.102  14.619  0.2067 -0.3758  0.1024
  282MPD2    C1 4307   1.901   1.215  14.657  0.2031  0.0741 -0.1151
  282MPD2    C2 4308   1.810   1.273  14.564 -0.0792  0.1682  0.3594
  282MPD2    C3 4309   1.795   1.214  14.435 -0.5606 -0.1418  0.2107
  282MPD2    C4 4310   1.879   1.108  14.403  0.1158 -0.2295  0.5680
  282MPD2    C5 4311   1.962   1.052  14.491 -0.1912 -0.9443 -0.3897
  282MPD2     H 4312   1.735   1.341  14.602  0.0188  0.8752 -0.7213
  282MPD2    H1 4313   1.870   1.049  14.312 -1.2903  0.5672  0.1904
  282MPD2    H2 4314   2.034   1.046  14.692  1.0372 -1.1764 -1.1757
  282MPD2    H3 4315   2.025   0.971  14.458  2.3348  0.5793  0.6467
  282MPD2     N 4316   1.696   1.265  14.349  0.1199 -0.4614 -0.3558
  282MPD2    H5 4317   1.650   1.353  14.369  2.1658  0.6169 -0.3830
  282MPD2    N1 4318   1.895   1.259  14.788 -0.5958 -0.0440  0.8548
  282MPD2    H7 4319   1.855   1.352  14.800  2.6733  1.3437  0.7880
  283TMC3    C1 4320   1.929   1.262  15.019  0.1085 -0.9604  0.8655
  283TMC3    C2 4321   1.924   1.399  15.014 -0.2067 -0.2232  1.1771
  283TMC3    C3 4322   1.889   1.456  15.135  0.3408 -0.2293  0.0709
  283TMC3    C4 4323   1.911   1.185  15.132  0.0553 -0.7850  0.2689
  283TMC3    C5 4324   1.879   1.248  15.247 -0.3077  0.1611 -0.1182
  283TMC3    C6 4325   1.869   1.387  15.256  1.1317  0.2993  0.5129
  283TMC3     C 4326   1.942   1.182  14.892 -0.6055  0.7529 -0.4520
  283TMC3     O 4327   1.959   1.058  14.902  0.6527 -0.3734 -0.3389
  283TMC3     H 4328   1.941   1.464  14.929  1.8429  0.3314  2.0170
  283TMC3    H1 4329   1.935   1.079  15.132 -0.5848 -0.9400 -1.7562
  283TMC3    H2 4330   1.836   1.424  15.352  2.1784  2.9608 -0.1598
  283TMC3    C7 4331   1.777   1.184  15.325  0.7131 -0.2058  0.6019
  283TMC3    C8 4332   1.860   1.591  15.138  0.3031 -0.1003  0.4176
  283TMC3    O1 4333   1.754   1.232  15.436 -0.5147  0.2513 -0.4443
  283TMC3    O2 4334   1.848   1.634  15.252  0.2134 -0.1454  0.1563
  284MPD2     C 4335   4.187   0.862  11.852  0.6192 -0.7555  0.7318
  284MPD2    C1 4336   4.312   0.892  11.800  0.6746 -0.3238  0.9595
  284MPD2    C2 4337   4.423   0.823  11.851 -0.4805 -0.6071  0.1894
  284MPD2    C3 4338   4.411   0.725  11.949 -0.0241  0.2696  0.1669
  284MPD2    C4 4339   4.281   0.694  11.994  0.9028  0.3484 -0.3118
  284MPD2    C5 4340   4.175   0.768  11.950  0.1256  0.1039 -0.3340
  284MPD2     H 4341   4.526   0.835  11.817 -0.2278 -1.8730  0.5034
  284MPD2    H1 4342   4.270   0.620  12.072  1.0266  0.1232 -0.5074
  284MPD2    H2 4343   4.101   0.916  11.815  3.0652  1.8903 -1.1284
  284MPD2    H3 4344   4.073   0.749  11.980  0.0372  1.0480 -0.0258
  284MPD2     N 4345   4.523   0.654  12.000  0.0525  0.4689  0.3056
  284MPD2    H5 4346   4.501   0.578  12.064 -2.4631  0.1442 -0.9188
  284MPD2    N1 4347   4.340   0.982  11.692 -0.3765 -0.1546 -0.0627
  284MPD2    H7 4348   4.437   0.979  11.665 -0.8223  0.8911 -1.8104
  285TMC3    C1 4349   4.287   1.107  11.508 -0.1892 -0.5104 -0.2403
  285TMC3    C2 4350   4.385   1.028  11.451 -0.5649  0.5727  0.1726
  285TMC3    C3 4351   4.477   1.099  11.380 -0.1721  0.0745  0.2514
  285TMC3    C4 4352   4.271   1.238  11.502  0.6988  0.3853  0.5348
  285TMC3    C5 4353   4.366   1.301  11.429  0.0613  0.2275  1.0622
  285TMC3    C6 4354   4.462   1.231  11.359 -0.3160 -0.6094  0.1867
  285TMC3     C 4355   4.248   1.062  11.636 -0.7226  0.0265 -0.7280
  285TMC3     O 4356   4.134   1.086  11.673  0.1317 -0.1410 -0.4623
  285TMC3     H 4357   4.388   0.922  11.472  0.4807  0.6327  0.3051
  285TMC3    H1 4358   4.197   1.281  11.568 -0.5905 -1.4431  0.2826
  285TMC3    H2 4359   4.545   1.289  11.319 -0.2696 -0.6226  0.2640
  285TMC3    C7 4360   4.374   1.450  11.422 -0.1916 -0.3520  0.2628
  285TMC3    C8 4361   4.611   1.051  11.386  0.5141 -0.1853 -0.2047
  285TMC3    O1 4362   4.477   1.489  11.374 -0.6902 -0.3160 -0.1358
  285TMC3    O2 4363   4.644   1.002  11.495  0.1763 -0.0197  0.2502
  286MPD2     C 4364   0.878   3.863   1.435 -0.3266  0.2256 -0.7847
  286MPD2    C1 4365   0.845   3.827   1.304 -0.0580 -0.2382 -0.1352
  286MPD2    C2 4366   0.933   3.766   1.220 -0.2298  0.2070  0.1913
  286MPD2    C3 4367   1.052   3.719   1.267  0.9025  0.5159 -0.2993
  286MPD2    C4 4368   1.087   3.748   1.396  0.1035  0.0571  0.2623
  286MPD2    C5 4369   1.007   3.828   1.472  0.5624 -0.0464  0.0988
  286MPD2     H 4370   0.892   3.742   1.122 -0.1295 -2.6917  0.8553
  286MPD2    H1 4371   1.177   3.718   1.449 -0.7588 -0.8230  1.2388
  286MPD2    H2 4372   0.808   3.921   1.493 -1.0014 -0.2253 -1.1454
  286MPD2    H3 4373   1.047   3.848   1.571 -0.0837  0.2418  0.3007
  286MPD2     N 4374   1.145   3.656   1.191 -0.1461 -0.5238  0.2938
  286MPD2    H5 4375   1.217   3.611   1.247  0.6357 -0.4135 -0.6227
  286MPD2    N1 4376   0.728   3.872   1.238  0.5680  0.1571  0.0741
  286MPD2    H7 4377   0.710   3.841   1.142 -3.1136  1.4674  0.3405
  287TMC3    C1 4378   1.251   3.603   0.983 -0.2173 -0.2091 -1.0062
  287TMC3    C2 4379   1.236   3.581   0.847 -0.5479 -0.1158  0.4218
  287TMC3    C3 4380   1.352   3.535   0.799  1.6273 -0.2084 -0.5309
  287TMC3    C4 4381   1.369   3.593   1.055 -0.2588 -0.4267  0.1781
  287TMC3    C5 4382   1.478   3.529   0.998  0.7820 -0.5190  0.8082
  287TMC3    C6 4383   1.469   3.502   0.866 -0.3807  0.1499  0.0181
  287TMC3     C 4384   1.141   3.648   1.053 -0.4949  0.0690  0.0768
  287TMC3     O 4385   1.056   3.700   0.980  0.2955  0.2482  0.6455
  287TMC3     H 4386   1.141   3.581   0.796 -1.3211 -3.6539  1.8784
  287TMC3    H1 4387   1.377   3.619   1.160 -0.9517  1.3415 -0.2045
  287TMC3    H2 4388   1.554   3.459   0.813 -1.3811 -3.4162  1.3525
  287TMC3    C7 4389   1.608   3.558   1.060 -0.0752  0.3092 -1.0031
  287TMC3    C8 4390   1.361   3.540   0.656 -0.2982 -0.7007 -0.0394
  287TMC3    O1 4391   1.606   3.649   1.143  0.0792 -0.1832 -0.1519
  287TMC3    O2 4392   1.451   3.471   0.609 -0.2178  0.0176  0.0363
  288TMC3    C1 4393   2.928   3.928  14.147 -0.0174  0.2604 -0.7406
  288TMC3    C2 4394   2.794   3.935  14.144  0.2265 -0.0548 -0.0807
  288TMC3    C3 4395   2.734   4.061  14.140 -1.1190 -0.8387 -0.4723
  288TMC3    C4 4396   3.006   4.032  14.103  0.0164  0.5426  0.2542
  288TMC3    C5 4397   2.943   4.156  14.096  0.1120  0.0588 -0.4806
  288TMC3    C6 4398   2.810   4.167  14.112 -0.1929  0.1125  0.4468
  288TMC3     C 4399   2.996   3.823  14.222 -0.3399  0.5305  0.7631
  288TMC3     O 4400   2.928   3.771  14.313  0.1337  0.6569 -0.7045
  288TMC3     H 4401   2.741   3.841  14.158  0.9862 -0.6595 -1.2862
  288TMC3    H1 4402   3.110   4.012  14.080  0.5696  2.2143  1.3214
  288TMC3    H2 4403   2.764   4.265  14.111 -1.3070 -0.4387 -2.6238
  288TMC3    C7 4404   3.001   4.230  13.987 -0.2157  0.6565  0.2986
  288TMC3    C8 4405   2.591   4.071  14.133  0.9599 -0.6133  0.1651
  288TMC3    O1 4406   3.122   4.222  13.966 -0.4251  0.4652  0.3721
  288TMC3    O2 4407   2.557   4.188  14.147 -0.5237 -0.3813  0.3129
  289MPD2     C 4408   2.377   2.909  14.083  0.0632  0.1669  0.3489
  289MPD2    C1 4409   2.397   3.033  14.027  0.0891  0.6516 -0.5825
  289MPD2    C2 4410   2.303   3.077  13.934 -0.3949 -0.6568  0.0599
  289MPD2    C3 4411   2.196   3.001  13.896  0.8686  0.9233  0.3663
  289MPD2    C4 4412   2.187   2.871  13.941  0.5785 -0.0627 -0.3985
  289MPD2    C5 4413   2.276   2.835  14.038 -0.6321  1.0193 -0.2320
  289MPD2     H 4414   2.319   3.173  13.887  0.7851  0.1477  2.1273
  289MPD2    H1 4415   2.113   2.799  13.906 -0.0524  0.6146 -0.4541
  289MPD2    H2 4416   2.454   2.860  14.141 -0.2609 -0.7391  0.0203
  289MPD2    H3 4417   2.274   2.731  14.068 -0.0173  0.8293 -0.8583
  289MPD2     N 4418   2.094   3.053  13.802 -0.1562 -0.0902 -0.9139
  289MPD2    H5 4419   2.015   3.005  13.760 -1.6701  0.3900  1.3312
  289MPD2    N1 4420   2.510   3.110  14.069 -0.0889  0.6678 -0.1611
  289MPD2    H7 4421   2.564   3.069  14.144  0.0576 -0.2247 -0.7433
  290TMC3    C1 4422   1.962   3.217  13.700 -0.3215 -0.5125  0.2427
  290TMC3    C2 4423   1.875   3.313  13.737  0.6064  0.0279 -0.0311
  290TMC3    C3 4424   1.770   3.326  13.649 -0.1517 -0.1352 -0.5064
  290TMC3    C4 4425   1.946   3.138  13.592  0.3643 -0.6761  0.0166
  290TMC3    C5 4426   1.843   3.170  13.506 -0.1229  1.0118  0.2329
  290TMC3    C6 4427   1.748   3.254  13.533 -0.3570  0.5621 -0.6503
  290TMC3     C 4428   2.076   3.189  13.786  0.3752  0.0386  0.4656
  290TMC3     O 4429   2.134   3.287  13.830 -0.7443 -0.1262  0.2297
  290TMC3     H 4430   1.877   3.349  13.839 -2.3849 -0.7374  0.2861
  290TMC3    H1 4431   2.021   3.063  13.569  2.4125  1.0246  1.0369
  290TMC3    H2 4432   1.670   3.276  13.461 -2.0336 -0.5524  0.8609
  290TMC3    C7 4433   1.821   3.085  13.396  0.5041 -0.6385 -0.8686
  290TMC3    C8 4434   1.676   3.438  13.673 -0.0550  0.4396  0.4459
  290TMC3    O1 4435   1.766   3.128  13.298 -0.3475 -0.3411  0.6620
  290TMC3    O2 4436   1.575   3.447  13.603 -0.2447  0.2680 -0.4433
  291MPD2     C 4437   2.612   2.477   0.740 -0.0260 -0.7932 -0.2554
  291MPD2    C1 4438   2.519   2.473   0.636 -0.3481 -1.0476  0.3351
  291MPD2    C2 4439   2.562   2.512   0.507  0.4144  0.0732  0.4300
  291MPD2    C3 4440   2.689   2.553   0.489  0.4302  0.1147 -0.2889
  291MPD2    C4 4441   2.776   2.549   0.591  0.4679  0.1272  0.4033
  291MPD2    C5 4442   2.739   2.515   0.718  0.2134 -0.4768 -0.0571
  291MPD2     H 4443   2.496   2.529   0.423  1.3211 -0.8136 -0.4561
  291MPD2    H1 4444   2.881   2.576   0.580 -0.4008  4.2706  2.0283
  291MPD2    H2 4445   2.587   2.446   0.841 -1.4487  1.2533  0.0367
  291MPD2    H3 4446   2.819   2.513   0.790  0.1461  1.1397  0.0644
  291MPD2     N 4447   2.728   2.604   0.355  0.6852 -0.4980 -0.4920
  291MPD2    H5 4448   2.665   2.601   0.276  0.2876 -0.6489 -0.1751
  291MPD2    N1 4449   2.385   2.432   0.648  0.4913  0.4485 -0.4719
  291MPD2    H7 4450   2.323   2.444   0.569 -0.1042  2.4973  0.2983
  292TMC3    C1 4451   2.198   2.323   0.755 -0.0386  0.2655  0.1806
  292TMC3    C2 4452   2.129   2.307   0.867 -0.1626  0.7588 -1.3237
  292TMC3    C3 4453   2.008   2.250   0.862 -0.6487 -0.5121  0.1426
  292TMC3    C4 4454   2.151   2.289   0.633  0.0150  0.5235 -0.1332
  292TMC3    C5 4455   2.035   2.221   0.628 -0.7568 -0.8036 -0.1021
  292TMC3    C6 4456   1.960   2.196   0.742 -1.0317 -0.5871 -0.1103
  292TMC3     C 4457   2.339   2.373   0.764  0.8054 -0.0952  0.3239
  292TMC3     O 4458   2.392   2.344   0.867 -0.3345 -0.4880 -0.0430
  292TMC3     H 4459   2.168   2.343   0.962 -2.0353 -0.3715 -0.1358
  292TMC3    H1 4460   2.213   2.290   0.544  0.9653  0.2167  0.5280
  292TMC3    H2 4461   1.880   2.123   0.736  0.5503 -2.2564 -0.9366
  292TMC3    C7 4462   1.982   2.176   0.503 -0.6888  0.1287 -0.0586
  292TMC3    C8 4463   1.983   2.175   0.986 -0.4423 -0.0754  0.1376
  292TMC3    O1 4464   2.066   2.135   0.426  0.4185 -0.1018  0.2553
  292TMC3    O2 4465   2.080   2.172   1.059  0.1542 -0.1996  0.1293
  293MPD2     C 4466   3.372   0.074  12.620 -0.2952  0.1316 -0.4009
  293MPD2    C1 4467   3.321   4.689  12.651 -0.1193  0.2998 -0.5643
  293MPD2    C2 4468   3.362   4.628  12.769 -0.3121 -0.3378  0.1315
  293MPD2    C3 4469   3.467   4.678  12.849 -0.8356  0.2991  0.0096
  293MPD2    C4 4470   3.523   0.056  12.803  0.1997  0.5034 -1.0993
  293MPD2    C5 4471   3.475   0.126  12.698 -0.2854  0.2401  0.6467
  293MPD2     H 4472   3.318   4.533  12.799 -1.6266  0.6365  1.2467
  293MPD2    H1 4473   3.614   0.090  12.851 -0.4073 -1.5667  1.4657
  293MPD2    H2 4474   3.345   0.128  12.530 -2.4977 -0.3300 -0.0198
  293MPD2    H3 4475   3.523   0.221  12.673 -1.0483  0.8041  1.3183
  293MPD2     N 4476   3.528   4.615  12.959 -0.6568 -0.2162 -0.1522
  293MPD2    H5 4477   3.588   4.668  13.022 -2.6446  2.2483 -0.2978
  293MPD2    N1 4478   3.216   4.644  12.574  0.4825 -0.3519  0.7395
  293MPD2    H7 4479   3.185   4.721  12.515 -1.1125 -1.8370 -0.3699
  294TMC3    C1 4480   3.030   4.521  12.496  1.0685  0.4580  0.5302
  294TMC3    C2 4481   2.946   4.416  12.513  0.8632 -0.2356 -0.0455
  294TMC3    C3 4482   2.840   4.411  12.432 -0.2200 -0.2366  0.2906
  294TMC3    C4 4483   2.996   4.617  12.402  0.4600 -0.1292  0.5795
  294TMC3    C5 4484   2.891   4.601  12.319 -0.0392 -0.0001  0.2586
  294TMC3    C6 4485   2.807   4.499  12.342  0.2722 -0.1122  0.0525
  294TMC3     C 4486   3.147   4.527  12.585  0.2955 -0.1810 -0.7073
  294TMC3     O 4487   3.169   4.429  12.654  0.1678  0.2608 -0.2934
  294TMC3     H 4488   2.963   4.337  12.585 -1.5531 -1.4280 -0.7517
  294TMC3    H1 4489   3.044   4.714  12.404  1.6591 -0.7511  2.1614
  294TMC3    H2 4490   2.713   4.480  12.292  0.4310  2.0970 -1.1166
  294TMC3    C7 4491   2.897   4.638  12.183 -0.0357  0.4312  0.1524
  294TMC3    C8 4492   2.740   4.308  12.456  0.0652 -0.4540 -0.3415
  294TMC3    O1 4493   2.802   4.602  12.119 -0.0297  0.2152 -0.3043
  294TMC3    O2 4494   2.724   4.281  12.576 -0.2952  0.2487 -0.2345
  295MPD2     C 4495   4.111   3.810   1.027 -0.0715 -0.6911  0.7722
  295MPD2    C1 4496   4.070   3.676   0.999 -0.0735 -0.3642 -0.6199
  295MPD2    C2 4497   4.023   3.601   1.103 -0.3767  0.3593 -0.0166
  295MPD2    C3 4498   4.021   3.649   1.233 -0.5065 -0.0403 -0.2589
  295MPD2    C4 4499   4.065   3.774   1.259  0.1122 -0.4467 -0.0346
  295MPD2    C5 4500   4.118   3.849   1.158  0.5784  0.2262 -0.5830
  295MPD2     H 4501   3.994   3.500   1.076  2.1360  0.0631 -1.6317
  295MPD2    H1 4502   4.053   3.819   1.357 -1.1921 -0.0353 -0.3882
  295MPD2    H2 4503   4.140   3.886   0.955  1.5647 -0.4504  1.6813
  295MPD2    H3 4504   4.151   3.950   1.177  2.3501 -0.5587  0.5362
  295MPD2     N 4505   3.960   3.576   1.333  0.4631 -0.1387 -0.0394
  295MPD2    H5 4506   3.939   3.630   1.417 -0.7040 -1.1666  0.3284
  295MPD2    N1 4507   4.060   3.626   0.866  0.3080 -0.2635 -0.1114
  295MPD2    H7 4508   4.042   3.528   0.845  0.6288 -0.2406 -0.4916
  296TMC3    C1 4509   3.820   3.402   1.434  0.7761 -0.1824 -0.0959
  296TMC3    C2 4510   3.742   3.489   1.502  0.0470  0.0640 -0.1716
  296TMC3    C3 4511   3.676   3.449   1.619  0.3313 -0.2423  0.3724
  296TMC3    C4 4512   3.831   3.271   1.475  0.5509  0.0790  0.3624
  296TMC3    C5 4513   3.765   3.238   1.592 -0.0575 -0.1198 -0.2401
  296TMC3    C6 4514   3.684   3.318   1.663  0.1552 -0.7966  0.1430
  296TMC3     C 4515   3.911   3.442   1.322 -0.2700  0.0812  0.3257
  296TMC3     O 4516   3.940   3.350   1.249  0.3307 -0.1969 -0.2699
  296TMC3     H 4517   3.722   3.585   1.457  1.3151 -1.5999 -4.2891
  296TMC3    H1 4518   3.897   3.201   1.425  0.7576  0.1827  0.4854
  296TMC3    H2 4519   3.616   3.283   1.740  1.0973 -0.8707  0.9496
  296TMC3    C7 4520   3.778   3.106   1.643 -0.6572  0.1491 -0.3406
  296TMC3    C8 4521   3.580   3.529   1.691 -0.4925  0.5635  0.2761
  296TMC3    O1 4522   3.795   3.096   1.764 -0.0978 -0.0573  0.3859
  296TMC3    O2 4523   3.526   3.486   1.792  0.1630  0.0961 -0.1656
  297MPD2     C 4524   1.254   4.699  16.287  0.3641  0.5931 -0.3970
  297MPD2    C1 4525   1.232   4.711  16.148 -0.2970 -0.7855  0.1672
  297MPD2    C2 4526   1.313   0.065  16.081 -0.3260  0.2640 -0.7593
  297MPD2    C3 4527   1.414   0.141  16.141 -0.1372  0.4693 -0.3894
  297MPD2    C4 4528   1.431   0.123  16.273 -0.3385 -0.0291  0.1050
  297MPD2    C5 4529   1.356   0.036  16.350  0.8326  0.0997 -1.0241
  297MPD2     H 4530   1.302   0.072  15.973  2.6806 -0.8102 -1.1443
  297MPD2    H1 4531   1.510   0.168  16.332  0.5662 -1.2088 -0.1957
  297MPD2    H2 4532   1.193   4.643  16.357 -1.8764  2.4189 -0.9080
  297MPD2    H3 4533   1.361   0.039  16.458  1.1156 -0.7772 -1.0091
  297MPD2     N 4534   1.492   0.236  16.072 -0.1741 -0.0210  0.5316
  297MPD2    H5 4535   1.490   0.227  15.971  0.5011  0.2445  0.4968
  297MPD2    N1 4536   1.128   4.640  16.077  0.2091 -0.0138  0.2989
  297MPD2    H7 4537   1.112   4.670  15.981 -0.7928  0.7938  0.7248
  298TMC3    C1 4538   0.927   4.552  16.033 -0.3580  0.3536 -0.2479
  298TMC3    C2 4539   0.938   4.526  15.900  0.3243 -0.3491 -0.4335
  298TMC3    C3 4540   0.845   4.578  15.812  0.5558 -0.0857 -0.1392
  298TMC3    C4 4541   0.833   4.637  16.077  0.5537  0.3331  0.2002
  298TMC3    C5 4542   0.732   4.682  15.993 -0.1639  0.1798 -0.2019
  298TMC3    C6 4543   0.735   4.645  15.859 -0.5919 -0.0193  0.0029
  298TMC3     C 4544   1.040   4.553  16.120  0.0746 -0.0743 -0.2156
  298TMC3     O 4545   1.016   4.517  16.238  0.1726  0.0839  0.3381
  298TMC3     H 4546   1.029   4.476  15.867  0.9823 -0.1827  1.1265
  298TMC3    H1 4547   0.837   4.670  16.180 -1.1472  0.1846  0.3075
  298TMC3    H2 4548   0.646   4.662  15.799 -0.5221  0.6952  0.1038
  298TMC3    C7 4549   0.652   0.053  16.041 -0.1687 -0.1056 -0.0887
  298TMC3    C8 4550   0.855   4.551  15.672  0.1330 -0.3708  0.2225
  298TMC3    O1 4551   0.646   0.062  16.163 -0.0126  0.7125 -0.1255
  298TMC3    O2 4552   0.917   4.452  15.636  0.0901 -0.0094 -0.3379
  299MPD2     C 4553   1.571   0.085  10.736  0.7660  0.0608  0.4505
  299MPD2    C1 4554   1.536   0.216  10.724 -0.0510 -0.3079  0.2166
  299MPD2    C2 4555   1.403   0.245  10.692 -0.1458 -0.4460 -0.0816
  299MPD2    C3 4556   1.313   0.143  10.677 -0.5080 -0.1841  0.1861
  299MPD2    C4 4557   1.348   0.010  10.678 -0.6009  0.4102  0.2768
  299MPD2    C5 4558   1.481   4.724  10.715  0.2991  0.0229  0.2016
  299MPD2     H 4559   1.374   0.349  10.680 -1.1923 -0.8050 -0.5907
  299MPD2    H1 4560   1.284   4.667  10.646 -0.6579  1.1309 -1.3917
  299MPD2    H2 4561   1.665   0.045  10.770  0.5230 -0.7850  0.1299
  299MPD2    H3 4562   1.520   4.623  10.717  1.6216  0.5153 -0.9906
  299MPD2     N 4563   1.172   0.172  10.674  0.8006 -0.3631  0.2742
  299MPD2    H5 4564   1.155   0.268  10.646 -0.9160 -0.3461  1.3973
  299MPD2    N1 4565   1.632   0.307  10.776  0.3232  0.2277  0.3550
  299MPD2    H7 4566   1.713   0.262  10.816 -0.2509 -0.4751  0.7259
  300TMC3    C1 4567   0.942   0.127  10.666  0.5533  0.4993 -0.3062
  300TMC3    C2 4568   0.926   0.206  10.551 -0.1235  0.2071  0.0081
  300TMC3    C3 4569   0.800   0.224  10.510  0.2927  0.1258  0.8313
  300TMC3    C4 4570   0.841   0.067  10.734  0.1495 -0.5615  0.3334
  300TMC3    C5 4571   0.713   0.102  10.693 -0.1300  0.5445 -0.0627
  300TMC3    C6 4572   0.696   0.182  10.585 -0.5055 -0.5335 -0.2993
  300TMC3     C 4573   1.075   0.087  10.703  0.0797  0.0237 -0.1614
  300TMC3     O 4574   1.078   4.723  10.769  0.2055  0.3915  0.6325
  300TMC3     H 4575   1.010   0.242  10.493  1.2435 -1.1476  1.1817
  300TMC3    H1 4576   0.863   0.009  10.823  1.4722 -1.1703 -0.3932
  300TMC3    H2 4577   0.598   0.215  10.553 -0.3318 -0.0564 -0.3353
  300TMC3    C7 4578   0.590   0.077  10.768 -0.8234 -0.0909 -0.4803
  300TMC3    C8 4579   0.787   0.320  10.405  0.2907 -0.7224 -0.3559
  300TMC3    O1 4580   0.493   0.039  10.711  0.6039 -0.2515 -0.6527
  300TMC3    O2 4581   0.736   0.287  10.296 -0.2036 -0.1821  0.0490
  301MPD2     C 4582   4.291   1.573   0.947 -0.2482 -0.3335  0.4285
  301MPD2    C1 4583   4.187   1.540   0.860  0.2303  0.0452  0.1301
  301MPD2    C2 4584   4.146   1.412   0.840 -0.6288 -0.0044 -0.1543
  301MPD2    C3 4585   4.213   1.312   0.897  0.0006 -0.5896  0.2387
  301MPD2    C4 4586   4.317   1.339   0.985  0.0456 -0.3470  0.1031
  301MPD2    C5 4587   4.355   1.473   1.012 -0.1867  0.0494 -0.6731
  301MPD2     H 4588   4.059   1.388   0.779  0.1165 -1.8150 -0.4698
  301MPD2    H1 4589   4.358   1.256   1.042  1.5204  1.3314  1.4785
  301MPD2    H2 4590   4.313   1.676   0.973  0.2939 -0.0145 -1.3234
  301MPD2    H3 4591   4.422   1.504   1.091  1.4665 -0.3143 -1.9537
  301MPD2     N 4592   4.175   1.179   0.884  0.6538 -0.3140 -0.0268
  301MPD2    H5 4593   4.226   1.110   0.939  1.7546  0.0876 -0.5473
  301MPD2    N1 4594   4.109   1.633   0.793  0.2599  0.0526  0.3143
  301MPD2    H7 4595   4.035   1.599   0.733  1.1990 -2.3159  0.4915
  302TMC3    C1 4596   4.043   0.990   0.815  0.1846 -0.5196 -0.8646
  302TMC3    C2 4597   4.134   0.889   0.851 -0.4993 -0.1796  0.1722
  302TMC3    C3 4598   4.101   0.756   0.831  0.5344 -0.0736  0.6230
  302TMC3    C4 4599   3.916   0.961   0.776  0.0559  0.4592  0.0863
  302TMC3    C5 4600   3.881   0.822   0.767 -0.1346  0.6235  0.1492
  302TMC3    C6 4601   3.976   0.724   0.782 -0.0011 -0.2916  0.3958
  302TMC3     C 4602   4.079   1.134   0.792  0.2583 -0.8682 -0.5806
  302TMC3     O 4603   4.001   1.191   0.719  0.3713  0.4758 -0.2085
  302TMC3     H 4604   4.231   0.923   0.885 -1.1634 -2.0600  3.9271
  302TMC3    H1 4605   3.850   1.043   0.750 -1.2331  0.0830  2.1071
  302TMC3    H2 4606   3.954   0.621   0.756 -0.4633 -0.3917  1.1994
  302TMC3    C7 4607   3.758   0.776   0.695 -0.0575 -0.3374 -0.5127
  302TMC3    C8 4608   4.180   0.646   0.882 -0.9877 -0.4280 -0.2119
  302TMC3    O1 4609   3.758   0.663   0.644  0.5157  0.3021  0.8267
  302TMC3    O2 4610   4.138   0.531   0.881 -0.2974  0.6389  0.3408
  303MPD2     C 4611   3.058   4.733  10.641 -0.2110  0.5399  0.2715
  303MPD2    C1 4612   3.166   4.669  10.583 -0.7007  0.2768 -0.2275
  303MPD2    C2 4613   3.193   4.695  10.448  1.0287 -0.1451 -0.2407
  303MPD2    C3 4614   3.106   0.029  10.376 -0.2560  0.5644 -0.5009
  303MPD2    C4 4615   2.999   0.086  10.437 -0.1925  0.0696 -0.3655
  303MPD2    C5 4616   2.973   0.072  10.570  0.0104 -0.1388 -0.0967
  303MPD2     H 4617   3.286   4.661  10.404  0.9448 -0.1610 -0.4028
  303MPD2    H1 4618   2.938   0.155  10.379 -0.7073 -1.1085 -1.2084
  303MPD2    H2 4619   3.035   4.711  10.745 -0.2776  0.3184  0.2103
  303MPD2    H3 4620   2.883   0.119  10.607 -0.3028  0.7704 -1.9978
  303MPD2     N 4621   3.121   0.057  10.239 -0.0925  0.1711  0.3796
  303MPD2    H5 4622   3.049   0.111  10.192  0.1823 -0.5802 -0.8983
  303MPD2    N1 4623   3.255   4.587  10.660  0.2526  0.9952 -0.2428
  303MPD2    H7 4624   3.253   4.600  10.761 -0.7328  0.7897 -0.2415
  304TMC3    C1 4625   3.416   4.428  10.715  0.1039 -0.3127  0.9073
  304TMC3    C2 4626   3.338   4.388  10.821  0.4307  0.6909  0.1142
  304TMC3    C3 4627   3.361   4.264  10.870 -0.4210  0.2016 -0.0424
  304TMC3    C4 4628   3.517   4.356  10.668  0.3917  0.0581  0.1548
  304TMC3    C5 4629   3.545   4.233  10.723 -0.2537 -0.0815 -0.2603
  304TMC3    C6 4630   3.463   4.185  10.823  0.3349  0.3935 -0.4387
  304TMC3     C 4631   3.348   4.503  10.607 -1.1851 -0.1632 -0.5351
  304TMC3     O 4632   3.368   4.468  10.491 -0.1880 -0.1299  0.4188
  304TMC3     H 4633   3.243   4.429  10.852 -1.6937 -2.9477 -1.6485
  304TMC3    H1 4634   3.570   4.385  10.578 -1.2576 -0.1417 -0.8820
  304TMC3    H2 4635   3.470   4.083  10.858  0.9228  1.0015  1.2153
  304TMC3    C7 4636   3.546   4.133  10.614 -0.5559 -0.2372  0.1811
  304TMC3    C8 4637   3.242   4.194  10.879 -0.0959 -0.5622 -0.2933
  304TMC3    O1 4638   3.476   4.160  10.515  0.4673 -0.4759  0.2740
  304TMC3    O2 4639   3.147   4.229  10.812  0.2023  0.0516  0.3903
  305MPD2     C 4640   1.892   1.549  14.072  0.0343 -0.2607 -0.1709
  305MPD2    C1 4641   1.968   1.443  14.103  0.3678 -0.1438  0.1806
  305MPD2    C2 4642   1.968   1.329  14.025 -0.1489 -0.7843  0.0554
  305MPD2    C3 4643   1.904   1.336  13.900  0.8225  0.2840  0.4151
  305MPD2    C4 4644   1.832   1.446  13.861 -0.5474  0.5362 -0.7729
  305MPD2    C5 4645   1.833   1.554  13.948 -0.4189  0.1816 -0.1370
  305MPD2     H 4646   2.029   1.244  14.053  2.0926  1.1343  1.0231
  305MPD2    H1 4647   1.779   1.439  13.767 -0.3998  0.4212 -0.8480
  305MPD2    H2 4648   1.892   1.643  14.126 -0.3911 -0.9355  1.0086
  305MPD2    H3 4649   1.770   1.636  13.916  0.9484  2.3531  2.7193
  305MPD2     N 4650   1.903   1.233  13.805 -0.2649 -0.5280  0.9008
  305MPD2    H5 4651   1.848   1.252  13.722  1.6794  0.8549 -0.0690
  305MPD2    N1 4652   2.041   1.450  14.227 -0.1248  0.3554  0.6002
  305MPD2    H7 4653   2.036   1.533  14.284 -0.2622  0.9443 -0.2681
  306TMC3    C1 4654   2.172   1.353  14.408  0.0614 -0.0111  0.1220
  306TMC3    C2 4655   2.281   1.279  14.437 -0.7008 -0.0820  0.2820
  306TMC3    C3 4656   2.326   1.272  14.564 -1.2985 -0.1709 -0.0032
  306TMC3    C4 4657   2.112   1.426  14.507 -0.8572  0.3294  0.3675
  306TMC3    C5 4658   2.162   1.413  14.638 -0.5089 -0.4532  0.0434
  306TMC3    C6 4659   2.263   1.331  14.672  0.0768  0.0630  0.5447
  306TMC3     C 4660   2.124   1.344  14.268 -0.5688  0.3371  0.2929
  306TMC3     O 4661   2.163   1.246  14.211 -0.3482  0.1806 -0.0491
  306TMC3     H 4662   2.339   1.222  14.365 -2.3815 -0.1726 -1.0000
  306TMC3    H1 4663   2.043   1.507  14.489 -1.6785 -0.1685  1.2471
  306TMC3    H2 4664   2.304   1.328  14.772  1.1377  2.7058  0.1696
  306TMC3    C7 4665   2.128   1.524  14.720 -0.5153 -0.2713  0.2810
  306TMC3    C8 4666   2.417   1.170  14.588  0.2530 -0.3276 -0.7277
  306TMC3    O1 4667   2.010   1.565  14.740  0.0059  1.2918  0.4644
  306TMC3    O2 4668   2.396   1.064  14.532  0.2164  0.0346 -0.0252
  307MPD2     C 4669   0.494   3.957   0.265  0.6659  0.0332 -0.8137
  307MPD2    C1 4670   0.502   4.091   0.228 -0.3554  0.3731 -0.4616
  307MPD2    C2 4671   0.473   4.189   0.321 -0.4437  0.1869 -0.2600
  307MPD2    C3 4672   0.432   4.162   0.445 -0.2205  0.2984 -0.1624
  307MPD2    C4 4673   0.439   4.031   0.486  0.2414 -0.2263 -0.1557
  307MPD2    C5 4674   0.479   3.936   0.399  0.5664 -0.0215  0.5831
  307MPD2     H 4675   0.463   4.294   0.296  2.5299  0.6364  0.4699
  307MPD2    H1 4676   0.418   3.994   0.585 -0.5180 -0.2763 -0.3343
  307MPD2    H2 4677   0.530   3.874   0.205  0.1306 -0.2108 -0.7974
  307MPD2    H3 4678   0.475   3.832   0.430  1.6628 -0.2648 -0.0898
  307MPD2     N 4679   0.376   4.258   0.529 -0.0311 -0.9305 -0.2095
  307MPD2    H5 4680   0.349   4.228   0.622 -0.0020 -0.4167 -0.0314
  307MPD2    N1 4681   0.516   4.139   0.099  0.0165 -0.1673 -0.3427
  307MPD2    H7 4682   0.527   4.240   0.092 -1.3042 -0.0336 -0.4663
  308TMC3    C1 4683   0.091   4.440   0.746  0.7183 -0.1383  0.2633
  308TMC3    C2 4684   0.064   4.573   0.732 -0.4111 -0.6287 -0.0111
  308TMC3    C3 4685   0.145   4.641   0.645 -0.0909  0.1046 -0.2465
  308TMC3    C4 4686   0.195   4.382   0.682  0.1954  0.0036 -0.2265
  308TMC3    C5 4687   0.279   4.452   0.605 -0.5784  0.3132 -0.1049
  308TMC3    C6 4688   0.252   4.585   0.580  0.4297 -0.2396  0.5068
  308TMC3     C 4689   4.715   4.359   0.785  0.6105 -0.3701  0.3827
  308TMC3     O 4690   4.730   4.262   0.857 -0.1147 -0.8289  0.3188
  308TMC3     H 4691   4.732   4.608   0.806 -0.5515 -0.3220 -0.2884
  308TMC3    H1 4692   0.206   4.279   0.713  0.0585 -0.8216 -2.9030
  308TMC3    H2 4693   0.322   4.651   0.530 -0.2140  0.3909  0.4288
  308TMC3    C7 4694   0.366   4.391   0.507  0.7375 -0.0478 -0.0616
  308TMC3    C8 4695   0.107   0.042   0.641 -0.2520 -0.1062  0.2732
  308TMC3    O1 4696   0.441   4.463   0.445  0.1507 -0.2262  0.2029
  308TMC3    O2 4697   0.012   0.075   0.708  0.3667 -0.2553 -0.6755
  309MPD2     C 4698   4.075   4.615  17.317  0.0270 -0.2188 -0.5766
  309MPD2    C1 4699   4.038   4.721  17.230 -0.2435  0.1141 -0.0099
  309MPD2    C2 4700   3.959   0.080  17.285  0.6830 -0.0130 -0.1207
  309MPD2    C3 4701   3.933   0.090  17.423 -0.0827 -0.1475  0.1850
  309MPD2    C4 4702   3.982   4.729  17.506  0.9192  0.1807 -0.3310
  309MPD2    C5 4703   4.050   4.620  17.452 -0.0104 -0.3283 -0.3045
  309MPD2     H 4704   3.920   0.151  17.213  1.0312  1.2227  0.9338
  309MPD2    H1 4705   3.972   4.734  17.614 -0.8864  1.0131 -0.5452
  309MPD2    H2 4706   4.129   4.527  17.281  2.0314  0.7343  0.0928
  309MPD2    H3 4707   4.084   4.545  17.522 -0.7292 -1.3483 -1.0423
  309MPD2     N 4708   3.863   0.205  17.481 -0.5169  0.4211  0.4808
  309MPD2    H5 4709   3.860   0.213  17.582  0.1250  1.3436  0.4297
  309MPD2    N1 4710   4.049   4.708  17.090 -0.6014 -0.5637  0.3100
  309MPD2    H7 4711   4.009   0.050  17.043 -0.9110  0.1670  1.8124
  310TMC3    C1 4712   4.132   4.615  16.884 -0.2919 -0.4269 -0.2860
  310TMC3    C2 4713   4.046   4.698  16.817 -0.1083  0.3267 -0.2400
  310TMC3    C3 4714   4.060   4.706  16.677 -0.4166 -0.6171 -0.1353
  310TMC3    C4 4715   4.236   4.550  16.817  0.3343  0.1839 -0.0178
  310TMC3    C5 4716   4.244   4.561  16.685 -0.3526 -0.8231  0.2014
  310TMC3    C6 4717   4.166   4.644  16.611  0.2887 -0.1912  0.5110
  310TMC3     C 4718   4.133   4.617  17.027  0.6196 -0.5921 -0.3694
  310TMC3     O 4719   4.211   4.539  17.083  0.3855 -0.5193  0.4343
  310TMC3     H 4720   3.974   0.023  16.867 -1.4423 -1.1039 -0.3462
  310TMC3    H1 4721   4.316   4.503  16.873 -0.9908 -1.9721  0.0799
  310TMC3    H2 4722   4.171   4.643  16.503 -0.4984  0.0901  0.4723
  310TMC3    C7 4723   4.348   4.489  16.608 -0.1782 -0.2715  0.0483
  310TMC3    C8 4724   3.971   0.043  16.591 -0.2218 -0.4399 -0.1111
  310TMC3    O1 4725   4.404   4.404  16.670  0.4992 -0.0117  0.6427
  310TMC3    O2 4726   3.994   0.056  16.473  0.9492  0.2386 -0.4200
  311MPD2     C 4727   1.035   1.241  12.667 -0.1318 -0.5931 -0.5882
  311MPD2    C1 4728   1.000   1.356  12.607 -0.1598 -0.5797  0.4602
  311MPD2    C2 4729   0.870   1.406  12.618 -0.0546  0.0520  0.3985
  311MPD2    C3 4730   0.778   1.334  12.699  0.5282  0.3964 -0.7777
  311MPD2    C4 4731   0.810   1.212  12.743  0.6351  0.4067  0.2264
  311MPD2    C5 4732   0.941   1.162  12.727  1.1047 -0.0540  0.3008
  311MPD2     H 4733   0.845   1.490  12.555 -1.5368 -1.8493 -1.5473
  311MPD2    H1 4734   0.737   1.152  12.796 -0.5885 -0.5950 -2.6040
  311MPD2    H2 4735   1.140   1.215  12.665  0.1368  0.5332 -1.0641
  311MPD2    H3 4736   0.965   1.065  12.770 -0.0178  0.3083  1.7741
  311MPD2     N 4737   0.650   1.394  12.717 -0.1942 -0.3500 -0.2444
  311MPD2    H5 4738   0.634   1.480  12.665  3.4065 -0.0377 -0.8188
  311MPD2    N1 4739   1.083   1.416  12.512  0.2934 -0.4796 -0.3553
  311MPD2    H7 4740   1.042   1.499  12.469 -2.9761 -0.6038  2.5249
  312TMC3    C1 4741   0.422   1.409  12.765 -0.6698 -0.2301  0.8274
  312TMC3    C2 4742   0.313   1.373  12.700  0.7128  0.3117  0.8405
  312TMC3    C3 4743   0.222   1.469  12.660  0.3018 -0.0906 -0.6092
  312TMC3    C4 4744   0.448   1.536  12.799  0.3170  0.6855  0.5291
  312TMC3    C5 4745   0.352   1.626  12.774  0.3761  0.5886  0.4430
  312TMC3    C6 4746   0.236   1.599  12.699  0.4923  0.6663 -0.2143
  312TMC3     C 4747   0.539   1.323  12.753 -0.1163  0.2547 -0.1643
  312TMC3     O 4748   0.526   1.207  12.785 -0.0680  0.5428 -0.6898
  312TMC3     H 4749   0.296   1.269  12.674  1.2007  0.7454 -1.1887
  312TMC3    H1 4750   0.539   1.570  12.847  0.2436  0.1791  1.0228
  312TMC3    H2 4751   0.174   1.676  12.657 -1.9557 -0.4530  1.3794
  312TMC3    C7 4752   0.367   1.745  12.857 -0.3868  0.4901 -0.3160
  312TMC3    C8 4753   0.102   1.412  12.605 -0.1600 -0.2101 -0.2868
  312TMC3    O1 4754   0.335   1.851  12.813 -0.1452 -0.2416  0.0168
  312TMC3    O2 4755   0.110   1.294  12.579  0.1740  0.0627  0.8892
  313MPD2     C 4756   0.493   0.527  10.701 -0.7799  0.5927  0.5697
  313MPD2    C1 4757   0.493   0.566  10.568  0.8707  0.3886 -0.2328
  313MPD2    C2 4758   0.431   0.480  10.476  0.5208 -0.1985  0.2588
  313MPD2    C3 4759   0.363   0.362  10.520 -0.4541 -0.2436 -0.1203
  313MPD2    C4 4760   0.356   0.334  10.656  0.2614 -0.6959 -0.1447
  313MPD2    C5 4761   0.427   0.417  10.742  0.5307 -0.3817  0.0818
  313MPD2     H 4762   0.429   0.506  10.370  0.4145 -1.1704  0.0190
  313MPD2    H1 4763   0.300   0.252  10.699 -1.7499 -0.0975 -1.6222
  313MPD2    H2 4764   0.541   0.589  10.775  1.2682 -0.4808  0.1294
  313MPD2    H3 4765   0.408   0.399  10.847  0.9133 -1.3530 -0.0162
  313MPD2     N 4766   0.302   0.271  10.424  0.0595 -0.4403  0.5174
  313MPD2    H5 4767   0.304   0.302  10.328  0.5883 -2.1448 -0.0404
  313MPD2    N1 4768   0.559   0.681  10.514 -0.4943 -0.3969  0.0170
  313MPD2    H7 4769   0.543   0.693  10.415 -1.8320  1.2759  0.4183
  314TMC3    C1 4770   0.668   0.887  10.515 -0.9804  0.4584 -0.0526
  314TMC3    C2 4771   0.705   0.998  10.584  0.2499  0.1848 -0.7169
  314TMC3    C3 4772   0.717   1.113  10.519 -0.5435 -0.1502  0.5073
  314TMC3    C4 4773   0.667   0.890  10.374 -0.0977  0.0091  0.0972
  314TMC3    C5 4774   0.678   1.008  10.312 -0.3270  0.4971 -0.3367
  314TMC3    C6 4775   0.704   1.124  10.383  0.5195 -1.0960 -0.0796
  314TMC3     C 4776   0.629   0.776  10.587 -0.4816 -0.5192  0.0684
  314TMC3     O 4777   0.631   0.793  10.713  0.1085 -0.4759  0.4500
  314TMC3     H 4778   0.698   0.993  10.692 -0.5042  0.1613 -0.7702
  314TMC3    H1 4779   0.668   0.793  10.324  2.2181 -0.5890  1.3245
  314TMC3    H2 4780   0.728   1.215  10.330  1.5719 -0.6268  1.2202
  314TMC3    C7 4781   0.634   1.007  10.171 -0.1258  0.1890 -0.6120
  314TMC3    C8 4782   0.762   1.233  10.586 -0.3531  0.0161 -0.0436
  314TMC3    O1 4783   0.649   0.905  10.102 -0.3522  0.6184  0.0138
  314TMC3    O2 4784   0.764   1.331  10.514 -0.3523 -0.5430  0.6537
  315MPD2     C 4785   0.758   4.040  17.329 -0.0210  0.2507 -0.4347
  315MPD2    C1 4786   0.803   4.099  17.448  0.4619 -0.6165  0.5116
  315MPD2    C2 4787   0.815   4.243  17.450 -0.3470 -0.1273 -0.3342
  315MPD2    C3 4788   0.789   4.323  17.346 -0.5824  0.8741 -0.0285
  315MPD2    C4 4789   0.742   4.265  17.233  0.4122  0.2400 -0.1696
  315MPD2    C5 4790   0.735   4.123  17.220 -0.1539 -0.0270  0.4029
  315MPD2     H 4791   0.852   4.291  17.540 -0.1025 -2.9303  1.0600
  315MPD2    H1 4792   0.710   4.310  17.140 -2.0505 -2.4798 -0.6307
  315MPD2    H2 4793   0.753   3.932  17.326  0.8037  0.2623 -2.5752
  315MPD2    H3 4794   0.710   4.079  17.125 -1.5311  1.5631  0.0302
  315MPD2     N 4795   0.805   4.465  17.364  0.2291 -0.1594 -0.3903
  315MPD2    H5 4796   0.842   4.492  17.455 -0.6040  1.1295 -0.4401
  315MPD2    N1 4797   0.844   4.027  17.562 -0.4143  0.1499  0.5134
  315MPD2    H7 4798   0.904   4.070  17.631 -0.3164 -0.7518  0.9918
  316TMC3    C1 4799   0.800   4.694  17.319 -0.4490 -0.0140 -1.1301
  316TMC3    C2 4800   0.889   4.707  17.420 -0.4170  0.1227  0.1817
  316TMC3    C3 4801   0.958   0.086  17.443  0.7332 -0.4402  0.3257
  316TMC3    C4 4802   0.790   0.064  17.232  0.0231  0.4806  0.5718
  316TMC3    C5 4803   0.849   0.187  17.264  0.0286  0.1779 -0.2014
  316TMC3    C6 4804   0.939   0.199  17.364  0.3663 -0.0140  0.7756
  316TMC3     C 4805   0.767   4.558  17.270  0.2250  0.2143 -0.5229
  316TMC3     O 4806   0.731   4.543  17.154  0.3408 -0.4149  0.0324
  316TMC3     H 4807   0.913   4.620  17.481  0.0469  0.0665 -0.0843
  316TMC3    H1 4808   0.716   0.061  17.154  0.7626  2.0304 -0.1763
  316TMC3    H2 4809   0.989   0.294  17.381 -1.8113  0.4499  4.4978
  316TMC3    C7 4810   0.779   0.310  17.245  0.5090  0.5063  1.4734
  316TMC3    C8 4811   1.017   0.114  17.579 -0.7737 -0.0845  0.5521
  316TMC3    O1 4812   0.794   0.392  17.335  0.6262  0.2290  0.4714
  316TMC3    O2 4813   1.024   0.230  17.616  0.3369  0.1772  0.2343
  317MPD2     C 4814   2.085   3.167  13.089 -0.3220 -0.1466  0.5302
  317MPD2    C1 4815   2.142   3.104  12.981 -0.4372 -0.5455 -0.0309
  317MPD2    C2 4816   2.240   3.014  13.006  0.0107 -0.3094 -0.5035
  317MPD2    C3 4817   2.270   2.977  13.139 -0.1478 -0.6503 -0.2738
  317MPD2    C4 4818   2.200   3.028  13.248  0.1734  0.6543 -0.6692
  317MPD2    C5 4819   2.117   3.129  13.219  0.0113  0.4735 -0.4669
  317MPD2     H 4820   2.298   2.970  12.925  0.5212  1.2339 -0.9804
  317MPD2    H1 4821   2.215   3.007  13.354  0.2634  0.9595 -0.6195
  317MPD2    H2 4822   1.991   3.219  13.073 -2.3059 -3.9369 -0.0655
  317MPD2    H3 4823   2.076   3.185  13.303 -0.2054 -1.8269  0.9718
  317MPD2     N 4824   2.362   2.866  13.150  0.1800  0.2554  0.2197
  317MPD2    H5 4825   2.389   2.817  13.066  0.4573 -0.7341  0.8783
  317MPD2    N1 4826   2.095   3.115  12.850  0.2433 -0.7226  0.3934
  317MPD2    H7 4827   2.147   3.055  12.786 -1.8619  0.3033 -2.2912
  318TMC3    C1 4828   2.490   2.694  13.269 -0.2768 -0.0628 -0.1353
  318TMC3    C2 4829   2.491   2.613  13.155 -0.1065  0.2544  0.0387
  318TMC3    C3 4830   2.538   2.485  13.166  0.6683  0.3541 -0.7804
  318TMC3    C4 4831   2.551   2.651  13.387 -0.1431 -0.1976  0.1363
  318TMC3    C5 4832   2.628   2.540  13.387  0.0959 -1.0841 -0.4014
  318TMC3    C6 4833   2.609   2.448  13.283 -0.6231 -1.0214  0.2134
  318TMC3     C 4834   2.412   2.821  13.273 -0.0384  0.2541 -0.0855
  318TMC3     O 4835   2.423   2.878  13.383 -0.2531 -0.3019  0.3530
  318TMC3     H 4836   2.459   2.639  13.055  0.3028 -1.0653 -0.4210
  318TMC3    H1 4837   2.572   2.717  13.471  0.1601 -1.5100  1.0874
  318TMC3    H2 4838   2.651   2.349  13.298 -0.2512 -1.0304 -0.8520
  318TMC3    C7 4839   2.684   2.491  13.514 -0.3686 -0.6208 -0.0320
  318TMC3    C8 4840   2.461   2.368  13.121 -0.2503 -0.0127  0.0515
  318TMC3    O1 4841   2.653   2.552  13.617 -0.5010  0.0287 -0.2530
  318TMC3    O2 4842   2.488   2.261  13.170  0.7645 -0.4247  0.0659
  319MPD2     C 4843   2.415   4.300  16.794 -0.3887 -0.4334  0.2755
  319MPD2    C1 4844   2.487   4.227  16.698  0.0750  0.0046  0.1281
  319MPD2    C2 4845   2.415   4.154  16.597  0.4021 -0.1703 -0.2453
  319MPD2    C3 4846   2.279   4.163  16.594 -0.3857 -0.3916 -0.1247
  319MPD2    C4 4847   2.209   4.236  16.687  0.2886  0.2144  0.1043
  319MPD2    C5 4848   2.281   4.303  16.789  0.0736  0.2121  0.1841
  319MPD2     H 4849   2.469   4.096  16.524 -0.9479  0.4443 -1.7213
  319MPD2    H1 4850   2.103   4.230  16.707  0.3516 -1.9939 -0.2314
  319MPD2    H2 4851   2.465   4.356  16.873  0.9247 -0.5528 -0.4737
  319MPD2    H3 4852   2.229   4.360  16.865 -0.0901  0.2592  0.0355
  319MPD2     N 4853   2.218   4.084  16.488 -0.0657  0.3476  0.2547
  319MPD2    H5 4854   2.279   4.039  16.421 -1.1775  0.0804 -0.5741
  319MPD2    N1 4855   2.632   4.219  16.685  0.1204  0.6507  0.5689
  319MPD2    H7 4856   2.675   4.171  16.606 -0.7313 -1.0539  1.1321
  320TMC3    C1 4857   2.047   3.975  16.379  0.0808 -0.0064 -0.3748
  320TMC3    C2 4858   1.976   4.036  16.279 -0.0689 -0.6288  0.3180
  320TMC3    C3 4859   1.978   3.969  16.165  0.2968  0.2429 -0.6430
  320TMC3    C4 4860   2.097   3.846  16.373  0.0242  0.0810 -0.1853
  320TMC3    C5 4861   2.074   3.765  16.260 -0.6485  0.1233  0.5833
  320TMC3    C6 4862   1.997   3.828  16.159 -0.4486 -0.3237 -0.4033
  320TMC3     C 4863   2.086   4.069  16.475 -0.0974  0.2741  1.5852
  320TMC3     O 4864   1.997   4.139  16.526  0.3818  0.0023  0.0583
  320TMC3     H 4865   1.964   4.144  16.276 -1.3127 -0.7780  0.1568
  320TMC3    H1 4866   2.156   3.823  16.461 -1.5928 -1.4617  0.4901
  320TMC3    H2 4867   1.981   3.783  16.062  0.5877  0.0354 -0.7368
  320TMC3    C7 4868   2.180   3.676  16.213 -0.5828  0.2650 -0.1792
  320TMC3    C8 4869   2.075   4.037  16.075 -0.1575 -0.5599 -0.6013
  320TMC3    O1 4870   2.183   3.667  16.091  0.3256  0.0507  0.0009
  320TMC3    O2 4871   2.078   4.159  16.064  0.3620 -0.1089 -0.6716
  321TMC3    C1 4872   2.852   4.296  16.734  0.7971  0.7657  0.3144
  321TMC3    C2 4873   2.902   4.189  16.674  0.3172 -0.3241 -0.4977
  321TMC3    C3 4874   3.037   4.197  16.661 -0.1702 -0.8439 -0.8176
  321TMC3    C4 4875   2.921   4.403  16.776 -0.1299  0.1019  0.5328
  321TMC3    C5 4876   3.053   4.412  16.749  0.6813  0.1343  0.1127
  321TMC3    C6 4877   3.115   4.309  16.680  0.4503 -0.5730 -0.1984
  321TMC3     C 4878   2.711   4.294  16.766  1.0548 -0.1399 -0.5006
  321TMC3     O 4879   2.689   4.359  16.869 -0.1718 -0.5906  1.0629
  321TMC3     H 4880   2.849   4.095  16.662 -1.0872  0.4759 -0.5934
  321TMC3    H1 4881   2.870   4.481  16.830  0.6257 -0.3798  1.9313
  321TMC3    H2 4882   3.217   4.298  16.646  0.8083 -0.7825  0.9416
  321TMC3    C7 4883   3.141   4.471  16.847 -0.3558  0.4191 -0.1812
  321TMC3    C8 4884   3.111   4.073  16.687  0.1547 -0.4287 -0.1930
  321TMC3    O1 4885   3.256   4.431  16.828 -0.0101  0.2622  0.5371
  321TMC3    O2 4886   3.060   3.967  16.655 -0.7107 -0.1536 -0.2490
  322MPD2     C 4887   1.839   0.727  13.758 -0.1852 -0.9538  0.1063
  322MPD2    C1 4888   1.926   0.671  13.856 -0.4160 -1.2059 -0.5559
  322MPD2    C2 4889   2.000   0.558  13.820  1.1148 -0.1838 -0.5697
  322MPD2    C3 4890   2.001   0.510  13.693 -0.5600  0.3797 -0.6615
  322MPD2    C4 4891   1.916   0.558  13.598  0.0313  0.5059 -0.1399
  322MPD2    C5 4892   1.836   0.671  13.635 -0.3294 -0.7030  0.0781
  322MPD2     H 4893   2.082   0.525  13.882  0.4189  2.3292  1.6500
  322MPD2    H1 4894   1.910   0.514  13.499  1.9564  0.8349 -0.4100
  322MPD2    H2 4895   1.783   0.817  13.782  0.1133 -0.6607 -0.2915
  322MPD2    H3 4896   1.769   0.715  13.562  0.6525  0.1669 -0.3031
  322MPD2     N 4897   2.086   0.402  13.659  0.1140 -0.1658 -0.6542
  322MPD2    H5 4898   2.142   0.361  13.733 -0.7626  1.9211  1.1792
  322MPD2    N1 4899   1.936   0.741  13.972 -0.0668 -0.7691 -0.2375
  322MPD2    H7 4900   1.904   0.838  13.975  2.9633  0.2278  0.0330
  323TMC3    C1 4901   2.047   0.771  14.172 -0.1755  0.4366  0.7114
  323TMC3    C2 4902   2.113   0.875  14.116  0.1835 -0.2078  0.2537
  323TMC3    C3 4903   2.218   0.926  14.185 -0.0677 -0.1581 -0.2092
  323TMC3    C4 4904   2.079   0.724  14.300 -0.5062  0.6142  0.2276
  323TMC3    C5 4905   2.190   0.777  14.359 -0.5414  0.1382  0.2608
  323TMC3    C6 4906   2.260   0.885  14.311 -0.1285 -0.5025  0.0022
  323TMC3     C 4907   1.989   0.681  14.085 -0.6133  1.0317 -0.5633
  323TMC3     O 4908   2.003   0.563  14.103  0.1522  0.0791  0.0721
  323TMC3     H 4909   2.106   0.885  14.009  2.4350  0.0163  0.1217
  323TMC3    H1 4910   2.030   0.636  14.340  0.3978  0.5548  1.2208
  323TMC3    H2 4911   2.350   0.918  14.361  1.8518 -1.7546 -2.7378
  323TMC3    C7 4912   2.254   0.694  14.464  0.2684  0.0648 -0.4383
  323TMC3    C8 4913   2.333   0.981  14.118 -0.5318 -0.2393  0.4286
  323TMC3    O1 4914   2.243   0.574  14.461 -0.4772  0.3505  0.3454
  323TMC3    O2 4915   2.442   0.958  14.169 -0.4860  0.0361  0.6471
  324MPD2     C 4916   4.220   2.521  13.997  0.7419  0.2532  0.3743
  324MPD2    C1 4917   4.224   2.384  14.018  0.0314  0.6791 -0.7587
  324MPD2    C2 4918   4.116   2.317  14.063  0.5468 -0.3474 -0.9640
  324MPD2    C3 4919   3.989   2.374  14.086 -0.3131  0.4898 -0.1141
  324MPD2    C4 4920   3.984   2.505  14.068  0.0803  0.7727  0.2730
  324MPD2    C5 4921   4.095   2.572  14.007  0.4635  0.2285  0.2720
  324MPD2     H 4922   4.130   2.211  14.079 -2.2900 -0.9176 -2.2961
  324MPD2    H1 4923   3.896   2.568  14.068 -1.6192 -1.5868 -1.5897
  324MPD2    H2 4924   4.297   2.594  13.973 -0.5127  2.0319  1.7248
  324MPD2    H3 4925   4.081   2.676  13.978  0.6182 -0.0172 -0.6861
  324MPD2     N 4926   3.876   2.302  14.126  0.2555 -0.3049  0.0106
  324MPD2    H5 4927   3.884   2.202  14.139 -0.1376 -0.3942 -0.4659
  324MPD2    N1 4928   4.346   2.313  13.991  0.6351 -0.3656  0.0273
  324MPD2    H7 4929   4.338   2.212  14.003  0.5540 -0.3594  0.0200
  325TMC3    C1 4930   3.651   2.257  14.180  1.2282 -0.0367 -0.7865
  325TMC3    C2 4931   3.622   2.161  14.084  0.5112 -0.7577  0.7420
  325TMC3    C3 4932   3.500   2.103  14.106  0.3005 -0.2317 -0.3473
  325TMC3    C4 4933   3.570   2.298  14.287 -0.2431  0.2629 -0.0082
  325TMC3    C5 4934   3.450   2.235  14.295 -0.2616  0.1667 -0.3959
  325TMC3    C6 4935   3.416   2.142  14.202  0.1225  0.9351 -0.5146
  325TMC3     C 4936   3.758   2.354  14.156 -0.3935  0.1900  0.0170
  325TMC3     O 4937   3.719   2.471  14.170 -0.3925  0.4392  0.3026
  325TMC3     H 4938   3.694   2.120  14.015 -0.9702 -0.7466 -0.8204
  325TMC3    H1 4939   3.602   2.374  14.356 -1.0510 -0.2495  0.9269
  325TMC3    H2 4940   3.320   2.091  14.205 -0.5419  2.2854  0.9202
  325TMC3    C7 4941   3.367   2.284  14.405 -0.1135  0.3400 -0.3861
  325TMC3    C8 4942   3.480   1.966  14.069 -0.1403  1.3162 -0.0273
  325TMC3    O1 4943   3.399   2.393  14.452  0.3292 -0.2790 -0.4999
  325TMC3    O2 4944   3.524   1.929  13.961  0.8378  0.4132  0.5617
  326MPD2     C 4945   0.270   3.251  10.757 -0.0132 -0.3020  0.3851
  326MPD2    C1 4946   0.181   3.320  10.678 -0.0741  0.6415 -0.3888
  326MPD2    C2 4947   0.208   3.448  10.644  0.3323  0.8636 -0.1382
  326MPD2    C3 4948   0.319   3.516  10.685 -0.3559 -0.4207 -0.3946
  326MPD2    C4 4949   0.402   3.451  10.778 -0.2370 -0.7321  1.2236
  326MPD2    C5 4950   0.365   3.328  10.819  0.4685 -0.1376 -0.1290
  326MPD2     H 4951   0.141   3.504  10.578  0.1374 -0.2550 -0.9004
  326MPD2    H1 4952   0.488   3.504  10.817 -2.7145  2.4334  2.4059
  326MPD2    H2 4953   0.250   3.151  10.792 -0.8531 -0.9386 -1.9325
  326MPD2    H3 4954   0.436   3.286  10.889  0.4768  1.3509  0.7561
  326MPD2     N 4955   0.362   3.647  10.649 -0.4568 -0.1492 -0.1055
  326MPD2    H5 4956   0.447   3.674  10.698 -0.1762  1.6575 -1.5892
  326MPD2    N1 4957   0.064   3.263  10.622 -0.4260  0.5105 -0.1623
  326MPD2    H7 4958   0.005   3.329  10.574  0.2990 -0.0756 -1.8621
  327TMC3    C1 4959   4.624   3.112  10.595  0.1735  0.1090  0.0769
  327TMC3    C2 4960   4.524   3.191  10.633  0.8029 -0.4663  0.6584
  327TMC3    C3 4961   4.400   3.135  10.666 -0.2745 -0.2400 -0.6065
  327TMC3    C4 4962   4.605   2.978  10.586 -0.6851  0.4833 -0.2604
  327TMC3    C5 4963   4.492   2.923  10.633  0.0144 -0.2179 -0.0503
  327TMC3    C6 4964   4.391   2.994  10.680 -1.0287 -0.5105 -0.3419
  327TMC3     C 4965   0.020   3.133  10.641 -0.7585 -0.1007 -0.1058
  327TMC3     O 4966   0.081   3.037  10.684 -0.2141  0.1073  0.1691
  327TMC3     H 4967   4.540   3.297  10.650 -0.5059 -0.2868  0.7536
  327TMC3    H1 4968   4.687   2.917  10.550 -0.4965  0.1637  0.7205
  327TMC3    H2 4969   4.302   2.937  10.707 -2.1711  2.0210  1.1759
  327TMC3    C7 4970   4.512   2.811  10.716 -0.8630  0.0287  0.1152
  327TMC3    C8 4971   4.288   3.214  10.616 -0.4889 -0.1861 -0.2739
  327TMC3    O1 4972   4.413   2.744  10.747  0.1928  0.0989  0.2046
  327TMC3    O2 4973   4.299   3.334  10.585  0.0922 -0.4697 -0.3555
  328MPD2     C 4974   2.666   3.176  16.724  0.6719  0.1185 -0.3343
  328MPD2    C1 4975   2.614   3.054  16.771 -1.2322  0.4644 -1.1339
  328MPD2    C2 4976   2.488   3.046  16.832  0.7018  0.3244 -0.0858
  328MPD2    C3 4977   2.407   3.159  16.855  0.1769  0.3727  0.1699
  328MPD2    C4 4978   2.464   3.280  16.820  0.1554 -0.2742  0.3447
  328MPD2    C5 4979   2.590   3.281  16.762  0.4338 -0.6116  0.4727
  328MPD2     H 4980   2.470   2.949  16.879 -1.6067  0.7730 -0.0788
  328MPD2    H1 4981   2.415   3.373  16.849  0.4308 -0.3213  0.9525
  328MPD2    H2 4982   2.766   3.193  16.686  0.6769  0.6744 -0.0749
  328MPD2    H3 4983   2.632   3.381  16.754 -1.6963  0.1554 -1.2127
  328MPD2     N 4984   2.268   3.156  16.896 -0.6689  0.7151  0.2672
  328MPD2    H5 4985   2.225   3.247  16.907  1.0910  1.3216  2.2419
  328MPD2    N1 4986   2.686   2.931  16.763 -0.3071  0.0370  0.3878
  328MPD2    H7 4987   2.649   2.855  16.820  2.1524 -1.3643  0.0948
  329TMC3    C1 4988   2.848   2.776  16.685 -0.9437  0.8418 -0.5003
  329TMC3    C2 4989   2.846   2.707  16.800 -0.2879  0.5391 -0.0017
  329TMC3    C3 4990   2.872   2.569  16.788 -0.3803 -0.1471  0.0425
  329TMC3    C4 4991   2.861   2.716  16.558 -0.2705 -0.2086  0.7292
  329TMC3    C5 4992   2.877   2.579  16.556 -0.2237  0.2576  0.6328
  329TMC3    C6 4993   2.884   2.510  16.668  0.0393  0.9418  0.2841
  329TMC3     C 4994   2.783   2.906  16.674  0.6079 -0.2491  0.0623
  329TMC3     O 4995   2.832   2.984  16.591  0.4742  0.3789  0.1342
  329TMC3     H 4996   2.837   2.752  16.898  1.0198 -0.1127  0.4129
  329TMC3    H1 4997   2.856   2.778  16.470  0.7437  0.8691  1.4397
  329TMC3    H2 4998   2.882   2.402  16.667  1.7136  0.8992  0.8691
  329TMC3    C7 4999   2.860   2.507  16.430  0.1691 -0.4686 -0.2637
  329TMC3    C8 5000   2.886   2.489  16.904 -0.2841 -0.1160 -0.6155
  329TMC3    O1 5001   2.843   2.387  16.445 -0.4752 -0.0852  0.2989
  329TMC3    O2 5002   2.899   2.368  16.880  0.0503 -0.6335  0.3409
  330TMC3    C1 5003   0.280   2.588   9.993 -0.4596 -0.5857 -0.2510
  330TMC3    C2 5004   0.226   2.559  10.111  0.4334 -0.3701 -0.1535
  330TMC3    C3 5005   0.193   2.421  10.135  0.4955 -0.7802 -0.1604
  330TMC3    C4 5006   0.318   2.498   9.899  0.9572 -0.2559 -0.1498
  330TMC3    C5 5007   0.294   2.372   9.928 -0.0800  0.1458 -0.3461
  330TMC3    C6 5008   0.229   2.327  10.046  0.6483  0.2380  0.6825
  330TMC3     C 5009   0.225   2.713   9.947 -0.8245  0.2566 -0.3102
  330TMC3     O 5010   0.229   2.812  10.022 -0.3844 -0.1930 -0.0635
  330TMC3     H 5011   0.170   2.632  10.168  2.5370 -0.0676  1.5216
  330TMC3    H1 5012   0.369   2.517   9.805  0.3208  0.1796 -0.4023
  330TMC3    H2 5013   0.232   2.220  10.064 -1.3334 -0.0386 -0.6724
  330TMC3    C7 5014   0.389   2.270   9.879 -0.5559 -0.9151  0.3616
  330TMC3    C8 5015   0.054   2.404  10.179  1.0031 -0.2017  0.0484
  330TMC3    O1 5016   0.435   2.181   9.949 -0.2107 -0.6803 -0.3627
  330TMC3    O2 5017   4.731   2.510  10.175 -0.1770 -0.1199 -0.0476
  331MPD2     C 5018   3.646   1.445  13.145 -0.3090  0.1144  0.1489
  331MPD2    C1 5019   3.542   1.401  13.070  0.1123 -0.1385 -0.4616
  331MPD2    C2 5020   3.511   1.268  13.080  0.1190  0.6334  0.3905
  331MPD2    C3 5021   3.580   1.182  13.157  0.9241  0.0844  0.3508
  331MPD2    C4 5022   3.692   1.225  13.231 -0.0726  0.3655  0.4291
  331MPD2    C5 5023   3.724   1.354  13.213 -0.0250  0.4806 -0.5392
  331MPD2     H 5024   3.443   1.225  13.007  0.2354  0.3250  0.4626
  331MPD2    H1 5025   3.747   1.167  13.304 -0.2252 -1.2652 -0.7533
  331MPD2    H2 5026   3.673   1.550  13.141  0.2249  0.1125  3.3610
  331MPD2    H3 5027   3.816   1.398  13.250  0.4866 -0.5730 -0.5754
  331MPD2     N 5028   3.530   1.048  13.164 -0.0619 -0.0617  0.3058
  331MPD2    H5 5029   3.467   1.028  13.087 -0.0308 -1.0906  0.5487
  331MPD2    N1 5030   3.483   1.486  12.978  0.6186  0.3933 -0.6201
  331MPD2    H7 5031   3.513   1.582  12.973 -3.4262  1.7646  1.5626
  332TMC3    C1 5032   3.494   0.822  13.222 -0.1159  0.0636 -0.1608
  332TMC3    C2 5033   3.422   0.807  13.102 -0.2433  0.4278  0.4066
  332TMC3    C3 5034   3.458   0.702  13.017  0.3008  0.0720  0.1081
  332TMC3    C4 5035   3.589   0.723  13.261  0.1123  0.0638 -0.6903
  332TMC3    C5 5036   3.598   0.610  13.189 -0.3237  0.1239 -0.2716
  332TMC3    C6 5037   3.540   0.602  13.061 -0.0736  0.5676  0.5411
  332TMC3     C 5038   3.543   0.958  13.259  0.8786 -0.3639  0.2484
  332TMC3     O 5039   3.612   0.960  13.362 -0.7542 -0.3587 -0.4052
  332TMC3     H 5040   3.342   0.864  13.054  0.7005  1.0703 -0.4099
  332TMC3    H1 5041   3.654   0.731  13.347  0.0670 -1.7426 -0.4867
  332TMC3    H2 5042   3.576   0.512  13.014 -1.3230  0.7630 -0.7721
  332TMC3    C7 5043   3.729   0.553  13.178 -0.3924  0.4319 -0.0824
  332TMC3    C8 5044   3.426   0.714  12.877 -0.7640 -0.2517  0.1041
  332TMC3    O1 5045   3.731   0.443  13.227 -0.6439  0.2565  0.1995
  332TMC3    O2 5046   3.408   0.833  12.834  0.2574  0.0149 -0.0260
  333MPD2     C 5047   3.021   1.924  10.955  0.4790  0.4802  0.2304
  333MPD2    C1 5048   3.154   1.894  10.975 -0.4608 -0.4779 -0.3802
  333MPD2    C2 5049   3.185   1.809  11.075 -0.1086  0.0343  0.5462
  333MPD2    C3 5050   3.097   1.736  11.148  0.1665  0.0842  0.3100
  333MPD2    C4 5051   2.965   1.757  11.120  0.6275  0.2916 -0.1899
  333MPD2    C5 5052   2.932   1.843  11.015 -0.1261  1.0651 -0.7707
  333MPD2     H 5053   3.290   1.792  11.095 -0.5094  0.2591  2.8102
  333MPD2    H1 5054   2.888   1.688  11.152 -0.8949  2.9371  1.7430
  333MPD2    H2 5055   2.983   1.988  10.876 -1.8083 -0.3890  0.6060
  333MPD2    H3 5056   2.830   1.833  10.982 -0.3913 -1.1819  0.7036
  333MPD2     N 5057   3.146   1.636  11.231  0.2237 -0.4082  0.2547
  333MPD2    H5 5058   3.247   1.625  11.226 -0.2725 -4.2918 -1.2306
  333MPD2    N1 5059   3.255   1.956  10.892 -0.0857 -0.3104  0.2379
  333MPD2    H7 5060   3.240   2.053  10.866 -0.6644 -0.1300  1.2637
  334TMC3    C1 5061   3.483   1.979  10.822  0.1343 -0.4966  0.4049
  334TMC3    C2 5062   3.603   1.915  10.822  0.1930 -0.1094 -0.1880
  334TMC3    C3 5063   3.705   1.975  10.751  0.3107  0.1800  0.7204
  334TMC3    C4 5064   3.460   2.097  10.762  0.3534 -0.2860  0.5441
  334TMC3    C5 5065   3.565   2.158  10.703  1.1018  0.5824 -0.3019
  334TMC3    C6 5066   3.689   2.100  10.697  0.0291  0.9103  0.2106
  334TMC3     C 5067   3.376   1.895  10.878  0.0721  0.1542  0.8022
  334TMC3     O 5068   3.408   1.781  10.911  0.5770  0.0704  0.3121
  334TMC3     H 5069   3.617   1.822  10.877  0.0044  0.0476  0.1219
  334TMC3    H1 5070   3.380   2.155  10.806  0.6918  0.3755  0.2872
  334TMC3    H2 5071   3.768   2.152  10.644 -0.0210  0.1305 -0.6220
  334TMC3    C7 5072   3.557   2.302  10.662  0.0746 -0.5106 -1.2691
  334TMC3    C8 5073   3.822   1.897  10.733 -0.4163  0.1283  0.5588
  334TMC3    O1 5074   3.667   2.356  10.677 -0.2117 -0.3268  0.0747
  334TMC3    O2 5075   3.828   1.781  10.775  0.4642  0.1917 -0.1641
  335TMC3    C1 5076   3.474   3.290  16.998 -0.1399 -0.1927 -0.6169
  335TMC3    C2 5077   3.442   3.182  16.924  0.3490  0.1317 -0.3354
  335TMC3    C3 5078   3.531   3.082  16.904  0.0552  0.1429 -0.7239
  335TMC3    C4 5079   3.596   3.288  17.070 -0.4296  0.1346  0.1078
  335TMC3    C5 5080   3.687   3.186  17.045  0.8202 -0.4784  0.0508
  335TMC3    C6 5081   3.646   3.081  16.968  0.4509  0.4337 -0.8930
  335TMC3     C 5082   3.380   3.403  16.998 -0.2230 -0.3927 -0.0831
  335TMC3     O 5083   3.384   3.485  17.091  0.4887  0.6658  0.1643
  335TMC3     H 5084   3.341   3.152  16.895 -0.2708  0.7604  1.1795
  335TMC3    H1 5085   3.605   3.370  17.141 -1.3146  1.2156 -1.0200
  335TMC3    H2 5086   3.712   2.996  16.962  0.3458  0.3711 -1.1440
  335TMC3    C7 5087   3.832   3.209  17.061 -0.0215  0.3147  0.0488
  335TMC3    C8 5088   3.475   2.953  16.873  0.2847  0.1398  0.2902
  335TMC3    O1 5089   3.904   3.112  17.045 -0.0125  0.2825  0.3784
  335TMC3    O2 5090   3.515   2.863  16.944 -0.2612 -0.2223  0.6256
  336MPD2     C 5091   3.131   0.530  16.480 -0.1242  0.1823  0.6711
  336MPD2    C1 5092   3.161   0.521  16.341  0.0156 -0.1676  0.0569
  336MPD2    C2 5093   3.219   0.401  16.303  0.6787  0.4393 -0.1271
  336MPD2    C3 5094   3.254   0.301  16.389  0.1620  0.6440  0.3100
  336MPD2    C4 5095   3.207   0.311  16.520 -0.4262  0.4960 -0.7004
  336MPD2    C5 5096   3.145   0.424  16.568 -0.0551  0.0974 -1.2606
  336MPD2     H 5097   3.253   0.394  16.200 -1.3399 -0.9332 -0.7079
  336MPD2    H1 5098   3.228   0.226  16.584 -0.5132  0.2352 -1.0157
  336MPD2    H2 5099   3.101   0.629  16.510 -3.8263 -0.9109  0.5119
  336MPD2    H3 5100   3.109   0.438  16.670 -0.0802 -1.1606 -1.0987
  336MPD2     N 5101   3.302   0.179  16.346  0.2336  0.2860  0.5477
  336MPD2    H5 5102   3.293   0.106  16.416  0.5090 -1.9285 -1.7031
  336MPD2    N1 5103   3.136   0.628  16.245  0.1187 -0.2044  0.0934
  336MPD2    H7 5104   3.177   0.608  16.155  0.1009  2.0199 -0.3985
  337TMC3    C1 5105   3.010   0.787  16.136 -0.1202  0.5375 -0.1435
  337TMC3    C2 5106   2.879   0.808  16.143  0.0179  0.2423 -0.5701
  337TMC3    C3 5107   2.807   0.794  16.023  0.0515 -0.2636 -0.3764
  337TMC3    C4 5108   3.075   0.765  16.013  0.1203  0.4860  0.1474
  337TMC3    C5 5109   2.997   0.748  15.906  0.0278 -0.1001  0.5193
  337TMC3    C6 5110   2.862   0.759  15.903 -0.5329  0.6826  0.1493
  337TMC3     C 5111   3.064   0.740  16.260 -0.1048 -0.1691 -0.4175
  337TMC3     O 5112   3.017   0.782  16.367 -0.2169 -0.1693 -0.3030
  337TMC3     H 5113   2.829   0.833  16.237  1.2822  0.3852  0.0577
  337TMC3    H1 5114   3.180   0.738  16.014 -0.0045  0.0042  0.2954
  337TMC3    H2 5115   2.808   0.766  15.809 -1.9140 -0.3731  0.8646
  337TMC3    C7 5116   3.065   0.718  15.778  0.0289 -0.1424 -0.0062
  337TMC3    C8 5117   2.662   0.822  16.028  0.0681  0.9396 -0.3622
  337TMC3    O1 5118   3.001   0.652  15.700  0.4322  0.0021 -0.9250
  337TMC3    O2 5119   2.612   0.881  16.120  0.3825 -0.6259  0.3111
  338MPD2     C 5120   3.841   0.575   1.204 -0.3938 -0.2977 -0.5865
  338MPD2    C1 5121   3.772   0.540   1.092  0.3361 -0.2410  0.3548
  338MPD2    C2 5122   3.672   0.619   1.047  0.1035 -0.9931 -0.1251
  338MPD2    C3 5123   3.629   0.728   1.113  0.6630  0.2748  0.2518
  338MPD2    C4 5124   3.698   0.768   1.222 -0.1559 -0.1167 -0.6097
  338MPD2    C5 5125   3.801   0.688   1.272  0.9621 -0.2253 -0.3155
  338MPD2     H 5126   3.625   0.588   0.955  0.4202 -2.1243  0.0850
  338MPD2    H1 5127   3.674   0.853   1.285 -0.5054  0.6870 -1.8370
  338MPD2    H2 5128   3.917   0.514   1.251 -1.0559 -0.2931  0.4968
  338MPD2    H3 5129   3.853   0.707   1.365  1.9926  0.0333 -0.9340
  338MPD2     N 5130   3.516   0.796   1.072  0.2340 -0.1098 -0.2854
  338MPD2    H5 5131   3.470   0.765   0.986  0.8096 -0.5920 -0.4137
  338MPD2    N1 5132   3.808   0.432   1.012  0.0061 -0.7107  0.0403
  338MPD2    H7 5133   3.757   0.413   0.927  0.6402 -1.5075 -0.1746
  339TMC3    C1 5134   3.322   0.927   1.068 -0.2395  0.2546  0.7966
  339TMC3    C2 5135   3.225   0.953   1.163 -0.0611  0.0831  0.2273
  339TMC3    C3 5136   3.098   0.903   1.135 -0.2927 -0.1660 -0.2206
  339TMC3    C4 5137   3.296   0.852   0.958  0.2229  0.0593  0.4056
  339TMC3    C5 5138   3.166   0.821   0.928 -0.3912 -0.5396 -0.5131
  339TMC3    C6 5139   3.065   0.837   1.021 -0.5229 -0.5199  0.1573
  339TMC3     C 5140   3.455   0.904   1.127 -0.0887  0.1394 -0.2696
  339TMC3     O 5141   3.485   0.972   1.223  0.4941 -0.6156  0.2400
  339TMC3     H 5142   3.246   1.012   1.252  2.4404  2.3313 -1.8600
  339TMC3    H1 5143   3.369   0.871   0.881  0.9934 -2.3837  0.5425
  339TMC3    H2 5144   2.964   0.803   1.000 -0.6454 -0.3001  0.3858
  339TMC3    C7 5145   3.145   0.753   0.801  0.4758 -0.2740 -0.1373
  339TMC3    C8 5146   3.000   0.925   1.244  0.2257  0.3281  0.0804
  339TMC3    O1 5147   3.249   0.730   0.741 -0.5824 -0.2590  0.1503
  339TMC3    O2 5148   3.025   1.019   1.318  0.7209 -0.6682 -0.4283
  340MPD2     C 5149   2.889   1.981   9.980 -0.7929  0.4157 -0.0238
  340MPD2    C1 5150   2.932   2.106   9.931  0.2611 -0.1510 -0.6083
  340MPD2    C2 5151   3.039   2.169   9.995  0.0088 -0.4567  0.4426
  340MPD2    C3 5152   3.096   2.109  10.106  0.1092 -0.1037  0.1520
  340MPD2    C4 5153   3.064   1.983  10.143  0.0290  0.1300 -1.1396
  340MPD2    C5 5154   2.963   1.921  10.083  0.0287  0.0497 -0.3699
  340MPD2     H 5155   3.078   2.266   9.966 -2.3360  0.1361 -0.7283
  340MPD2    H1 5156   3.114   1.934  10.226 -1.1535 -0.2034 -0.6248
  340MPD2    H2 5157   2.809   1.916   9.945  0.6154 -2.5905  2.3413
  340MPD2    H3 5158   2.933   1.825  10.124 -1.0093  0.5514  0.0522
  340MPD2     N 5159   3.217   2.162  10.158  0.1918  0.0106  0.0405
  340MPD2    H5 5160   3.269   2.110  10.228 -0.4881 -1.8629 -0.8460
  340MPD2    N1 5161   2.875   2.150   9.810 -0.1315  0.1270 -0.1018
  340MPD2    H7 5162   2.810   2.079   9.778  0.9733 -1.3200  0.8834
  341TMC3    C1 5163   2.835   2.295   9.619 -0.0428 -0.4626  0.0999
  341TMC3    C2 5164   2.724   2.220   9.598  0.0996  0.0202  0.4959
  341TMC3    C3 5165   2.652   2.250   9.486  1.3967 -0.5809  0.4319
  341TMC3    C4 5166   2.877   2.393   9.536 -0.0628  0.4840  0.5794
  341TMC3    C5 5167   2.807   2.418   9.424  0.5245 -0.1424  0.0951
  341TMC3    C6 5168   2.706   2.333   9.389 -0.4468 -0.3475  0.8012
  341TMC3     C 5169   2.915   2.265   9.738 -1.3447  0.3229  0.0882
  341TMC3     O 5170   3.003   2.347   9.759 -0.1049 -0.1099 -0.1582
  341TMC3     H 5171   2.674   2.152   9.667  0.5854 -1.4150 -0.5534
  341TMC3    H1 5172   2.977   2.432   9.551  0.6445 -0.9788 -0.2866
  341TMC3    H2 5173   2.658   2.346   9.292  0.3428  0.5883  0.5357
  341TMC3    C7 5174   2.858   2.507   9.320 -0.6473  0.3973 -0.3179
  341TMC3    C8 5175   2.540   2.175   9.437 -0.9311  0.0018 -0.1389
  341TMC3    O1 5176   2.851   2.476   9.201 -0.3562  0.1430 -0.4820
  341TMC3    O2 5177   2.481   2.230   9.342 -0.3015  0.2841 -0.2656
  342MPD2     C 5178   1.444   0.975  17.751 -1.3754 -0.6409  0.2926
  342MPD2    C1 5179   1.558   0.994  17.675  0.5681 -0.0773 -0.0186
  342MPD2    C2 5180   1.624   1.114  17.681  0.2392  0.6752  0.0848
  342MPD2    C3 5181   1.580   1.216   0.016 -0.4927  0.3530  0.0800
  342MPD2    C4 5182   1.468   1.195   0.083 -0.6238  0.6196 -0.5989
  342MPD2    C5 5183   1.395   1.078   0.074 -0.2175  0.0791  0.0766
  342MPD2     H 5184   1.718   1.113  17.626  1.4085  1.2749  2.0869
  342MPD2    H1 5185   1.424   1.273   0.145  0.0089 -0.1315  0.7873
  342MPD2    H2 5186   1.387   0.883   0.000 -1.2840 -0.7278 -1.1665
  342MPD2    H3 5187   1.306   1.062   0.133  0.5143 -2.7559  0.4173
  342MPD2     N 5188   1.649   1.341   0.029 -0.0738 -0.0480 -0.0369
  342MPD2    H5 5189   1.621   1.404   0.103  0.5024 -0.0845  0.2141
  342MPD2    N1 5190   1.613   0.893  17.587 -0.0918 -0.3754  0.1427
  342MPD2    H7 5191   1.668   0.930  17.510  0.1052 -3.0188 -0.9942
  343TMC3    C1 5192   1.640   0.671  17.492  1.0270 -0.1410 -0.2766
  343TMC3    C2 5193   1.766   0.694  17.446 -0.0619 -0.3815 -0.1376
  343TMC3    C3 5194   1.812   0.627  17.337  0.3392 -0.1909 -0.6811
  343TMC3    C4 5195   1.563   0.575  17.435  0.0622  0.3637 -0.0545
  343TMC3    C5 5196   1.622   0.502  17.331 -0.3419 -0.0281  0.0154
  343TMC3    C6 5197   1.748   0.518  17.285  0.2962  0.1508  0.5144
  343TMC3     C 5198   1.580   0.762  17.595 -0.5502  0.5511  0.1083
  343TMC3     O 5199   1.500   0.707  17.668  0.0435  0.5155  0.5820
  343TMC3     H 5200   1.825   0.770  17.496 -0.5475 -1.1448  1.6105
  343TMC3    H1 5201   1.465   0.550  17.474  0.3196 -1.0344 -0.3065
  343TMC3    H2 5202   1.777   0.462  17.197  1.5213  1.5463  0.0153
  343TMC3    C7 5203   1.567   0.372  17.306 -0.2999 -0.0133  0.8182
  343TMC3    C8 5204   1.954   0.628  17.316 -0.0644  0.1376  0.2707
  343TMC3    O1 5205   1.510   0.340  17.203 -0.0808 -0.6828  0.2563
  343TMC3    O2 5206   2.024   0.693  17.394  1.0160  0.2953  0.0917
  344MPD2     C 5207   1.962   1.067  10.960 -0.0087 -0.3159  0.0997
  344MPD2    C1 5208   1.965   0.971  10.864  0.2852  0.3317 -0.1779
  344MPD2    C2 5209   2.012   0.997  10.743 -0.0697 -0.1637  0.2366
  344MPD2    C3 5210   2.075   1.117  10.708 -0.3604  0.3687 -0.2241
  344MPD2    C4 5211   2.081   1.208  10.804  0.0388  0.1717 -0.2721
  344MPD2    C5 5212   2.025   1.186  10.924  1.0181 -0.2020  0.0716
  344MPD2     H 5213   2.025   0.911  10.679 -3.4271 -0.3036 -0.2516
  344MPD2    H1 5214   2.133   1.301  10.784  2.9554 -2.2407 -3.8276
  344MPD2    H2 5215   1.927   1.055  11.062 -0.7763  1.5798  0.0619
  344MPD2    H3 5216   2.043   1.270  10.990  0.0747  0.1857 -0.1778
  344MPD2     N 5217   2.137   1.140  10.587  0.1958 -0.1187 -0.2403
  344MPD2    H5 5218   2.162   1.237  10.567 -0.9473  0.6192  1.9642
  344MPD2    N1 5219   1.935   0.833  10.887  0.6761 -0.3221 -0.2092
  344MPD2    H7 5220   1.926   0.776  10.804  0.7865  0.9251 -1.0850
  345TMC3    C1 5221   2.236   1.118  10.375  0.5493  0.4550 -0.0422
  345TMC3    C2 5222   2.365   1.117  10.411 -0.0102 -0.5162 -0.6350
  345TMC3    C3 5223   2.449   1.224  10.388  0.4516 -0.0817  0.7419
  345TMC3    C4 5224   2.179   1.244  10.328  0.1137  0.7462 -0.3791
  345TMC3    C5 5225   2.272   1.338  10.294  0.1302 -0.1431 -0.0635
  345TMC3    C6 5226   2.406   1.331  10.318  0.0274 -1.1884 -0.5174
  345TMC3     C 5227   2.152   1.055  10.477  0.2448 -0.1567 -0.1828
  345TMC3     O 5228   2.126   0.934  10.469  0.0699 -0.4331 -0.4292
  345TMC3     H 5229   2.406   1.031  10.463 -2.0049  0.1562  2.0352
  345TMC3    H1 5230   2.073   1.244  10.306  0.1693  1.3730 -0.6450
  345TMC3    H2 5231   2.474   1.408  10.283 -2.0813  0.4298 -1.0624
  345TMC3    C7 5232   2.233   1.461  10.240 -0.2820 -0.3405  0.9870
  345TMC3    C8 5233   2.525   1.267  10.508  0.6470 -0.7418  0.0274
  345TMC3    O1 5234   2.318   1.549  10.211 -0.1633  0.1161  0.4760
  345TMC3    O2 5235   2.594   1.367  10.501  0.0282  0.0758 -0.2261
  346MPD2     C 5236   2.351   1.574  13.849  0.0045 -0.5411  0.0526
  346MPD2    C1 5237   2.437   1.686  13.836 -0.4419  0.0144  0.3986
  346MPD2    C2 5238   2.477   1.747  13.955  0.4088 -0.1375  0.1735
  346MPD2    C3 5239   2.436   1.701  14.078 -0.0429 -0.5841 -0.0970
  346MPD2    C4 5240   2.351   1.593  14.088 -0.3059 -0.7797 -0.2759
  346MPD2    C5 5241   2.310   1.528  13.968 -0.4339 -0.7201  0.5781
  346MPD2     H 5242   2.535   1.837  13.942 -0.3586  0.1862 -1.0327
  346MPD2    H1 5243   2.314   1.548  14.179 -2.7112  0.7206 -0.5218
  346MPD2    H2 5244   2.307   1.535  13.758  1.1844 -1.1941 -0.2242
  346MPD2    H3 5245   2.251   1.437  13.969 -0.6831 -0.5727 -0.5246
  346MPD2     N 5246   2.471   1.782  14.189 -0.4041  0.8528  0.1298
  346MPD2    H5 5247   2.545   1.849  14.169 -0.5418  0.8192 -0.4936
  346MPD2    N1 5248   2.486   1.733  13.712 -0.6933 -0.4836  0.1265
  346MPD2    H7 5249   2.538   1.819  13.721  0.6703 -1.2972  0.0578
  347TMC3    C1 5250   2.454   1.896  14.386  0.6696 -0.2901  0.2122
  347TMC3    C2 5251   2.587   1.910  14.409  0.8471  0.5458 -0.4055
  347TMC3    C3 5252   2.622   1.975  14.528  0.0583  0.0369  0.1320
  347TMC3    C4 5253   2.361   1.962  14.457 -0.4237  0.3777 -0.0276
  347TMC3    C5 5254   2.395   2.044  14.558 -0.5111 -0.0665  0.7255
  347TMC3    C6 5255   2.533   2.045  14.597  0.1563 -0.4231 -0.4026
  347TMC3     C 5256   2.409   1.783  14.310 -0.0621 -0.3599  0.0283
  347TMC3     O 5257   2.300   1.733  14.339 -0.2245  0.4273  0.1570
  347TMC3     H 5258   2.662   1.866  14.345  0.3572  2.0267 -2.0039
  347TMC3    H1 5259   2.257   1.950  14.426 -0.7105  0.7160  0.7998
  347TMC3    H2 5260   2.562   2.079  14.696 -1.5061 -0.5425  0.1351
  347TMC3    C7 5261   2.299   2.098  14.647 -0.0229  0.3863 -0.3838
  347TMC3    C8 5262   2.765   2.011  14.525  0.2718 -0.1280 -0.7137
  347TMC3    O1 5263   2.182   2.057  14.640  0.1205  0.5079 -0.3381
  347TMC3    O2 5264   2.840   1.949  14.449 -0.0452 -0.1891  0.2515
  348MPD2     C 5265   1.364   2.083  11.858  0.4335  0.1496  0.0517
  348MPD2    C1 5266   1.258   2.047  11.783  0.0601 -0.3157  0.3868
  348MPD2    C2 5267   1.197   2.143  11.702 -0.2202 -0.5137 -0.6310
  348MPD2    C3 5268   1.233   2.272  11.713 -0.1494  0.3171 -0.7912
  348MPD2    C4 5269   1.336   2.310  11.795 -0.3522  0.0968  0.0655
  348MPD2    C5 5270   1.402   2.216  11.870 -0.1698 -0.4006 -0.5316
  348MPD2     H 5271   1.126   2.110  11.627 -0.7809  0.8267 -0.6974
  348MPD2    H1 5272   1.376   2.411  11.803 -2.3659  0.8962  0.0113
  348MPD2    H2 5273   1.420   2.020  11.926  0.7652 -1.3728 -1.6458
  348MPD2    H3 5274   1.484   2.242  11.935 -0.6532  2.0891 -0.9073
  348MPD2     N 5275   1.174   2.359  11.619 -0.7426  0.7295 -0.2076
  348MPD2    H5 5276   1.101   2.322  11.559 -0.6367  0.1122  0.0408
  348MPD2    N1 5277   1.202   1.920  11.782  0.6031  0.1311 -0.0879
  348MPD2    H7 5278   1.122   1.903  11.723 -1.5587  0.7588  2.6655
  349TMC3    C1 5279   1.118   1.731  11.890 -0.4292 -0.3269 -0.2418
  349TMC3    C2 5280   1.148   1.611  11.947  0.5312  0.6556  0.3425
  349TMC3    C3 5281   1.044   1.530  11.969 -0.3115 -0.9225  0.6329
  349TMC3    C4 5282   0.987   1.778  11.858 -0.0355  0.0040  0.1151
  349TMC3    C5 5283   0.890   1.681  11.872 -0.8094 -0.3680  0.0224
  349TMC3    C6 5284   0.915   1.557  11.927 -0.1035 -0.6544  0.4662
  349TMC3     C 5285   1.228   1.820  11.873  0.0334 -0.3047  0.1830
  349TMC3     O 5286   1.324   1.808  11.946  0.2178  0.6215  0.5897
  349TMC3     H 5287   1.251   1.583  11.964 -0.2137 -2.7747 -0.8539
  349TMC3    H1 5288   0.952   1.875  11.827  0.9074  0.3815  0.2318
  349TMC3    H2 5289   0.834   1.485  11.931  0.3538 -1.1374  0.9693
  349TMC3    C7 5290   0.752   1.726  11.852 -0.1479 -0.0205 -0.2494
  349TMC3    C8 5291   1.063   1.425  12.058  0.1374  0.1440 -0.2273
  349TMC3    O1 5292   0.668   1.658  11.791  0.3825 -0.4857  0.8697
  349TMC3    O2 5293   1.174   1.415  12.109  0.3099  0.0399  0.0182
  350MPD2     C 5294   4.197   0.432  10.081  0.4017  0.2745  0.9115
  350MPD2    C1 5295   4.183   0.300  10.114 -0.5379 -0.0587 -0.4938
  350MPD2    C2 5296   4.299   0.226  10.140  0.6717  0.1177  0.6008
  350MPD2    C3 5297   4.420   0.282  10.126 -0.7117  0.8741 -0.4381
  350MPD2    C4 5298   4.436   0.415  10.087 -0.0663  0.0049  0.5074
  350MPD2    C5 5299   4.319   0.493  10.071 -0.7531  0.0137  0.2556
  350MPD2     H 5300   4.282   0.128  10.182  0.8989 -0.6034 -1.0036
  350MPD2    H1 5301   4.536   0.455  10.075 -0.2619 -0.1114 -1.5511
  350MPD2    H2 5302   4.112   0.499  10.074  0.5587  0.4164  0.3384
  350MPD2    H3 5303   4.319   0.595  10.037 -1.6633  0.4394  1.4973
  350MPD2     N 5304   4.521   0.196  10.151  0.1728  0.5962 -0.0264
  350MPD2    H5 5305   4.498   0.111  10.201 -2.9689  0.2496 -2.0251
  350MPD2    N1 5306   4.069   0.221  10.110 -0.0161 -0.3592  0.0033
  350MPD2    H7 5307   4.086   0.121  10.115  0.9921 -0.2717 -1.7984
  351TMC3    C1 5308   3.851   0.141  10.063 -0.3889  0.4379 -0.4593
  351TMC3    C2 5309   3.890   0.022  10.114 -0.2010  0.1250  0.0830
  351TMC3    C3 5310   3.812   4.650  10.098  0.0917  0.7041  0.5123
  351TMC3    C4 5311   3.739   0.157   9.987  0.1713  0.6102 -0.5679
  351TMC3    C5 5312   3.673   0.036   9.958  0.2483 -0.6851 -0.1344
  351TMC3    C6 5313   3.703   4.652  10.020  0.1946  0.3155  0.0685
  351TMC3     C 5314   3.940   0.256  10.077  0.0523  0.1285 -0.6517
  351TMC3     O 5315   3.902   0.367  10.043 -0.1990 -0.0362 -0.0460
  351TMC3     H 5316   3.986   0.017  10.165 -0.1598 -1.0185 -0.1252
  351TMC3    H1 5317   3.720   0.250   9.934 -1.4982 -0.5632 -2.0806
  351TMC3    H2 5318   3.650   4.558  10.007 -0.5294  0.9188 -1.3467
  351TMC3    C7 5319   3.589   0.033   9.843 -0.3039 -1.0627  1.1603
  351TMC3    C8 5320   3.885   4.527  10.082 -0.3799 -0.0904  0.0212
  351TMC3    O1 5321   3.557   0.141   9.796  0.4833  0.4895 -0.1173
  351TMC3    O2 5322   3.864   4.469   9.976  0.2650 -0.1823  0.0789
  352MPD2     C 5323   4.020   2.639   0.973 -0.1500  0.5381  0.2093
  352MPD2    C1 5324   3.939   2.608   0.869 -0.9931 -0.2414 -0.4309
  352MPD2    C2 5325   3.923   2.472   0.831  0.0258  0.0724  0.0107
  352MPD2    C3 5326   3.983   2.370   0.901 -0.2305 -0.4643 -0.4724
  352MPD2    C4 5327   4.063   2.403   1.002 -0.1195  0.3680  0.0633
  352MPD2    C5 5328   4.083   2.533   1.033  0.5891 -0.1873 -0.5687
  352MPD2     H 5329   3.863   2.455   0.742  1.2338  1.2231 -1.0223
  352MPD2    H1 5330   4.118   2.325   1.053 -1.1409  0.4060  1.2197
  352MPD2    H2 5331   4.052   2.736   1.009 -1.7287  1.4062 -0.7225
  352MPD2    H3 5332   4.139   2.557   1.122  0.4045  2.0452 -1.0645
  352MPD2     N 5333   3.964   2.230   0.886 -0.6261 -0.6730  0.2752
  352MPD2    H5 5334   4.028   2.168   0.934 -0.3748 -1.1423 -0.6578
  352MPD2    N1 5335   3.869   2.717   0.804  0.1120  0.3456  0.3436
  352MPD2    H7 5336   3.884   2.813   0.836 -2.4994  0.9790 -0.4037
  353TMC3    C1 5337   3.873   2.023   0.785 -0.7388 -0.0437  0.0055
  353TMC3    C2 5338   3.994   1.961   0.784 -0.9184  0.6417 -0.4751
  353TMC3    C3 5339   4.000   1.828   0.765 -0.7655  0.4384  0.3503
  353TMC3    C4 5340   3.756   1.956   0.771  0.8515  0.5770 -0.8370
  353TMC3    C5 5341   3.765   1.821   0.762  0.2937  0.8202 -0.0906
  353TMC3    C6 5342   3.884   1.753   0.762 -0.1775 -0.2273 -0.1755
  353TMC3     C 5343   3.866   2.169   0.809 -0.3821  0.2718  0.0230
  353TMC3     O 5344   3.762   2.217   0.771  0.2213  0.6505  0.5006
  353TMC3     H 5345   4.085   2.019   0.792 -0.4683 -0.0064 -0.7833
  353TMC3    H1 5346   3.662   2.010   0.765  0.6533  0.0846 -2.3188
  353TMC3    H2 5347   3.872   1.650   0.733 -2.1700  0.0823 -0.4132
  353TMC3    C7 5348   3.647   1.735   0.757 -0.1982 -0.2169 -0.6735
  353TMC3    C8 5349   4.123   1.768   0.809 -0.1349 -0.0452 -0.8973
  353TMC3    O1 5350   3.656   1.630   0.696  0.0368 -0.2050 -0.4962
  353TMC3    O2 5351   4.213   1.840   0.851  0.3030  0.2273 -0.0427
  354TMC3    C1 5352   4.094   3.225  13.035  0.2788 -0.2148  0.0234
  354TMC3    C2 5353   4.089   3.354  13.080 -0.0778 -0.4276  0.5793
  354TMC3    C3 5354   4.136   3.451  12.998  0.3052  0.1304 -0.3980
  354TMC3    C4 5355   4.171   3.196  12.926  0.4876 -0.1039 -0.1008
  354TMC3    C5 5356   4.209   3.292  12.842  0.1051  0.0252  0.3915
  354TMC3    C6 5357   4.186   3.427  12.875  0.4357  0.4704  0.6498
  354TMC3     C 5358   4.089   3.114  13.134 -0.4682 -1.0619  0.6629
  354TMC3     O 5359   4.118   2.999  13.105 -0.3458  0.2732 -0.0439
  354TMC3     H 5360   4.039   3.386  13.171 -2.8110  0.4395 -1.2039
  354TMC3    H1 5361   4.167   3.095  12.886 -0.5767  0.1101 -0.5358
  354TMC3    H2 5362   4.200   3.511  12.807 -3.4832  0.3460 -0.2915
  354TMC3    C7 5363   4.289   3.258  12.729 -0.5147 -0.7176  0.2274
  354TMC3    C8 5364   4.139   3.596  13.036  0.1423  0.2136 -0.3308
  354TMC3    O1 5365   4.263   3.156  12.660 -0.3646 -0.3146  0.2394
  354TMC3    O2 5366   4.048   3.648  13.097  0.0194 -0.0018  0.0294
  355MPD2     C 5367   0.071   4.453  11.511 -0.6450 -0.3916  0.5374
  355MPD2    C1 5368   0.183   4.427  11.438  0.4720  0.4914 -0.5148
  355MPD2    C2 5369   0.264   4.321  11.470  0.8680 -0.0531  0.1045
  355MPD2    C3 5370   0.233   4.242  11.583  0.4652  0.3471  0.5682
  355MPD2    C4 5371   0.114   4.263  11.644  0.5984 -1.1827 -0.7110
  355MPD2    C5 5372   0.035   4.367  11.606 -0.4243  0.6053  0.1413
  355MPD2     H 5373   0.357   4.308  11.414 -0.0252 -1.8015 -0.9763
  355MPD2    H1 5374   0.087   4.206  11.732 -0.9569 -0.8335 -0.9640
  355MPD2    H2 5375   0.008   4.538  11.488  0.0262  0.2700  1.1724
  355MPD2    H3 5376   4.679   4.384  11.658  0.2090 -1.0924  1.8322
  355MPD2     N 5377   0.317   4.139  11.637  0.8421 -0.0060  0.7731
  355MPD2    H5 5378   0.305   4.119  11.736  1.1403  0.8388  0.9741
  355MPD2    N1 5379   0.225   4.524  11.343 -0.3232 -0.3394 -0.3263
  355MPD2    H7 5380   0.208   4.619  11.373  1.9924  0.7954 -2.6393
  356TMC3    C1 5381   0.547   4.208  11.624  0.6241 -0.0768 -0.2554
  356TMC3    C2 5382   0.629   4.256  11.526 -0.4409  0.4211  0.5173
  356TMC3    C3 5383   0.703   4.365  11.550  0.2561  0.0068  0.8431
  356TMC3    C4 5384   0.536   4.269  11.745 -0.1053  0.4689 -0.3434
  356TMC3    C5 5385   0.619   4.374  11.770  0.4991 -0.4116  0.3440
  356TMC3    C6 5386   0.704   4.428  11.674  0.4531 -0.2715 -0.7053
  356TMC3     C 5387   0.446   4.113  11.581 -0.4787  0.1460 -0.8249
  356TMC3     O 5388   0.473   4.055  11.479  0.1094 -0.1336 -0.3826
  356TMC3     H 5389   0.620   4.214  11.426  1.6330  0.4309  0.3261
  356TMC3    H1 5390   0.479   4.215  11.820 -0.1427  1.6364  0.4541
  356TMC3    H2 5391   0.736   4.531  11.680  0.6111 -0.4443  1.4292
  356TMC3    C7 5392   0.635   4.402  11.909 -1.5141  0.3124  0.0962
  356TMC3    C8 5393   0.797   4.404  11.445  0.4981 -0.4812  0.4619
  356TMC3    O1 5394   0.562   4.348  11.985  0.4538 -0.0975 -0.0042
  356TMC3    O2 5395   0.779   4.362  11.333 -0.4813 -0.7032  0.2550
  357MPD2     C 5396   0.419   3.685   0.691  0.4215  0.0335 -0.3429
  357MPD2    C1 5397   0.531   3.653   0.773 -0.8277  0.8878  0.1128
  357MPD2    C2 5398   0.503   3.624   0.907 -0.1943  0.1973 -0.0254
  357MPD2    C3 5399   0.378   3.636   0.961  0.5793  0.0633 -1.0796
  357MPD2    C4 5400   0.278   3.665   0.872 -0.5978  0.2565 -0.4597
  357MPD2    C5 5401   0.298   3.683   0.745 -0.1644  0.9504  0.4204
  357MPD2     H 5402   0.582   3.591   0.973 -0.6761 -1.1199 -0.1146
  357MPD2    H1 5403   0.175   3.669   0.907 -0.1965  1.4502  0.5722
  357MPD2    H2 5404   0.425   3.707   0.585 -0.6188  1.4575 -0.1193
  357MPD2    H3 5405   0.220   3.712   0.676 -0.7898 -0.2289  0.6421
  357MPD2     N 5406   0.353   3.596   1.094 -0.2415 -0.6040  0.3162
  357MPD2    H5 5407   0.257   3.564   1.107 -1.0408 -0.1919 -4.6371
  357MPD2    N1 5408   0.663   3.621   0.726 -0.2842  0.3852 -0.8179
  357MPD2    H7 5409   0.717   3.552   0.778  0.7924  1.5188 -0.4228
  358TMC3    C1 5410   0.801   3.516   0.573  0.2910  0.7229  0.1544
  358TMC3    C2 5411   0.805   3.458   0.443 -0.6990  0.5066  0.6572
  358TMC3    C3 5412   0.897   3.362   0.427  0.2017  0.3519 -0.1104
  358TMC3    C4 5413   0.883   3.470   0.676  0.1500  0.4284  0.0334
  358TMC3    C5 5414   0.968   3.360   0.646  0.0703 -0.5736 -1.0141
  358TMC3    C6 5415   0.966   3.302   0.528 -0.0718 -0.3467 -0.1894
  358TMC3     C 5416   0.702   3.625   0.591 -0.0926  0.4560  0.0927
  358TMC3     O 5417   0.649   3.682   0.493 -0.4545  0.2105  0.2687
  358TMC3     H 5418   0.748   3.512   0.368  0.6921  0.9031 -0.0990
  358TMC3    H1 5419   0.885   3.516   0.774 -0.1444  0.4410  0.0354
  358TMC3    H2 5420   1.056   3.247   0.503 -0.7431 -1.6153  0.2062
  358TMC3    C7 5421   1.069   3.306   0.737  0.3501 -0.3931  0.3132
  358TMC3    C8 5422   0.870   3.282   0.304 -1.2020 -0.3513 -0.0839
  358TMC3    O1 5423   1.174   3.266   0.685  0.7599  0.1456  0.2929
  358TMC3    O2 5424   0.795   3.331   0.221  0.6269  0.1794 -0.5693
  359MPD2     C 5425   0.273   2.869  11.865  0.4386  0.2560 -0.0463
  359MPD2    C1 5426   0.348   2.896  11.963 -0.4711  0.6317 -0.8057
  359MPD2    C2 5427   0.290   2.962  12.071  0.4762  0.4222  0.4235
  359MPD2    C3 5428   0.154   2.993  12.085 -0.8124 -0.0239 -0.0672
  359MPD2    C4 5429   0.082   2.969  11.972  0.4183 -0.1409  0.1073
  359MPD2    C5 5430   0.142   2.905  11.868  0.0795 -1.0446  0.1623
  359MPD2     H 5431   0.366   2.976  12.147  0.2992 -0.6362  0.7878
  359MPD2    H1 5432   4.723   3.015  11.957  0.3881  0.1310  1.1232
  359MPD2    H2 5433   0.304   2.819  11.774 -0.6789 -0.0217 -0.2750
  359MPD2    H3 5434   0.075   2.873  11.788  0.5641  0.1192 -0.7131
  359MPD2     N 5435   0.097   3.043  12.203  1.0773  0.3614 -0.1307
  359MPD2    H5 5436   4.734   3.050  12.206  0.8986 -1.4638 -1.5208
  359MPD2    N1 5437   0.479   2.852  11.948  0.0279 -0.4476  0.1820
  359MPD2    H7 5438   0.502   2.794  11.867  0.9504  0.5129 -0.2448
  360TMC3    C1 5439   0.711   2.819  11.994  0.0724 -0.3811  0.3320
  360TMC3    C2 5440   0.826   2.891  12.023  0.3510 -0.1821  0.3715
  360TMC3    C3 5441   0.949   2.852  11.966 -0.2747 -0.9075  0.2579
  360TMC3    C4 5442   0.712   2.706  11.922  0.9001 -0.1248  0.1184
  360TMC3    C5 5443   0.834   2.661  11.877 -0.4588 -0.7392 -0.8812
  360TMC3    C6 5444   0.952   2.737  11.893  0.2211  0.0226  0.3663
  360TMC3     C 5445   0.589   2.892  12.018  0.2873  1.4596 -0.0149
  360TMC3     O 5446   0.595   2.981  12.098 -0.9247 -0.3186 -0.2835
  360TMC3     H 5447   0.815   2.988  12.071  1.0487  0.1862 -0.2132
  360TMC3    H1 5448   0.618   2.653  11.920  0.8272 -0.0287  0.8676
  360TMC3    H2 5449   1.038   2.710  11.832  1.9508 -0.6843  3.0682
  360TMC3    C7 5450   0.829   2.585  11.758 -0.9026  0.2228  0.0618
  360TMC3    C8 5451   1.032   2.969  11.930  0.6185  0.3809 -0.0510
  360TMC3    O1 5452   0.902   2.621  11.671 -0.0055  0.8467 -0.2608
  360TMC3    O2 5453   0.982   3.078  11.951 -0.0380  0.3026 -0.2035
  361MPD2     C 5454   2.367   1.058  16.747  0.7369  0.3029  0.7523
  361MPD2    C1 5455   2.368   1.183  16.793  0.0946 -0.5651 -0.4334
  361MPD2    C2 5456   2.482   1.230  16.856  0.4116 -0.1222  0.1925
  361MPD2    C3 5457   2.596   1.154  16.868  0.3436 -0.3789  0.0816
  361MPD2    C4 5458   2.589   1.025  16.817 -0.0545  0.1057 -0.3353
  361MPD2    C5 5459   2.476   0.984  16.758  0.5938 -0.1596 -0.1024
  361MPD2     H 5460   2.473   1.333  16.890 -1.2890 -0.1009 -0.3032
  361MPD2    H1 5461   2.676   0.961  16.804 -0.6618 -0.7337 -0.2449
  361MPD2    H2 5462   2.281   1.018  16.696  1.5749  1.1310 -1.2904
  361MPD2    H3 5463   2.470   0.884  16.718 -0.3288 -0.2010  0.1472
  361MPD2     N 5464   2.710   1.188  16.940 -0.4737 -0.0719  0.8244
  361MPD2    H5 5465   2.786   1.120  16.938 -0.8399 -0.4676  0.3873
  361MPD2    N1 5466   2.250   1.257  16.776 -0.4170 -0.3390 -0.5684
  361MPD2    H7 5467   2.165   1.204  16.761 -0.8220  0.5496 -1.3912
  362TMC3    C1 5468   2.103   1.436  16.795  0.0998  1.1480  0.3129
  362TMC3    C2 5469   2.029   1.378  16.895  0.1329 -0.0877 -0.2051
  362TMC3    C3 5470   1.935   1.462  16.945  0.1220  0.8522  0.3913
  362TMC3    C4 5471   2.076   1.557  16.735  0.9359  0.0642 -0.7234
  362TMC3    C5 5472   1.966   1.626  16.780 -0.2641 -0.3521 -0.2568
  362TMC3    C6 5473   1.893   1.584  16.890  0.8081  0.3796 -0.2970
  362TMC3     C 5474   2.238   1.390  16.789 -0.4607  0.8606  0.3726
  362TMC3     O 5475   2.325   1.476  16.789  0.5832 -1.0334  0.0547
  362TMC3     H 5476   2.039   1.279  16.937 -0.4053 -0.9179 -2.0840
  362TMC3    H1 5477   2.141   1.609  16.665 -1.1494  1.7048 -1.4401
  362TMC3    H2 5478   1.812   1.647  16.926  2.5068  1.6381  1.2790
  362TMC3    C7 5479   1.908   1.721  16.687 -1.3608  0.0812 -0.2458
  362TMC3    C8 5480   1.875   1.422  17.064 -0.0933  0.3471 -0.0063
  362TMC3    O1 5481   1.827   1.796  16.739  0.0284 -0.1548 -0.8870
  362TMC3    O2 5482   1.860   1.300  17.080 -0.0431  0.0537 -0.1443
  363TMC3    C1 5483   0.126   3.944   9.657  0.2243  0.3450  0.4631
  363TMC3    C2 5484   0.170   3.882   9.763 -0.2390  0.4404  0.2248
  363TMC3    C3 5485   0.153   3.935   9.887  0.0063 -0.3384 -0.4259
  363TMC3    C4 5486   0.046   4.061   9.670 -0.6357  0.0436 -0.1489
  363TMC3    C5 5487   0.018   4.106   9.802 -0.2478 -0.1453 -0.2126
  363TMC3    C6 5488   0.075   4.047   9.911 -0.8648  0.6390 -0.0708
  363TMC3     C 5489   0.132   3.872   9.530  0.3336  0.1059  0.2150
  363TMC3     O 5490   0.150   3.752   9.529  0.4355 -0.0936  0.0023
  363TMC3     H 5491   0.202   3.779   9.747  2.8226  1.7701 -2.1443
  363TMC3    H1 5492   4.727   4.094   9.585  1.5212  2.3980 -0.7037
  363TMC3    H2 5493   0.070   4.077  10.015  2.9690  0.0480  0.2828
  363TMC3    C7 5494   4.684   4.225   9.821 -0.5357  0.0197  0.1954
  363TMC3    C8 5495   0.174   3.850  10.007 -0.4627  1.3841  0.5030
  363TMC3    O1 5496   4.643   4.273   9.715 -0.1647  0.6162 -0.2136
  363TMC3    O2 5497   0.103   3.859  10.107 -0.2484 -0.1480 -0.5001
  364MPD2     C 5498   3.808   3.179  10.401  0.2297  0.1015  0.0342
  364MPD2    C1 5499   3.894   3.288  10.413 -0.7318 -0.8807 -0.3439
  364MPD2    C2 5500   4.018   3.275  10.470 -0.1826 -0.2605  0.4725
  364MPD2    C3 5501   4.058   3.150  10.514  0.3825  0.9954 -0.4060
  364MPD2    C4 5502   3.976   3.041  10.497 -0.0926  0.0016  0.1619
  364MPD2    C5 5503   3.845   3.053  10.450 -0.1985 -0.8654 -0.0254
  364MPD2     H 5504   4.094   3.352  10.465  0.9048 -1.4896 -1.8260
  364MPD2    H1 5505   4.017   2.943  10.518  1.1899  0.0925 -1.8486
  364MPD2    H2 5506   3.713   3.179  10.349  2.2874 -1.0908 -3.6885
  364MPD2    H3 5507   3.783   2.967  10.429 -0.1681 -1.5073  2.5232
  364MPD2     N 5508   4.179   3.126  10.590 -0.0652 -0.5956  0.4154
  364MPD2    H5 5509   4.195   3.032  10.623 -1.2263 -0.5954  1.0068
  364MPD2    N1 5510   3.855   3.402  10.342 -0.0287  0.5425  0.3286
  364MPD2    H7 5511   3.762   3.396  10.302 -0.5405  0.0249  1.5865
  365TMC3    C1 5512   3.822   3.626  10.275 -0.1805 -0.3965  0.5312
  365TMC3    C2 5513   3.717   3.596  10.187  0.3752 -0.3650  0.4624
  365TMC3    C3 5514   3.635   3.699  10.157  0.4736 -0.3363  0.0302
  365TMC3    C4 5515   3.844   3.750  10.333 -0.1322  0.8350 -0.7176
  365TMC3    C5 5516   3.769   3.852  10.281  0.2471  0.2661  0.6082
  365TMC3    C6 5517   3.665   3.825  10.201 -0.8388 -0.3497 -0.0239
  365TMC3     C 5518   3.904   3.529  10.344 -0.1129  0.0826 -0.1526
  365TMC3     O 5519   3.997   3.560  10.418  0.4216  0.0391  0.1926
  365TMC3     H 5520   3.700   3.496  10.148 -1.6543  0.0289  0.3606
  365TMC3    H1 5521   3.916   3.769  10.411 -0.9359 -0.1297  0.2451
  365TMC3    H2 5522   3.597   3.906  10.179 -0.0620  0.2530 -0.1917
  365TMC3    C7 5523   3.787   3.993  10.307  0.3863 -0.4498  0.5032
  365TMC3    C8 5524   3.544   3.693  10.040  0.6376  0.3355  0.2749
  365TMC3    O1 5525   3.730   4.076  10.237 -0.4559  0.1013 -0.0026
  365TMC3    O2 5526   3.461   3.783  10.029  0.2750  0.1458 -0.8224
  366MPD2     C 5527   3.089   4.132  15.071 -0.8897  1.0105 -0.3764
  366MPD2    C1 5528   3.174   4.198  15.155 -0.4012 -0.3692  0.2634
  366MPD2    C2 5529   3.301   4.158  15.165  0.1349  0.6099 -0.2666
  366MPD2    C3 5530   3.353   4.085  15.066  0.2025  0.0514 -0.6424
  366MPD2    C4 5531   3.272   4.010  14.979  0.2350 -0.6461  0.1856
  366MPD2    C5 5532   3.135   4.033  14.993 -0.3809 -0.4248 -0.0205
  366MPD2     H 5533   3.370   4.205  15.235  0.0622  0.1088  0.1485
  366MPD2    H1 5534   3.312   3.937  14.909  0.3637 -0.6313  0.2448
  366MPD2    H2 5535   2.985   4.163  15.068 -1.1351  0.3600  1.3658
  366MPD2    H3 5536   3.074   3.984  14.918 -0.8653 -2.3146  1.6347
  366MPD2     N 5537   3.499   4.080  15.042  0.3433  0.1279 -0.0824
  366MPD2    H5 5538   3.527   3.990  15.005  1.0421  0.9945 -1.6480
  366MPD2    N1 5539   3.123   4.308  15.226  0.2657  0.1081 -0.1987
  366MPD2    H7 5540   3.024   4.328  15.211  0.2557  0.6376  0.5197
  367TMC3    C1 5541   3.126   4.521  15.328  0.2787 -0.1420  0.2411
  367TMC3    C2 5542   3.198   4.615  15.405 -0.6605  0.1479 -0.0973
  367TMC3    C3 5543   3.140   0.001  15.423 -0.4250 -0.6561  0.1736
  367TMC3    C4 5544   3.019   4.564  15.252 -0.3795 -0.1728 -0.5011
  367TMC3    C5 5545   2.980   4.693  15.265 -0.5000 -0.0892  0.0949
  367TMC3    C6 5546   3.032   0.041  15.356 -0.1110 -1.1166  0.6361
  367TMC3     C 5547   3.195   4.394  15.307 -0.0467  0.7274 -0.0027
  367TMC3     O 5548   3.303   4.369  15.357 -0.1648 -0.1205  0.8007
  367TMC3     H 5549   3.285   4.588  15.465 -0.2447 -1.3721 -1.3911
  367TMC3    H1 5550   2.999   4.501  15.166 -2.1998  0.4865 -0.5548
  367TMC3    H2 5551   2.996   0.143  15.365  0.1803 -0.6658 -3.4191
  367TMC3    C7 5552   2.833   4.716  15.245  0.0290  0.8231 -1.1744
  367TMC3    C8 5553   3.192   0.083  15.529 -0.4975 -0.0919 -0.0304
  367TMC3    O1 5554   2.794   0.092  15.273  0.3623 -0.1798 -0.6061
  367TMC3    O2 5555   3.310   0.074  15.559 -0.2287 -0.0128  0.4559
  368MPD2     C 5556   4.209   1.846  12.697 -1.3812 -0.4367  0.8539
  368MPD2    C1 5557   4.107   1.908  12.634 -0.0063 -0.3718  0.0064
  368MPD2    C2 5558   4.132   1.963  12.504 -0.7020 -0.6131  0.0606
  368MPD2    C3 5559   4.258   1.951  12.446  0.0714  0.1637 -0.3717
  368MPD2    C4 5560   4.353   1.877  12.518  0.2687 -0.5235  0.5559
  368MPD2    C5 5561   4.327   1.824  12.640 -0.3097  0.3336  0.4640
  368MPD2     H 5562   4.058   2.030  12.461  2.4742  2.1851 -1.0721
  368MPD2    H1 5563   4.455   1.875  12.483  0.2787 -1.1393  0.6288
  368MPD2    H2 5564   4.211   1.812  12.800  0.0398 -1.9475  0.3387
  368MPD2    H3 5565   4.414   1.789  12.695  0.3938  1.0786 -0.1771
  368MPD2     N 5566   4.299   2.027  12.325 -0.1348  0.0218 -0.0823
  368MPD2    H5 5567   4.389   2.003  12.285  0.1729  0.0591  0.5891
  368MPD2    N1 5568   3.980   1.922  12.698 -0.1608 -0.4512 -0.1621
  368MPD2    H7 5569   3.977   1.907  12.799 -2.2814  0.9309 -0.0044
  369TMC3    C1 5570   3.743   1.966  12.718  0.6794 -0.0173 -0.5866
  369TMC3    C2 5571   3.680   2.080  12.693  0.3884  0.5244  0.4241
  369TMC3    C3 5572   3.587   2.122  12.779  0.6619  1.0014 -0.2472
  369TMC3    C4 5573   3.726   1.900  12.838 -0.1206  0.2638 -0.4011
  369TMC3    C5 5574   3.618   1.938  12.917 -0.0683 -0.3582 -0.0910
  369TMC3    C6 5575   3.543   2.056  12.890  0.0084 -0.1193 -0.2509
  369TMC3     C 5576   3.864   1.968  12.636  0.0578 -0.0157  0.7198
  369TMC3     O 5577   3.837   2.003  12.522  0.2704  0.1293 -0.0290
  369TMC3     H 5578   3.696   2.150  12.612 -1.6375  1.4043  0.7733
  369TMC3    H1 5579   3.781   1.809  12.860 -1.4428 -0.0305  1.6858
  369TMC3    H2 5580   3.469   2.096  12.958  0.2804  1.1384 -0.6915
  369TMC3    C7 5581   3.558   1.845  13.007  0.8777 -0.4681  0.3233
  369TMC3    C8 5582   3.522   2.244  12.746  0.0519 -0.2252  0.3614
  369TMC3    O1 5583   3.609   1.736  13.029  0.3773 -0.5944  0.8325
  369TMC3    O2 5584   3.399   2.263  12.757 -0.3526  0.0638 -0.1456
  370TMC3    C1 5585   3.593   2.382  15.815  0.4501 -0.5232 -0.3072
  370TMC3    C2 5586   3.588   2.321  15.944  0.1796 -0.2211  1.0113
  370TMC3    C3 5587   3.609   2.184  15.953 -0.0238  0.6415 -0.2164
  370TMC3    C4 5588   3.621   2.304  15.702  0.6825 -0.8752  0.2968
  370TMC3    C5 5589   3.650   2.171  15.724  0.1493  0.3474 -0.2167
  370TMC3    C6 5590   3.644   2.105  15.844  0.4977 -1.0525  0.7118
  370TMC3     C 5591   3.532   2.509  15.795  0.5317 -0.0581 -0.0780
  370TMC3     O 5592   3.430   2.532  15.859 -0.0121  0.1260 -0.0272
  370TMC3     H 5593   3.551   2.383  16.025  1.1991 -0.4289  1.6303
  370TMC3    H1 5594   3.624   2.346  15.603 -0.4564  0.6713  0.9241
  370TMC3    H2 5595   3.643   1.998  15.855  0.1607 -0.9549  1.6199
  370TMC3    C7 5596   3.685   2.081  15.611 -0.1921 -0.0747 -0.3495
  370TMC3    C8 5597   3.594   2.106  16.074  0.0679  0.8705  0.4648
  370TMC3    O1 5598   3.653   2.119  15.500  0.9212  0.1938 -0.0867
  370TMC3    O2 5599   3.604   1.984  16.065  0.2176  0.0481  0.0742
  371TMC3    C1 5600   0.199   0.537  15.133  0.3538 -0.1492  0.3251
  371TMC3    C2 5601   0.095   0.509  15.215  0.0906  0.4356  0.6527
  371TMC3    C3 5602   0.004   0.606  15.245 -0.1024  0.8717  0.0635
  371TMC3    C4 5603   0.211   0.655  15.069 -0.4783  0.5827  0.2232
  371TMC3    C5 5604   0.121   0.747  15.098  0.2381  0.3056 -0.1921
  371TMC3    C6 5605   0.016   0.729  15.189  0.0593  0.2328  0.5765
  371TMC3     C 5606   0.282   0.430  15.084 -0.2659  0.0066 -0.2465
  371TMC3     O 5607   0.348   0.451  14.986  0.4640  0.0726 -0.2724
  371TMC3     H 5608   0.066   0.409  15.245  1.5971 -0.6460 -1.5295
  371TMC3    H1 5609   0.298   0.679  15.009  0.6751 -0.8415  1.3057
  371TMC3    H2 5610   4.671   0.797  15.186  1.0799  1.5695  2.5039
  371TMC3    C7 5611   0.124   0.873  15.027  0.4063  0.5053 -0.3817
  371TMC3    C8 5612   4.628   0.570  15.327 -0.6762 -0.0375 -0.3229
  371TMC3    O1 5613   0.063   0.968  15.077 -0.1282 -1.0858 -0.6128
  371TMC3    O2 5614   4.601   0.455  15.352 -0.4027  0.0389  0.2699
  372MPD2     C 5615   4.094   2.099  12.938  0.2466 -0.0126  0.1479
  372MPD2    C1 5616   4.190   2.024  12.980 -0.6489 -0.2564 -0.3377
  372MPD2    C2 5617   4.170   1.934  13.080  0.3154  0.0548 -0.0439
  372MPD2    C3 5618   4.046   1.919  13.133 -0.0632 -0.7174 -0.0925
  372MPD2    C4 5619   3.933   1.990  13.076  0.4536  0.2892 -0.4218
  372MPD2    C5 5620   3.965   2.084  12.980 -0.4177  0.4535  0.9956
  372MPD2     H 5621   4.253   1.875  13.117  0.2142 -1.5714 -2.4056
  372MPD2    H1 5622   3.829   1.973  13.104  0.0721  1.3087 -1.1953
  372MPD2    H2 5623   4.110   2.180  12.868  2.0098  2.3821  3.3152
  372MPD2    H3 5624   3.886   2.149  12.943  0.0501  1.2514  1.3853
  372MPD2     N 5625   4.027   1.831  13.238 -0.3324  0.2699 -0.8492
  372MPD2    H5 5626   4.109   1.779  13.268 -1.9923 -1.3711  0.8614
  372MPD2    N1 5627   4.323   2.039  12.928  0.3228  0.1177  0.6545
  372MPD2    H7 5628   4.397   1.985  12.972 -1.8770 -0.7711  3.2635
  373TMC3    C1 5629   3.929   1.724  13.416  0.3281  0.0996 -0.2687
  373TMC3    C2 5630   3.928   1.767  13.545  0.5989 -0.0824  0.6397
  373TMC3    C3 5631   3.947   1.678  13.640  0.2009 -0.0617 -0.1307
  373TMC3    C4 5632   3.969   1.601  13.374  0.2205 -0.0121 -0.4981
  373TMC3    C5 5633   3.979   1.515  13.477 -0.1041  0.0299  0.6324
  373TMC3    C6 5634   3.978   1.549  13.610 -0.5288 -0.1406  0.0980
  373TMC3     C 5635   3.917   1.825  13.318  1.2622 -0.8974  0.4322
  373TMC3     O 5636   3.829   1.911  13.327 -0.3485 -0.1880  0.5767
  373TMC3     H 5637   3.902   1.869  13.570 -0.9695 -0.6501  1.3197
  373TMC3    H1 5638   3.995   1.575  13.271 -2.2052 -2.7987 -0.3893
  373TMC3    H2 5639   3.992   1.473  13.686  0.1128 -0.4437 -0.3281
  373TMC3    C7 5640   4.031   1.385  13.439 -0.4260  0.1752  0.5254
  373TMC3    C8 5641   4.016   1.733  13.758  0.1014  0.1055  0.4548
  373TMC3    O1 5642   4.074   1.383  13.321 -0.4360  0.0200  0.2877
  373TMC3    O2 5643   4.088   1.835  13.746  0.4021  0.8963 -0.8341
  374TMC3    C1 5644   4.299   2.568   9.880 -0.1032 -1.0637  0.2203
  374TMC3    C2 5645   4.338   2.673   9.966  0.1307 -0.3637 -0.4721
  374TMC3    C3 5646   4.472   2.674   9.979  0.0916  0.1151  0.0222
  374TMC3    C4 5647   4.384   2.475   9.820 -0.6028  0.3150  0.2293
  374TMC3    C5 5648   4.515   2.482   9.840  0.1308 -1.1842 -0.1205
  374TMC3    C6 5649   4.553   2.581   9.924 -0.1714 -0.1996 -0.0154
  374TMC3     C 5650   4.159   2.544   9.845 -0.5135  0.2326  0.5107
  374TMC3     O 5651   4.119   2.427   9.863  0.5765  0.3927  0.3998
  374TMC3     H 5652   4.277   2.747  10.015  1.5197  0.3474  0.1812
  374TMC3    H1 5653   4.335   2.406   9.752 -0.2860 -1.8416  2.1852
  374TMC3    H2 5654   4.657   2.593   9.949 -0.1676  0.9285 -0.5819
  374TMC3    C7 5655   4.614   2.380   9.810 -0.0904  0.4688  0.3618
  374TMC3    C8 5656   4.527   2.801  10.019 -0.1176  0.1137 -0.2081
  374TMC3    O1 5657   4.731   2.421   9.796 -0.4560 -0.3690  0.9444
  374TMC3    O2 5658   4.463   2.902   9.987 -0.4278  0.6114 -0.2607
  375MPD2     C 5659   0.352   2.849  17.035 -0.0628  0.0857 -0.0340
  375MPD2    C1 5660   0.303   2.865  16.904  0.6190 -0.0598 -0.0669
  375MPD2    C2 5661   0.368   2.804  16.800  0.6486  0.5190 -0.5872
  375MPD2    C3 5662   0.473   2.721  16.822 -0.3849 -0.2394 -0.0274
  375MPD2    C4 5663   0.525   2.719  16.950  0.4136  0.9647  0.7602
  375MPD2    C5 5664   0.464   2.773  17.058  0.3015 -0.0900 -0.1208
  375MPD2     H 5665   0.315   2.815  16.706 -1.5424  1.2384  0.7221
  375MPD2    H1 5666   0.616   2.665  16.973 -1.2142 -2.4653 -0.8332
  375MPD2    H2 5667   0.302   2.881  17.126 -0.4528 -0.4345 -0.0659
  375MPD2    H3 5668   0.491   2.756  17.162  0.2952  0.7781  0.0235
  375MPD2     N 5669   0.543   2.656  16.715 -0.3944  0.3393 -0.4799
  375MPD2    H5 5670   0.628   2.606  16.735 -0.6270 -0.3518 -1.2601
  375MPD2    N1 5671   0.189   2.949  16.876 -0.3448 -0.4731  0.5561
  375MPD2    H7 5672   0.155   2.953  16.781 -3.4534 -0.1989  1.6795
  376TMC3    C1 5673   0.582   2.569  16.497 -0.0659  0.2301 -0.3872
  376TMC3    C2 5674   0.717   2.590  16.493  0.6511 -0.0618  0.4284
  376TMC3    C3 5675   0.781   2.530  16.386 -0.3937 -0.7778  0.3841
  376TMC3    C4 5676   0.512   2.493  16.403 -0.0464  0.0304  0.0396
  376TMC3    C5 5677   0.578   2.442  16.295 -0.1329  0.0179  0.7928
  376TMC3    C6 5678   0.713   2.459  16.288 -0.1622 -0.0310 -0.1692
  376TMC3     C 5679   0.496   2.642  16.589 -0.0654  0.6197 -1.0639
  376TMC3     O 5680   0.378   2.648  16.557 -0.3379  0.1872 -0.3040
  376TMC3     H 5681   0.760   2.661  16.562  0.7800 -0.7541  1.0548
  376TMC3    H1 5682   0.405   2.474  16.414  0.3355 -2.9703 -1.4393
  376TMC3    H2 5683   0.775   2.416  16.209  1.8606  1.1978  0.7471
  376TMC3    C7 5684   0.514   2.426  16.164 -0.5457  0.4233  0.2759
  376TMC3    C8 5685   0.903   2.589  16.342 -0.1421 -0.0934 -0.1396
  376TMC3    O1 5686   0.575   2.465  16.069  0.0716  0.4012 -0.7499
  376TMC3    O2 5687   0.932   2.582  16.224 -0.3114  0.6743 -0.2697
  377MPD2     C 5688   2.721   1.878  12.989 -0.1636  0.1406  0.8137
  377MPD2    C1 5689   2.837   1.850  12.925  0.2071 -0.5124 -0.3485
  377MPD2    C2 5690   2.893   1.726  12.943 -0.2259  0.1102  0.3747
  377MPD2    C3 5691   2.838   1.641  13.031  0.5734  0.0400 -0.2604
  377MPD2    C4 5692   2.721   1.675  13.095 -0.0780  0.0111 -0.3570
  377MPD2    C5 5693   2.676   1.799  13.084  0.4917 -0.0182  0.8564
  377MPD2     H 5694   2.989   1.702  12.899  0.4340  0.7560  1.4731
  377MPD2    H1 5695   2.674   1.614  13.172  0.2361  0.2297  0.0080
  377MPD2    H2 5696   2.674   1.975  12.974  0.7762  0.6188  0.9980
  377MPD2    H3 5697   2.594   1.834  13.146 -0.2772  0.0161 -0.1789
  377MPD2     N 5698   2.893   1.510  13.042 -0.3225  0.2182 -0.3325
  377MPD2    H5 5699   2.971   1.481  12.984 -0.1294 -1.5467  0.8125
  377MPD2    N1 5700   2.887   1.959  12.844 -0.0252 -0.1020 -0.1043
  377MPD2    H7 5701   2.829   2.041  12.834  0.8964  0.5858  0.2074
  378TMC3    C1 5702   2.977   2.201  12.517  0.5771 -0.1039  0.0687
  378TMC3    C2 5703   2.951   2.136  12.632 -0.1088 -0.0111 -0.2317
  378TMC3    C3 5704   3.052   2.069  12.696  0.5972  0.8265  0.5055
  378TMC3    C4 5705   3.107   2.196  12.463 -0.4604  0.2454  0.5633
  378TMC3    C5 5706   3.198   2.125  12.532 -0.1981 -0.0183 -0.7828
  378TMC3    C6 5707   3.179   2.052  12.644  0.3121 -0.5160 -0.2920
  378TMC3     C 5708   2.864   2.248  12.437  0.5242  0.7151 -0.1068
  378TMC3     O 5709   2.763   2.270  12.504  0.2996  0.9861  0.0801
  378TMC3     H 5710   2.850   2.134  12.672 -0.0998 -1.3064 -0.2765
  378TMC3    H1 5711   3.130   2.244  12.369  0.4451  0.7167  1.0245
  378TMC3    H2 5712   3.256   1.993  12.693  1.2849  1.8219  1.0322
  378TMC3    C7 5713   3.330   2.106  12.462 -0.0441 -0.2372  0.9364
  378TMC3    C8 5714   3.016   1.959  12.793  0.4771  0.2410 -0.0684
  378TMC3    O1 5715   3.387   1.998  12.475 -1.2207  0.0932  0.4525
  378TMC3    O2 5716   3.111   1.886  12.812 -0.3217  0.0020 -0.2798
  379MPD2     C 5717   3.549   0.325  16.525 -0.6057  0.0459 -0.1196
  379MPD2    C1 5718   3.647   0.292  16.430  0.5452  0.2690 -0.0017
  379MPD2    C2 5719   3.753   0.210  16.471  0.6545 -0.1761  0.2412
  379MPD2    C3 5720   3.759   0.158  16.601  0.3289 -0.4445 -0.1462
  379MPD2    C4 5721   3.656   0.188  16.682 -0.5663 -0.0307 -0.7580
  379MPD2    C5 5722   3.552   0.273  16.648  0.1749  0.0829  0.6560
  379MPD2     H 5723   3.825   0.174  16.398 -0.0402 -0.0929 -0.4892
  379MPD2    H1 5724   3.650   0.148  16.782  1.2103  0.1587 -0.5729
  379MPD2    H2 5725   3.459   0.385  16.511 -1.1611 -0.7851 -0.1200
  379MPD2    H3 5726   3.463   0.289  16.708 -0.4001 -1.2348  0.1742
  379MPD2     N 5727   3.859   0.088  16.657 -0.9052 -0.3361 -0.0970
  379MPD2    H5 5728   3.840   0.058  16.753  4.1345 -1.1903  0.6732
  379MPD2    N1 5729   3.646   0.355  16.305 -0.0274 -0.5604  0.2118
  379MPD2    H7 5730   3.573   0.424  16.296  0.4841  0.1961  1.9310
  380TMC3    C1 5731   3.696   0.406  16.079 -0.1054 -0.1422 -0.0486
  380TMC3    C2 5732   3.753   0.360  15.967 -0.1007 -0.0784  0.5159
  380TMC3    C3 5733   3.719   0.416  15.847  0.6687 -0.1442  0.1633
  380TMC3    C4 5734   3.595   0.494  16.086  0.5743  0.3428 -0.2790
  380TMC3    C5 5735   3.547   0.538  15.969 -0.4970 -0.2635  0.1100
  380TMC3    C6 5736   3.608   0.495  15.850 -0.0916 -0.2062  0.1245
  380TMC3     C 5737   3.724   0.324  16.195  0.5003 -0.5904 -0.1822
  380TMC3     O 5738   3.810   0.241  16.188  0.2316 -0.3304  0.2933
  380TMC3     H 5739   3.838   0.294  15.983 -0.4540 -0.3411  1.3100
  380TMC3    H1 5740   3.545   0.533  16.174  0.0438 -0.0060 -0.4214
  380TMC3    H2 5741   3.573   0.540  15.757 -1.8886  1.3576  1.5699
  380TMC3    C7 5742   3.403   0.516  15.963  0.2701 -1.2861 -0.1664
  380TMC3    C8 5743   3.794   0.394  15.719 -0.1245  0.5809 -0.2616
  380TMC3    O1 5744   3.332   0.558  16.056  0.4691 -0.5117  0.0277
  380TMC3    O2 5745   3.747   0.445  15.619  0.6026 -0.4648 -0.0969
  381TMC3    C1 5746   3.577   1.367  15.997 -0.3352 -0.4437  0.1278
  381TMC3    C2 5747   3.668   1.462  15.950  0.0813  0.8625 -0.0718
  381TMC3    C3 5748   3.698   1.575  16.020 -0.4993 -0.9008  0.0596
  381TMC3    C4 5749   3.519   1.390  16.121 -0.7655  0.5886  0.3728
  381TMC3    C5 5750   3.546   1.511  16.174 -0.1877  1.1320  0.3974
  381TMC3    C6 5751   3.621   1.615  16.127  0.3662  0.2381 -0.3550
  381TMC3     C 5752   3.593   1.227  15.953  0.0226  0.4088  0.0993
  381TMC3     O 5753   3.545   1.136  16.019  0.3157  0.0159  0.3942
  381TMC3     H 5754   3.712   1.455  15.851  0.2962 -3.1506  0.2827
  381TMC3    H1 5755   3.460   1.319  16.178  0.5139 -2.7917 -2.4889
  381TMC3    H2 5756   3.642   1.703  16.187 -0.7586 -0.7610  1.5188
  381TMC3    C7 5757   3.542   1.496  16.321  0.1490 -0.8700 -0.2095
  381TMC3    C8 5758   3.818   1.652  15.973 -0.6548 -0.4539  0.1268
  381TMC3    O1 5759   3.597   1.397  16.365  0.9904 -0.0226  0.2305
  381TMC3    O2 5760   3.885   1.595  15.889  0.8867  0.8076 -0.0683
  382MPD2     C 5761   2.460   4.069  17.110 -0.4406 -0.7557 -0.1352
  382MPD2    C1 5762   2.567   3.980  17.113  0.5893 -0.1547 -0.6046
  382MPD2    C2 5763   2.544   3.848  17.119  0.2995  0.1344 -0.2633
  382MPD2    C3 5764   2.425   3.786  17.145  0.1472  0.2992 -0.6178
  382MPD2    C4 5765   2.318   3.874  17.150 -0.1343 -0.1523 -0.6819
  382MPD2    C5 5766   2.335   4.012  17.130  0.2505  0.2016  0.1759
  382MPD2     H 5767   2.636   3.791  17.119  0.6970  0.7851  1.3750
  382MPD2    H1 5768   2.217   3.835  17.155 -0.0316 -0.2437  0.5877
  382MPD2    H2 5769   2.460   4.177  17.100  0.5539 -0.6406  1.0748
  382MPD2    H3 5770   2.246   4.074  17.133  0.4483  0.4713  0.5185
  382MPD2     N 5771   2.414   3.643  17.157 -0.1787 -0.4337 -0.2831
  382MPD2    H5 5772   2.322   3.607  17.179 -0.8694  0.1642 -2.1794
  382MPD2    N1 5773   2.702   4.018  17.108  0.7261  0.5051 -0.1711
  382MPD2    H7 5774   2.774   3.947  17.114 -0.4195 -0.8151 -1.8991
  383TMC3    C1 5775   2.490   3.410  17.178 -0.0002 -0.4917  0.4194
  383TMC3    C2 5776   2.364   3.368  17.222  0.1222 -0.2329  0.5216
  383TMC3    C3 5777   2.358   3.237  17.258 -0.5401 -0.8998  0.6423
  383TMC3    C4 5778   2.593   3.331  17.178 -0.4929  0.0895  0.3069
  383TMC3    C5 5779   2.575   3.199  17.195  0.3005 -0.5857  0.8954
  383TMC3    C6 5780   2.466   3.145  17.243 -0.3969 -0.4331  0.5928
  383TMC3     C 5781   2.517   3.553  17.146 -0.1431  0.6486 -0.2061
  383TMC3     O 5782   2.625   3.573  17.092  0.6167  0.4570  0.4495
  383TMC3     H 5783   2.290   3.440  17.254 -1.0027 -1.0325 -0.2456
  383TMC3    H1 5784   2.686   3.379  17.151  0.4892 -1.6569  0.6120
  383TMC3    H2 5785   2.467   3.042  17.275 -2.5062 -0.4033  0.7803
  383TMC3    C7 5786   2.688   3.114  17.186  0.0594 -0.0049 -0.0077
  383TMC3    C8 5787   2.225   3.184  17.305 -0.4677 -0.2130  0.6084
  383TMC3    O1 5788   2.700   3.026  17.270  0.0898 -0.5626 -0.1251
  383TMC3    O2 5789   2.132   3.263  17.292 -0.2449  0.1744 -0.4176
  384MPD2     C 5790   3.702   0.725  11.920  0.9022 -0.0205  0.6244
  384MPD2    C1 5791   3.721   0.600  11.969  0.9589 -0.3370  0.0685
  384MPD2    C2 5792   3.823   0.531  11.914 -0.2368  0.0776 -0.2827
  384MPD2    C3 5793   3.900   0.573  11.810 -0.0342  0.0725  0.0717
  384MPD2    C4 5794   3.879   0.694  11.762  0.0568 -0.4902  0.5629
  384MPD2    C5 5795   3.785   0.774  11.825 -0.1776  0.2591  0.0735
  384MPD2     H 5796   3.847   0.433  11.953 -1.8447 -0.2676 -0.1666
  384MPD2    H1 5797   3.943   0.747  11.693 -1.2459 -1.3348 -1.3004
  384MPD2    H2 5798   3.623   0.792  11.953 -1.5776 -1.7415 -1.8026
  384MPD2    H3 5799   3.765   0.869  11.778  1.4694  1.0849  1.0501
  384MPD2     N 5800   3.999   0.489  11.745 -0.6851  0.4985  0.4420
  384MPD2    H5 5801   4.062   0.534  11.680 -0.7705 -0.1912 -0.1183
  384MPD2    N1 5802   3.647   0.540  12.072 -0.4101 -0.1623 -0.6566
  384MPD2    H7 5803   3.686   0.457  12.115 -0.3395 -0.0686 -0.5376
  385TMC3    C1 5804   4.152   0.323  11.738 -0.1859 -0.7732  0.0346
  385TMC3    C2 5805   4.153   0.188  11.707  0.3791 -0.1882 -0.3360
  385TMC3    C3 5806   4.232   0.105  11.780 -0.0111  0.0495  0.0408
  385TMC3    C4 5807   4.233   0.377  11.834  0.0217  0.2109  0.7519
  385TMC3    C5 5808   4.303   0.288  11.905  0.4727 -0.4019  0.4623
  385TMC3    C6 5809   4.315   0.158  11.869  0.3826  0.1060 -0.1154
  385TMC3     C 5810   4.022   0.359  11.766  0.4970 -0.7984  0.0896
  385TMC3     O 5811   3.955   0.285  11.836 -0.5668  0.2750  0.1588
  385TMC3     H 5812   4.070   0.155  11.646  0.3952  0.7899 -0.8872
  385TMC3    H1 5813   4.217   0.480  11.866 -1.3695  0.1824  0.1298
  385TMC3    H2 5814   4.382   0.095  11.926  0.6307  0.5261  0.0536
  385TMC3    C7 5815   4.292   0.326  12.044 -0.0904 -0.2012 -0.8747
  385TMC3    C8 5816   4.201   4.703  11.789 -0.4663  0.5868 -0.3807
  385TMC3    O1 5817   4.395   0.359  12.098 -0.2452 -0.8165  0.6066
  385TMC3    O2 5818   4.226   4.650  11.896 -0.6552  0.1065 -0.3039
  386TMC3    C1 5819   4.209   2.790  11.685 -0.3798  0.1683 -0.3693
  386TMC3    C2 5820   4.249   2.904  11.631 -0.2076  0.6210 -0.5668
  386TMC3    C3 5821   4.156   3.005  11.606 -0.3147  0.1452  0.5921
  386TMC3    C4 5822   4.081   2.771  11.726 -0.4500 -0.4748 -0.7350
  386TMC3    C5 5823   3.997   2.873  11.701 -0.6171  1.0662  0.2809
  386TMC3    C6 5824   4.033   2.993  11.654  0.4289  0.6394 -0.8769
  386TMC3     C 5825   4.308   2.688  11.700  0.7171  0.8149 -0.0810
  386TMC3     O 5826   4.421   2.726  11.687  0.1100  0.2724  0.4253
  386TMC3     H 5827   4.355   2.914  11.611  0.0512 -0.7705  0.0932
  386TMC3    H1 5828   4.045   2.681  11.776 -1.3250 -0.5789 -1.5593
  386TMC3    H2 5829   3.956   3.062  11.622 -2.2736 -1.0966  1.9424
  386TMC3    C7 5830   3.855   2.852  11.735  0.4834  0.0222  0.2885
  386TMC3    C8 5831   4.175   3.074  11.488 -0.4562 -0.2096  0.7175
  386TMC3    O1 5832   3.839   2.785  11.837 -0.3944 -0.3350  0.7939
  386TMC3    O2 5833   4.082   3.154  11.456  0.4978 -0.0344  0.1622
  387MPD2     C 5834   2.235   2.981   9.745 -0.0469  0.0021  0.1020
  387MPD2    C1 5835   2.258   2.943   9.876 -0.2548 -0.0755  0.0599
  387MPD2    C2 5836   2.218   2.818   9.921 -0.2952 -0.5117 -0.4549
  387MPD2    C3 5837   2.173   2.718   9.838  0.7293  0.3811 -0.0478
  387MPD2    C4 5838   2.168   2.741   9.704  0.6599  0.5819  0.4286
  387MPD2    C5 5839   2.190   2.874   9.662  0.4246  0.2983 -0.6455
  387MPD2     H 5840   2.220   2.774  10.020 -1.2461  0.6377  0.0742
  387MPD2    H1 5841   2.136   2.673   9.626  0.3225  1.9818 -0.6562
  387MPD2    H2 5842   2.254   3.076   9.698 -1.7151  0.6757  0.7698
  387MPD2    H3 5843   2.194   2.902   9.557 -1.6079  0.7011 -0.6122
  387MPD2     N 5844   2.143   2.599   9.901 -0.0837  0.0802  0.3529
  387MPD2    H5 5845   2.153   2.590  10.001 -3.4195  0.9437  0.7527
  387MPD2    N1 5846   2.322   3.040   9.960 -0.1452 -0.4582 -0.1901
  387MPD2    H7 5847   2.364   3.128   9.931  1.6263 -0.5930  1.9554
  388TMC3    C1 5848   2.401   3.131  10.170  0.6605 -0.1313 -0.5640
  388TMC3    C2 5849   2.498   3.203  10.095  0.0601  0.3044 -0.8405
  388TMC3    C3 5850   2.625   3.202  10.138  0.0623 -0.2234 -0.1055
  388TMC3    C4 5851   2.424   3.087  10.297  1.0411 -0.3753 -0.1095
  388TMC3    C5 5852   2.558   3.086  10.336 -0.2545 -0.4392  0.1526
  388TMC3    C6 5853   2.658   3.139  10.256  0.3977 -0.5969 -0.6575
  388TMC3     C 5854   2.328   3.025  10.098  0.6183  1.0796  0.1762
  388TMC3     O 5855   2.286   2.927  10.163 -0.0622  0.1245  0.1725
  388TMC3     H 5856   2.471   3.231   9.994  0.0401 -0.0357 -0.9277
  388TMC3    H1 5857   2.342   3.036  10.346  0.7562 -1.7273 -1.9989
  388TMC3    H2 5858   2.761   3.120  10.283  0.3253  0.4229  0.3035
  388TMC3    C7 5859   2.596   2.958  10.389 -0.0404 -0.2501 -0.0198
  388TMC3    C8 5860   2.722   3.254  10.048  0.0347 -0.2730  0.4013
  388TMC3    O1 5861   2.708   2.940  10.425 -1.0659  0.5534  0.2786
  388TMC3    O2 5862   2.693   3.283   9.934 -0.1289 -0.0401 -0.6980
  389MPD2     C 5863   1.297   1.336  11.113 -0.0335 -0.0148 -0.1133
  389MPD2    C1 5864   1.305   1.207  11.074  0.0385 -0.3281 -0.6832
  389MPD2    C2 5865   1.293   1.104  11.164  0.0168  0.2551 -0.9579
  389MPD2    C3 5866   1.289   1.124  11.299 -0.1406 -0.0361 -0.4044
  389MPD2    C4 5867   1.301   1.258  11.332  0.5306 -0.0339 -0.2640
  389MPD2    C5 5868   1.301   1.362  11.252  0.2659 -0.9106  1.0332
  389MPD2     H 5869   1.286   1.003  11.127  0.7840 -0.1246 -0.0548
  389MPD2    H1 5870   1.312   1.285  11.436  1.6560 -2.2504  0.2045
  389MPD2    H2 5871   1.307   1.418  11.043  0.2494 -1.1295 -1.3655
  389MPD2    H3 5872   1.315   1.465  11.283 -1.3243 -0.2843 -0.3172
  389MPD2     N 5873   1.257   1.025  11.392  0.0227  0.1029  0.8833
  389MPD2    H5 5874   1.261   1.042  11.492  1.0600  1.7406  0.5626
  389MPD2    N1 5875   1.297   1.198  10.940 -0.3280  0.0462  0.3033
  389MPD2    H7 5876   1.295   1.285  10.888  3.6699 -0.5066 -0.8178
  390TMC3    C1 5877   1.126   0.835  11.462 -0.5260  0.1212  0.1115
  390TMC3    C2 5878   1.131   0.695  11.461 -0.3804 -0.4453 -0.0244
  390TMC3    C3 5879   1.055   0.639  11.558 -0.0823 -0.1338  0.0122
  390TMC3    C4 5880   1.047   0.909  11.541  0.2119 -0.1502  0.3638
  390TMC3    C5 5881   0.971   0.849  11.632  0.4857 -0.0916  0.0146
  390TMC3    C6 5882   0.981   0.711  11.652  0.6812 -0.0210  0.5394
  390TMC3     C 5883   1.213   0.902  11.354 -0.1557 -0.2238  0.2481
  390TMC3     O 5884   1.188   0.855  11.242  0.2906 -0.2939  0.2612
  390TMC3     H 5885   1.192   0.640  11.390 -1.1262  0.4822 -1.3633
  390TMC3    H1 5886   1.050   1.017  11.532 -0.3066 -0.0558  1.3403
  390TMC3    H2 5887   0.904   0.659  11.707  1.2360  1.0869  2.3806
  390TMC3    C7 5888   0.855   0.920  11.683  0.2822 -0.5206 -0.2793
  390TMC3    C8 5889   1.023   0.496  11.555 -0.0499 -0.7060 -0.2752
  390TMC3    O1 5890   0.859   1.043  11.672  0.3141 -0.8070  0.0359
  390TMC3    O2 5891   1.016   0.436  11.450  0.0470 -0.1009  0.0675
  391MPD2     C 5892   0.826   2.325  11.128  0.2928 -0.3134  0.1884
  391MPD2    C1 5893   0.899   2.431  11.096  0.2141  1.1034  0.9535
  391MPD2    C2 5894   0.862   2.506  10.984 -0.4930 -0.2550 -0.1432
  391MPD2    C3 5895   0.734   2.487  10.925 -1.0133 -0.1382 -0.0656
  391MPD2    C4 5896   0.657   2.378  10.964 -0.2991  0.0394 -0.0858
  391MPD2    C5 5897   0.710   2.299  11.060  0.1913  0.1076 -0.2580
  391MPD2     H 5898   0.925   2.582  10.940  1.6146 -2.4902 -0.9696
  391MPD2    H1 5899   0.574   2.338  10.906 -1.8662  1.7588  1.0042
  391MPD2    H2 5900   0.847   2.272  11.220 -0.1937 -1.1815 -0.1986
  391MPD2    H3 5901   0.652   2.213  11.091  1.7289 -0.5901  0.6621
  391MPD2     N 5902   0.689   2.592  10.835  0.1359 -0.2317 -0.0310
  391MPD2    H5 5903   0.746   2.672  10.808 -1.5898  1.1394  0.3878
  391MPD2    N1 5904   1.021   2.441  11.167 -0.3150 -0.3834  0.7829
  391MPD2    H7 5905   1.041   2.373  11.240  0.9277  0.2459  1.0376
  392TMC3    C1 5906   0.530   2.724  10.717  0.0443 -0.4231  0.4157
  392TMC3    C2 5907   0.408   2.721  10.646 -0.3500  0.1991 -0.4224
  392TMC3    C3 5908   0.361   2.840  10.597  0.7413  0.6696  0.2331
  392TMC3    C4 5909   0.597   2.843  10.734  0.2965 -1.3959  0.7876
  392TMC3    C5 5910   0.542   2.962  10.688  0.4051 -0.1225 -0.3192
  392TMC3    C6 5911   0.426   2.959  10.619  0.1913 -0.8372  0.5616
  392TMC3     C 5912   0.560   2.602  10.793 -0.3374  0.6348 -0.0615
  392TMC3     O 5913   0.466   2.527  10.825 -0.1563 -0.0953 -0.6654
  392TMC3     H 5914   0.332   2.647  10.667 -1.2525  0.8618 -1.3433
  392TMC3    H1 5915   0.690   2.840  10.791  1.4084 -0.2556 -0.9733
  392TMC3    H2 5916   0.374   3.050  10.591  2.0418 -0.4004 -1.4430
  392TMC3    C7 5917   0.630   3.077  10.706 -0.0309 -0.0650  0.1793
  392TMC3    C8 5918   0.265   2.839  10.488  0.7616  0.6989 -0.1790
  392TMC3    O1 5919   0.701   3.084  10.803 -0.2630 -0.2523  0.3067
  392TMC3    O2 5920   0.218   2.729  10.458 -0.3547 -0.1934  0.4512
  393TMC3    C1 5921   3.992   0.218  10.852  0.7817 -0.1010  0.2445
  393TMC3    C2 5922   3.911   0.218  10.959  0.1617 -0.3326 -0.5058
  393TMC3    C3 5923   3.889   0.092  11.012  0.2447 -0.6289 -0.0121
  393TMC3    C4 5924   4.060   0.111  10.802  0.0129 -0.3585 -0.0691
  393TMC3    C5 5925   4.042   4.728  10.872  0.6044 -0.2061 -0.2166
  393TMC3    C6 5926   3.942   4.714  10.970  0.1759  0.3333 -0.1531
  393TMC3     C 5927   3.965   0.327  10.759 -0.5991 -0.7228 -0.2925
  393TMC3     O 5928   3.853   0.377  10.774 -0.4697 -0.6222 -0.0119
  393TMC3     H 5929   3.853   0.302  10.995 -1.4844 -1.1483 -1.2579
  393TMC3    H1 5930   4.119   0.122  10.711 -0.0465  1.8326  0.1595
  393TMC3    H2 5931   3.925   4.621  11.023 -2.7967  1.8836  1.6046
  393TMC3    C7 5932   4.135   4.619  10.865 -0.7107 -0.2642 -0.2863
  393TMC3    C8 5933   3.767   0.092  11.095 -0.0585  0.8678 -0.1202
  393TMC3    O1 5934   4.109   4.514  10.926 -0.5158  0.1132  0.3022
  393TMC3    O2 5935   3.715   0.200  11.112 -0.3411  0.4749 -0.4286
  394TMC3    C1 5936   1.251   1.122  10.732 -0.8191 -0.0772  0.0602
  394TMC3    C2 5937   1.139   1.062  10.694  0.2934 -0.4878 -0.8602
  394TMC3    C3 5938   1.130   1.022  10.563  0.3245  0.5397  0.2306
  394TMC3    C4 5939   1.349   1.153  10.645  0.5976  0.1479  0.0650
  394TMC3    C5 5940   1.328   1.128  10.514 -0.4816 -0.0221 -0.4374
  394TMC3    C6 5941   1.220   1.064  10.471 -0.4879 -0.6725  0.4477
  394TMC3     C 5942   1.295   1.083  10.864  0.0974 -0.4931 -0.0391
  394TMC3     O 5943   1.258   0.971  10.897 -0.3385 -0.3862 -0.0163
  394TMC3     H 5944   1.062   1.038  10.767 -0.5532 -1.6886 -2.1614
  394TMC3    H1 5945   1.445   1.188  10.681  0.2630 -0.8140  1.8700
  394TMC3    H2 5946   1.195   1.046  10.367  4.1794 -0.0481 -0.8124
  394TMC3    C7 5947   1.429   1.179  10.420  0.3852 -0.6255  0.6159
  394TMC3    C8 5948   1.054   0.908  10.527 -0.1161  0.4230 -0.1552
  394TMC3    O1 5949   1.512   1.261  10.461 -0.4796 -0.3344 -0.4724
  394TMC3    O2 5950   1.015   0.842  10.622 -0.1955  0.3038  0.3475
  395TMC3    C1 5951   1.152   2.492  14.417 -0.1652  0.3595 -0.2154
  395TMC3    C2 5952   1.045   2.568  14.452  0.1234  0.6499 -0.8720
  395TMC3    C3 5953   1.067   2.701  14.492 -0.6216 -0.9074  0.0212
  395TMC3    C4 5954   1.277   2.547  14.399 -0.3255  0.3029  0.0621
  395TMC3    C5 5955   1.303   2.673  14.448 -0.3274 -0.1163  0.4838
  395TMC3    C6 5956   1.196   2.753  14.482  0.5947 -0.6997 -0.3846
  395TMC3     C 5957   1.140   2.346  14.417 -0.0185 -0.4281 -0.0607
  395TMC3     O 5958   1.038   2.292  14.463 -0.7528 -0.2579 -0.3277
  395TMC3     H 5959   0.946   2.526  14.467  0.0269  1.7858  1.6979
  395TMC3    H1 5960   1.361   2.486  14.367 -1.0690 -1.7582  2.1141
  395TMC3    H2 5961   1.213   2.852  14.523 -0.3184 -1.3596  1.5885
  395TMC3    C7 5962   1.428   2.745  14.421  0.2946 -0.2616 -0.3801
  395TMC3    C8 5963   0.961   2.801  14.502  0.4725  0.0187 -0.8004
  395TMC3    O1 5964   1.434   2.860  14.467  0.1410 -0.0593 -0.2219
  395TMC3    O2 5965   0.997   2.909  14.549  0.0268 -0.0495 -0.1118
  396MPD2     C 5966   0.842   3.675  16.942  0.6058  0.5703 -0.0884
  396MPD2    C1 5967   0.914   3.644  16.831 -0.7639 -0.2781 -0.4169
  396MPD2    C2 5968   0.941   3.748  16.740 -0.9365  0.0060 -0.1608
  396MPD2    C3 5969   0.926   3.879  16.772  0.8055 -0.5950 -0.3245
  396MPD2    C4 5970   0.855   3.909  16.884 -0.5892  0.5541  0.3025
  396MPD2    C5 5971   0.805   3.806  16.962 -0.7100  0.0644  0.3916
  396MPD2     H 5972   0.987   3.731  16.643 -0.0240  0.5585  0.1740
  396MPD2    H1 5973   0.824   4.011  16.904  1.2354  1.2018 -0.1197
  396MPD2    H2 5974   0.804   3.606  17.016  1.9180  0.2481  0.2861
  396MPD2    H3 5975   0.751   3.829  17.053 -0.9340 -0.1191  0.3050
  396MPD2     N 5976   0.975   3.984  16.692  0.2170 -0.5153 -0.0253
  396MPD2    H5 5977   1.008   3.955  16.600  1.3017  0.0283  0.1899
  396MPD2    N1 5978   0.967   3.515  16.817 -0.3318  0.9515 -0.5980
  396MPD2    H7 5979   0.961   3.461  16.902 -0.4723 -1.2843 -2.0413
  397TMC3    C1 5980   1.052   3.324  16.707  0.7564  0.0832 -0.0051
  397TMC3    C2 5981   1.090   3.266  16.586  0.5726  1.0530 -0.1361
  397TMC3    C3 5982   1.060   3.137  16.564 -0.7274  0.3013  0.2142
  397TMC3    C4 5983   0.989   3.244  16.806 -0.1762 -0.0171 -0.1758
  397TMC3    C5 5984   0.982   3.114  16.782  1.2228 -0.1755 -0.3155
  397TMC3    C6 5985   1.005   3.061  16.662  0.1569  0.7800 -0.3524
  397TMC3     C 5986   1.022   3.466  16.697 -0.5646 -0.0753 -0.4194
  397TMC3     O 5987   1.047   3.525  16.592  0.5550 -0.1652  0.5645
  397TMC3     H 5988   1.125   3.326  16.503 -0.2844  2.0627  0.2223
  397TMC3    H1 5989   0.956   3.289  16.899 -0.9997  0.9157 -0.9227
  397TMC3    H2 5990   0.993   2.955  16.642 -2.1211  0.7847  0.9147
  397TMC3    C7 5991   0.942   3.021  16.888  0.2685 -1.3529  0.4494
  397TMC3    C8 5992   1.050   3.103  16.429  0.6053 -0.1774  0.1222
  397TMC3    O1 5993   0.887   2.924  16.842 -0.4508  0.2521 -0.2381
  397TMC3    O2 5994   1.115   3.170  16.357 -0.4700 -0.3937  0.0889
  398MPD2     C 5995   4.413   0.606   0.258 -0.0278 -1.0260 -0.0246
  398MPD2    C1 5996   4.478   0.492   0.217 -0.2864 -0.7304  0.5132
  398MPD2    C2 5997   4.590   0.506   0.140 -0.5635 -0.1615 -0.4331
  398MPD2    C3 5998   4.627   0.624   0.086 -0.6139  0.4001  0.2948
  398MPD2    C4 5999   4.562   0.738   0.125 -0.8723  0.1613 -0.0947
  398MPD2    C5 6000   4.457   0.729   0.212  0.1754  0.0450 -0.3926
  398MPD2     H 6001   4.647   0.419   0.112  0.4524  0.4421 -0.2466
  398MPD2    H1 6002   4.597   0.835   0.091 -0.3986 -0.4950 -1.4469
  398MPD2    H2 6003   4.322   0.602   0.317 -0.8445  0.4202 -1.1978
  398MPD2    H3 6004   4.404   0.819   0.239  3.1499  1.1950  1.6454
  398MPD2     N 6005   0.000   0.613  17.744 -0.6273  0.1103 -0.8441
  398MPD2    H5 6006   0.040   0.522  17.725 -0.8550 -0.2326  0.3459
  398MPD2    N1 6007   4.434   0.363   0.250  0.9519 -0.2671 -0.1409
  398MPD2    H7 6008   4.490   0.287   0.213  0.9177 -0.3941  0.0697
  399TMC3    C1 6009   4.314   0.188   0.370 -0.3372  0.2295 -0.0817
  399TMC3    C2 6010   4.433   0.126   0.383  0.5118  0.2981  0.2608
  399TMC3    C3 6011   4.432   0.001   0.425  0.0259  0.0081 -0.5206
  399TMC3    C4 6012   4.191   0.133   0.385 -0.1089 -0.0769 -0.2426
  399TMC3    C5 6013   4.194   0.000   0.414 -0.1980 -0.2158 -0.3641
  399TMC3    C6 6014   4.315   4.677   0.442 -0.6959 -0.1308  0.3657
  399TMC3     C 6015   4.316   0.327   0.320  0.2618 -0.1717  0.7234
  399TMC3     O 6016   4.219   0.392   0.363  0.5363 -0.0691 -0.1746
  399TMC3     H 6017   4.525   0.182   0.369  0.4209 -0.2317 -2.4435
  399TMC3    H1 6018   4.103   0.191   0.358  0.8204 -0.1602 -3.4023
  399TMC3    H2 6019   4.315   4.571   0.466 -0.1787 -0.1456  0.3068
  399TMC3    C7 6020   4.082   4.649   0.373  0.2113 -0.2100  0.8541
  399TMC3    C8 6021   4.548   4.654   0.417 -0.3342  0.4701 -0.2447
  399TMC3    O1 6022   4.092   4.539   0.425 -0.3078 -0.3045  0.6159
  399TMC3    O2 6023   4.548   4.544   0.479  0.2505  0.1691 -0.0440
  400TMC3    C1 6024   2.057   3.083  16.915  0.4777  0.4568  0.1098
  400TMC3    C2 6025   1.976   2.980  16.951 -0.5569  0.1510  0.2315
  400TMC3    C3 6026   1.852   2.974  16.897 -0.2957  1.0708 -0.4224
  400TMC3    C4 6027   2.017   3.169  16.821  0.5604  0.1302 -0.7939
  400TMC3    C5 6028   1.884   3.171  16.773  0.5661  0.0000 -0.4773
  400TMC3    C6 6029   1.794   3.073  16.815  0.1983 -0.5239 -0.3563
  400TMC3     C 6030   2.198   3.047  16.923  0.2579 -0.5617 -0.0804
  400TMC3     O 6031   2.225   2.930  16.937  0.3046 -0.0113 -0.6871
  400TMC3     H 6032   1.998   2.896  17.016 -0.3325 -0.3039 -0.4246
  400TMC3    H1 6033   2.081   3.249  16.785  1.9421  0.8026  3.1673
  400TMC3    H2 6034   1.689   3.081  16.788  0.6597 -0.0810 -2.0158
  400TMC3    C7 6035   1.820   3.302  16.753  0.2076 -0.1473  0.3012
  400TMC3    C8 6036   1.767   2.867  16.937  0.2590  0.8048 -0.4989
  400TMC3    O1 6037   1.764   3.322  16.646  0.1925 -0.3362 -0.0604
  400TMC3    O2 6038   1.785   2.817  17.049  0.2105 -0.8721  0.5949
  401MPD2     C 6039   0.732   1.768   0.828 -0.4814 -0.0273  0.7706
  401MPD2    C1 6040   0.785   1.657   0.886 -0.3744 -0.0831 -0.0143
  401MPD2    C2 6041   0.740   1.537   0.835  0.4446  0.9528  0.5242
  401MPD2    C3 6042   0.645   1.520   0.726 -0.1723 -0.9024 -0.5701
  401MPD2    C4 6043   0.597   1.638   0.672  0.2039 -0.3102  0.4041
  401MPD2    C5 6044   0.633   1.757   0.730  0.2039 -0.1087  0.8872
  401MPD2     H 6045   0.780   1.444   0.874  0.0081  0.7026  0.3815
  401MPD2    H1 6046   0.529   1.649   0.588  0.2700 -0.0690  0.3807
  401MPD2    H2 6047   0.763   1.871   0.844 -0.6030  0.2002 -0.4368
  401MPD2    H3 6048   0.602   1.850   0.684  2.2955  1.2404  2.1844
  401MPD2     N 6049   0.601   1.394   0.684  0.4617  0.2466  0.1166
  401MPD2    H5 6050   0.642   1.308   0.719  1.0814  1.3690  2.1699
  401MPD2    N1 6051   0.890   1.660   0.980  0.0027 -0.0267  0.4480
  401MPD2    H7 6052   0.927   1.568   1.004  2.1405  0.7659  0.1980
  402TMC3    C1 6053   0.492   1.235   0.544 -0.3736  0.4989 -0.3064
  402TMC3    C2 6054   0.499   1.144   0.647  0.2072 -0.1113 -0.3603
  402TMC3    C3 6055   0.525   1.011   0.617  0.3629 -0.5632 -0.1842
  402TMC3    C4 6056   0.505   1.200   0.417  0.1633 -0.3584 -0.5706
  402TMC3    C5 6057   0.552   1.072   0.392 -0.0701 -0.6549 -0.0375
  402TMC3    C6 6058   0.565   0.980   0.491  0.6926 -0.1498 -0.8294
  402TMC3     C 6059   0.514   1.373   0.584 -0.2867 -0.0696 -0.8746
  402TMC3     O 6060   0.441   1.448   0.510  0.5931  0.8803  0.1798
  402TMC3     H 6061   0.495   1.172   0.752  1.0903  0.7591 -0.5620
  402TMC3    H1 6062   0.526   1.275   0.342  0.9804 -0.3996 -0.3764
  402TMC3    H2 6063   0.575   0.875   0.465  0.4923 -0.9360  2.2718
  402TMC3    C7 6064   0.648   1.065   0.280 -0.8165 -0.4566  0.6097
  402TMC3    C8 6065   0.608   0.938   0.707  0.2987  0.0609 -0.8918
  402TMC3    O1 6066   0.658   1.154   0.198  0.5440 -0.5729 -0.3711
  402TMC3    O2 6067   0.716   0.899   0.659  0.2595  0.3933 -0.3984
  403MPD2     C 6068   3.979   4.086  13.267 -0.0472  0.2960 -0.6107
  403MPD2    C1 6069   4.007   4.216  13.274 -0.4296  0.5901  0.2958
  403MPD2    C2 6070   4.127   4.249  13.331 -0.0458 -0.5206  0.3816
  403MPD2    C3 6071   4.214   4.150  13.376  0.4473 -0.8812  0.5034
  403MPD2    C4 6072   4.183   4.014  13.358 -0.1398 -0.2231 -0.4535
  403MPD2    C5 6073   4.060   3.986  13.306  0.0334  0.1483 -0.8226
  403MPD2     H 6074   4.143   4.355  13.350  0.8515 -0.1104 -2.6003
  403MPD2    H1 6075   4.237   3.936  13.410  1.7265  0.7111 -0.9890
  403MPD2    H2 6076   3.885   4.051  13.226  0.1273 -0.4595 -0.3646
  403MPD2    H3 6077   4.013   3.889  13.295  1.2902 -0.4372 -1.0579
  403MPD2     N 6078   4.330   4.187  13.455 -0.1955 -0.0828  0.1770
  403MPD2    H5 6079   4.348   4.286  13.469  0.6195 -0.3272  0.8380
  403MPD2    N1 6080   3.900   4.300  13.236  0.2255 -0.1391 -0.6062
  403MPD2    H7 6081   3.814   4.255  13.210 -0.7045  2.0366 -1.3544
  404TMC3    C1 6082   3.785   4.502  13.249  0.1718 -0.6181  0.2508
  404TMC3    C2 6083   3.725   4.438  13.356 -0.0450 -0.1772 -0.5236
  404TMC3    C3 6084   3.605   4.377  13.336 -0.3188  0.0689  0.3689
  404TMC3    C4 6085   3.726   4.524  13.127  0.0179 -0.3149  0.1804
  404TMC3    C5 6086   3.607   4.460  13.117  0.5678 -0.8995 -0.4723
  404TMC3    C6 6087   3.553   4.382  13.212  0.2245 -0.1769  0.2553
  404TMC3     C 6088   3.910   4.438  13.226  0.9180  0.4532 -0.5118
  404TMC3     O 6089   4.003   4.518  13.226  0.1058 -0.0344 -1.1293
  404TMC3     H 6090   3.789   4.416  13.441  0.6053 -2.0770 -1.5175
  404TMC3    H1 6091   3.786   4.553  13.043 -1.1833  0.7158 -0.3265
  404TMC3    H2 6092   3.464   4.323  13.194 -2.0996  3.0489  1.3422
  404TMC3    C7 6093   3.523   4.482  12.995  0.7579 -0.7735 -0.2848
  404TMC3    C8 6094   3.616   4.245  13.390  0.2248  0.3218 -0.6750
  404TMC3    O1 6095   3.455   4.392  12.950 -0.5267 -0.2383 -0.5593
  404TMC3    O2 6096   3.648   4.162  13.306  0.2567  0.3219  0.1699
  405MPD2     C 6097   4.131   0.785  14.548 -0.4477  0.2507 -0.3943
  405MPD2    C1 6098   4.090   0.657  14.512 -0.2538 -0.0455 -0.3622
  405MPD2    C2 6099   3.955   0.636  14.469  0.3638  0.4964 -0.3507
  405MPD2    C3 6100   3.866   0.741  14.461  0.7529  0.9095 -0.2688
  405MPD2    C4 6101   3.899   0.860  14.510 -0.1906  0.4525 -0.0157
  405MPD2    C5 6102   4.036   0.884  14.537 -0.9695 -0.4231 -0.9848
  405MPD2     H 6103   3.917   0.540  14.437 -0.4565  1.1508 -1.3310
  405MPD2    H1 6104   3.827   0.941  14.511 -1.7594 -0.9099 -2.7134
  405MPD2    H2 6105   4.232   0.809  14.579 -1.5419  1.0528  2.5397
  405MPD2    H3 6106   4.052   0.980  14.583 -1.3854 -1.4841  1.3839
  405MPD2     N 6107   3.743   0.702  14.407  0.1578  0.3205  0.7567
  405MPD2    H5 6108   3.744   0.614  14.355  0.1072 -0.4405  2.0291
  405MPD2    N1 6109   4.191   0.557  14.490  0.4044 -0.5085  0.1676
  405MPD2    H7 6110   4.288   0.579  14.511  0.1631  0.0592  0.7041
  406TMC3    C1 6111   3.300   0.660  14.320  0.1869 -0.2863  0.1773
  406TMC3    C2 6112   3.305   0.522  14.313  0.3853  0.0303 -0.1445
  406TMC3    C3 6113   3.428   0.464  14.339  0.0075  0.8416 -0.3729
  406TMC3    C4 6114   3.392   0.747  14.356  0.0013 -0.7945  0.1169
  406TMC3    C5 6115   3.511   0.685  14.390  0.1751 -0.1902 -0.6239
  406TMC3    C6 6116   3.523   0.545  14.389  0.6491 -0.1820 -0.1008
  406TMC3     C 6117   3.177   0.728  14.276 -0.6972  0.2675  0.4542
  406TMC3     O 6118   3.171   0.849  14.261 -0.4183 -0.0550 -0.3420
  406TMC3     H 6119   3.228   0.457  14.273 -0.5701  0.5068  0.9404
  406TMC3    H1 6120   3.379   0.853  14.344  1.0416 -0.7012 -0.2750
  406TMC3    H2 6121   3.610   0.504  14.439 -0.0996  1.1083  2.2438
  406TMC3    C7 6122   3.625   0.767  14.436  0.0292  0.0605 -0.5704
  406TMC3    C8 6123   3.459   0.323  14.305  0.2755  0.1465 -1.1149
  406TMC3    O1 6124   3.611   0.863  14.511  0.6548  0.3046 -0.2389
  406TMC3    O2 6125   3.369   0.242  14.308  0.5469 -0.3002  0.1907
  407MPD2     C 6126   1.686   2.177   9.474  0.4055  1.0703  0.1578
  407MPD2    C1 6127   1.746   2.141   9.595 -0.0238  0.3807 -0.1460
  407MPD2    C2 6128   1.732   2.225   9.707 -0.0720  0.2620  0.1739
  407MPD2    C3 6129   1.679   2.354   9.690 -0.5671 -0.2535 -0.0165
  407MPD2    C4 6130   1.610   2.384   9.570  0.0217 -0.5149  0.8490
  407MPD2    C5 6131   1.612   2.288   9.464 -0.1458  0.1020 -1.0054
  407MPD2     H 6132   1.790   2.197   9.794 -0.7831 -1.6059  0.0486
  407MPD2    H1 6133   1.566   2.482   9.556  0.4756 -0.7738 -2.3269
  407MPD2    H2 6134   1.682   2.111   9.388 -0.6923  0.7552  0.4394
  407MPD2    H3 6135   1.572   2.317   9.368 -0.7322 -2.0082 -1.3911
  407MPD2     N 6136   1.685   2.454   9.791  0.6650 -0.1406 -0.2099
  407MPD2    H5 6137   1.637   2.542   9.773  1.9861  0.6974  0.3607
  407MPD2    N1 6138   1.823   2.027   9.608  0.0212 -0.1779  0.4140
  407MPD2    H7 6139   1.862   2.020   9.702 -0.4390 -0.7681  0.5571
  408TMC3    C1 6140   1.925   1.818   9.602 -0.1413  0.1789  0.3499
  408TMC3    C2 6141   2.044   1.877   9.642  0.3482 -0.4092  0.0647
  408TMC3    C3 6142   2.150   1.801   9.687 -0.0641  0.0783 -0.7554
  408TMC3    C4 6143   1.925   1.682   9.598 -0.1617 -0.3472  0.7054
  408TMC3    C5 6144   2.039   1.605   9.633  0.5874 -0.3115 -0.1411
  408TMC3    C6 6145   2.154   1.665   9.681  0.4438  0.8556  0.2686
  408TMC3     C 6146   1.823   1.905   9.547  0.1576 -0.2070 -0.7156
  408TMC3     O 6147   1.750   1.866   9.454 -0.5686 -0.6229 -0.0474
  408TMC3     H 6148   2.049   1.985   9.642  1.4950 -0.4629 -0.8251
  408TMC3    H1 6149   1.826   1.638   9.588  0.5746 -1.3731 -1.8416
  408TMC3    H2 6150   2.240   1.607   9.716 -0.0061  1.2166  1.9874
  408TMC3    C7 6151   2.004   1.464   9.664 -0.1766  0.0079 -0.0017
  408TMC3    C8 6152   2.264   1.869   9.756 -0.5672 -0.9832  0.3964
  408TMC3    O1 6153   1.895   1.425   9.634 -0.1132  0.1413  0.2406
  408TMC3    O2 6154   2.318   1.789   9.828 -0.1400  0.3947 -0.2198
  409MPD2     C 6155   1.088   2.321  17.277  0.0009  0.2592 -0.1923
  409MPD2    C1 6156   1.184   2.372  17.369  0.2705  0.1037 -0.4309
  409MPD2    C2 6157   1.222   2.500  17.371 -0.2245 -0.5796 -0.4895
  409MPD2    C3 6158   1.168   2.585  17.277  0.2216 -0.1054 -0.0905
  409MPD2    C4 6159   1.075   2.542  17.182  0.2135 -0.8514 -0.4777
  409MPD2    C5 6160   1.036   2.407  17.184 -0.2525  0.0760  0.2233
  409MPD2     H 6161   1.299   2.533  17.439  0.7245 -1.0914 -1.3206
  409MPD2    H1 6162   1.042   2.617  17.111 -1.7450 -1.3299 -0.0607
  409MPD2    H2 6163   1.060   2.216  17.277 -0.1112  0.2841 -0.9056
  409MPD2    H3 6164   0.962   2.374  17.113 -0.4305 -0.6657  0.7519
  409MPD2     N 6165   1.214   2.720  17.260  0.1340  0.2438  0.7792
  409MPD2    H5 6166   1.190   2.776  17.178  2.3616  2.0402  1.3331
  409MPD2    N1 6167   1.262   2.291  17.462 -0.2527 -0.0836 -0.1465
  409MPD2    H7 6168   1.342   2.335  17.507 -1.7142  0.6615  1.7138
  410TMC3    C1 6169   1.380   2.884  17.262  0.2153  0.3255  0.2741
  410TMC3    C2 6170   1.498   2.925  17.321  0.4805 -0.0721 -0.1916
  410TMC3    C3 6171   1.557   3.038  17.267  0.2295  0.0048  0.4249
  410TMC3    C4 6172   1.332   2.943  17.147  0.2055  0.3980 -0.1168
  410TMC3    C5 6173   1.394   3.050  17.093 -0.2950  0.0692  0.0787
  410TMC3    C6 6174   1.503   3.097  17.151 -0.6198  0.2981  0.2878
  410TMC3     C 6175   1.311   2.777  17.334  0.3943  0.0006  0.3792
  410TMC3     O 6176   1.357   2.744  17.447  0.3275  0.7713 -0.7530
  410TMC3     H 6177   1.534   2.881  17.413 -0.3366 -1.7214 -0.6624
  410TMC3    H1 6178   1.250   2.896  17.093 -0.6676  1.4422  0.3016
  410TMC3    H2 6179   1.558   3.178  17.104 -2.2504  0.5115 -1.2541
  410TMC3    C7 6180   1.374   3.057  16.955  0.0595 -0.6189 -0.3354
  410TMC3    C8 6181   1.700   3.055  17.286  0.0342 -0.3153  0.9639
  410TMC3    O1 6182   1.360   2.949  16.896 -0.1326 -0.5682 -0.4019
  410TMC3    O2 6183   1.747   3.155  17.244 -0.3994  0.3949 -0.0999
  411MPD2     C 6184   1.475   2.986  13.569  1.3500 -0.0096 -0.2437
  411MPD2    C1 6185   1.468   2.981  13.706 -0.0236 -0.0158 -0.5889
  411MPD2    C2 6186   1.485   2.859  13.773  0.7044  0.3233  0.5404
  411MPD2    C3 6187   1.530   2.741  13.699  0.6598 -0.4936 -0.0444
  411MPD2    C4 6188   1.545   2.755  13.561 -0.1357 -0.4267 -0.2151
  411MPD2    C5 6189   1.502   2.864  13.499 -1.2657 -0.9275  0.3987
  411MPD2     H 6190   1.485   2.853  13.882 -3.2466 -1.6394  0.4517
  411MPD2    H1 6191   1.550   2.662  13.506 -1.4476 -0.6114 -0.0250
  411MPD2    H2 6192   1.445   3.073  13.512  2.7665  1.7630  1.7464
  411MPD2    H3 6193   1.499   2.855  13.391 -4.8550 -0.3171  0.4668
  411MPD2     N 6194   1.554   2.617  13.760 -0.5855 -0.0697  0.2415
  411MPD2    H5 6195   1.513   2.599  13.851  0.2610  0.4496  0.7289
  411MPD2    N1 6196   1.435   3.108  13.765 -0.1745 -0.6569  0.0580
  411MPD2    H7 6197   1.425   3.186  13.701 -2.3234 -0.7901  0.2389
  412TMC3    C1 6198   1.566   2.383  13.752 -0.1442  0.2980 -0.1731
  412TMC3    C2 6199   1.512   2.396  13.882 -0.2311  0.1053  0.9855
  412TMC3    C3 6200   1.378   2.361  13.903  0.2533 -0.8046  0.8751
  412TMC3    C4 6201   1.495   2.321  13.657  0.4455 -0.4186  0.0159
  412TMC3    C5 6202   1.362   2.296  13.676 -0.0320 -0.1899 -0.8298
  412TMC3    C6 6203   1.304   2.308  13.798 -0.8565  0.6007  0.8827
  412TMC3     C 6204   1.604   2.504  13.689 -0.6193 -0.8656  0.2866
  412TMC3     O 6205   1.676   2.502  13.589  0.3115 -0.0999 -0.1360
  412TMC3     H 6206   1.572   2.440  13.961  2.4343  1.7823 -1.9711
  412TMC3    H1 6207   1.541   2.305  13.560 -0.8085  0.6072 -0.7608
  412TMC3    H2 6208   1.199   2.304  13.823 -1.0069  1.3455  0.3738
  412TMC3    C7 6209   1.276   2.375  13.590  0.3491  0.3754 -0.2025
  412TMC3    C8 6210   1.320   2.444  13.998  0.7682  0.2669  0.2176
  412TMC3    O1 6211   1.197   2.452  13.642 -0.0672  0.1402 -0.6365
  412TMC3    O2 6212   1.387   2.469  14.098 -0.4798  0.3823  0.2201
  413MPD2     C 6213   3.429   1.916  15.097 -0.4747 -0.6998 -1.0576
  413MPD2    C1 6214   3.342   1.873  14.990  0.0741  0.3241 -0.1379
  413MPD2    C2 6215   3.388   1.776  14.911  0.4021 -0.4676 -0.0362
  413MPD2    C3 6216   3.513   1.722  14.929  0.9565 -0.0616 -0.6208
  413MPD2    C4 6217   3.601   1.770  15.025 -0.3784  0.1140 -0.3240
  413MPD2    C5 6218   3.558   1.867  15.112 -0.5942 -0.1536  0.4400
  413MPD2     H 6219   3.332   1.739  14.825  0.4928 -0.7701  0.0354
  413MPD2    H1 6220   3.704   1.738  15.039 -0.4759 -1.3097 -2.7844
  413MPD2    H2 6221   3.392   1.991  15.165 -0.3457 -1.8491  0.2692
  413MPD2    H3 6222   3.615   1.897  15.199  0.3406  1.8085 -0.8425
  413MPD2     N 6223   3.543   1.608  14.848  1.4235  0.1702 -0.5839
  413MPD2    H5 6224   3.468   1.567  14.794  0.6403  0.3969  0.3122
  413MPD2    N1 6225   3.213   1.935  14.986 -0.4728 -0.3516  0.2209
  413MPD2    H7 6226   3.206   2.014  15.048  4.6793 -0.6086  1.1014
  414TMC3    C1 6227   3.666   1.418  14.777 -0.4652  0.2308 -0.0319
  414TMC3    C2 6228   3.747   1.317  14.825  0.3341  1.1473  0.1389
  414TMC3    C3 6229   3.736   1.192  14.762 -0.0421  0.3753 -0.0798
  414TMC3    C4 6230   3.587   1.399  14.672  0.5278  0.8841  0.0217
  414TMC3    C5 6231   3.585   1.280  14.609  0.4764 -1.5162 -0.1079
  414TMC3    C6 6232   3.654   1.173  14.654  0.6457  0.2472  0.0229
  414TMC3     C 6233   3.662   1.542  14.851 -0.0190 -0.3102  0.3663
  414TMC3     O 6234   3.765   1.560  14.913 -0.0258 -0.1970 -0.7003
  414TMC3     H 6235   3.798   1.318  14.921  0.9647 -0.5351 -0.1721
  414TMC3    H1 6236   3.525   1.475  14.626 -2.1295 -1.1048  0.3184
  414TMC3    H2 6237   3.641   1.073  14.614 -1.0435  0.1896  0.7354
  414TMC3    C7 6238   3.473   1.254  14.521 -0.1264  0.2282 -0.0233
  414TMC3    C8 6239   3.818   1.092  14.814 -0.0955  0.2171 -0.0129
  414TMC3    O1 6240   3.370   1.320  14.541  0.0347  0.2275 -0.1186
  414TMC3    O2 6241   3.767   0.981  14.795  0.0440  0.0001 -0.5656
  415TMC3    C1 6242   3.193   0.044  10.026 -0.1744  0.3205 -0.2060
  415TMC3    C2 6243   3.260   0.117   9.930 -0.5181  0.4921 -0.0523
  415TMC3    C3 6244   3.206   0.103   9.801 -0.1096 -0.1801  0.1490
  415TMC3    C4 6245   3.095   4.690   9.998  0.5409  0.4200 -0.1772
  415TMC3    C5 6246   3.058   4.681   9.867 -0.1092  0.4676 -0.0309
  415TMC3    C6 6247   3.106   0.013   9.765 -0.0942 -0.7919 -0.6822
  415TMC3     C 6248   3.235   0.045  10.166  0.0418 -0.3590 -0.5425
  415TMC3     O 6249   3.353   0.052  10.191  0.7403 -0.6358  0.0354
  415TMC3     H 6250   3.345   0.179   9.956  0.0207 -0.3489  0.1716
  415TMC3    H1 6251   3.048   4.631  10.076  0.7060 -0.0014 -0.3973
  415TMC3    H2 6252   3.070   0.001   9.663 -2.4303 -1.7335  0.2479
  415TMC3    C7 6253   2.979   4.563   9.829 -0.2781  0.2741  0.5764
  415TMC3    C8 6254   3.212   0.215   9.709 -0.6418 -0.1685  0.2629
  415TMC3    O1 6255   2.912   4.575   9.726 -0.0859 -0.6373 -0.0007
  415TMC3    O2 6256   3.104   0.238   9.652  0.2934 -0.4598 -0.3245
  416MPD2     C 6257   0.693   3.583  11.177  0.5531  0.6766  1.2377
  416MPD2    C1 6258   0.636   3.499  11.274 -0.1476 -0.2645 -0.4046
  416MPD2    C2 6259   0.634   3.364  11.244 -0.1184  0.0101  0.3162
  416MPD2    C3 6260   0.707   3.316  11.133 -0.7333  0.0613  0.4277
  416MPD2    C4 6261   0.774   3.401  11.045  0.2431 -0.0157  0.4631
  416MPD2    C5 6262   0.753   3.534  11.065 -0.3300 -0.1191  0.0032
  416MPD2     H 6263   0.600   3.294  11.320  1.3315  1.1966  2.0553
  416MPD2    H1 6264   0.801   3.374  10.944  1.9137 -1.2383  1.2436
  416MPD2    H2 6265   0.681   3.690  11.190  0.2802  0.6669  1.0745
  416MPD2    H3 6266   0.777   3.606  10.988 -0.6425  1.7833  1.6867
  416MPD2     N 6267   0.710   3.177  11.103 -0.7007 -0.0873 -0.2092
  416MPD2    H5 6268   0.744   3.145  11.013  1.2169  0.6691  0.2433
  416MPD2    N1 6269   0.564   3.558  11.379  0.0387 -0.6737  0.3454
  416MPD2    H7 6270   0.541   3.657  11.376  2.6794 -0.0539 -0.3603
  417TMC3    C1 6271   0.378   3.573  11.516 -0.1451  0.8037 -0.3638
  417TMC3    C2 6272   0.348   3.574  11.648 -0.0656  0.1130 -0.1461
  417TMC3    C3 6273   0.278   3.680  11.701 -0.2042 -0.1587  0.0351
  417TMC3    C4 6274   0.317   3.676  11.434 -0.2807 -0.3109  0.6221
  417TMC3    C5 6275   0.239   3.770  11.493  0.9015 -0.6202 -0.5898
  417TMC3    C6 6276   0.229   3.790  11.627 -0.1493 -0.1870 -0.2692
  417TMC3     C 6277   0.492   3.489  11.471  0.6741  0.3902 -0.4398
  417TMC3     O 6278   0.513   3.385  11.540  0.0781 -0.0393 -1.0012
  417TMC3     H 6279   0.387   3.494  11.710  0.0209  1.3099  1.3408
  417TMC3    H1 6280   0.313   3.661  11.326 -2.5491 -0.5755  0.7407
  417TMC3    H2 6281   0.177   3.871  11.677 -1.8290 -1.0538 -0.6233
  417TMC3    C7 6282   0.134   3.832  11.416  0.4527 -0.1590 -0.4513
  417TMC3    C8 6283   0.284   3.702  11.844 -0.0996  0.1900 -0.4370
  417TMC3    O1 6284   0.163   3.858  11.301 -0.8374 -0.0233 -0.2286
  417TMC3    O2 6285   0.200   3.778  11.889 -0.6388 -0.6081  0.7734
  418TMC3    C1 6286   0.299   0.481  17.554  0.2412  0.5947 -0.2771
  418TMC3    C2 6287   0.207   0.584  17.563 -0.3548 -0.6716  0.1334
  418TMC3    C3 6288   0.200   0.664  17.670 -0.0226  0.0463  0.2894
  418TMC3    C4 6289   0.365   0.435  17.661 -0.7272 -0.5724  0.1131
  418TMC3    C5 6290   0.331   0.503   0.022  0.0236  0.1476  0.4935
  418TMC3    C6 6291   0.268   0.624   0.024  0.3604 -0.2823  0.2374
  418TMC3     C 6292   0.299   0.401  17.433  0.1998 -0.1847 -0.1898
  418TMC3     O 6293   0.242   0.448  17.338 -0.4431  0.1046  0.0626
  418TMC3     H 6294   0.152   0.612  17.474 -1.8182 -1.4291  0.8096
  418TMC3    H1 6295   0.428   0.347  17.666  1.1929  0.7778 -0.2206
  418TMC3    H2 6296   0.272   0.686   0.113  1.7123 -3.3239  2.2827
  418TMC3    C7 6297   0.302   0.415   0.131  0.6636 -0.1142 -0.5106
  418TMC3    C8 6298   0.069   0.721  17.700  0.0150  0.7531 -0.0352
  418TMC3    O1 6299   0.348   0.299   0.131 -0.2044 -0.5289  0.2146
  418TMC3    O2 6300   0.072   0.834  17.745 -0.0537  0.1654 -0.5928
  419MPD2     C 6301   2.491   3.224  12.109  0.6497  0.3442 -0.0049
  419MPD2    C1 6302   2.425   3.344  12.127  0.1311  0.4620 -0.6449
  419MPD2    C2 6303   2.398   3.378  12.255  0.0506 -0.0932  0.4328
  419MPD2    C3 6304   2.424   3.289  12.364  0.3820  0.5020  0.0614
  419MPD2    C4 6305   2.493   3.170  12.340  0.1894  0.3455 -0.2478
  419MPD2    C5 6306   2.519   3.141  12.208  0.3155 -0.3636 -1.2176
  419MPD2     H 6307   2.355   3.475  12.273  0.4592  0.0408  0.6878
  419MPD2    H1 6308   2.522   3.104  12.421  0.1430  2.5238  1.5390
  419MPD2    H2 6309   2.527   3.203  12.009  0.7123 -0.3651  0.1682
  419MPD2    H3 6310   2.579   3.056  12.176  2.2929 -0.3100  2.3652
  419MPD2     N 6311   2.398   3.332  12.492  0.0084  0.4461  0.0334
  419MPD2    H5 6312   2.365   3.427  12.505  2.2099  1.3322 -0.8169
  419MPD2    N1 6313   2.426   3.446  12.027 -0.2769 -0.4095  0.3952
  419MPD2    H7 6314   2.373   3.530  12.047  1.1443  0.5823 -0.0538
  420TMC3    C1 6315   2.372   3.342  12.718 -0.9033  0.0106  0.2099
  420TMC3    C2 6316   2.251   3.402  12.695  0.5594 -0.5737  0.6589
  420TMC3    C3 6317   2.202   3.465  12.805  0.1525 -0.8000 -0.0970
  420TMC3    C4 6318   2.434   3.331  12.834  0.0584  0.0926  0.2215
  420TMC3    C5 6319   2.370   3.383  12.942 -0.1766 -0.2519  0.9399
  420TMC3    C6 6320   2.258   3.460  12.928  0.1047  0.8996 -0.8368
  420TMC3     C 6321   2.431   3.270  12.612 -0.4800 -0.2410 -0.8767
  420TMC3     O 6322   2.489   3.165  12.626 -0.1405 -0.2993  0.2451
  420TMC3     H 6323   2.207   3.401  12.596 -0.4152 -2.4497  1.1261
  420TMC3    H1 6324   2.515   3.260  12.846 -1.2018 -0.7325  3.7794
  420TMC3    H2 6325   2.196   3.481  13.015 -1.0475  0.6404 -1.5984
  420TMC3    C7 6326   2.407   3.336  13.069  0.0442  0.5308  0.2107
  420TMC3    C8 6327   2.099   3.564  12.776 -0.0338 -0.0826 -0.1086
  420TMC3    O1 6328   2.488   3.247  13.068  0.1295  0.4108 -0.0399
  420TMC3    O2 6329   2.060   3.595  12.662  0.1754 -0.4594  0.3334
  421TMC3    C1 6330   4.525   4.183  13.592 -0.1352  0.1747  0.6045
  421TMC3    C2 6331   4.490   4.315  13.617  0.1814  0.8419  0.3918
  421TMC3    C3 6332   4.579   4.379  13.695 -0.7712  0.2974  0.1855
  421TMC3    C4 6333   4.639   4.119  13.635  1.0189  0.0766  0.4092
  421TMC3    C5 6334   4.725   4.198  13.708  0.7106 -0.3849  0.3091
  421TMC3    C6 6335   4.695   4.331  13.743  0.2525 -0.2728  0.1858
  421TMC3     C 6336   4.426   4.105  13.516  0.0121  1.1494  0.1748
  421TMC3     O 6337   4.441   3.981  13.521  0.2647  0.5950 -0.3568
  421TMC3     H 6338   4.409   4.379  13.585  0.9154  1.0748 -1.0066
  421TMC3    H1 6339   4.663   4.018  13.606 -3.0018 -1.6412  3.1519
  421TMC3    H2 6340   0.037   4.392  13.782 -1.3933  2.1578 -0.2540
  421TMC3    C7 6341   0.116   4.138  13.757  0.6543  0.0902 -0.2139
  421TMC3    C8 6342   4.545   4.512  13.737 -0.2324 -0.8334 -0.4126
  421TMC3    O1 6343   0.188   4.215  13.822 -0.1910 -0.8757  0.7038
  421TMC3    O2 6344   4.644   4.582  13.752 -0.4608 -0.0002  0.3440
  422TMC3    C1 6345   1.415   1.580  12.223 -0.0769 -0.6245  0.5368
  422TMC3    C2 6346   1.356   1.705  12.233  0.0757 -0.0934  0.1992
  422TMC3    C3 6347   1.266   1.721  12.332 -0.1790 -0.7083  0.8897
  422TMC3    C4 6348   1.377   1.480  12.309 -0.3919 -0.2657  0.6742
  422TMC3    C5 6349   1.268   1.497  12.384 -0.1584  0.0263 -0.2830
  422TMC3    C6 6350   1.219   1.623  12.408 -0.0147  0.3276  0.0539
  422TMC3     C 6351   1.541   1.573  12.159 -0.5772 -0.1247 -0.5789
  422TMC3     O 6352   1.621   1.492  12.196  0.5449 -0.0737  0.2318
  422TMC3     H 6353   1.408   1.796  12.202  2.6118 -1.5777  0.1348
  422TMC3    H1 6354   1.425   1.383  12.303  0.4110  0.4305 -4.3383
  422TMC3    H2 6355   1.148   1.646  12.487 -1.4633  0.2594 -1.2221
  422TMC3    C7 6356   1.210   1.387  12.463  0.1507  0.1727  0.3341
  422TMC3    C8 6357   1.254   1.854  12.383 -0.2206 -0.1073 -0.4574
  422TMC3    O1 6358   1.277   1.286  12.489  1.1144 -0.2113 -0.0085
  422TMC3    O2 6359   1.293   1.869  12.498 -0.1715 -0.5248  0.1818
  423MPD2     C 6360   3.485   2.938   0.081  0.3637 -0.0118  0.1554
  423MPD2    C1 6361   3.528   2.828   0.155  0.5815 -0.5004 -0.0618
  423MPD2    C2 6362   3.561   2.713   0.085 -0.2832  0.5210 -0.5603
  423MPD2    C3 6363   3.555   2.700  17.700  0.3262  0.4877 -0.4444
  423MPD2    C4 6364   3.510   2.811  17.628  0.1467  0.3281  1.2490
  423MPD2    C5 6365   3.471   2.929  17.699 -0.2774 -0.7691 -0.0671
  423MPD2     H 6366   3.591   2.624   0.140 -0.7920 -1.1396 -2.9588
  423MPD2    H1 6367   3.503   2.799  17.521 -1.3651 -0.6150  1.4532
  423MPD2    H2 6368   3.447   3.029   0.128 -1.1839  0.2003 -1.5333
  423MPD2    H3 6369   3.420   3.014  17.656  0.2265  0.4339  1.7296
  423MPD2     N 6370   3.578   2.584  17.624 -0.4281  0.3074  0.1512
  423MPD2    H5 6371   3.562   2.583  17.524  0.2327 -0.5010  0.0465
  423MPD2    N1 6372   3.545   2.828   0.295  0.6547  0.2886 -0.2364
  423MPD2    H7 6373   3.589   2.747   0.338  0.1089  0.2222  0.1960
  424TMC3    C1 6374   3.545   2.889   0.519  0.2421 -0.2609 -0.9351
  424TMC3    C2 6375   3.661   2.819   0.544 -0.2823 -0.3528 -0.1647
  424TMC3    C3 6376   3.711   2.812   0.668  0.2246 -0.0839  0.4604
  424TMC3    C4 6377   3.476   2.945   0.622 -0.5464 -0.3836  0.2499
  424TMC3    C5 6378   3.535   2.938   0.746 -0.1071  0.6877 -0.9619
  424TMC3    C6 6379   3.648   2.871   0.774  0.3566  0.0234 -0.5959
  424TMC3     C 6380   3.508   2.922   0.382  0.7372 -0.0744  0.1331
  424TMC3     O 6381   3.436   3.019   0.370 -0.1396  0.3514  0.1747
  424TMC3     H 6382   3.710   2.759   0.467  0.1767 -0.4263  0.1834
  424TMC3    H1 6383   3.389   3.007   0.606 -0.6061 -0.3124  0.8451
  424TMC3    H2 6384   3.662   2.838   0.876 -0.0856 -0.1414 -0.5863
  424TMC3    C7 6385   3.457   2.971   0.865  0.2227 -0.5717 -0.1005
  424TMC3    C8 6386   3.794   2.704   0.695  0.0198 -0.4081  0.8701
  424TMC3    O1 6387   3.518   2.989   0.975  0.3069  0.3268  0.1146
  424TMC3    O2 6388   3.801   2.613   0.613 -0.1941 -0.1020 -0.4465
  425MPD2     C 6389   2.394   1.548  17.228 -0.0051  0.0038  0.1475
  425MPD2    C1 6390   2.294   1.453  17.232 -0.1811  0.3120  0.4767
  425MPD2    C2 6391   2.176   1.484  17.289  0.0771 -0.0602  0.1766
  425MPD2    C3 6392   2.172   1.606  17.366 -0.3129 -0.8135  0.4098
  425MPD2    C4 6393   2.271   1.695  17.368  0.0836  0.2984 -0.4081
  425MPD2    C5 6394   2.386   1.670  17.290  0.0190  0.2087 -0.1315
  425MPD2     H 6395   2.092   1.415  17.302 -0.5920  0.8354  0.5976
  425MPD2    H1 6396   2.277   1.790  17.420 -0.8402 -0.3800  0.9519
  425MPD2    H2 6397   2.483   1.508  17.180  0.8105 -0.3271  1.9075
  425MPD2    H3 6398   2.473   1.735  17.292  0.1629  0.0356 -0.9392
  425MPD2     N 6399   2.057   1.627  17.442  0.2940  0.0552  0.3097
  425MPD2    H5 6400   1.990   1.551  17.444 -0.9061  1.1149  0.2706
  425MPD2    N1 6401   2.320   1.322  17.187 -0.7082 -0.6229 -0.1329
  425MPD2    H7 6402   2.412   1.295  17.151 -0.4595  2.4343 -1.7687
  426TMC3    C1 6403   2.295   1.096  17.146 -0.0082  0.2306  0.2589
  426TMC3    C2 6404   2.232   1.015  17.060  0.0347  0.0003 -0.0403
  426TMC3    C3 6405   2.300   0.903  17.017 -0.6395 -0.4954 -0.0680
  426TMC3    C4 6406   2.422   1.080  17.192  0.0878 -0.5705 -0.1407
  426TMC3    C5 6407   2.495   0.976  17.128  0.1520 -0.0703 -0.3225
  426TMC3    C6 6408   2.437   0.886  17.042 -0.2436  0.6543  0.3003
  426TMC3     C 6409   2.230   1.219  17.186 -0.0325 -0.0630 -0.9708
  426TMC3     O 6410   2.105   1.215  17.187 -0.5500  0.6003 -0.2001
  426TMC3     H 6411   2.128   1.036  17.034 -0.3065 -0.1024  1.2676
  426TMC3    H1 6412   2.461   1.138  17.275  1.0418 -0.8171 -0.4162
  426TMC3    H2 6413   2.494   0.811  16.988 -1.2397  0.1772 -0.1048
  426TMC3    C7 6414   2.597   0.921  17.215  0.1190  0.1152 -0.0272
  426TMC3    C8 6415   2.231   0.803  16.943 -0.8060  0.1952  0.1084
  426TMC3    O1 6416   2.699   0.886  17.156 -0.0973 -0.3480 -0.3224
  426TMC3    O2 6417   2.291   0.754  16.849 -0.9577 -0.4915 -0.7004
  427MPD2     C 6418   0.292   2.736  14.599  0.2672 -0.2249 -0.0530
  427MPD2    C1 6419   0.392   2.819  14.643  0.3048  0.1757 -0.4418
  427MPD2    C2 6420   0.372   2.957  14.637  0.3629  0.3484  0.0364
  427MPD2    C3 6421   0.251   3.004  14.584  0.0075  0.2509  0.2438
  427MPD2    C4 6422   0.154   2.917  14.555  0.3043  0.3571 -0.1043
  427MPD2    C5 6423   0.174   2.782  14.559 -0.2397 -0.2873  0.2703
  427MPD2     H 6424   0.456   3.020  14.663  0.7564  0.0802 -0.5950
  427MPD2    H1 6425   0.061   2.960  14.518 -0.1452  0.7944  1.5317
  427MPD2    H2 6426   0.296   2.627  14.599  1.0195 -0.2209 -3.0683
  427MPD2    H3 6427   0.101   2.708  14.527  1.1554 -1.2008 -0.7933
  427MPD2     N 6428   0.215   3.139  14.577 -0.2612  0.3742 -0.3266
  427MPD2    H5 6429   0.123   3.154  14.537  0.1126 -1.4235 -1.8666
  427MPD2    N1 6430   0.520   2.783  14.698  0.2485  0.5457 -0.9852
  427MPD2    H7 6431   0.573   2.863  14.731  0.4719 -0.4861  1.1556
  428TMC3    C1 6432   0.704   2.648  14.735 -0.3172  0.1054  0.0273
  428TMC3    C2 6433   0.741   2.518  14.758 -0.6996  0.6072  0.5319
  428TMC3    C3 6434   0.848   2.497  14.845  0.5267  0.4549  0.3713
  428TMC3    C4 6435   0.772   2.753  14.792  0.1852 -0.0384 -0.4204
  428TMC3    C5 6436   0.868   2.730  14.894  0.6735 -0.1027  0.0228
  428TMC3    C6 6437   0.909   2.602  14.917 -0.2622  1.0475 -0.5105
  428TMC3     C 6438   0.569   2.660  14.691  0.1720  0.4608  0.3944
  428TMC3     O 6439   0.508   2.561  14.652 -0.2389  0.7071 -0.4497
  428TMC3     H 6440   0.694   2.431  14.713  1.6052 -0.2884 -0.1561
  428TMC3    H1 6441   0.760   2.857  14.764  0.9207 -0.4328 -2.1867
  428TMC3    H2 6442   0.991   2.578  14.984 -0.7870  1.8613  0.4325
  428TMC3    C7 6443   0.971   2.829  14.919 -0.3818  0.4222 -0.3748
  428TMC3    C8 6444   0.892   2.361  14.854  0.3102 -0.2673 -0.2439
  428TMC3    O1 6445   1.086   2.782  14.939 -0.3193 -0.1233  0.2316
  428TMC3    O2 6446   0.860   2.291  14.758  0.7850  0.1594  0.2164
  429MPD2     C 6447   2.048   3.398   0.334 -0.5111 -0.3735 -0.7320
  429MPD2    C1 6448   2.017   3.337   0.211 -0.2982  0.3134  0.3304
  429MPD2    C2 6449   1.976   3.423   0.109  0.2188  0.5569  0.3419
  429MPD2    C3 6450   1.960   3.556   0.124  0.2537  0.8385  0.0842
  429MPD2    C4 6451   1.988   3.615   0.248  1.2449 -0.6630  0.4990
  429MPD2    C5 6452   2.021   3.531   0.356  0.9394 -0.4460  0.3947
  429MPD2     H 6453   1.960   3.372   0.015  0.3930  0.6788  0.2468
  429MPD2    H1 6454   1.972   3.719   0.274  2.1943 -0.6635  1.0792
  429MPD2    H2 6455   2.105   3.345   0.410 -0.2750  1.6469  0.5053
  429MPD2    H3 6456   2.052   3.570   0.453  0.1035  1.3119 -0.0578
  429MPD2     N 6457   1.905   3.634   0.017  0.2749  0.2698  0.5441
  429MPD2    H5 6458   1.885   3.577  17.688  1.6550  1.7175 -0.8024
  429MPD2    N1 6459   2.051   3.205   0.187 -0.3214  0.5873  0.3738
  429MPD2    H7 6460   2.039   3.185   0.088  0.3906  0.7381  0.2604
  430TMC3    C1 6461   1.854   3.828  17.632 -0.1699 -0.5556  0.9145
  430TMC3    C2 6462   1.785   3.949  17.625 -0.0609 -0.6358  0.2479
  430TMC3    C3 6463   1.732   3.978  17.498 -0.6882 -0.2523  0.8169
  430TMC3    C4 6464   1.885   3.751  17.517  0.4069 -0.1965  0.0944
  430TMC3    C5 6465   1.841   3.797  17.395 -0.2220 -0.2788 -0.2174
  430TMC3    C6 6466   1.759   3.910  17.382  0.1849  0.6031 -0.5544
  430TMC3     C 6467   1.889   3.774   0.011  0.0484  0.0932 -0.0883
  430TMC3     O 6468   1.892   3.852   0.106 -0.0084  0.0787  0.4718
  430TMC3     H 6469   1.767   4.008  17.714 -2.5704 -0.9290 -0.0744
  430TMC3    H1 6470   1.933   3.654  17.522  1.1650  0.1363 -0.7646
  430TMC3    H2 6471   1.726   3.954  17.288 -1.6944 -0.0753 -0.1992
  430TMC3    C7 6472   1.846   3.710  17.276 -0.0974  0.3599 -1.0860
  430TMC3    C8 6473   1.644   4.094  17.485 -0.5458  0.6272 -0.4372
  430TMC3    O1 6474   1.858   3.591  17.302  0.3254 -1.2415 -1.2950
  430TMC3    O2 6475   1.667   4.200  17.546  0.2066  0.4022 -0.0926
  431MPD2     C 6476   2.549   4.093  12.449  0.1512 -0.4692 -0.3041
  431MPD2    C1 6477   2.606   4.141  12.338  0.2836 -0.4266 -0.4154
  431MPD2    C2 6478   2.585   4.079  12.216 -0.3267  0.1864 -0.1018
  431MPD2    C3 6479   2.502   3.967  12.206 -0.2928  0.0891 -0.1638
  431MPD2    C4 6480   2.441   3.918  12.317  0.4584 -0.3759 -0.4110
  431MPD2    C5 6481   2.470   3.981  12.433 -0.0618  0.5470  0.2293
  431MPD2     H 6482   2.632   4.132  12.134  1.3038  0.0492  0.7346
  431MPD2    H1 6483   2.368   3.838  12.315  0.4861 -0.4351  1.3652
  431MPD2    H2 6484   2.559   4.138  12.547  0.3738  0.2984 -0.6782
  431MPD2    H3 6485   2.419   3.938  12.519 -0.0113 -0.1943 -0.1090
  431MPD2     N 6486   2.473   3.897  12.084  0.7562 -0.2370 -0.5888
  431MPD2    H5 6487   2.392   3.836  12.083  0.0168  0.7645 -2.6552
  431MPD2    N1 6488   2.693   4.252  12.340 -0.9156 -0.1500 -0.3306
  431MPD2    H7 6489   2.741   4.285  12.257  0.9925 -2.6801 -0.2496
  432TMC3    C1 6490   2.536   3.795  11.876 -0.0713  0.6146  0.0223
  432TMC3    C2 6491   2.584   3.808  11.745 -0.0860  0.3524  0.2230
  432TMC3    C3 6492   2.596   3.692  11.668  0.1230 -0.4559 -0.1208
  432TMC3    C4 6493   2.499   3.674  11.925 -0.5593  0.7004 -0.2703
  432TMC3    C5 6494   2.498   3.567  11.835 -0.5264  1.2519 -0.0834
  432TMC3    C6 6495   2.546   3.571  11.710  0.6833  0.7915  0.4142
  432TMC3     C 6496   2.547   3.911  11.967 -0.7500  0.0951 -0.1453
  432TMC3     O 6497   2.624   4.001  11.938  0.1706 -0.7611  0.2088
  432TMC3     H 6498   2.614   3.908  11.716  0.9444  0.1571  0.6198
  432TMC3    H1 6499   2.498   3.659  12.032 -0.6915  4.1538  0.1945
  432TMC3    H2 6500   2.559   3.483  11.647  1.9010  1.0299  0.3485
  432TMC3    C7 6501   2.474   3.437  11.897  0.3373 -0.4315 -0.1061
  432TMC3    C8 6502   2.690   3.688  11.566  0.3967 -0.1820  0.1318
  432TMC3    O1 6503   2.508   3.337  11.836  0.3059 -0.0087  0.1916
  432TMC3    O2 6504   2.678   3.607  11.477 -0.1912  0.3036 -0.3095
  433MPD2     C 6505   1.478   2.762  10.689  0.4128  0.3851  0.4050
  433MPD2    C1 6506   1.520   2.646  10.755 -0.1634 -0.3153 -0.4547
  433MPD2    C2 6507   1.573   2.653  10.885 -0.5227 -0.3648 -0.9704
  433MPD2    C3 6508   1.590   2.779  10.942  0.6957 -0.0212 -0.0912
  433MPD2    C4 6509   1.562   2.897  10.872  0.5945  0.3263  0.4645
  433MPD2    C5 6510   1.509   2.884  10.748 -0.4168 -0.8121 -0.6386
  433MPD2     H 6511   1.617   2.562  10.925  3.7943  1.7095 -1.0030
  433MPD2    H1 6512   1.571   2.999  10.908  0.4448 -0.1235  1.7841
  433MPD2    H2 6513   1.436   2.765  10.590 -1.6577 -0.5814  1.2628
  433MPD2    H3 6514   1.483   2.976  10.696  1.8806  1.3884  2.1619
  433MPD2     N 6515   1.645   2.786  11.076 -0.2550  0.4419 -0.0696
  433MPD2    H5 6516   1.649   2.695  11.119  1.8683 -0.1500 -1.5018
  433MPD2    N1 6517   1.510   2.518  10.683 -0.3253 -0.3195 -0.1592
  433MPD2    H7 6518   1.482   2.519  10.586  0.9594 -3.4125 -0.5350
  434TMC3    C1 6519   1.586   2.297  10.631  0.7380 -0.5200  0.1613
  434TMC3    C2 6520   1.692   2.227  10.661  0.1688  0.7321 -0.2372
  434TMC3    C3 6521   1.718   2.108  10.613  0.2859  0.3912 -0.0501
  434TMC3    C4 6522   1.486   2.253  10.550  0.0559 -0.8549  0.4664
  434TMC3    C5 6523   1.509   2.124  10.508 -0.0724  0.9779 -0.3663
  434TMC3    C6 6524   1.620   2.049  10.538  0.0764  0.2199  1.5191
  434TMC3     C 6525   1.548   2.394  10.736 -0.5619  0.1372 -0.6101
  434TMC3     O 6526   1.575   2.363  10.853 -0.2471 -0.6627  0.1286
  434TMC3     H 6527   1.737   2.259  10.755  1.5000  1.5734 -1.1478
  434TMC3    H1 6528   1.394   2.304  10.524 -0.2515 -1.2779  0.7208
  434TMC3    H2 6529   1.639   1.960  10.480  3.5065  0.0932  2.8466
  434TMC3    C7 6530   1.417   2.070  10.406  0.7922  0.9695 -0.5863
  434TMC3    C8 6531   1.809   2.025  10.687  0.5317 -0.5201 -0.5591
  434TMC3    O1 6532   1.358   2.162  10.352 -0.0838  0.8506 -0.5003
  434TMC3    O2 6533   1.893   2.075  10.764 -0.1604 -0.1118 -0.0994
  435MPD2     C 6534   3.707   2.178  15.005 -0.4652 -0.4967 -0.3478
  435MPD2    C1 6535   3.707   2.176  15.142 -0.6364  0.4052  0.4881
  435MPD2    C2 6536   3.819   2.143  15.218  0.7011  0.0021  0.3355
  435MPD2    C3 6537   3.930   2.086  15.153  0.9909 -0.6015 -0.6278
  435MPD2    C4 6538   3.928   2.087  15.018  0.0819 -0.1517  0.5835
  435MPD2    C5 6539   3.824   2.137  14.941 -0.2913  0.2998  0.0730
  435MPD2     H 6540   3.804   2.139  15.325 -0.1528  1.0638  0.2639
  435MPD2    H1 6541   4.022   2.060  14.972  0.4948  1.1100  0.6796
  435MPD2    H2 6542   3.622   2.210  14.947  0.4637 -1.2782 -2.1575
  435MPD2    H3 6543   3.826   2.107  14.837  0.2810 -1.0258  0.4684
  435MPD2     N 6544   4.019   2.013  15.233  0.5964  0.1358  0.1127
  435MPD2    H5 6545   3.983   2.002  15.328 -1.7219 -1.7132 -0.9853
  435MPD2    N1 6546   3.601   2.228  15.221  0.4396 -0.0440 -0.3101
  435MPD2    H7 6547   3.605   2.223  15.322 -0.1544  1.6866 -0.2075
  436TMC3    C1 6548   3.279   2.501  15.382  0.1728  0.3767 -0.1585
  436TMC3    C2 6549   3.348   2.449  15.276  0.1770  1.1649  0.2343
  436TMC3    C3 6550   3.405   2.324  15.288 -0.1189 -0.3451 -0.0001
  436TMC3    C4 6551   3.262   2.432  15.498 -0.6774 -0.4906 -0.1421
  436TMC3    C5 6552   3.314   2.303  15.501  0.2163  0.0601  0.2638
  436TMC3    C6 6553   3.395   2.260  15.401  0.9136  0.4590  0.7199
  436TMC3     C 6554   3.292   2.645  15.394  0.9996  0.3022  0.1356
  436TMC3     O 6555   3.377   2.685  15.320  0.2379 -0.3645 -0.7795
  436TMC3     H 6556   3.364   2.507  15.185 -3.4214 -1.1323 -1.8752
  436TMC3    H1 6557   3.219   2.478  15.587  0.3720 -3.7458  2.0514
  436TMC3    H2 6558   3.428   2.157  15.394  0.3425  0.2912  0.4821
  436TMC3    C7 6559   3.307   2.216  15.623  0.2326  0.6204 -0.1073
  436TMC3    C8 6560   3.485   2.290  15.178 -0.3556 -0.5020 -0.4547
  436TMC3    O1 6561   3.341   2.100  15.610  0.2048  0.1591  0.1519
  436TMC3    O2 6562   3.451   2.325  15.065 -0.1873 -0.2219 -0.8902
  437TMC3    C1 6563   1.802   4.380  13.188 -0.2747 -0.1779  0.7788
  437TMC3    C2 6564   1.684   4.419  13.249  0.7820 -0.3326 -0.2155
  437TMC3    C3 6565   1.637   4.540  13.212  0.0472 -0.5541  0.0269
  437TMC3    C4 6566   1.874   4.444  13.095 -0.2377  0.2516  0.3441
  437TMC3    C5 6567   1.817   4.563  13.059 -0.2286  0.3081 -0.1887
  437TMC3    C6 6568   1.706   4.616  13.124 -0.5127  0.8265 -0.1852
  437TMC3     C 6569   1.850   4.251  13.239 -0.3984  0.2246  0.2289
  437TMC3     O 6570   1.772   4.178  13.305  0.3126 -0.0919 -0.0335
  437TMC3     H 6571   1.644   4.360  13.331  1.2402 -0.0212  0.2335
  437TMC3    H1 6572   1.948   4.403  13.028 -0.7405 -0.4000  0.1836
  437TMC3    H2 6573   1.688   4.718  13.092  0.6225  1.6281  1.7475
  437TMC3    C7 6574   1.865   4.637  12.947 -0.0967  0.1863 -0.3349
  437TMC3    C8 6575   1.528   4.596  13.288 -0.1366 -0.4083  0.9265
  437TMC3    O1 6576   1.786   4.708  12.890  0.8940 -0.0032  0.3469
  437TMC3    O2 6577   1.476   4.534  13.381 -0.1515  0.1881  0.0459
  438MPD2     C 6578   0.029   0.325  16.470 -0.6357 -0.3140  0.3230
  438MPD2    C1 6579   0.114   0.233  16.533  0.0824 -0.3377  0.4313
  438MPD2    C2 6580   0.113   0.230  16.675 -1.0642 -0.1118  0.2572
  438MPD2    C3 6581   0.025   0.309  16.747 -0.5254  0.3405  0.4530
  438MPD2    C4 6582   4.682   0.402  16.683 -0.9079 -0.6066 -0.0122
  438MPD2    C5 6583   4.697   0.416  16.544  1.0192 -0.0842  0.3656
  438MPD2     H 6584   0.185   0.164  16.722 -0.3367  0.0710 -0.6003
  438MPD2    H1 6585   4.613   0.468  16.734  0.5163  0.0864  1.0166
  438MPD2    H2 6586   0.027   0.333  16.362 -2.2090 -1.5816  0.2476
  438MPD2    H3 6587   4.629   0.480  16.488 -0.9878  0.2147  3.1673
  438MPD2     N 6588   0.019   0.282  16.886 -0.3600  0.9443  0.3873
  438MPD2    H5 6589   4.689   0.340  16.934 -0.5973 -1.4878  2.9870
  438MPD2    N1 6590   0.204   0.140  16.473 -0.0537 -0.1031  0.2948
  438MPD2    H7 6591   0.240   0.066  16.532  1.0001 -0.1640 -0.4210
  439TMC3    C1 6592   0.299   4.737  16.318 -0.0244 -0.8198 -0.1185
  439TMC3    C2 6593   0.280   4.663  16.207 -0.5100 -0.4192 -0.4880
  439TMC3    C3 6594   0.357   4.546  16.188  0.5257  0.9368  0.0086
  439TMC3    C4 6595   0.405   4.721  16.398  0.8871  0.5554  1.1239
  439TMC3    C5 6596   0.467   4.603  16.383 -0.4626  0.9880 -0.1144
  439TMC3    C6 6597   0.444   4.510  16.285  0.2134  0.0296  0.6420
  439TMC3     C 6598   0.213   0.112  16.344 -0.6363 -0.5659  0.1976
  439TMC3     O 6599   0.157   0.164  16.249  0.5050  0.0290  0.6833
  439TMC3     H 6600   0.200   4.700  16.144  0.8558 -0.0993 -2.0321
  439TMC3    H1 6601   0.440   0.059  16.466  1.5245  0.5178  0.8371
  439TMC3    H2 6602   0.512   4.429  16.262  3.0171  1.8365  2.6670
  439TMC3    C7 6603   0.579   4.597  16.465 -0.3933  0.5356 -0.6819
  439TMC3    C8 6604   0.388   4.506  16.047 -0.7222  0.0858  0.1892
  439TMC3    O1 6605   0.610   4.484  16.505  0.1002  0.6646  0.5916
  439TMC3    O2 6606   0.444   4.401  16.032 -0.3971  0.1856 -0.2036
  440MPD2     C 6607   3.285   0.434  14.638 -0.5448 -0.0251 -0.0873
  440MPD2    C1 6608   3.367   0.545  14.671 -0.1120  0.0532 -0.7339
  440MPD2    C2 6609   3.495   0.520  14.717 -0.2803 -0.5789  0.0239
  440MPD2    C3 6610   3.541   0.394  14.713  0.4763  0.1713  0.2117
  440MPD2    C4 6611   3.469   0.289  14.675 -0.4038  0.7727 -0.1249
  440MPD2    C5 6612   3.339   0.312  14.637  0.0535 -0.3401 -0.1853
  440MPD2     H 6613   3.550   0.607  14.749 -0.8962 -0.3257  0.3893
  440MPD2    H1 6614   3.498   0.184  14.683  1.3564  1.5458  3.5979
  440MPD2    H2 6615   3.181   0.434  14.608 -0.4244 -1.3803 -0.4937
  440MPD2    H3 6616   3.280   0.226  14.609  0.0774 -0.5945  0.5695
  440MPD2     N 6617   3.671   0.360  14.756  0.5680 -0.0023  0.1494
  440MPD2    H5 6618   3.703   0.264  14.753  1.9930  0.5260 -1.4779
  440MPD2    N1 6619   3.324   0.680  14.670  0.3173  0.4077  0.2329
  440MPD2    H7 6620   3.378   0.753  14.715  2.4028 -0.0237 -1.6123
  441TMC3    C1 6621   3.893   0.389  14.853 -0.8380  0.4514 -0.9022
  441TMC3    C2 6622   4.013   0.448  14.811 -0.2421  0.6545 -0.1048
  441TMC3    C3 6623   4.108   0.441  14.903  0.0035 -0.1774 -0.3043
  441TMC3    C4 6624   3.879   0.333  14.977 -0.0693 -0.2954  0.5198
  441TMC3    C5 6625   3.983   0.328  15.065 -0.1096 -0.7103 -0.6817
  441TMC3    C6 6626   4.099   0.387  15.025 -0.2992  0.7591 -0.3326
  441TMC3     C 6627   3.773   0.449  14.786  0.4875 -0.2185 -0.2447
  441TMC3     O 6628   3.787   0.566  14.762  0.0873 -0.1076 -0.7285
  441TMC3     H 6629   4.023   0.508  14.721 -0.9197  1.7972  0.5768
  441TMC3    H1 6630   3.783   0.292  15.008 -1.1868  1.9812  0.0477
  441TMC3    H2 6631   4.181   0.407  15.092  1.0599 -0.4839 -1.6194
  441TMC3    C7 6632   3.953   0.291  15.203 -0.3691  0.4786  0.1516
  441TMC3    C8 6633   4.189   0.562  14.912 -0.8440  0.0101  1.0760
  441TMC3    O1 6634   3.837   0.263  15.238 -0.1047 -0.2862 -0.2753
  441TMC3    O2 6635   4.297   0.557  14.962 -0.1827  0.0036  0.0896
  442MPD2     C 6636   2.086   0.884  16.600 -0.1412 -0.1117  0.1707
  442MPD2    C1 6637   1.961   0.905  16.538 -0.1177 -0.8449  0.8249
  442MPD2    C2 6638   1.930   0.827  16.430  0.3735 -0.1651 -0.2849
  442MPD2    C3 6639   2.022   0.734  16.378 -0.5368 -0.5214 -0.3070
  442MPD2    C4 6640   2.142   0.710  16.440  0.6141 -0.6352  0.0785
  442MPD2    C5 6641   2.169   0.787  16.553  0.4759  0.3837 -1.2297
  442MPD2     H 6642   1.838   0.864  16.385  0.1815 -1.6017 -1.0886
  442MPD2    H1 6643   2.214   0.636  16.406 -0.7375 -0.9855 -1.9510
  442MPD2    H2 6644   2.119   0.931  16.692  2.1647 -0.2302 -0.6141
  442MPD2    H3 6645   2.266   0.772  16.598  0.1087  1.5434 -0.0706
  442MPD2     N 6646   1.995   0.653  16.260 -0.2798 -0.7520  0.1944
  442MPD2    H5 6647   2.065   0.586  16.230  0.7597  0.8203 -0.8576
  442MPD2    N1 6648   1.866   0.990  16.593  0.0644 -0.1756 -0.0002
  442MPD2    H7 6649   1.770   0.976  16.562  0.8875 -0.3342 -2.4514
  443TMC3    C1 6650   1.757   1.145  16.721  0.6302  0.5673  0.3430
  443TMC3    C2 6651   1.742   1.267  16.663  0.4210  0.0790  0.0137
  443TMC3    C3 6652   1.616   1.307  16.639  0.5710  0.2682  0.1427
  443TMC3    C4 6653   1.651   1.072  16.767  0.8863  0.1043  0.0820
  443TMC3    C5 6654   1.533   1.124  16.749 -0.0762  0.3244 -0.0785
  443TMC3    C6 6655   1.509   1.242  16.685  0.0192 -0.5685 -0.5502
  443TMC3     C 6656   1.892   1.082  16.686  0.5280  0.0062  1.0925
  443TMC3     O 6657   1.996   1.145  16.710 -0.6456 -0.3957 -0.2882
  443TMC3     H 6658   1.827   1.318  16.619  0.2205  2.1187  1.9869
  443TMC3    H1 6659   1.678   0.982  16.822  0.2701  0.6441  1.2762
  443TMC3    H2 6660   1.406   1.271  16.667  0.8640  2.3941 -0.5730
  443TMC3    C7 6661   1.430   1.028  16.776 -0.1239 -0.5037  0.4017
  443TMC3    C8 6662   1.597   1.423  16.546  0.1021  0.2348  0.4735
  443TMC3    O1 6663   1.343   1.007  16.691  0.3423  0.4735 -0.2709
  443TMC3    O2 6664   1.662   1.525  16.558 -0.0532  0.0187  0.4744
  444MPD2     C 6665   2.244   0.556  17.258 -0.2290 -0.2618 -0.5597
  444MPD2    C1 6666   2.137   0.494  17.194 -0.2685  0.4699  0.1718
  444MPD2    C2 6667   2.158   0.399  17.095  0.4436  0.0906  0.6549
  444MPD2    C3 6668   2.287   0.350  17.068 -0.1764  0.2984 -0.0423
  444MPD2    C4 6669   2.395   0.417  17.126  0.6040 -1.4783 -0.1675
  444MPD2    C5 6670   2.371   0.516  17.225  0.5229  0.2432 -0.3581
  444MPD2     H 6671   2.077   0.356  17.037  0.0677  0.9915  0.5076
  444MPD2    H1 6672   2.498   0.386  17.114  0.3174 -1.5795 -2.3108
  444MPD2    H2 6673   2.233   0.638  17.328  2.1783  0.9465 -1.5858
  444MPD2    H3 6674   2.457   0.568  17.266 -1.0231  1.2896  1.5532
  444MPD2     N 6675   2.299   0.233  16.982  0.4194 -0.1711  0.1120
  444MPD2    H5 6676   2.211   0.188  16.960  0.8418 -0.9834  0.0964
  444MPD2    N1 6677   1.999   0.539  17.218 -0.5971 -0.2469  0.4239
  444MPD2    H7 6678   1.933   0.497  17.154  0.7530  1.0833 -1.8427
  445TMC3    C1 6679   2.400   0.076  16.835 -0.0930 -0.5036  1.1112
  445TMC3    C2 6680   2.277   0.019  16.808  0.5648 -0.3380  0.3215
  445TMC3    C3 6681   2.265   4.669  16.712  0.3627 -0.5420 -0.0126
  445TMC3    C4 6682   2.518   0.028  16.779  0.2154 -0.1886 -0.3222
  445TMC3    C5 6683   2.503   4.665  16.684  0.7929 -0.3567  0.3688
  445TMC3    C6 6684   2.378   4.627  16.642 -0.1232 -0.2834 -0.5073
  445TMC3     C 6685   2.420   0.182  16.936  0.0245 -0.9691  0.2404
  445TMC3     O 6686   2.540   0.222  16.951 -0.1864  0.4732 -0.3908
  445TMC3     H 6687   2.181   0.051  16.849  0.7875  2.1084 -1.0624
  445TMC3    H1 6688   2.620   0.055  16.804 -0.2373  2.7088 -1.5704
  445TMC3    H2 6689   2.360   4.564  16.556  0.6417  1.0184 -1.6091
  445TMC3    C7 6690   2.615   4.632  16.598 -0.5747 -0.4477  0.4051
  445TMC3    C8 6691   2.136   4.599  16.692 -0.2822 -0.2448  0.4118
  445TMC3    O1 6692   2.710   4.704  16.622  0.8155 -0.0627 -0.2959
  445TMC3    O2 6693   2.118   4.549  16.584 -0.8455  0.2558  0.2179
  446MPD2     C 6694   1.241   2.155  11.240  0.1725 -0.3958  0.6702
  446MPD2    C1 6695   1.247   2.171  11.103 -0.1285  0.0587 -0.0241
  446MPD2    C2 6696   1.370   2.210  11.052 -0.6721 -0.0655  0.7229
  446MPD2    C3 6697   1.482   2.203  11.132 -0.7529 -0.0120 -0.2348
  446MPD2    C4 6698   1.472   2.179  11.265  0.2380  0.0924 -0.1646
  446MPD2    C5 6699   1.353   2.158  11.321  0.2163  0.4932 -0.1081
  446MPD2     H 6700   1.366   2.212  10.943 -0.0096 -0.9689  0.6881
  446MPD2    H1 6701   1.561   2.182  11.327  0.2108  2.1090 -0.1970
  446MPD2    H2 6702   1.143   2.144  11.283  0.8927 -3.4421  1.5637
  446MPD2    H3 6703   1.334   2.150  11.428 -1.3207  1.4964 -0.3069
  446MPD2     N 6704   1.608   2.221  11.068  0.2893  0.1474  0.3931
  446MPD2    H5 6705   1.601   2.274  10.982  1.7805  0.7165  0.6264
  446MPD2    N1 6706   1.128   2.161  11.021 -0.0801  0.5821 -0.1962
  446MPD2    H7 6707   1.142   2.180  10.922 -3.8669  2.6851 -0.3298
  447TMC3    C1 6708   1.842   2.222  11.046 -0.4504  0.7472 -0.1664
  447TMC3    C2 6709   1.853   2.348  10.997  0.6643  0.3746 -0.7351
  447TMC3    C3 6710   1.970   2.364  10.924  0.0901 -0.1498  0.1606
  447TMC3    C4 6711   1.950   2.144  11.061  0.3541 -0.5984  0.1889
  447TMC3    C5 6712   2.065   2.174  11.001  0.7097  0.1098  0.1915
  447TMC3    C6 6713   2.078   2.282  10.926 -0.2562 -0.4469 -0.2377
  447TMC3     C 6714   1.726   2.189  11.128  0.1499  0.2013 -0.3954
  447TMC3     O 6715   1.737   2.101  11.208 -0.6471 -0.1802  0.4922
  447TMC3     H 6716   1.770   2.416  10.991 -2.6072 -3.5575  0.2487
  447TMC3    H1 6717   1.941   2.049  11.112  2.0017 -1.4224 -1.0561
  447TMC3    H2 6718   2.168   2.299  10.867 -0.2039  2.1862  0.6345
  447TMC3    C7 6719   2.177   2.096  11.046  0.3546  0.3042  0.6532
  447TMC3    C8 6720   1.963   2.483  10.829  1.1510 -0.6607  0.5671
  447TMC3    O1 6721   2.163   1.977  11.064  0.3841  0.0061 -0.6931
  447TMC3    O2 6722   1.856   2.541  10.827  0.0527 -0.1723 -0.0406
  448TMC3    C1 6723   0.374   1.670  16.643  0.1689  0.2784 -0.3960
  448TMC3    C2 6724   0.295   1.559  16.618 -0.5134  0.9364 -0.0181
  448TMC3    C3 6725   0.330   1.444  16.682 -1.2029  0.4794  0.1828
  448TMC3    C4 6726   0.478   1.672  16.738  0.0491 -0.0794  0.5598
  448TMC3    C5 6727   0.501   1.557  16.812  0.1990  0.0844  0.7701
  448TMC3    C6 6728   0.423   1.448  16.784  1.0464 -1.2153 -0.4854
  448TMC3     C 6729   0.382   1.770  16.534  0.4748  0.4618  0.1027
  448TMC3     O 6730   0.277   1.814  16.491 -0.2146  0.1425 -0.3289
  448TMC3     H 6731   0.217   1.567  16.543  0.4744 -1.3219 -1.2885
  448TMC3    H1 6732   0.527   1.768  16.755  0.0942 -0.0060 -0.0040
  448TMC3    H2 6733   0.453   1.350  16.818 -3.5563 -2.1705  0.7780
  448TMC3    C7 6734   0.613   1.549  16.906 -0.1502  0.3635  0.2688
  448TMC3    C8 6735   0.247   1.324  16.674  0.1201  0.0060  0.3087
  448TMC3    O1 6736   0.698   1.636  16.906 -0.1463  0.0419 -0.6709
  448TMC3    O2 6737   0.286   1.222  16.731  0.3463  0.2160 -0.2655
  449MPD2     C 6738   1.496   0.593  13.841  0.0420 -0.1758 -0.1831
  449MPD2    C1 6739   1.365   0.558  13.829  1.2174  0.0814  0.2433
  449MPD2    C2 6740   1.321   0.442  13.884 -0.0702 -0.2159 -0.4984
  449MPD2    C3 6741   1.392   0.355  13.959 -0.0277 -0.4648  0.4564
  449MPD2    C4 6742   1.525   0.387  13.972  0.1011  0.2364 -0.1892
  449MPD2    C5 6743   1.576   0.507  13.915 -0.1376  0.4622  0.4039
  449MPD2     H 6744   1.214   0.422  13.880  0.3307 -2.4250 -0.1977
  449MPD2    H1 6745   1.592   0.321  14.027  2.0788  0.4016 -2.3941
  449MPD2    H2 6746   1.542   0.685  13.806  2.0870 -1.6664 -1.3230
  449MPD2    H3 6747   1.681   0.526  13.930  0.2805 -0.9695 -0.7686
  449MPD2     N 6748   1.329   0.245  14.018 -0.0446  0.8459  0.0973
  449MPD2    H5 6749   1.229   0.232  14.005  0.4870 -2.0425 -1.1099
  449MPD2    N1 6750   1.276   0.632  13.748 -0.3830 -0.2628  0.5864
  449MPD2    H7 6751   1.184   0.593  13.733  0.7868 -2.0208 -1.8956
  450TMC3    C1 6752   1.190   0.760  13.582 -0.1829 -0.7762 -0.2931
  450TMC3    C2 6753   1.237   0.751  13.453  0.2446  0.8625  0.1825
  450TMC3    C3 6754   1.156   0.691  13.362 -0.5154 -0.5041  0.2941
  450TMC3    C4 6755   1.069   0.713  13.625  0.0654  0.3841 -0.1255
  450TMC3    C5 6756   1.015   0.621  13.540  0.1951 -0.3517  0.2703
  450TMC3    C6 6757   1.045   0.619  13.403 -0.1805  0.1004 -0.0001
  450TMC3     C 6758   1.298   0.743  13.675  0.1567 -0.9439  0.9530
  450TMC3     O 6759   1.401   0.804  13.660 -0.4204  0.4369  0.6350
  450TMC3     H 6760   1.337   0.782  13.428 -0.3089  2.6853  0.2560
  450TMC3    H1 6761   1.048   0.711  13.731 -0.9205  0.7049 -0.3160
  450TMC3    H2 6762   0.996   0.546  13.339 -0.3834  0.3680 -0.1538
  450TMC3    C7 6763   0.981   0.493  13.601  0.8159 -0.2264  0.6097
  450TMC3    C8 6764   1.208   0.659  13.235  0.1977 -0.4855  0.8226
  450TMC3    O1 6765   1.029   0.474  13.712  0.1721 -0.5248 -0.2203
  450TMC3    O2 6766   1.123   0.636  13.148  0.1779  0.5938  0.2582
  451MPD2     C 6767   3.125   3.545   1.598  0.0588  0.1415 -0.1081
  451MPD2    C1 6768   3.205   3.583   1.488 -0.8559  0.0083 -0.3389
  451MPD2    C2 6769   3.305   3.489   1.457 -0.1852  0.0377  0.2623
  451MPD2    C3 6770   3.318   3.367   1.531 -0.7837  0.6161  0.4758
  451MPD2    C4 6771   3.229   3.334   1.631 -0.5171 -0.1261 -0.0147
  451MPD2    C5 6772   3.135   3.426   1.665 -0.1652  0.5695 -0.6061
  451MPD2     H 6773   3.361   3.511   1.367  1.4271 -1.1790  0.9593
  451MPD2    H1 6774   3.233   3.238   1.681 -0.2893  0.4430  1.0484
  451MPD2    H2 6775   3.046   3.610   1.635  0.4833  0.4089  0.3184
  451MPD2    H3 6776   3.070   3.399   1.748  1.7096  1.2889  1.1120
  451MPD2     N 6777   3.409   3.269   1.493  0.1828  0.5632  0.6124
  451MPD2    H5 6778   3.417   3.183   1.547 -0.4627  0.8185  1.1221
  451MPD2    N1 6779   3.170   3.694   1.402 -0.2005 -0.7117 -1.1712
  451MPD2    H7 6780   3.101   3.760   1.437  1.4485  0.8495 -0.8572
  452TMC3    C1 6781   3.435   3.312   1.245 -0.0190  0.0364 -0.2004
  452TMC3    C2 6782   3.301   3.291   1.221 -0.1156 -0.1006  0.2445
  452TMC3    C3 6783   3.258   3.298   1.094  0.2109  0.5872  0.4284
  452TMC3    C4 6784   3.520   3.348   1.153 -0.2930  0.4910  0.3549
  452TMC3    C5 6785   3.475   3.344   1.027  0.5855 -0.0810 -0.9110
  452TMC3    C6 6786   3.349   3.309   0.992  0.0682  0.1613 -0.0887
  452TMC3     C 6787   3.486   3.262   1.378 -0.2648  0.1324  0.6827
  452TMC3     O 6788   3.581   3.190   1.365  0.4055 -0.1716  0.4722
  452TMC3     H 6789   3.235   3.264   1.302 -0.7208  0.4020 -0.0754
  452TMC3    H1 6790   3.622   3.369   1.183 -0.0227  2.3433 -1.8459
  452TMC3    H2 6791   3.314   3.300   0.889 -0.1950 -2.5783  0.2365
  452TMC3    C7 6792   3.529   3.448   0.941  0.5007  0.1890 -0.5025
  452TMC3    C8 6793   3.149   3.386   1.062  0.1929  0.8800 -0.1813
  452TMC3    O1 6794   3.485   3.457   0.828  0.8207 -0.3574  0.0550
  452TMC3    O2 6795   3.133   3.421   0.941 -0.0189  0.7451 -0.4654
  453TMC3    C1 6796   3.650   1.251  11.794  0.0873  0.3490 -0.3642
  453TMC3    C2 6797   3.572   1.143  11.811 -0.9373  0.4006 -0.5579
  453TMC3    C3 6798   3.444   1.167  11.781  0.2478 -0.0113  0.1385
  453TMC3    C4 6799   3.615   1.372  11.749  0.3718 -0.2853 -0.5713
  453TMC3    C5 6800   3.483   1.403  11.737 -0.6135  0.0807  0.4060
  453TMC3    C6 6801   3.395   1.290  11.757 -0.3791  0.5920  0.3575
  453TMC3     C 6802   3.783   1.246  11.849  0.1544  0.0277  0.6730
  453TMC3     O 6803   3.856   1.344  11.834 -0.3986  0.3182 -0.0755
  453TMC3     H 6804   3.625   1.049  11.818 -0.6179  0.6388  0.2216
  453TMC3    H1 6805   3.689   1.449  11.730 -1.0335  0.7032 -1.9989
  453TMC3    H2 6806   3.288   1.300  11.747 -0.2522  0.9042 -0.7083
  453TMC3    C7 6807   3.445   1.522  11.661  0.2305 -0.1524 -0.0504
  453TMC3    C8 6808   3.354   1.064  11.743  0.1509 -0.2163  0.6329
  453TMC3    O1 6809   3.527   1.581  11.590 -0.0933 -0.3995  0.6203
  453TMC3    O2 6810   3.238   1.067  11.782  0.4509 -0.0950 -0.0273
  454MPD2     C 6811   2.866   0.088  16.275  0.1451  0.6102  0.0441
  454MPD2    C1 6812   2.747   0.067  16.203  0.0634  0.5575 -0.4390
  454MPD2    C2 6813   2.623   0.099  16.254  0.2334  0.5032 -0.0439
  454MPD2    C3 6814   2.607   0.153  16.380 -0.4234  1.0437 -0.0100
  454MPD2    C4 6815   2.723   0.196  16.440 -0.2843 -0.9123  0.0402
  454MPD2    C5 6816   2.849   0.156  16.388  0.2799  0.5519 -0.9063
  454MPD2     H 6817   2.538   0.085  16.188  0.2791  1.2874 -0.2761
  454MPD2    H1 6818   2.716   0.262  16.526 -1.3434 -0.4130 -0.4219
  454MPD2    H2 6819   2.964   0.065  16.234 -0.5040 -0.2749 -1.0453
  454MPD2    H3 6820   2.938   0.178  16.446 -1.8285  1.1856  2.1179
  454MPD2     N 6821   2.475   0.179  16.431  0.0891  0.3976  0.0975
  454MPD2    H5 6822   2.477   0.262  16.489  0.1602  1.6762 -1.7610
  454MPD2    N1 6823   2.742   0.007  16.077  0.3319  0.5232  0.3921
  454MPD2    H7 6824   2.652   0.003  16.030  1.0668 -1.4273 -0.8989
  455TMC3    C1 6825   2.231   0.186  16.394 -0.7664  0.3871 -0.1628
  455TMC3    C2 6826   2.213   0.260  16.510 -0.0666  0.0636  0.4486
  455TMC3    C3 6827   2.083   0.291  16.532  0.2431  0.2886  0.5170
  455TMC3    C4 6828   2.138   0.145  16.304 -0.3090  1.0739 -0.4129
  455TMC3    C5 6829   2.012   0.180  16.337  0.2869  0.6554  0.0874
  455TMC3    C6 6830   1.981   0.265  16.450 -0.9558 -0.2787 -0.7137
  455TMC3     C 6831   2.367   0.111  16.384  0.0526  0.3391 -0.2866
  455TMC3     O 6832   2.367   4.738  16.328  0.4131  0.1103 -0.1686
  455TMC3     H 6833   2.293   0.280  16.580  0.9400  0.1973 -0.7408
  455TMC3    H1 6834   2.177   0.090  16.220 -0.4229 -1.0366  0.8953
  455TMC3    H2 6835   1.882   0.275  16.492 -0.7202 -0.5250 -0.1144
  455TMC3    C7 6836   1.902   0.109  16.276 -0.0439  0.3491 -0.3709
  455TMC3    C8 6837   2.068   0.386  16.640  0.1597 -0.6374  0.2160
  455TMC3    O1 6838   1.786   0.127  16.316 -0.1190  0.0128  0.1850
  455TMC3    O2 6839   2.137   0.370  16.741  0.2910 -0.1660 -0.1550
  456MPD2     C 6840   0.438   0.293  15.857 -0.2986 -0.4600 -0.3112
  456MPD2    C1 6841   0.492   0.224  15.971  0.4418 -0.2443 -0.2097
  456MPD2    C2 6842   0.462   0.275  16.094  0.4376  0.1509  0.1295
  456MPD2    C3 6843   0.366   0.372  16.105 -0.4538  0.1752  0.1059
  456MPD2    C4 6844   0.308   0.431  15.996  0.0406  0.3345  0.2144
  456MPD2    C5 6845   0.348   0.392  15.873 -0.5827 -0.5343 -0.4165
  456MPD2     H 6846   0.508   0.226  16.179  0.1771 -2.8170 -1.4500
  456MPD2    H1 6847   0.226   0.502  15.991 -1.2082 -0.9887  2.0490
  456MPD2    H2 6848   0.471   0.263  15.759  2.0019 -0.1933  0.3890
  456MPD2    H3 6849   0.301   0.446  15.792  0.2471 -0.1106 -0.6076
  456MPD2     N 6850   0.345   0.418  16.239  0.2692 -0.5839  0.3476
  456MPD2    H5 6851   0.405   0.377  16.310  1.0024  0.9340  0.5877
  456MPD2    N1 6852   0.589   0.125  15.944  0.0821 -0.7318 -0.6219
  456MPD2    H7 6853   0.607   0.107  15.845 -0.1890 -1.0900 -0.6098
  457TMC3    C1 6854   0.249   0.557  16.422  0.2619 -0.1266  0.1228
  457TMC3    C2 6855   0.143   0.645  16.454 -0.7511 -0.3888  0.2895
  457TMC3    C3 6856   0.132   0.683  16.586  0.4444 -0.0378  0.1584
  457TMC3    C4 6857   0.326   0.503  16.514  0.4724 -0.3073 -0.6325
  457TMC3    C5 6858   0.303   0.540  16.646  0.6025 -0.2095 -0.0393
  457TMC3    C6 6859   0.213   0.635  16.685  0.3585  0.7844 -0.0788
  457TMC3     C 6860   0.255   0.521  16.279  0.4810  0.0150 -0.7171
  457TMC3     O 6861   0.179   0.574  16.203  0.3705  0.2307  0.0239
  457TMC3     H 6862   0.092   0.700  16.375 -2.3591 -0.3615  1.3403
  457TMC3    H1 6863   0.403   0.433  16.483  1.0954 -0.0625  0.3518
  457TMC3    H2 6864   0.188   0.661  16.787 -0.2141  0.0750 -0.0329
  457TMC3    C7 6865   0.403   0.491  16.734  0.2409 -0.7528 -0.2280
  457TMC3    C8 6866   0.097   0.821  16.611  0.5236  0.5559 -0.0494
  457TMC3    O1 6867   0.485   0.409  16.699  0.3391 -0.0482 -0.5139
  457TMC3    O2 6868   0.155   0.885  16.702 -0.2723 -0.0179 -0.0952
  458MPD2     C 6869   2.212   0.024  12.593 -0.1021 -0.0588 -0.3182
  458MPD2    C1 6870   2.277   4.685  12.684 -0.0614  0.4117 -0.0812
  458MPD2    C2 6871   2.204   4.631  12.784 -0.3695 -0.2532  0.4473
  458MPD2    C3 6872   2.075   4.660  12.799  0.2591 -0.1277  0.0606
  458MPD2    C4 6873   2.007   0.011  12.712  0.0582  1.0625 -0.2479
  458MPD2    C5 6874   2.078   0.051  12.605  0.4607  0.2749  0.1690
  458MPD2     H 6875   2.241   4.554  12.851 -0.3147 -2.0856 -1.7134
  458MPD2    H1 6876   1.908   0.053  12.721  0.1239  0.9381  0.9883
  458MPD2    H2 6877   2.269   0.073  12.515 -0.3091 -1.7243 -1.5136
  458MPD2    H3 6878   2.031   0.125  12.541  0.6832  2.4356  2.5021
  458MPD2     N 6879   1.999   4.612  12.912  0.3429 -0.3507  0.1757
  458MPD2    H5 6880   2.047   4.548  12.975 -1.1226  1.1740  2.8299
  458MPD2    N1 6881   2.417   4.665  12.660 -0.2113 -0.9662  0.5784
  458MPD2    H7 6882   2.440   4.698  12.566  0.7731  0.4999  1.3422
  459TMC3    C1 6883   2.639   4.621  12.685 -0.4404 -0.3058  0.2743
  459TMC3    C2 6884   2.669   0.013  12.642 -0.2080  0.8225  0.5568
  459TMC3    C3 6885   2.793   0.060  12.663 -0.8731  0.2213 -0.1885
  459TMC3    C4 6886   2.729   4.551  12.757 -0.5387  0.6028  0.3342
  459TMC3    C5 6887   2.849   4.603  12.783 -0.5507 -0.0604  1.0662
  459TMC3    C6 6888   2.886   4.717  12.721 -0.5032 -0.1471  0.5315
  459TMC3     C 6889   2.508   4.590  12.730  0.0184 -0.1784 -0.3778
  459TMC3     O 6890   2.499   4.551  12.847 -0.2526  0.0831 -0.0885
  459TMC3     H 6891   2.594   0.087  12.616 -1.7396 -1.6610 -2.1583
  459TMC3    H1 6892   2.708   4.449  12.789  0.9034  0.4047  0.6387
  459TMC3    H2 6893   2.986   0.016  12.740 -0.6128 -0.6755  2.1749
  459TMC3    C7 6894   2.933   4.531  12.885 -0.6630 -0.2897  0.4825
  459TMC3    C8 6895   2.843   0.161  12.570 -0.9695  0.2260 -0.2127
  459TMC3    O1 6896   2.900   4.416  12.918  0.2792  0.4968 -0.0681
  459TMC3    O2 6897   2.955   0.207  12.592 -0.9687  0.1062  0.0907
  460MPD2     C 6898   2.227   2.689  10.658 -0.6515 -0.3293  0.2800
  460MPD2    C1 6899   2.104   2.627  10.684  0.2188  0.5085  0.7501
  460MPD2    C2 6900   2.002   2.653  10.591  0.5069  0.6159  0.3214
  460MPD2    C3 6901   2.028   2.737  10.481  0.5017 -0.1013  0.2844
  460MPD2    C4 6902   2.150   2.800  10.470 -0.0709 -0.1414 -0.2174
  460MPD2    C5 6903   2.247   2.779  10.558  0.8255 -0.8947  0.5495
  460MPD2     H 6904   1.900   2.617  10.596 -0.1116  1.9881 -2.4384
  460MPD2    H1 6905   2.175   2.880  10.401  0.7732  1.1900  1.6104
  460MPD2    H2 6906   2.306   2.664  10.727 -0.8396  0.3604  0.7398
  460MPD2    H3 6907   2.346   2.822  10.555 -0.4849  2.1087  0.4188
  460MPD2     N 6908   1.937   2.745  10.374 -0.3488  0.2336 -0.4700
  460MPD2    H5 6909   1.837   2.734  10.391 -0.3207 -2.1613 -1.7498
  460MPD2    N1 6910   2.089   2.529  10.789 -0.5288  0.6582  0.3191
  460MPD2    H7 6911   2.168   2.491  10.841  0.9468  0.6229 -1.9261
  461TMC3    C1 6912   1.856   2.686  10.163 -0.6684 -0.0325  1.2384
  461TMC3    C2 6913   1.846   2.573  10.090  0.3779 -0.3070 -0.6724
  461TMC3    C3 6914   1.745   2.560  10.002  0.0096 -0.2062 -0.3356
  461TMC3    C4 6915   1.757   2.780  10.165 -0.0432  0.1501 -0.2228
  461TMC3    C5 6916   1.650   2.758  10.082 -0.6402  0.9843 -0.5189
  461TMC3    C6 6917   1.641   2.645  10.003 -0.5737 -0.1502  0.9711
  461TMC3     C 6918   1.975   2.697  10.246 -0.2252 -0.3021  0.0443
  461TMC3     O 6919   2.081   2.649  10.216  0.0417 -0.6066 -0.8381
  461TMC3     H 6920   1.921   2.495  10.092 -0.6113 -1.2069  1.0480
  461TMC3    H1 6921   1.783   2.873  10.215 -1.4196  0.4236 -0.0221
  461TMC3    H2 6922   1.562   2.626   9.932 -0.3042 -1.1105  0.9398
  461TMC3    C7 6923   1.520   2.819  10.109  0.3166 -0.2049 -0.1664
  461TMC3    C8 6924   1.737   2.442   9.919 -0.1771 -0.4716  0.8928
  461TMC3    O1 6925   1.428   2.797  10.036 -0.2476 -0.2361 -0.1553
  461TMC3    O2 6926   1.784   2.344   9.972  0.7766  0.4629 -0.5152
  462TMC3    C1 6927   2.955   2.842   0.033  0.3233  0.0173  0.0016
  462TMC3    C2 6928   2.922   2.746  17.692 -0.1897 -0.3029  0.4814
  462TMC3    C3 6929   2.848   2.637  17.729  0.0659 -0.7637 -0.0549
  462TMC3    C4 6930   2.915   2.819   0.162 -0.2169  0.3472 -0.0957
  462TMC3    C5 6931   2.843   2.714   0.192  0.4649  0.3213 -0.2180
  462TMC3    C6 6932   2.802   2.621   0.107  0.1507  0.9982 -0.1052
  462TMC3     C 6933   3.031   2.960  17.752  0.1718  0.0381  0.5085
  462TMC3     O 6934   3.098   3.013   0.085  0.4550 -0.0574 -0.2753
  462TMC3     H 6935   2.955   2.759  17.590 -0.5148  0.2315  0.4477
  462TMC3    H1 6936   2.947   2.894   0.234  0.0163 -0.9558  1.1674
  462TMC3    H2 6937   2.765   2.523   0.135  1.0341 -0.1683 -2.9886
  462TMC3    C7 6938   2.843   2.669   0.328 -0.0965  0.0234 -0.1365
  462TMC3    C8 6939   2.837   2.523  17.635  0.2029  0.9375 -0.3244
  462TMC3    O1 6940   2.933   2.702   0.405  0.4693  0.3245  0.0423
  462TMC3    O2 6941   2.779   2.425  17.682 -0.2097 -0.1529 -0.2168
  463MPD2     C 6942   3.775   1.557   1.114  0.2402  0.1758  0.0250
  463MPD2    C1 6943   3.659   1.623   1.130  0.2586 -0.4293  0.3668
  463MPD2    C2 6944   3.654   1.758   1.143 -0.0923 -0.4113 -0.6274
  463MPD2    C3 6945   3.776   1.826   1.127 -0.0296 -0.0784  0.1829
  463MPD2    C4 6946   3.896   1.757   1.130  0.4844  0.3240  0.7803
  463MPD2    C5 6947   3.894   1.627   1.122 -1.0022  0.1709 -0.0783
  463MPD2     H 6948   3.561   1.810   1.163  0.0374 -0.9877  1.4364
  463MPD2    H1 6949   3.991   1.807   1.113  1.5389 -1.4001  1.5289
  463MPD2    H2 6950   3.783   1.450   1.101  1.0147  0.1753  0.4531
  463MPD2    H3 6951   3.987   1.574   1.103  0.3661  3.3395 -2.2677
  463MPD2     N 6952   3.780   1.963   1.123 -0.3315 -0.3493 -0.4158
  463MPD2    H5 6953   3.871   2.004   1.138 -0.1794 -0.5494 -0.7893
  463MPD2    N1 6954   3.533   1.567   1.133 -0.2479  0.7380 -0.2302
  463MPD2    H7 6955   3.463   1.622   1.181 -2.0298 -0.8865 -0.9630
  464TMC3    C1 6956   3.356   1.411   1.133  0.1174  0.2515  0.2048
  464TMC3    C2 6957   3.289   1.491   1.229 -0.9837  0.4019 -0.3091
  464TMC3    C3 6958   3.155   1.493   1.217  0.6127  0.2428  0.0358
  464TMC3    C4 6959   3.296   1.337   1.042  0.5433 -0.3395  0.2468
  464TMC3    C5 6960   3.159   1.341   1.027  0.1910  0.4640  0.2282
  464TMC3    C6 6961   3.087   1.422   1.114  0.2324 -0.4325 -0.2519
  464TMC3     C 6962   3.497   1.441   1.093 -0.2653 -0.0203 -0.0632
  464TMC3     O 6963   3.570   1.364   1.035 -0.2564 -0.2934  0.4076
  464TMC3     H 6964   3.342   1.538   1.310  0.4332 -0.3515 -0.7937
  464TMC3    H1 6965   3.359   1.272   0.982 -1.9300 -0.9717 -1.6604
  464TMC3    H2 6966   2.983   1.404   1.138  0.0753  1.0714  0.2056
  464TMC3    C7 6967   3.105   1.245   0.940 -1.0107  0.0301 -0.0973
  464TMC3    C8 6968   3.104   1.624   1.253  0.6545  0.3524  0.6244
  464TMC3    O1 6969   3.178   1.167   0.887  0.0815 -0.1668 -0.4215
  464TMC3    O2 6970   3.183   1.720   1.250 -0.0309 -0.1680  0.0133
  465MPD2     C 6971   4.485   0.075  16.627  0.3604 -0.0346 -0.5408
  465MPD2    C1 6972   4.394   0.140  16.704  0.5643 -0.2875 -0.6660
  465MPD2    C2 6973   4.301   0.227  16.646  0.1059 -0.1620 -0.4673
  465MPD2    C3 6974   4.318   0.267  16.517 -1.3576  0.1585  0.0924
  465MPD2    C4 6975   4.401   0.196  16.435  0.2754 -0.1951 -0.6142
  465MPD2    C5 6976   4.481   0.096  16.490 -0.0801 -0.2992  0.2523
  465MPD2     H 6977   4.217   0.258  16.707 -0.1967 -0.7231 -0.6011
  465MPD2    H1 6978   4.398   0.214  16.328 -1.1597  1.1600 -0.3368
  465MPD2    H2 6979   4.561   0.014  16.675  0.0976 -0.0856 -0.1844
  465MPD2    H3 6980   4.545   0.034  16.428  0.3421 -3.1484  3.5528
  465MPD2     N 6981   4.241   0.377  16.464  0.1225  0.0274 -0.8712
  465MPD2    H5 6982   4.185   0.425  16.533  0.4354  1.0967 -1.3663
  465MPD2    N1 6983   4.381   0.133  16.845  0.3892  0.2928  0.1516
  465MPD2    H7 6984   4.308   0.188  16.889  0.0179 -0.9355  1.0993
  466TMC3    C1 6985   3.889   0.532  16.439  0.5942 -0.0749 -0.3022
  466TMC3    C2 6986   3.873   0.637  16.354 -1.3726 -0.0636  0.0890
  466TMC3    C3 6987   3.944   0.630  16.238  0.1468 -0.0611 -0.0207
  466TMC3    C4 6988   3.997   0.450  16.428 -0.3995 -0.0623 -0.4110
  466TMC3    C5 6989   4.079   0.473  16.323  0.3361  0.5198 -0.4642
  466TMC3    C6 6990   4.051   0.551  16.218 -0.0976 -0.3555  0.0622
  466TMC3     C 6991   3.849   0.541  16.579 -0.3838 -0.2607 -0.2843
  466TMC3     O 6992   3.925   0.487  16.660 -0.5310  0.2331  0.5822
  466TMC3     H 6993   3.801   0.716  16.370 -1.7352 -0.2056 -0.8419
  466TMC3    H1 6994   3.999   0.358  16.486  0.6464  0.0553 -0.2739
  466TMC3    H2 6995   4.117   0.556  16.133 -0.7828  0.7503 -0.4007
  466TMC3    C7 6996   4.211   0.408  16.330  0.7377  0.4360  0.4124
  466TMC3    C8 6997   3.946   0.747  16.156  0.4425 -0.0270  0.2624
  466TMC3    O1 6998   4.253   0.368  16.222 -0.1479 -0.1930 -0.5173
  466TMC3    O2 6999   3.968   0.743  16.036  0.0624  0.4249 -0.1319
  467TMC3    C1 7000   0.060   3.876  13.094  0.9453  0.4665 -0.4225
  467TMC3    C2 7001   0.037   4.010  13.118  0.3835 -0.2499  1.0289
  467TMC3    C3 7002   4.664   4.045  13.194 -0.8284  0.0203  0.0892
  467TMC3    C4 7003   4.721   3.777  13.145  0.6357 -0.2122 -0.3032
  467TMC3    C5 7004   4.614   3.817  13.222  0.5987  1.3835  0.1982
  467TMC3    C6 7005   4.581   3.947  13.251  0.3852 -0.0218  0.2011
  467TMC3     C 7006   0.200   3.842  13.047 -0.6590  0.3484 -0.3072
  467TMC3     O 7007   0.259   3.931  12.991  0.6856 -0.1684 -0.3041
  467TMC3     H 7008   0.100   4.088  13.078 -2.2054  1.0658 -0.4618
  467TMC3    H1 7009   4.719   3.681  13.095  0.3976 -0.7706  0.7733
  467TMC3    H2 7010   4.480   3.969  13.285 -0.1638  1.3563 -2.2526
  467TMC3    C7 7011   4.537   3.703  13.272  0.2703  0.4008 -0.9830
  467TMC3    C8 7012   4.730   4.133  13.294  0.0174 -1.0270  0.0515
  467TMC3    O1 7013   4.551   3.600  13.213  0.1460  0.0022 -0.1245
  467TMC3    O2 7014   4.688   4.242  13.313 -0.2766 -0.5145  0.0573
  468MPD2     C 7015   3.347   2.755  10.582 -0.2428  1.1337  0.8826
  468MPD2    C1 7016   3.477   2.723  10.608  0.1199 -0.0242  0.1402
  468MPD2    C2 7017   3.501   2.585  10.604 -0.0801  0.5417  0.0540
  468MPD2    C3 7018   3.406   2.483  10.589 -0.6088 -0.1407 -0.6782
  468MPD2    C4 7019   3.279   2.526  10.564 -0.5379 -0.4217  0.3465
  468MPD2    C5 7020   3.257   2.659  10.555 -0.0768 -0.1790  0.4867
  468MPD2     H 7021   3.604   2.552  10.608 -0.2870  0.1992  2.2991
  468MPD2    H1 7022   3.197   2.455  10.561 -2.0524  1.3300 -0.0127
  468MPD2    H2 7023   3.308   2.856  10.572 -0.8338  0.8989  0.8406
  468MPD2    H3 7024   3.161   2.696  10.522  1.1594  1.4496 -1.2332
  468MPD2     N 7025   3.436   2.343  10.611  0.8617 -0.1056  0.2232
  468MPD2    H5 7026   3.361   2.276  10.593  0.0052  0.6181  1.1190
  468MPD2    N1 7027   3.582   2.814  10.632  0.3249 -0.2201  0.3433
  468MPD2    H7 7028   3.667   2.765  10.659 -0.5484 -2.9284 -1.8544
  469TMC3    C1 7029   3.651   3.022  10.728  0.6797  0.2992 -0.6170
  469TMC3    C2 7030   3.773   2.970  10.767  0.7028 -0.6119 -0.4265
  469TMC3    C3 7031   3.872   3.051  10.819 -0.6782 -0.2357  0.3150
  469TMC3    C4 7032   3.625   3.153  10.757  0.5068 -0.6573  0.5426
  469TMC3    C5 7033   3.732   3.230  10.800 -0.0855 -0.0785  0.3708
  469TMC3    C6 7034   3.850   3.182  10.843  0.1835  0.1241  0.2694
  469TMC3     C 7035   3.552   2.948  10.656 -0.2580  0.2686 -0.0559
  469TMC3     O 7036   3.448   3.015  10.631  0.2235 -0.2352 -0.2374
  469TMC3     H 7037   3.797   2.864  10.767  1.6509 -0.3979 -1.4763
  469TMC3    H1 7038   3.532   3.196  10.723  0.4535 -1.7774 -0.7394
  469TMC3    H2 7039   3.922   3.253  10.882  0.6066  0.6570 -1.4596
  469TMC3    C7 7040   3.716   3.373  10.820  0.3679 -0.0354 -0.0388
  469TMC3    C8 7041   4.002   2.997  10.854  0.6668 -0.3828  0.1174
  469TMC3    O1 7042   3.807   3.450  10.796 -0.5872  0.0162 -0.8097
  469TMC3    O2 7043   4.059   2.924  10.778 -0.4049 -0.1291  0.1256
  470TMC3    C1 7044   2.087   3.108   0.753  0.0268  0.1038  0.0154
  470TMC3    C2 7045   2.053   3.237   0.722  0.4283 -0.2674 -0.3142
  470TMC3    C3 7046   2.143   3.334   0.761 -0.6108  0.2048 -0.1362
  470TMC3    C4 7047   2.191   3.078   0.829 -0.2383 -0.4457  0.8827
  470TMC3    C5 7048   2.280   3.177   0.865  0.3977  0.3230  0.1750
  470TMC3    C6 7049   2.263   3.308   0.826  0.7150 -0.3845 -0.0178
  470TMC3     C 7050   1.992   3.002   0.730  0.1831 -0.4684  0.0579
  470TMC3     O 7051   1.988   2.914   0.812  0.3450  0.0721 -0.0239
  470TMC3     H 7052   1.960   3.266   0.675  0.4480 -0.2124 -0.3197
  470TMC3    H1 7053   2.213   2.975   0.854  0.4901 -0.0764  1.7843
  470TMC3    H2 7054   2.333   3.383   0.862 -0.2485  0.2479  0.5329
  470TMC3    C7 7055   2.363   3.148   0.972  0.3178 -0.5114  0.3912
  470TMC3    C8 7056   2.087   3.470   0.783  0.0582  0.4111  0.6538
  470TMC3    O1 7057   2.454   3.227   1.001 -0.4904 -0.4327 -0.1411
  470TMC3    O2 7058   2.165   3.546   0.843 -0.5166  0.1883 -0.4343
  471MPD2     C 7059   1.452   4.279  17.039 -0.0534 -0.1231 -0.6631
  471MPD2    C1 7060   1.431   4.139  17.050 -0.2685  0.4746 -0.2142
  471MPD2    C2 7061   1.437   4.081  17.178  0.1934  0.7028  0.1469
  471MPD2    C3 7062   1.506   4.146  17.279  0.3461 -1.0002  0.1756
  471MPD2    C4 7063   1.541   4.276  17.257  0.1714  0.0097 -0.4316
  471MPD2    C5 7064   1.501   4.345  17.144 -0.7373  0.4375 -0.3040
  471MPD2     H 7065   1.419   3.975  17.190  0.6691  0.8843  2.5162
  471MPD2    H1 7066   1.602   4.320  17.336 -0.7146 -1.6159  1.1673
  471MPD2    H2 7067   1.432   4.330  16.945  0.2781 -1.2397 -1.3568
  471MPD2    H3 7068   1.517   4.451  17.129  0.7460  0.0871 -1.1951
  471MPD2     N 7069   1.547   4.065  17.390 -0.1099 -0.9018  0.1031
  471MPD2    H5 7070   1.528   3.966  17.376  0.5757 -1.1137  0.6955
  471MPD2    N1 7071   1.389   4.062  16.935  0.2805 -0.0880  0.1117
  471MPD2    H7 7072   1.364   3.965  16.948 -1.9408  0.0664 -3.0233
  472TMC3    C1 7073   1.365   3.999  16.694  0.9309  0.2209  0.9066
  472TMC3    C2 7074   1.383   4.027  16.562 -0.5324 -0.1585  0.1698
  472TMC3    C3 7075   1.357   3.925  16.472 -0.8872  0.4102 -0.1010
  472TMC3    C4 7076   1.326   3.877  16.732  0.3450 -0.5352 -0.3630
  472TMC3    C5 7077   1.317   3.777  16.639  0.1569  0.5069 -0.1933
  472TMC3    C6 7078   1.315   3.800  16.505  0.3248 -0.6571  0.3488
  472TMC3     C 7079   1.392   4.100  16.796 -0.5989  0.7942  0.6826
  472TMC3     O 7080   1.438   4.206  16.755  0.7650  0.0037 -0.6540
  472TMC3     H 7081   1.423   4.121  16.526  1.7552 -0.2894  2.3735
  472TMC3    H1 7082   1.314   3.850  16.836  0.9434 -1.3416 -0.5035
  472TMC3    H2 7083   1.322   3.711  16.443  3.2024 -0.3950  0.3206
  472TMC3    C7 7084   1.345   3.649  16.695  0.0475  0.0628 -0.3696
  472TMC3    C8 7085   1.376   3.950  16.336 -0.5712  0.0512 -0.2546
  472TMC3    O1 7086   1.372   3.643  16.818 -0.8650 -0.0078  0.0211
  472TMC3    O2 7087   1.451   4.044  16.313  0.7853  0.2554  0.7641
  473MPD2     C 7088   1.691   1.401  13.188 -0.4122 -0.3943 -0.5837
  473MPD2    C1 7089   1.598   1.501  13.170 -0.1205  0.6108 -0.5119
  473MPD2    C2 7090   1.628   1.625  13.215  1.0700 -0.3913 -0.0230
  473MPD2    C3 7091   1.757   1.653  13.269  0.3319 -0.8875  0.3747
  473MPD2    C4 7092   1.846   1.553  13.289 -0.0316  0.0867 -0.7895
  473MPD2    C5 7093   1.813   1.430  13.243 -0.5305  0.0983 -0.4020
  473MPD2     H 7094   1.561   1.706  13.186 -1.8327 -2.8049 -0.0512
  473MPD2    H1 7095   1.942   1.568  13.336  0.6323 -1.7030 -1.5968
  473MPD2    H2 7096   1.669   1.297  13.168  0.9189 -0.9447  0.8062
  473MPD2    H3 7097   1.876   1.345  13.269 -0.5854  0.4488  0.8773
  473MPD2     N 7098   1.786   1.788  13.311 -0.2617 -1.0375  0.2626
  473MPD2    H5 7099   1.876   1.816  13.349 -0.0112 -0.8311 -0.4811
  473MPD2    N1 7100   1.474   1.480  13.110 -0.1360 -0.3531 -0.4612
  473MPD2    H7 7101   1.407   1.555  13.128  0.4031 -0.1151  0.5761
  474TMC3    C1 7102   1.768   2.030  13.338 -0.2852  0.5199  0.1426
  474TMC3    C2 7103   1.740   2.148  13.270  0.4628 -0.4772  0.4332
  474TMC3    C3 7104   1.762   2.270  13.325 -0.0645 -0.8408  0.1063
  474TMC3    C4 7105   1.838   2.031  13.453  0.0599  0.0452 -0.1363
  474TMC3    C5 7106   1.866   2.154  13.509 -0.0046 -0.6854  0.9238
  474TMC3    C6 7107   1.824   2.273  13.448  0.7838 -0.4547 -0.5657
  474TMC3     C 7108   1.713   1.903  13.285  1.2051  0.8227  0.2764
  474TMC3     O 7109   1.613   1.922  13.213  0.2141 -0.1086  0.3668
  474TMC3     H 7110   1.675   2.155  13.183 -1.9919  0.4955  2.3322
  474TMC3    H1 7111   1.847   1.940  13.512 -0.6535  0.7226  1.0137
  474TMC3    H2 7112   1.844   2.364  13.503  0.5660 -0.6530 -0.1531
  474TMC3    C7 7113   1.919   2.164  13.647 -0.7127  0.6780  0.0351
  474TMC3    C8 7114   1.743   2.391  13.248 -0.7953  0.0684  0.1575
  474TMC3    O1 7115   1.895   2.268  13.704 -0.3895  0.0645 -0.3393
  474TMC3    O2 7116   1.743   2.379  13.125  0.0165 -0.4409 -0.7515
  475MPD2     C 7117   4.575   4.414  10.688 -0.6231 -0.2933  0.5693
  475MPD2    C1 7118   4.548   4.527  10.611 -0.1495  0.2537 -0.4330
  475MPD2    C2 7119   4.446   4.610  10.648 -0.7572 -0.0623 -0.5482
  475MPD2    C3 7120   4.350   4.571  10.742  0.3049 -0.3400 -0.4047
  475MPD2    C4 7121   4.376   4.451  10.818 -0.5063  0.0606  0.6525
  475MPD2    C5 7122   4.491   4.380  10.790  0.5077  0.0321  0.2782
  475MPD2     H 7123   4.433   4.700  10.588 -0.5933 -0.4819 -1.2157
  475MPD2    H1 7124   4.316   4.408  10.898  1.5262 -1.1048  1.5588
  475MPD2    H2 7125   4.670   4.363  10.681  1.2101  2.8105  2.6114
  475MPD2    H3 7126   4.515   4.291  10.848 -0.1166 -0.2680  0.0834
  475MPD2     N 7127   4.237   4.651  10.784  0.5998  0.4104 -0.0654
  475MPD2    H5 7128   4.243   0.008  10.753  1.1310 -0.0042 -1.2221
  475MPD2    N1 7129   4.639   4.556  10.506 -0.1275  0.0919  0.2572
  475MPD2    H7 7130   4.726   4.508  10.489  0.4915  1.1444  0.4540
  476TMC3    C1 7131   4.726   4.672  10.322 -1.3217  0.2300  0.1388
  476TMC3    C2 7132   4.676   0.007  10.216 -0.1948  0.5758 -0.4590
  476TMC3    C3 7133   4.735   0.125  10.179  0.1749 -0.4853  0.3876
  476TMC3    C4 7134   0.093   4.712  10.390  0.4215  0.0075 -0.0102
  476TMC3    C5 7135   0.153   0.089  10.347 -0.2333 -0.3063 -0.0238
  476TMC3    C6 7136   0.106   0.167  10.245 -0.0024 -0.0644 -0.0652
  476TMC3     C 7137   4.611   4.648  10.408  0.4020 -0.1488  0.1509
  476TMC3     O 7138   4.505   4.708  10.383  0.3429 -0.1919  0.3341
  476TMC3     H 7139   4.602   4.703  10.148  0.6100  0.8966 -1.5435
  476TMC3    H1 7140   0.117   4.660  10.482  1.9418 -0.8368 -0.8833
  476TMC3    H2 7141   0.146   0.266  10.233  2.9717 -1.2270  0.2677
  476TMC3    C7 7142   0.233   0.150  10.456 -0.5639  0.2875 -0.3086
  476TMC3    C8 7143   4.654   0.226  10.126  0.0219 -0.1706  0.2488
  476TMC3    O1 7144   0.251   0.077  10.551  0.7467 -0.0604  0.2455
  476TMC3    O2 7145   4.711   0.320  10.072  0.5725 -0.4835 -0.0570
  477MPD2     C 7146   1.987   1.501  11.846 -0.4569 -0.0574  0.2638
  477MPD2    C1 7147   2.108   1.511  11.788 -0.5950 -0.7149  0.5340
  477MPD2    C2 7148   2.216   1.465  11.854  0.1807  0.0499  0.2215
  477MPD2    C3 7149   2.207   1.402  11.972  0.5339  0.0188 -0.3318
  477MPD2    C4 7150   2.087   1.404  12.038 -0.2169 -0.5227 -0.1194
  477MPD2    C5 7151   1.987   1.455  11.973 -0.0505  1.1525 -0.5983
  477MPD2     H 7152   2.314   1.471  11.809 -0.2962 -2.1434 -1.0922
  477MPD2    H1 7153   2.062   1.338  12.119  0.7232 -1.4871 -0.6061
  477MPD2    H2 7154   1.897   1.534  11.795 -1.2540 -1.7922  0.5751
  477MPD2    H3 7155   1.885   1.438  12.006  0.4665  0.0720  0.4882
  477MPD2     N 7156   2.313   1.316  12.014  0.3633  0.2052 -0.8601
  477MPD2    H5 7157   2.399   1.320  11.959  0.3874 -0.4142 -0.8683
  477MPD2    N1 7158   2.121   1.581  11.666  0.2738 -0.1273 -0.1597
  477MPD2    H7 7159   2.043   1.641  11.638  0.5045  1.0557  1.7055
  478TMC3    C1 7160   2.200   1.664  11.467  0.5565  0.1647  0.2085
  478TMC3    C2 7161   2.151   1.785  11.509  0.1262  0.7202  0.2018
  478TMC3    C3 7162   2.097   1.865  11.419  0.3130 -0.0580 -0.6935
  478TMC3    C4 7163   2.201   1.621  11.336  0.5274  0.1164 -0.5652
  478TMC3    C5 7164   2.146   1.706  11.249 -0.0633  0.1351 -0.2322
  478TMC3    C6 7165   2.084   1.825  11.289  0.2838  0.3674  0.2301
  478TMC3     C 7166   2.226   1.573  11.578 -0.1349 -0.2069 -0.1793
  478TMC3     O 7167   2.309   1.483  11.566  0.0080  0.5420  0.0388
  478TMC3     H 7168   2.181   1.817  11.608 -0.5605  0.8403  0.3700
  478TMC3    H1 7169   2.229   1.518  11.316 -0.2464 -0.1239 -0.4171
  478TMC3    H2 7170   2.016   1.874  11.221  0.1379 -0.6357 -0.3504
  478TMC3    C7 7171   2.118   1.643  11.119  0.4348 -0.2236  0.0840
  478TMC3    C8 7172   1.972   1.906  11.480  0.1670 -0.3723  0.1931
  478TMC3    O1 7173   2.097   1.526  11.127  0.0657  0.0923 -0.0585
  478TMC3    O2 7174   1.909   1.816  11.534 -0.1586 -0.0698 -0.8437
  479MPD2     C 7175   0.898   3.191  14.949  0.1745  0.8205  0.2207
  479MPD2    C1 7176   0.983   3.079  14.951  0.4293 -0.1535  0.6577
  479MPD2    C2 7177   1.119   3.095  14.958  0.6826 -0.7423  0.4104
  479MPD2    C3 7178   1.172   3.226  14.947  0.0004  0.7982 -0.3030
  479MPD2    C4 7179   1.089   3.336  14.950 -0.0518 -0.3978  0.1337
  479MPD2    C5 7180   0.952   3.315  14.946 -1.0199 -0.1254  0.1226
  479MPD2     H 7181   1.185   3.009  14.965  0.8630 -0.7109 -0.8956
  479MPD2    H1 7182   1.128   3.437  14.950 -3.3601  0.9039 -1.0563
  479MPD2    H2 7183   0.790   3.189  14.947  0.1444  2.3645  0.1662
  479MPD2    H3 7184   0.893   3.407  14.946 -2.3129 -0.9761 -2.9195
  479MPD2     N 7185   1.311   3.259  14.948 -0.2099  0.3073  0.1634
  479MPD2    H5 7186   1.331   3.357  14.928  2.7467 -0.0808  1.2974
  479MPD2    N1 7187   0.918   2.958  14.930 -0.1021  0.8010 -0.2670
  479MPD2    H7 7188   0.818   2.967  14.916 -0.2435 -0.7530 -0.2815
  480TMC3    C1 7189   1.701   3.308  15.113 -0.1347  0.1019  0.0668
  480TMC3    C2 7190   1.715   3.419  15.034  0.2538  0.4496 -0.2461
  480TMC3    C3 7191   1.659   3.418  14.910  1.0801 -0.6685 -0.2829
  480TMC3    C4 7192   1.620   3.205  15.067  0.1810  0.3547  0.3157
  480TMC3    C5 7193   1.536   3.228  14.958  0.0813  0.2330 -0.5576
  480TMC3    C6 7194   1.566   3.326  14.865 -0.0371  0.0440  0.4697
  480TMC3     C 7195   1.694   3.329  15.261  0.3949 -0.0180  0.9117
  480TMC3     O 7196   1.666   3.226  15.322 -0.3254 -0.0239  0.0975
  480TMC3     H 7197   1.782   3.502  15.057  1.0952 -0.5644  0.9506
  480TMC3    H1 7198   1.614   3.110  15.117  2.3813  0.6833  1.2106
  480TMC3    H2 7199   1.511   3.344  14.774  1.7539  1.0825 -0.4000
  480TMC3    C7 7200   1.407   3.170  14.968  0.0090  0.0393  0.4092
  480TMC3    C8 7201   1.678   3.539  14.826 -0.3331 -0.1292  0.3054
  480TMC3    O1 7202   1.388   3.061  15.027 -0.0413 -0.5712  0.4544
  480TMC3    O2 7203   1.691   3.651  14.876 -0.1396 -0.4822  0.2601
  481MPD2     C 7204   3.086   2.981  14.114  0.1871  0.1882  0.0290
  481MPD2    C1 7205   2.970   2.909  14.129 -0.4576  0.2454  0.0859
  481MPD2    C2 7206   2.948   2.838  14.250 -0.1582  1.0043 -0.0801
  481MPD2    C3 7207   3.037   2.854  14.355 -0.3168  0.2406  0.7237
  481MPD2    C4 7208   3.151   2.928  14.330  0.7127  0.0977 -0.5616
  481MPD2    C5 7209   3.186   2.978  14.209  0.7620  0.2355  0.4915
  481MPD2     H 7210   2.857   2.781  14.265  0.6055 -0.4758 -1.0656
  481MPD2    H1 7211   3.218   2.951  14.413 -0.6220  1.3734  0.1640
  481MPD2    H2 7212   3.108   3.038  14.024 -1.0224 -0.5058 -0.7030
  481MPD2    H3 7213   3.273   3.038  14.186  0.7307  1.0369  2.4918
  481MPD2     N 7214   3.020   2.808  14.491 -0.3564 -0.0897  0.1100
  481MPD2    H5 7215   3.085   2.833  14.564 -0.0373  1.7762 -0.8082
  481MPD2    N1 7216   2.883   2.913  14.020 -0.5362 -0.1082 -0.2321
  481MPD2    H7 7217   2.910   2.968  13.938 -2.9852 -0.5641 -1.3479
  482TMC3    C1 7218   2.698   2.861  13.883  0.4194  0.2501  0.4197
  482TMC3    C2 7219   2.601   2.770  13.863  0.5521 -0.6390  0.5320
  482TMC3    C3 7220   2.516   2.795  13.758  0.2967 -0.0570 -0.2202
  482TMC3    C4 7221   2.720   2.975  13.808  0.1500 -0.0741 -0.2239
  482TMC3    C5 7222   2.640   2.985  13.698  0.0482 -0.4049  0.9803
  482TMC3    C6 7223   2.528   2.897  13.673  0.4465  0.2019 -0.1096
  482TMC3     C 7224   2.759   2.848  14.014 -1.0860 -0.3634  0.1557
  482TMC3     O 7225   2.693   2.801  14.105  0.5861  0.1348  0.3978
  482TMC3     H 7226   2.588   2.684  13.927 -1.3940 -0.0925  0.8795
  482TMC3    H1 7227   2.791   3.052  13.835 -1.0170  1.4737 -1.5351
  482TMC3    H2 7228   2.456   2.933  13.601 -0.7266  1.5635  1.7251
  482TMC3    C7 7229   2.612   3.121  13.645  0.7110  0.5562 -0.5911
  482TMC3    C8 7230   2.412   2.693  13.739 -0.9865 -0.0790 -0.2687
  482TMC3    O1 7231   2.646   3.206  13.727  0.0528  0.3478 -0.2350
  482TMC3    O2 7232   2.395   2.609  13.828  0.2032 -0.3055 -0.2661
  483TMC3    C1 7233   1.089   1.722   1.093  0.4021  0.7075 -0.5669
  483TMC3    C2 7234   1.189   1.817   1.100  0.4231  0.1854 -0.5423
  483TMC3    C3 7235   1.304   1.777   1.161  0.0283  0.3416  0.5296
  483TMC3    C4 7236   1.116   1.587   1.108  0.0180  0.4076  0.0030
  483TMC3    C5 7237   1.238   1.553   1.149  0.2193 -0.3086 -0.7323
  483TMC3    C6 7238   1.333   1.648   1.190 -0.6272  0.1784  0.2160
  483TMC3     C 7239   0.969   1.761   1.023 -0.4445 -0.0150 -0.1328
  483TMC3     O 7240   0.952   1.880   1.016 -0.0432 -0.3451 -0.2190
  483TMC3     H 7241   1.173   1.916   1.059  1.0141  0.1226 -0.9186
  483TMC3    H1 7242   1.040   1.513   1.088  0.2488  0.2688 -0.3623
  483TMC3    H2 7243   1.430   1.618   1.227 -1.1848 -0.0628  1.4983
  483TMC3    C7 7244   1.307   1.446   1.088 -0.6707 -0.3446  0.7839
  483TMC3    C8 7245   1.420   1.860   1.138  0.2149  0.3398  0.8506
  483TMC3    O1 7246   1.421   1.478   1.052 -0.0970 -0.1543  0.3422
  483TMC3    O2 7247   1.415   1.959   1.062  0.1442 -0.3508 -0.8618
  484MPD2     C 7248   2.722   0.234  12.213 -0.3915 -0.0739 -0.4291
  484MPD2    C1 7249   2.806   0.209  12.324  0.3131  0.6067  0.6195
  484MPD2    C2 7250   2.949   0.233  12.305 -0.1878  0.0406  0.0875
  484MPD2    C3 7251   3.002   0.269  12.180 -0.8974 -0.8131 -0.9215
  484MPD2    C4 7252   2.912   0.303  12.081  0.1091  0.2695  0.4052
  484MPD2    C5 7253   2.773   0.288  12.097 -0.8688  0.2319 -0.3218
  484MPD2     H 7254   3.014   0.233  12.391 -0.9312 -1.1962  0.6487
  484MPD2    H1 7255   2.946   0.322  11.980  3.1811 -2.6552  0.8947
  484MPD2    H2 7256   2.614   0.230  12.220 -0.0528 -4.1563  2.7920
  484MPD2    H3 7257   2.709   0.314  12.014 -1.2649 -0.0397 -0.0964
  484MPD2     N 7258   3.136   0.297  12.165 -0.0155 -0.2674  0.5896
  484MPD2    H5 7259   3.162   0.364  12.094 -0.2753  1.3690  2.0246
  484MPD2    N1 7260   2.762   0.169  12.454  0.1716 -0.2042 -0.2629
  484MPD2    H7 7261   2.668   0.134  12.467 -0.3808  1.1093 -0.6645
  485TMC3    C1 7262   3.363   0.291  12.218  0.4082  0.3337 -0.2430
  485TMC3    C2 7263   3.462   0.226  12.278  0.0058  0.3674 -0.3495
  485TMC3    C3 7264   3.566   0.305  12.326 -0.2648 -0.1239 -0.4529
  485TMC3    C4 7265   3.358   0.428  12.182 -0.1053  0.3386  0.6290
  485TMC3    C5 7266   3.472   0.496  12.216 -1.6858 -0.0394  0.3074
  485TMC3    C6 7267   3.570   0.438  12.287 -0.6356  0.0222  1.2600
  485TMC3     C 7268   3.230   0.239  12.242 -0.4656 -0.2942  0.6708
  485TMC3     O 7269   3.223   0.134  12.309  0.0628 -0.3262  0.5235
  485TMC3     H 7270   3.470   0.121  12.302  0.6242 -0.0127 -2.2363
  485TMC3    H1 7271   3.272   0.479  12.140  1.8983  0.7307 -3.0233
  485TMC3    H2 7272   3.645   0.506  12.324  1.3046 -0.9491 -0.9129
  485TMC3    C7 7273   3.520   0.581  12.107 -0.4433 -0.3268  0.7719
  485TMC3    C8 7274   3.698   0.248  12.304  0.2120 -0.2967  0.4181
  485TMC3    O1 7275   3.443   0.655  12.050  0.4300 -0.6118  0.1107
  485TMC3    O2 7276   3.723   0.202  12.194  0.0655 -0.1611  0.4015
  486MPD2     C 7277   0.895   3.787  12.698  0.0166  0.1830 -0.8339
  486MPD2    C1 7278   0.763   3.793  12.663  0.1528 -0.3243 -0.1839
  486MPD2    C2 7279   0.700   3.911  12.650 -0.0240 -0.5249  0.4223
  486MPD2    C3 7280   0.765   4.035  12.651  0.3533 -0.0147 -0.0604
  486MPD2    C4 7281   0.899   4.034  12.680  0.0749  0.1120  0.5621
  486MPD2    C5 7282   0.967   3.910  12.702 -0.7273  0.1962  0.0907
  486MPD2     H 7283   0.596   3.918  12.622  0.9045  2.1759 -2.3566
  486MPD2    H1 7284   0.959   4.124  12.681  3.6736 -2.2939  0.5354
  486MPD2    H2 7285   0.953   3.698  12.723 -2.0091 -1.0295 -0.4704
  486MPD2    H3 7286   1.072   3.905  12.726 -0.3685  1.2635 -1.2485
  486MPD2     N 7287   0.693   4.153  12.627  0.4062 -0.1188 -0.3768
  486MPD2    H5 7288   0.592   4.143  12.627  0.4971 -1.0910  1.1172
  486MPD2    N1 7289   0.696   3.670  12.655 -0.8553  0.4225 -0.2155
  486MPD2    H7 7290   0.750   3.584  12.667 -1.4630  0.3248  1.7975
  487TMC3    C1 7291   0.498   3.522  12.661  0.6822  1.0118  0.2064
  487TMC3    C2 7292   0.371   3.504  12.613 -0.9907 -0.1429  0.0747
  487TMC3    C3 7293   0.324   3.376  12.635  0.2116 -0.2100 -0.0623
  487TMC3    C4 7294   0.576   3.423  12.724  0.4513 -0.0945 -0.3703
  487TMC3    C5 7295   0.521   3.301  12.739 -1.1219  0.7715  0.3420
  487TMC3    C6 7296   0.393   3.285  12.705  0.2263 -0.0352 -0.6359
  487TMC3     C 7297   0.555   3.655  12.639  0.1352  0.0415 -0.2567
  487TMC3     O 7298   0.471   3.744  12.617  0.6600  0.7485  0.6610
  487TMC3     H 7299   0.312   3.584  12.570 -0.0392  0.0002 -0.9519
  487TMC3    H1 7300   0.663   3.443  12.786  0.9382 -1.1272 -0.7278
  487TMC3    H2 7301   0.352   3.185  12.709 -1.8277  0.7531 -1.5257
  487TMC3    C7 7302   0.561   3.240  12.865 -0.1705  0.2330  0.2321
  487TMC3    C8 7303   0.183   3.372  12.653  0.1623 -0.6911  0.2890
  487TMC3    O1 7304   0.676   3.202  12.879 -0.1049  0.1152  0.2639
  487TMC3    O2 7305   0.162   3.311  12.758  0.2408 -0.0002 -0.0288
  488MPD2     C 7306   0.738   0.740  15.968 -0.0884  0.3795  0.9182
  488MPD2    C1 7307   0.840   0.793  16.044 -0.6590  1.3064 -0.0942
  488MPD2    C2 7308   0.849   0.757  16.179  0.5242 -0.9486  0.7985
  488MPD2    C3 7309   0.760   0.673  16.231  0.1378  0.3188  0.2685
  488MPD2    C4 7310   0.665   0.607  16.156 -0.6436 -0.2562 -0.2032
  488MPD2    C5 7311   0.653   0.648  16.021  0.7569 -0.1238 -0.5818
  488MPD2     H 7312   0.925   0.802  16.241  0.3915 -0.8486  0.8876
  488MPD2    H1 7313   0.595   0.539  16.204 -0.0233 -0.8109 -0.0778
  488MPD2    H2 7314   0.730   0.755  15.861  0.5592 -1.5814  0.5909
  488MPD2    H3 7315   0.574   0.606  15.960  0.7653  0.6669 -1.1369
  488MPD2     N 7316   0.788   0.633  16.368 -0.5384 -0.1440 -0.1481
  488MPD2    H5 7317   0.872   0.671  16.410 -0.4480 -1.9456  1.2760
  488MPD2    N1 7318   0.930   0.889  15.995 -0.4228  0.3114 -0.3355
  488MPD2    H7 7319   1.003   0.918  16.060 -1.4232 -1.3113  1.5097
  489TMC3    C1 7320   0.791   0.510  16.566  0.3575 -0.7422 -0.0360
  489TMC3    C2 7321   0.884   0.595  16.619 -0.1226  0.4829 -0.3598
  489TMC3    C3 7322   0.953   0.557  16.735 -0.0109 -0.5256  0.0231
  489TMC3    C4 7323   0.773   0.386  16.628  0.6185  0.7273  0.5733
  489TMC3    C5 7324   0.835   0.353  16.751  0.7382 -0.0235  0.3219
  489TMC3    C6 7325   0.931   0.437  16.795  0.3638 -0.0074  0.5471
  489TMC3     C 7326   0.731   0.526  16.437 -0.1004 -0.3076  0.4022
  489TMC3     O 7327   0.644   0.449  16.406  0.2802 -0.4349  0.3053
  489TMC3     H 7328   0.902   0.692  16.575 -0.6046  1.1113  0.8252
  489TMC3    H1 7329   0.730   0.312  16.562 -0.4150  2.5388 -0.7612
  489TMC3    H2 7330   0.995   0.403  16.875  0.1504  0.0569  0.7437
  489TMC3    C7 7331   0.784   0.233  16.829  0.1023  0.1975  0.5551
  489TMC3    C8 7332   1.059   0.649  16.776 -0.1314  0.4065  0.0321
  489TMC3    O1 7333   0.845   0.178  16.921  0.2527 -0.1043 -0.2538
  489TMC3    O2 7334   1.091   0.741  16.701  0.2553  0.3187 -0.2156
  490MPD2     C 7335   2.310   0.030  17.253 -0.0197 -0.4208 -0.2051
  490MPD2    C1 7336   2.215   0.068  17.344  0.1580  0.3857  0.0882
  490MPD2    C2 7337   2.253   0.060  17.478 -0.4694 -0.6965  0.9223
  490MPD2    C3 7338   2.374   0.019  17.521 -0.2226  0.0217 -0.2635
  490MPD2    C4 7339   2.474   0.002  17.429 -0.0022  0.2538 -0.1460
  490MPD2    C5 7340   2.438   0.004  17.295 -0.1733  0.5147  0.4797
  490MPD2     H 7341   2.175   0.079  17.551  0.5805  1.4470  1.4791
  490MPD2    H1 7342   2.575   4.719  17.462 -0.8528 -1.8981  1.0478
  490MPD2    H2 7343   2.297   0.030  17.145  0.8440 -0.9203 -0.3108
  490MPD2    H3 7344   2.522   4.729  17.228 -0.9840 -1.4787 -0.1299
  490MPD2     N 7345   2.404   4.738  17.658 -0.4134 -0.4419 -0.3185
  490MPD2    H5 7346   2.501   4.730  17.685 -0.9990 -0.0304  1.8804
  490MPD2    N1 7347   2.084   0.114  17.312  1.2571  0.3635 -0.5373
  490MPD2    H7 7348   2.033   0.160  17.387 -2.0394 -0.4027 -2.3364
  491TMC3    C1 7349   1.878   0.129  17.209  0.6221  0.8548  0.2749
  491TMC3    C2 7350   1.840   0.066  17.329 -0.7918 -0.0042  0.0163
  491TMC3    C3 7351   1.744   4.714  17.323 -0.5432 -0.1863  0.7186
  491TMC3    C4 7352   1.808   0.097  17.096  0.4302  1.0334 -0.4371
  491TMC3    C5 7353   1.701   0.015  17.099  0.1335  0.5279  0.0482
  491TMC3    C6 7354   1.673   4.684  17.211 -0.4501 -0.2132  1.0750
  491TMC3     C 7355   2.019   0.118  17.192  0.3866  0.5137 -0.5434
  491TMC3     O 7356   2.057   0.080  17.085  0.7324 -0.7530  0.0122
  491TMC3     H 7357   1.895   0.081  17.421 -2.0270 -0.8093  0.8985
  491TMC3    H1 7358   1.851   0.122  16.999 -0.2686 -0.5059 -1.1549
  491TMC3    H2 7359   1.593   4.613  17.229  1.0322 -2.0282  0.4558
  491TMC3    C7 7360   1.617   4.726  16.990  1.1158  0.1079  0.2499
  491TMC3    C8 7361   1.776   4.601  17.409  0.5509  0.6219  0.0509
  491TMC3    O1 7362   1.518   4.659  17.012 -0.3241  0.0509 -0.2955
  491TMC3    O2 7363   1.690   4.531  17.451  0.8980 -0.5361 -0.8606
  492MPD2     C 7364   1.839   0.476  11.584  0.4132  0.6674  0.0520
  492MPD2    C1 7365   1.791   0.392  11.485 -0.0930 -0.6084 -0.0867
  492MPD2    C2 7366   1.722   0.276  11.523 -0.6748  0.2608 -0.9979
  492MPD2    C3 7367   1.705   0.240  11.658 -0.4844 -0.0816 -0.2281
  492MPD2    C4 7368   1.750   0.323  11.756 -0.6852  0.7099 -0.2887
  492MPD2    C5 7369   1.817   0.438  11.720 -0.4245  0.5844  0.9028
  492MPD2     H 7370   1.682   0.212  11.445 -0.5125 -1.5446  0.4042
  492MPD2    H1 7371   1.735   0.309  11.862 -2.5727  1.6056 -0.4313
  492MPD2    H2 7372   1.892   0.568  11.560  1.4177 -0.5103 -2.1914
  492MPD2    H3 7373   1.861   0.504  11.794  2.2893  1.1809 -1.2332
  492MPD2     N 7374   1.643   0.124  11.702  0.8899  0.4692 -0.1656
  492MPD2    H5 7375   1.625   0.113  11.801 -1.3977  1.5285 -0.4745
  492MPD2    N1 7376   1.797   0.445  11.354 -0.4771  0.3193  0.8578
  492MPD2    H7 7377   1.831   0.541  11.347 -2.1039  0.8834  0.7518
  493TMC3    C1 7378   1.799   0.446  11.107 -0.2505  0.4898  0.1703
  493TMC3    C2 7379   1.860   0.568  11.114  0.6433 -0.6397 -0.5360
  493TMC3    C3 7380   1.842   0.645  11.006  0.2298 -0.3709 -0.2839
  493TMC3    C4 7381   1.732   0.393  11.003  0.1557 -0.5047 -0.0204
  493TMC3    C5 7382   1.704   0.481  10.901 -0.1174 -0.0384  0.3192
  493TMC3    C6 7383   1.755   0.609  10.900 -0.1432 -0.3576  0.3502
  493TMC3     C 7384   1.762   0.378  11.235  0.4080  0.2117  0.0608
  493TMC3     O 7385   1.732   0.262  11.227 -0.1401 -0.0255  0.1335
  493TMC3     H 7386   1.932   0.609  11.184  2.2757 -3.0350 -0.8338
  493TMC3    H1 7387   1.689   0.294  11.002  0.8124 -0.8214  2.5077
  493TMC3    H2 7388   1.737   0.673  10.814 -2.0551  1.2686  1.9621
  493TMC3    C7 7389   1.611   0.440  10.795  0.0751 -0.8120 -0.4348
  493TMC3    C8 7390   1.883   0.789  11.010  0.0705  0.3113  0.7106
  493TMC3    O1 7391   1.544   0.523  10.739  0.3820 -0.2801  0.0734
  493TMC3    O2 7392   1.890   0.834  11.125 -0.5297 -0.6130 -0.0170
  494TMC3    C1 7393   2.959   2.268   0.332  0.1617  0.2093  0.1308
  494TMC3    C2 7394   2.847   2.189   0.332 -0.0908 -0.3746 -0.1630
  494TMC3    C3 7395   2.807   2.130   0.216 -1.1802  0.4551  0.1615
  494TMC3    C4 7396   3.040   2.290   0.218 -0.6238 -0.0901  0.4080
  494TMC3    C5 7397   2.988   2.238   0.105  0.5486  0.2471  0.0709
  494TMC3    C6 7398   2.873   2.160   0.100 -0.4431  0.2337  0.0974
  494TMC3     C 7399   3.003   2.309   0.459  0.2745 -0.5488 -0.1315
  494TMC3     O 7400   2.941   2.259   0.550 -0.0691 -0.3087 -0.1863
  494TMC3     H 7401   2.795   2.168   0.425  0.1144  0.4888  0.1492
  494TMC3    H1 7402   3.138   2.335   0.226 -0.5494 -0.6230  2.5634
  494TMC3    H2 7403   2.828   2.139   0.003 -3.0642  1.9260  0.9713
  494TMC3    C7 7404   3.046   2.266  17.725 -0.1797 -0.5976  0.2498
  494TMC3    C8 7405   2.757   1.994   0.233 -0.7242 -0.7774 -0.1534
  494TMC3    O1 7406   3.023   2.175  17.643 -0.3704 -0.0203 -0.0698
  494TMC3    O2 7407   2.733   1.959   0.346  0.0309 -0.2239  0.1125
  495TMC3    C1 7408   1.430   3.271  13.931 -0.7310  0.1332 -0.1512
  495TMC3    C2 7409   1.347   3.355  13.855 -0.9260  0.1103 -0.1785
  495TMC3    C3 7410   1.328   3.481  13.904 -0.2107  0.1948  0.2293
  495TMC3    C4 7411   1.502   3.310  14.043 -0.1991  0.1190 -0.6191
  495TMC3    C5 7412   1.483   3.446  14.078  0.5475  0.4153 -0.4639
  495TMC3    C6 7413   1.397   3.526  14.012  0.4512 -0.4322 -0.9117
  495TMC3     C 7414   1.444   3.132  13.894 -0.0816 -0.1468 -0.2721
  495TMC3     O 7415   1.443   3.060  13.992  0.1922  0.6299  0.6886
  495TMC3     H 7416   1.265   3.312  13.799  0.4753 -3.0312  0.1567
  495TMC3    H1 7417   1.561   3.241  14.103  2.4821  0.8443 -2.4175
  495TMC3    H2 7418   1.368   3.624  14.048 -0.4693 -1.7308  1.8407
  495TMC3    C7 7419   1.540   3.485  14.205 -0.0646 -0.0005  0.1202
  495TMC3    C8 7420   1.194   3.536  13.872  0.1035 -0.6298 -0.0174
  495TMC3    O1 7421   1.597   3.392  14.262  0.0128 -0.0768 -0.7842
  495TMC3    O2 7422   1.125   3.592  13.954  0.3774 -0.4360 -0.8736
  496MPD2     C 7423   3.680   3.987  15.386 -0.5953 -0.0058 -0.5267
  496MPD2    C1 7424   3.603   3.884  15.346 -0.1413 -0.0208 -0.3772
  496MPD2    C2 7425   3.475   3.868  15.388  0.8600 -0.0355  0.1936
  496MPD2    C3 7426   3.414   3.969  15.466  0.5119 -0.2095 -0.5265
  496MPD2    C4 7427   3.489   4.082  15.499 -0.3949 -0.2028  0.4171
  496MPD2    C5 7428   3.624   4.080  15.469 -0.4354  0.2746 -0.2450
  496MPD2     H 7429   3.412   3.784  15.363  1.8137 -0.3601 -1.1012
  496MPD2    H1 7430   3.454   4.149  15.576  2.0506 -0.1917  1.5258
  496MPD2    H2 7431   3.788   3.989  15.373 -0.3865 -2.0317  0.8241
  496MPD2    H3 7432   3.688   4.151  15.521  0.5229 -0.4563 -0.4167
  496MPD2     N 7433   3.284   3.964  15.521 -0.3127  0.0019  0.5033
  496MPD2    H5 7434   3.259   4.045  15.576 -1.0411 -0.9038  1.4952
  496MPD2    N1 7435   3.680   3.788  15.276  0.0944  0.3297 -0.4393
  496MPD2    H7 7436   3.777   3.808  15.256  0.0448 -0.4618 -1.4691
  497TMC3    C1 7437   3.073   3.871  15.594  0.2820  0.0598  0.7193
  497TMC3    C2 7438   2.971   3.796  15.550  0.0961  0.1365  0.4462
  497TMC3    C3 7439   2.871   3.769  15.632 -0.9682 -0.0255 -0.0659
  497TMC3    C4 7440   3.085   3.927  15.714  0.4975 -0.3935  0.1947
  497TMC3    C5 7441   2.977   3.904  15.790  0.0628 -0.3432  0.7487
  497TMC3    C6 7442   2.865   3.828  15.751  0.4499  0.3935 -0.1600
  497TMC3     C 7443   3.183   3.869  15.500 -0.4271 -0.3963 -0.9526
  497TMC3     O 7444   3.186   3.786  15.414  0.2043 -1.0407 -0.5777
  497TMC3     H 7445   2.963   3.756  15.450  2.7878 -0.3856  0.4421
  497TMC3    H1 7446   3.175   3.980  15.742 -0.0056  0.7977 -0.4272
  497TMC3    H2 7447   2.785   3.804  15.820  0.0667 -1.6509 -1.3296
  497TMC3    C7 7448   2.974   3.941  15.935  0.6267  0.0998 -0.0194
  497TMC3    C8 7449   2.752   3.708  15.585  0.2771 -0.1113 -0.2518
  497TMC3    O1 7450   2.869   3.945  15.997  0.1655  0.1852  0.8361
  497TMC3    O2 7451   2.645   3.727  15.637 -0.7979  0.5921  0.6175
  498MPD2     C 7452   3.459   0.427   9.305  0.0960  0.2425  0.6344
  498MPD2    C1 7453   3.552   0.379   9.397 -0.1101 -0.1660 -0.8635
  498MPD2    C2 7454   3.506   0.313   9.509 -0.0519 -0.8353  0.1327
  498MPD2    C3 7455   3.369   0.313   9.547 -0.7916 -0.4840 -0.3007
  498MPD2    C4 7456   3.283   0.377   9.465 -0.2964 -0.0722  0.5533
  498MPD2    C5 7457   3.327   0.419   9.344  0.2572 -0.5360 -0.4347
  498MPD2     H 7458   3.580   0.284   9.582  3.6690  2.3100 -2.3439
  498MPD2    H1 7459   3.177   0.386   9.486 -0.1684 -0.0954  1.2036
  498MPD2    H2 7460   3.483   0.476   9.212 -0.0411  0.3265  0.6423
  498MPD2    H3 7461   3.257   0.468   9.276  0.3653  2.0088  1.2877
  498MPD2     N 7462   3.340   0.251   9.670 -0.2633  0.0552  0.0107
  498MPD2    H5 7463   3.416   0.201   9.715  1.0791  0.0997 -2.1895
  498MPD2    N1 7464   3.689   0.390   9.374  0.0816 -0.7237  0.3729
  498MPD2    H7 7465   3.747   0.335   9.436 -0.7137 -2.3160 -0.3011
  499TMC3    C1 7466   3.885   0.475   9.298 -0.4974 -0.8767  0.5022
  499TMC3    C2 7467   3.949   0.355   9.329  0.2950 -0.3464  0.4445
  499TMC3    C3 7468   4.081   0.370   9.360  0.3852 -0.4055 -0.2584
  499TMC3    C4 7469   3.950   0.590   9.281 -0.2979  0.1837  0.3118
  499TMC3    C5 7470   4.082   0.600   9.301  0.0801 -0.3833 -0.7975
  499TMC3    C6 7471   4.149   0.494   9.353  0.0935 -0.1294  0.8537
  499TMC3     C 7472   3.739   0.482   9.288 -0.3524  0.5240  0.8419
  499TMC3     O 7473   3.689   0.582   9.238  0.6191  0.1430 -0.4070
  499TMC3     H 7474   3.891   0.263   9.334 -1.6956  0.8658 -0.3551
  499TMC3    H1 7475   3.900   0.665   9.220 -0.0368 -1.1611 -1.5518
  499TMC3    H2 7476   4.256   0.488   9.338 -0.1984 -0.4207 -1.1121
  499TMC3    C7 7477   4.120   0.736   9.332 -0.2526 -0.1087  0.6110
  499TMC3    C8 7478   4.150   0.252   9.403 -0.4216  0.0947 -0.1079
  499TMC3    O1 7479   4.039   0.824   9.326  0.1940 -0.5029 -0.1056
  499TMC3    O2 7480   4.082   0.153   9.377 -0.2457  0.3935  0.0228
  500MPD2     C 7481   0.850   2.082  10.343  0.2727  0.2551  0.2139
  500MPD2    C1 7482   0.820   1.948  10.336 -0.2901  0.4894  0.0858
  500MPD2    C2 7483   0.724   1.909  10.246 -0.3670 -0.2473 -0.3539
  500MPD2    C3 7484   0.662   2.004  10.167  0.3219 -0.1578 -0.4261
  500MPD2    C4 7485   0.695   2.131  10.183 -0.1562  1.1603 -0.0227
  500MPD2    C5 7486   0.787   2.176  10.268 -0.2316  0.1091  0.1654
  500MPD2     H 7487   0.703   1.804  10.234 -4.0856  0.2958  1.4587
  500MPD2    H1 7488   0.643   2.208  10.127 -2.3478 -1.5568 -1.7206
  500MPD2    H2 7489   0.931   2.130  10.396 -0.2654  0.6571  0.6773
  500MPD2    H3 7490   0.807   2.282  10.270 -0.9145  0.2366  0.1410
  500MPD2     N 7491   0.561   1.976  10.070 -0.3070 -0.2399  0.0431
  500MPD2    H5 7492   0.508   2.053  10.030  0.1505 -0.2047 -0.4894
  500MPD2    N1 7493   0.883   1.844  10.402 -0.0231 -0.2482 -0.6617
  500MPD2    H7 7494   0.848   1.750  10.391 -0.5171 -0.3332  1.5898
  501TMC3    C1 7495   1.029   1.716  10.520 -0.0839 -0.0662 -0.8162
  501TMC3    C2 7496   1.042   1.624  10.415  0.1740 -0.0795  0.5484
  501TMC3    C3 7497   1.126   1.523  10.432 -0.5176  0.1845 -0.1375
  501TMC3    C4 7498   1.103   1.703  10.633 -0.3514 -0.2037 -0.4269
  501TMC3    C5 7499   1.167   1.581  10.657  0.2391 -0.1430 -0.6782
  501TMC3    C6 7500   1.184   1.493  10.551 -0.3159  0.2324 -0.2007
  501TMC3     C 7501   0.983   1.850  10.494  0.0973 -0.2034 -0.7644
  501TMC3     O 7502   1.052   1.944  10.524  0.0166 -0.8150  0.5528
  501TMC3     H 7503   0.990   1.629  10.320  0.2189  1.1461  0.5895
  501TMC3    H1 7504   1.086   1.778  10.710  0.4598 -2.0703  1.5690
  501TMC3    H2 7505   1.241   1.402  10.567 -0.7525 -0.1387 -0.7690
  501TMC3    C7 7506   1.272   1.565  10.746  0.5364  0.2475  0.0437
  501TMC3    C8 7507   1.169   1.448  10.315  0.2669 -0.6191 -0.6434
  501TMC3    O1 7508   1.306   1.456  10.787 -0.2143  1.3521 -0.4267
  501TMC3    O2 7509   1.156   1.327  10.308 -0.4779 -0.0042  0.1091
  502TMC3    C1 7510   1.046   4.145  14.595  0.2338 -0.2397  0.3061
  502TMC3    C2 7511   1.052   4.277  14.577  0.3734 -0.3059  0.0001
  502TMC3    C3 7512   0.936   4.351  14.581 -0.2679  0.3978  0.1137
  502TMC3    C4 7513   0.930   4.091  14.631  0.2939  0.6202  0.5474
  502TMC3    C5 7514   0.819   4.167  14.647  0.0658  0.4631 -0.2552
  502TMC3    C6 7515   0.815   4.301  14.613  0.4550 -0.3275  0.5939
  502TMC3     C 7516   1.147   4.125  14.700 -0.3026  0.0024 -0.3350
  502TMC3     O 7517   1.255   4.173  14.675  0.2790  0.1340  0.6557
  502TMC3     H 7518   1.145   4.316  14.537  1.5578 -1.0437  2.0362
  502TMC3    H1 7519   0.932   3.984  14.651 -0.4936  0.8481  1.8712
  502TMC3    H2 7520   0.734   4.370  14.633  2.2983  2.3060 -1.0408
  502TMC3    C7 7521   0.746   4.125  14.766  0.3099  0.6439  0.2138
  502TMC3    C8 7522   0.957   4.478  14.648 -0.1263  0.1049  0.1487
  502TMC3    O1 7523   0.802   4.051  14.845 -0.4195  0.3663 -0.4733
  502TMC3    O2 7524   0.875   4.569  14.622 -0.1325  0.1743  0.0923
  503MPD2     C 7525   3.479   1.160  17.143  0.6410  0.1281 -0.2675
  503MPD2    C1 7526   3.373   1.106  17.212 -0.0322 -0.1883  0.5095
  503MPD2    C2 7527   3.405   1.009  17.299 -0.2054  0.0247 -0.0112
  503MPD2    C3 7528   3.528   0.945  17.301  0.4080 -0.3008  0.7115
  503MPD2    C4 7529   3.628   0.985  17.210 -0.3417 -0.1010  0.4262
  503MPD2    C5 7530   3.607   1.100  17.141  0.5501 -0.0515  0.3858
  503MPD2     H 7531   3.330   0.965  17.364 -2.0771  0.0820 -2.1350
  503MPD2    H1 7532   3.733   0.956  17.213 -0.4638 -0.7184 -1.3588
  503MPD2    H2 7533   3.469   1.254  17.090 -1.5835 -1.0855 -2.0052
  503MPD2    H3 7534   3.692   1.151  17.098  0.5303 -0.0153  0.3895
  503MPD2     N 7535   3.547   0.830  17.379  0.2466  0.7791  0.5697
  503MPD2    H5 7536   3.466   0.807  17.436 -0.2164 -0.8993 -0.7796
  503MPD2    N1 7537   3.242   1.159  17.216 -0.1148  0.0469 -0.5449
  503MPD2    H7 7538   3.181   1.144  17.296  0.6865  1.1775  0.2731
  504TMC3    C1 7539   3.644   0.623  17.448  0.0719 -0.1633 -0.0345
  504TMC3    C2 7540   3.616   0.630  17.575  0.0447 -0.1145 -1.0318
  504TMC3    C3 7541   3.650   0.523  17.659  0.4451 -0.6946  0.1503
  504TMC3    C4 7542   3.707   0.522  17.388  0.4552 -0.4288  0.8273
  504TMC3    C5 7543   3.736   0.410  17.469 -0.1644 -0.2123  0.1529
  504TMC3    C6 7544   3.712   0.411  17.606 -0.1642  0.1405  0.5035
  504TMC3     C 7545   3.656   0.748  17.373 -0.3495  0.1842 -0.0476
  504TMC3     O 7546   3.751   0.749  17.299  0.2299 -0.4215  0.1555
  504TMC3     H 7547   3.564   0.719  17.609 -1.3858 -1.2362 -0.3219
  504TMC3    H1 7548   3.756   0.526  17.292  2.5766  3.5157  2.0560
  504TMC3    H2 7549   3.716   0.319  17.663 -1.0170 -0.5498 -0.5371
  504TMC3    C7 7550   3.800   0.299  17.397 -0.1239  0.0787  0.0443
  504TMC3    C8 7551   3.607   0.523   0.048  1.2497 -0.3350  0.1455
  504TMC3    O1 7552   3.784   0.309  17.275 -0.4395  0.3649  0.1821
  504TMC3    O2 7553   3.540   0.618   0.085  0.0718 -0.1107 -0.2802
  505MPD2     C 7554   3.100   3.692  10.880  0.1782  0.1094 -0.4812
  505MPD2    C1 7555   3.086   3.789  10.777 -0.6083 -0.1561 -0.2628
  505MPD2    C2 7556   3.130   3.917  10.808 -0.3307 -0.2711 -0.3580
  505MPD2    C3 7557   3.194   3.952  10.933  0.5454 -0.8171  0.0768
  505MPD2    C4 7558   3.222   3.854  11.018  0.3409 -0.3917 -0.6689
  505MPD2    C5 7559   3.173   3.727  10.990 -0.1116  0.4985  0.0039
  505MPD2     H 7560   3.119   3.992  10.730  1.8390  2.1652  1.6838
  505MPD2    H1 7561   3.286   3.870  11.104 -0.5323 -0.3682 -0.0200
  505MPD2    H2 7562   3.061   3.591  10.879  1.5487 -0.4095 -0.3103
  505MPD2    H3 7563   3.195   3.646  11.058  0.0618 -0.1743 -0.8616
  505MPD2     N 7564   3.264   4.077  10.952  0.7229 -0.2548  0.4152
  505MPD2    H5 7565   3.339   4.087  11.019 -0.1511  0.1905  1.3235
  505MPD2    N1 7566   3.038   3.758  10.647 -0.2122 -0.1523  0.2147
  505MPD2    H7 7567   3.017   3.663  10.620 -1.5161  0.1939 -0.0125
  506TMC3    C1 7568   3.027   3.777  10.418  0.3854 -0.7553  0.0179
  506TMC3    C2 7569   2.978   3.841  10.309 -0.3157 -0.4787 -0.0518
  506TMC3    C3 7570   3.020   3.795  10.193  0.7590 -0.0982  0.2831
  506TMC3    C4 7571   3.121   3.672  10.408  0.5652  0.1850 -0.1757
  506TMC3    C5 7572   3.168   3.635  10.285 -0.5266 -0.1868 -0.0042
  506TMC3    C6 7573   3.113   3.700  10.173  0.5301  0.5578  0.4556
  506TMC3     C 7574   3.017   3.847  10.541 -0.3434  0.0601 -0.3683
  506TMC3     O 7575   2.992   3.964  10.537  0.6560 -0.3379 -0.2041
  506TMC3     H 7576   2.886   3.896  10.326  0.2905  0.2847  0.7391
  506TMC3    H1 7577   3.162   3.624  10.496  0.0317  2.1406  1.1284
  506TMC3    H2 7578   3.130   3.648  10.080 -1.1609  0.5136  0.1571
  506TMC3    C7 7579   3.305   3.610  10.302  0.2720 -0.2127  0.0821
  506TMC3    C8 7580   2.970   3.858  10.072 -0.3573  0.1830 -0.0843
  506TMC3    O1 7581   3.338   3.498  10.337  0.1290  0.0078  0.2796
  506TMC3    O2 7582   2.950   3.779   9.979 -0.6834 -0.4516 -0.2402
  507TMC3    C1 7583   4.285   0.188  14.619 -0.0451 -0.3658  0.0794
  507TMC3    C2 7584   4.241   0.091  14.537  0.3707 -0.0513 -1.0068
  507TMC3    C3 7585   4.244   0.114  14.402  0.1626 -0.3885 -0.3228
  507TMC3    C4 7586   4.311   0.314  14.578  0.5962  0.1204 -0.6100
  507TMC3    C5 7587   4.284   0.343  14.443 -0.7199  0.5623  0.1691
  507TMC3    C6 7588   4.256   0.239  14.356 -0.9409 -0.3493  0.0939
  507TMC3     C 7589   4.277   0.171  14.763 -0.0087  0.0414  0.2576
  507TMC3     O 7590   4.347   0.244  14.831 -0.3970  0.0126  0.6841
  507TMC3     H 7591   4.220   4.728  14.570 -2.0828  1.6552  2.6797
  507TMC3    H1 7592   4.341   0.382  14.657  1.0529 -0.7707 -0.0217
  507TMC3    H2 7593   4.246   0.262  14.250 -0.5108 -1.7778 -0.2577
  507TMC3    C7 7594   4.183   0.435  14.420  0.1533 -0.4456  0.1916
  507TMC3    C8 7595   4.138   0.036  14.337  0.9025 -0.7522  0.1402
  507TMC3    O1 7596   4.088   0.402  14.350 -0.2856 -0.4878 -0.0609
  507TMC3    O2 7597   4.128   4.659  14.365 -0.1400  0.6978 -0.3086
  508MPD2     C 7598   0.170   2.336  16.075 -0.7776 -0.1820  0.0642
  508MPD2    C1 7599   0.282   2.407  16.063 -0.0606  1.2254 -0.2212
  508MPD2    C2 7600   0.297   2.497  15.951 -0.2422  0.3461  0.2595
  508MPD2    C3 7601   0.190   2.527  15.869 -0.1990 -0.3181  0.5794
  508MPD2    C4 7602   0.066   2.471  15.914  0.3235 -0.1748  0.1790
  508MPD2    C5 7603   0.061   2.364  15.999  0.6777 -0.1927  0.3787
  508MPD2     H 7604   0.390   2.549  15.935 -1.1471  1.9921  0.2981
  508MPD2    H1 7605   4.716   2.509  15.864  0.9470  2.8483  1.3957
  508MPD2    H2 7606   0.159   2.267  16.159  2.1787 -0.6702  0.0515
  508MPD2    H3 7607   4.713   2.304  16.023  0.1283 -0.1123 -1.4143
  508MPD2     N 7608   0.212   2.616  15.756  0.5239 -0.1946 -0.7544
  508MPD2    H5 7609   0.310   2.641  15.748  0.5864 -0.0446  0.4206
  508MPD2    N1 7610   0.384   2.379  16.168 -0.4698 -0.1061  0.5014
  508MPD2    H7 7611   0.367   2.322  16.250 -1.3825 -0.8291 -0.1904
  509TMC3    C1 7612   0.132   2.971  15.468  0.9083  0.3095  0.2534
  509TMC3    C2 7613   0.267   2.973  15.440 -0.5310 -1.3133 -0.2942
  509TMC3    C3 7614   0.342   2.859  15.469 -1.1907 -1.2052  0.0357
  509TMC3    C4 7615   0.084   2.869  15.552 -0.7145  0.1685  0.0327
  509TMC3    C5 7616   0.170   2.771  15.591 -0.3302 -0.2255  0.0890
  509TMC3    C6 7617   0.293   2.752  15.538 -0.1932  0.4222  0.6152
  509TMC3     C 7618   0.035   3.084  15.440  0.0335 -0.5213 -0.3342
  509TMC3     O 7619   4.670   3.069  15.504 -0.2475  0.0177  0.3809
  509TMC3     H 7620   0.293   3.057  15.376  1.0827  0.3974  2.6080
  509TMC3    H1 7621   4.720   2.865  15.588 -0.1281 -3.1098  1.3730
  509TMC3    H2 7622   0.351   2.662  15.556 -0.2073  0.3170  0.1355
  509TMC3    C7 7623   0.113   2.668  15.679  0.6745 -0.0599 -0.6758
  509TMC3    C8 7624   0.484   2.856  15.444 -0.1808  0.4627  0.1516
  509TMC3    O1 7625   4.731   2.660  15.690 -0.0670  0.7716 -0.7776
  509TMC3    O2 7626   0.551   2.754  15.454  0.8504  0.9015  0.1001
  510MPD2     C 7627   2.879   4.109  14.461  0.2739 -0.2726 -0.3441
  510MPD2    C1 7628   2.924   4.019  14.550 -0.3683  0.1013  0.1348
  510MPD2    C2 7629   3.059   3.998  14.551  0.0123  0.3839 -0.5679
  510MPD2    C3 7630   3.152   4.065  14.469  0.2109  0.1894 -0.5901
  510MPD2    C4 7631   3.101   4.176  14.407 -0.7745  0.2197 -0.6674
  510MPD2    C5 7632   2.969   4.201  14.411  0.2618 -0.6170 -0.2012
  510MPD2     H 7633   3.098   3.911  14.603  0.7648  0.5625 -0.8365
  510MPD2    H1 7634   3.166   4.246  14.355  0.6674 -0.8089 -0.2562
  510MPD2    H2 7635   2.775   4.140  14.458  0.2303 -0.4459 -0.6119
  510MPD2    H3 7636   2.935   4.294  14.367 -0.4720 -1.4671 -1.4409
  510MPD2     N 7637   3.276   4.004  14.435 -0.3283  0.8364 -0.0369
  510MPD2    H5 7638   3.293   3.915  14.481 -0.3164  0.1064 -1.4783
  510MPD2    N1 7639   2.825   3.938  14.610 -0.0912  0.1898  0.6153
  510MPD2    H7 7640   2.732   3.958  14.575 -0.1166 -0.8365  0.1032
  511TMC3    C1 7641   2.711   3.776  14.731 -0.1116  0.2085 -0.2128
  511TMC3    C2 7642   2.663   3.773  14.860 -0.2268 -0.4641  0.0093
  511TMC3    C3 7643   2.530   3.737  14.870 -0.1049  0.0727  0.0840
  511TMC3    C4 7644   2.624   3.775  14.620 -0.0149 -0.3502  0.0511
  511TMC3    C5 7645   2.495   3.739  14.637  0.0792 -1.1787  0.2403
  511TMC3    C6 7646   2.440   3.717  14.761  0.0636  0.0646  0.6998
  511TMC3     C 7647   2.836   3.848  14.711  0.0320 -0.5862  0.2529
  511TMC3     O 7648   2.935   3.823  14.774 -0.2994 -0.6273 -0.1979
  511TMC3     H 7649   2.721   3.763  14.951  0.3020 -2.1461 -0.4971
  511TMC3    H1 7650   2.667   3.780  14.521  0.0109  0.6463  0.1190
  511TMC3    H2 7651   2.333   3.708  14.775  0.0160  0.5870  0.6851
  511TMC3    C7 7652   2.438   3.663  14.529 -0.8342  0.0078  0.0648
  511TMC3    C8 7653   2.466   3.749  14.999 -0.3307  0.5605 -1.5483
  511TMC3    O1 7654   2.445   3.711  14.415  0.3608 -0.1696  0.1757
  511TMC3    O2 7655   2.511   3.846  15.059  1.0146  0.1983  0.4165
  512TMC3    C1 7656   1.489   3.676  12.928  0.8435 -1.1979  0.1338
  512TMC3    C2 7657   1.550   3.638  13.047  0.4130 -0.3186 -0.0479
  512TMC3    C3 7658   1.574   3.504  13.060 -0.2591 -0.4770 -0.9906
  512TMC3    C4 7659   1.448   3.591  12.837  0.0706 -0.5323  0.4568
  512TMC3    C5 7660   1.476   3.454  12.848  0.1164  0.7753  0.0156
  512TMC3    C6 7661   1.550   3.413  12.959 -0.0104 -0.6349  0.0308
  512TMC3     C 7662   1.439   3.807  12.931 -0.5331 -0.0842  0.4166
  512TMC3     O 7663   1.429   3.856  13.041 -0.0725  0.0724 -0.0760
  512TMC3     H 7664   1.590   3.709  13.118 -1.9583  0.4541  0.5171
  512TMC3    H1 7665   1.394   3.626  12.750 -0.4758 -1.4325  0.4355
  512TMC3    H2 7666   1.585   3.311  12.970 -0.4068 -0.7135  0.5442
  512TMC3    C7 7667   1.464   3.360  12.740  0.3377 -0.3621 -0.5018
  512TMC3    C8 7668   1.676   3.463  13.153 -0.1465  0.3218  0.8080
  512TMC3    O1 7669   1.391   3.393  12.650 -0.4485 -0.7239 -0.6693
  512TMC3    O2 7670   1.753   3.367  13.130  0.5113  0.2412 -0.2043
  513MPD2     C 7671   2.855   4.242  13.265 -0.0110  0.2596  0.0189
  513MPD2    C1 7672   2.836   4.138  13.176 -0.4776  0.7572  0.3710
  513MPD2    C2 7673   2.832   4.011  13.229 -0.0104 -0.3516  0.0391
  513MPD2    C3 7674   2.849   3.984  13.361 -0.1643  0.7667 -0.3123
  513MPD2    C4 7675   2.865   4.087  13.445  0.1910 -0.3251 -0.1691
  513MPD2    C5 7676   2.866   4.215  13.403 -0.2673  0.0246 -0.0113
  513MPD2     H 7677   2.834   3.927  13.161 -1.8617 -0.2601 -0.1364
  513MPD2    H1 7678   2.870   4.074  13.553 -0.6076 -0.0150 -0.0926
  513MPD2    H2 7679   2.856   4.349  13.251  2.6307  0.3543  0.9982
  513MPD2    H3 7680   2.882   4.307  13.458 -2.1315 -1.0582  2.3370
  513MPD2     N 7681   2.847   3.851  13.402 -0.1337  0.0905  0.4689
  513MPD2    H5 7682   2.810   3.782  13.337 -1.0441 -0.5057  1.6252
  513MPD2    N1 7683   2.840   4.165  13.030 -0.2283  0.1748 -0.3947
  513MPD2    H7 7684   2.865   4.256  12.994  0.6494 -0.9575 -2.6114
  514TMC3    C1 7685   2.829   4.105  12.799  0.1876  0.3936  0.1829
  514TMC3    C2 7686   2.957   4.136  12.760  1.0102  0.0686  0.6343
  514TMC3    C3 7687   3.004   4.061  12.657 -0.3831  0.1640  0.2095
  514TMC3    C4 7688   2.747   4.018  12.727 -0.5474 -0.2698  0.1215
  514TMC3    C5 7689   2.800   3.945  12.623  0.2525 -0.5738 -0.6769
  514TMC3    C6 7690   2.927   3.967  12.588 -0.2857 -0.9881  0.0014
  514TMC3     C 7691   2.808   4.071  12.936 -0.4473 -0.0413 -0.5928
  514TMC3     O 7692   2.741   3.969  12.960 -0.1690 -0.8081  0.0672
  514TMC3     H 7693   3.021   4.196  12.823  0.5988  0.3846  0.7527
  514TMC3    H1 7694   2.652   3.982  12.767  0.7340 -1.8886  1.7346
  514TMC3    H2 7695   2.977   3.893  12.526 -0.2711 -1.5141  0.6389
  514TMC3    C7 7696   2.787   3.796  12.636 -0.0330 -0.2726  0.0608
  514TMC3    C8 7697   3.148   4.077  12.647 -0.6703 -0.3869 -0.1450
  514TMC3    O1 7698   2.798   3.732  12.533  0.2871 -0.0428 -0.3392
  514TMC3    O2 7699   3.203   4.106  12.749 -0.2127 -0.2922  0.1443
  515MPD2     C 7700   1.396   0.409  15.206 -0.2300  0.1000  0.1894
  515MPD2    C1 7701   1.504   0.371  15.135 -0.1337  0.3755  0.8462
  515MPD2    C2 7702   1.627   0.346  15.188  0.2746 -0.6332  0.0004
  515MPD2    C3 7703   1.647   0.360  15.323 -0.5359  0.0460 -0.1986
  515MPD2    C4 7704   1.541   0.393  15.399  0.2538 -0.1902 -0.6160
  515MPD2    C5 7705   1.416   0.413  15.344  0.0802 -0.3047  0.1352
  515MPD2     H 7706   1.704   0.303  15.127 -0.2356 -1.9413  0.2881
  515MPD2    H1 7707   1.542   0.399  15.507 -0.2614 -2.9809 -0.4469
  515MPD2    H2 7708   1.300   0.431  15.162 -0.0616  0.8261  0.1942
  515MPD2    H3 7709   1.336   0.433  15.415 -0.2325  1.5018 -0.7355
  515MPD2     N 7710   1.772   0.334  15.386  0.5309  0.1743  0.1452
  515MPD2    H5 7711   1.760   0.342  15.486  0.3680 -1.2309  0.2369
  515MPD2    N1 7712   1.491   0.356  14.996  0.4384 -0.1100 -0.0450
  515MPD2    H7 7713   1.554   0.290  14.952 -0.7226  0.9336 -3.2574
  516TMC3    C1 7714   1.397   0.332  14.789  0.2239  0.6768  0.2584
  516TMC3    C2 7715   1.348   0.387  14.671 -0.5797  0.1390  0.5481
  516TMC3    C3 7716   1.350   0.313  14.553  0.5855  0.0516 -0.5144
  516TMC3    C4 7717   1.411   0.195  14.797  0.5340 -0.6970  0.0757
  516TMC3    C5 7718   1.395   0.125  14.678 -0.5727  0.9362 -0.6266
  516TMC3    C6 7719   1.363   0.179  14.561 -0.3250  0.6409 -0.1801
  516TMC3     C 7720   1.394   0.409  14.910 -0.8786  0.5156 -0.1319
  516TMC3     O 7721   1.336   0.513  14.916  0.2862 -0.1366  0.3264
  516TMC3     H 7722   1.321   0.492  14.675 -0.1756  0.3380 -2.4359
  516TMC3    H1 7723   1.436   0.148  14.891 -0.0052 -1.4898 -0.1832
  516TMC3    H2 7724   1.354   0.118  14.472 -0.7746 -0.1097  0.3750
  516TMC3    C7 7725   1.433   4.725  14.700  0.1186  0.3920 -0.2189
  516TMC3    C8 7726   1.284   0.365  14.430  0.4175  0.1423 -0.0040
  516TMC3    O1 7727   1.504   4.697  14.794  0.1624 -0.0473 -0.2216
  516TMC3    O2 7728   1.238   0.277  14.358 -0.3781  1.0501 -0.3910
  517MPD2     C 7729   1.560   2.012   0.250  0.0740 -0.1452 -0.0566
  517MPD2    C1 7730   1.695   2.001   0.228 -0.0830  0.3033  0.1297
  517MPD2    C2 7731   1.789   2.053   0.308 -0.0197 -0.2352 -0.3939
  517MPD2    C3 7732   1.756   2.116   0.425  0.2376  1.0073 -0.0810
  517MPD2    C4 7733   1.628   2.127   0.451  0.7581  0.0588  0.0577
  517MPD2    C5 7734   1.525   2.075   0.371 -0.3776  0.0945 -0.1233
  517MPD2     H 7735   1.896   2.038   0.291  0.2881  0.1490  1.2247
  517MPD2    H1 7736   1.587   2.158   0.547  0.5436 -0.0206 -0.0070
  517MPD2    H2 7737   1.479   1.980   0.185 -0.9151 -2.3994  2.2814
  517MPD2    H3 7738   1.422   2.069   0.405 -0.2764  0.4386  0.2443
  517MPD2     N 7739   1.845   2.181   0.512 -0.5521 -0.0287 -0.4856
  517MPD2    H5 7740   1.811   2.231   0.594 -1.0324  1.1934 -1.4236
  517MPD2    N1 7741   1.732   1.928   0.116  0.0178  0.3637 -0.2202
  517MPD2    H7 7742   1.832   1.930   0.098  0.1248  0.6066  0.4008
  518TMC3    C1 7743   1.729   1.737  17.734 -0.0297 -0.0442 -0.2799
  518TMC3    C2 7744   1.698   1.606  17.735  0.8395 -0.7111  0.0282
  518TMC3    C3 7745   1.791   1.511  17.709  0.1827  0.0934 -0.5680
  518TMC3    C4 7746   1.853   1.777  17.691 -0.9698  0.0315 -0.4718
  518TMC3    C5 7747   1.936   1.679  17.631  0.5527  0.4684  0.5181
  518TMC3    C6 7748   1.912   1.546  17.650  0.3111  0.0264 -0.0724
  518TMC3     C 7749   1.656   1.824   0.067 -0.6091  0.2061 -0.5694
  518TMC3     O 7750   1.540   1.781   0.088 -0.1841  0.2547 -0.3247
  518TMC3     H 7751   1.599   1.574   0.010 -0.4145  1.8103 -1.5074
  518TMC3    H1 7752   1.879   1.876  17.656  1.0229 -0.9790 -1.8842
  518TMC3    H2 7753   1.978   1.470  17.612  1.0577  0.4300  0.4235
  518TMC3    C7 7754   2.035   1.724  17.535  0.4021 -0.2933 -0.8549
  518TMC3    C8 7755   1.756   1.373  17.694 -0.4439 -0.8324 -0.3006
  518TMC3    O1 7756   2.086   1.832  17.557 -0.1277 -0.5014  0.5607
  518TMC3    O2 7757   1.802   1.321  17.592  0.3765 -0.5776  0.4630
  519MPD2     C 7758   3.035   4.672  14.549  0.5154 -0.2059 -0.1798
  519MPD2    C1 7759   2.957   4.656  14.437  0.2078  0.8719 -0.3541
  519MPD2    C2 7760   3.019   4.645  14.314 -0.2061 -0.5549 -0.6983
  519MPD2    C3 7761   3.153   4.666  14.297 -0.2789  0.3879 -0.6292
  519MPD2    C4 7762   3.232   4.666  14.414 -0.4918  0.0646 -0.5520
  519MPD2    C5 7763   3.169   4.688  14.533 -0.7645 -0.7240  0.2016
  519MPD2     H 7764   2.956   4.625  14.227  0.4471 -3.6306 -0.4682
  519MPD2    H1 7765   3.340   4.678  14.404 -0.2569 -0.5138  1.1858
  519MPD2    H2 7766   2.994   4.679  14.649  0.6056 -0.6076 -0.1140
  519MPD2    H3 7767   3.232   4.721  14.615  1.2202  0.7831 -1.9618
  519MPD2     N 7768   3.213   4.689  14.166  0.4517 -0.7971 -0.0855
  519MPD2    H5 7769   3.306   4.731  14.165 -0.5695  1.3938 -1.8999
  519MPD2    N1 7770   2.819   4.624  14.448 -0.4408  0.1632  0.4937
  519MPD2    H7 7771   2.787   4.652  14.540 -0.7832  2.9385 -0.4429
  520TMC3    C1 7772   3.238   4.716  13.940  0.3721 -0.6345  0.0257
  520TMC3    C2 7773   3.186   0.048  13.842  0.9709  0.4224 -0.4394
  520TMC3    C3 7774   3.271   0.069  13.737 -0.3330 -0.1759 -1.2629
  520TMC3    C4 7775   3.368   4.669  13.953 -0.5463 -0.1693 -0.2994
  520TMC3    C5 7776   3.452   4.702  13.847  0.4955 -0.4897  0.2927
  520TMC3    C6 7777   3.404   0.032  13.734  0.8753 -0.4472  0.2116
  520TMC3     C 7778   3.147   4.678  14.052 -0.2847  0.2237 -0.2803
  520TMC3     O 7779   3.031   4.657  14.023  0.1562 -0.2709 -0.0066
  520TMC3     H 7780   3.084   0.083  13.855  0.0327 -2.3875 -0.1588
  520TMC3    H1 7781   3.400   4.605  14.034  0.0949 -0.1023 -0.5040
  520TMC3    H2 7782   3.454   0.057  13.641 -0.7003 -0.7265 -0.7175
  520TMC3    C7 7783   3.588   4.646  13.863 -0.5261  0.3994  0.2717
  520TMC3    C8 7784   3.217   0.126  13.614 -0.0638  0.5929 -0.1256
  520TMC3    O1 7785   3.611   4.598  13.970  0.3461 -0.1137 -0.2894
  520TMC3    O2 7786   3.291   0.172  13.529 -0.0625 -0.1487  0.0093
  521MPD2     C 7787   4.026   3.510  17.126  0.3447 -0.2181 -0.2340
  521MPD2    C1 7788   4.008   3.378  17.102 -0.7826  0.3582 -0.1779
  521MPD2    C2 7789   4.123   3.306  17.064 -0.5832 -0.9230  0.2979
  521MPD2    C3 7790   4.246   3.361  17.062 -0.7583  0.2421  0.2763
  521MPD2    C4 7791   4.266   3.486  17.108 -0.1919  0.1731  0.2920
  521MPD2    C5 7792   4.152   3.561  17.134  0.0590  0.0620  0.4338
  521MPD2     H 7793   4.112   3.202  17.036 -0.7775 -0.6692 -0.5792
  521MPD2    H1 7794   4.363   3.528  17.130 -1.2996  2.7552  0.2553
  521MPD2    H2 7795   3.946   3.573  17.163  0.6823  1.3194 -2.0946
  521MPD2    H3 7796   4.159   3.667  17.157 -1.9474  0.5659 -1.3178
  521MPD2     N 7797   4.346   3.282  17.010 -0.2144 -0.2859  0.2409
  521MPD2    H5 7798   4.316   3.196  16.965  0.6326 -1.2122  1.4745
  521MPD2    N1 7799   3.870   3.337  17.107 -0.4044  0.2938  0.0593
  521MPD2    H7 7800   3.796   3.407  17.114  1.1447  2.0279 -0.9424
  522TMC3    C1 7801   4.545   3.213  16.929 -0.6444 -0.4663 -0.2465
  522TMC3    C2 7802   4.665   3.163  16.981 -0.0308  0.3465 -0.4463
  522TMC3    C3 7803   4.712   3.044  16.925  0.4837 -0.2971 -0.3144
  522TMC3    C4 7804   4.475   3.159  16.826  0.3097  0.3034  0.8362
  522TMC3    C5 7805   4.542   3.047  16.769  1.3305  0.1645 -0.6919
  522TMC3    C6 7806   4.648   2.980  16.819  0.3850 -0.8100  0.7447
  522TMC3     C 7807   4.483   3.313  17.000 -0.0461 -0.5737 -0.0282
  522TMC3     O 7808   4.545   3.408  17.047  0.3091  0.1540  0.1877
  522TMC3     H 7809   4.722   3.225  17.049 -0.0831  1.3823 -1.3462
  522TMC3    H1 7810   4.380   3.197  16.790  2.1377  1.0930 -3.2064
  522TMC3    H2 7811   4.693   2.905  16.756  1.3277  0.8275 -0.5172
  522TMC3    C7 7812   4.500   2.981  16.642 -0.6501  0.1031 -0.3524
  522TMC3    C8 7813   0.106   3.004  16.970 -0.0473  0.0604 -0.0050
  522TMC3    O1 7814   4.526   2.866  16.619  0.1088  0.3878 -0.3662
  522TMC3    O2 7815   0.124   3.022  17.091 -0.4364 -0.2820  0.1811
  523MPD2     C 7816   1.414   3.010  10.405 -0.0604 -0.1206  0.7891
  523MPD2    C1 7817   1.404   2.962  10.277  0.2797 -0.2444 -0.0327
  523MPD2    C2 7818   1.294   2.987  10.198 -0.0493  0.9278 -0.1956
  523MPD2    C3 7819   1.189   3.063  10.250 -0.8038 -0.4302  0.5859
  523MPD2    C4 7820   1.200   3.099  10.382  0.4760 -0.1683  0.0531
  523MPD2    C5 7821   1.310   3.079  10.459 -0.2606  0.1358  0.1410
  523MPD2     H 7822   1.295   2.959  10.093  0.8668  0.7870 -0.1471
  523MPD2    H1 7823   1.120   3.160  10.422 -0.7919 -2.0898  0.4145
  523MPD2    H2 7824   1.500   2.989  10.467 -0.4897 -1.5778  0.8993
  523MPD2    H3 7825   1.314   3.113  10.562  0.4391  0.9736 -0.1613
  523MPD2     N 7826   1.070   3.106  10.184 -0.1150 -0.3302 -0.0684
  523MPD2    H5 7827   0.995   3.155  10.231  1.5122  1.3311  0.7897
  523MPD2    N1 7828   1.518   2.888  10.224 -0.0089 -0.5934  0.1016
  523MPD2    H7 7829   1.596   2.880  10.289  0.5409  1.5637 -0.3093
  524TMC3    C1 7830   0.926   3.119   9.997 -0.4318  0.9770 -0.3862
  524TMC3    C2 7831   0.907   3.111   9.862  0.1004 -0.1622 -0.5159
  524TMC3    C3 7832   0.791   3.162   9.816  0.3601  0.1492  0.3263
  524TMC3    C4 7833   0.819   3.150  10.078  0.1990  0.0674  0.4840
  524TMC3    C5 7834   0.700   3.194  10.023 -0.4217  0.0513  0.1280
  524TMC3    C6 7835   0.683   3.200   9.884 -0.3667  0.4104 -0.1415
  524TMC3     C 7836   1.050   3.074  10.050 -0.2493  0.6627 -1.2371
  524TMC3     O 7837   1.116   3.005   9.973 -0.0667  0.3824  0.0649
  524TMC3     H 7838   0.985   3.098   9.788 -0.8091 -3.1842 -0.9133
  524TMC3    H1 7839   0.834   3.146  10.185  1.7766  0.6470  0.2983
  524TMC3    H2 7840   0.586   3.223   9.840 -0.6290 -0.8989 -0.2344
  524TMC3    C7 7841   0.638   3.285  10.107  0.0310  0.4886  0.7291
  524TMC3    C8 7842   0.783   3.145   9.674 -0.4737  0.4743 -0.3015
  524TMC3    O1 7843   0.652   3.271  10.226  0.3752  0.1247 -0.3124
  524TMC3    O2 7844   0.843   3.047   9.626 -0.3163  0.2905  0.1067
  525MPD2     C 7845   4.562   4.318  14.187  0.1597 -0.2412 -0.7795
  525MPD2    C1 7846   4.669   4.326  14.278  0.2169  0.6259 -0.0481
  525MPD2    C2 7847   0.010   4.437  14.283 -0.1956 -1.0365  0.1100
  525MPD2    C3 7848   4.715   4.540  14.195  0.1963 -0.4141  0.1698
  525MPD2    C4 7849   4.609   4.534  14.107 -0.4530 -0.0521  0.4822
  525MPD2    C5 7850   4.529   4.426  14.110  0.5233 -0.2987 -0.0627
  525MPD2     H 7851   0.092   4.446  14.352 -0.0221  1.4385 -0.4332
  525MPD2    H1 7852   4.566   4.617  14.050  1.6227  1.3104  0.9108
  525MPD2    H2 7853   4.494   4.234  14.177  0.0769 -0.0671 -1.7119
  525MPD2    H3 7854   4.444   4.422  14.044  0.4225 -1.1564  0.1207
  525MPD2     N 7855   0.059   4.660  14.181 -0.1901 -0.4118 -0.1246
  525MPD2    H5 7856   0.019   4.733  14.124 -0.4634  1.2654  2.1889
  525MPD2    N1 7857   4.690   4.226  14.380  0.2575  0.2922 -0.2675
  525MPD2    H7 7858   0.027   4.237  14.446 -0.2615 -1.7156  0.6363
  526TMC3    C1 7859   4.639   4.063  14.535 -0.2271 -0.7040  0.0842
  526TMC3    C2 7860   4.548   4.058  14.642  0.2874  0.4213 -0.2460
  526TMC3    C3 7861   4.602   4.006  14.762 -0.4141 -1.0222  0.2549
  526TMC3    C4 7862   0.025   4.001  14.535  0.6779 -0.1995 -0.2778
  526TMC3    C5 7863   0.065   3.942  14.651 -0.4446 -0.5587  0.6795
  526TMC3    C6 7864   4.732   3.958  14.764 -0.2991 -0.2420  0.3321
  526TMC3     C 7865   4.594   4.131  14.414  0.1819  0.4979 -0.6942
  526TMC3     O 7866   4.472   4.131  14.392  0.4289  0.4487  0.1732
  526TMC3     H 7867   4.452   4.108  14.629  0.9156  1.3413 -1.2475
  526TMC3    H1 7868   0.092   4.000  14.450 -0.5657 -0.5816 -1.2422
  526TMC3    H2 7869   0.034   3.916  14.856  2.6069  0.3032 -0.7149
  526TMC3    C7 7870   0.198   3.894  14.671  0.2595 -0.4975  0.4510
  526TMC3    C8 7871   4.540   4.022  14.887  0.4382  0.3387 -0.1818
  526TMC3    O1 7872   0.254   3.906  14.777 -0.0734  0.3162 -0.0446
  526TMC3    O2 7873   4.591   3.975  14.986  0.3161  0.0549  0.2943
  527MPD2     C 7874   3.011   2.901   1.119 -0.5817  0.3327 -0.1623
  527MPD2    C1 7875   2.987   2.873   0.987 -0.1919  0.4088 -0.0340
  527MPD2    C2 7876   3.095   2.899   0.906  0.3130 -0.0846  0.0498
  527MPD2    C3 7877   3.226   2.928   0.947 -0.4079 -0.8164 -0.1435
  527MPD2    C4 7878   3.249   2.953   1.082  0.0099 -0.0108 -0.0647
  527MPD2    C5 7879   3.137   2.950   1.163 -0.7161  0.1058  0.6729
  527MPD2     H 7880   3.069   2.887   0.802 -0.9086 -0.2562  0.3719
  527MPD2    H1 7881   3.341   2.997   1.117 -0.3412  0.1929  0.5893
  527MPD2    H2 7882   2.927   2.917   1.185 -2.4170 -0.3828 -2.3164
  527MPD2    H3 7883   3.139   2.995   1.262 -2.4865 -0.2974  0.8903
  527MPD2     N 7884   3.323   2.946   0.845 -0.0388 -0.2222  0.3634
  527MPD2    H5 7885   3.301   2.939   0.746 -2.1152 -3.2207  1.0314
  527MPD2    N1 7886   2.862   2.833   0.936  0.1163 -0.1701  0.2056
  527MPD2    H7 7887   2.838   2.853   0.840  0.5977  0.0825  0.1377
  528TMC3    C1 7888   2.642   2.764   0.947  0.1317 -0.4220  0.2936
  528TMC3    C2 7889   2.614   2.836   0.835  0.5368 -0.3293  0.5540
  528TMC3    C3 7890   2.479   2.829   0.799  0.9635 -0.4791  0.0358
  528TMC3    C4 7891   2.547   2.696   1.016  0.0848  0.1586  0.0177
  528TMC3    C5 7892   2.416   2.683   0.969 -0.1872 -0.9687 -0.2932
  528TMC3    C6 7893   2.377   2.753   0.858  0.6325  0.3281  0.0161
  528TMC3     C 7894   2.767   2.770   1.008 -0.1454 -0.0255 -0.2203
  528TMC3     O 7895   2.782   2.727   1.119 -0.2966  0.0966  0.5790
  528TMC3     H 7896   2.680   2.899   0.776 -0.4258 -1.1499 -1.4002
  528TMC3    H1 7897   2.575   2.651   1.110 -1.5374  0.4735  0.6437
  528TMC3    H2 7898   2.284   2.736   0.806  0.6948 -1.0104  0.3444
  528TMC3    C7 7899   2.313   2.615   1.042 -1.4103 -0.0229 -0.0742
  528TMC3    C8 7900   2.450   2.901   0.679 -0.1989 -0.4014  0.5344
  528TMC3    O1 7901   2.201   2.642   1.008  0.2146 -0.0339  0.2165
  528TMC3    O2 7902   2.379   2.850   0.593  0.2646  0.2808 -0.0867
  529MPD2     C 7903   0.145   0.739   0.561  0.3613 -0.4081  0.6153
  529MPD2    C1 7904   0.264   0.718   0.496 -0.1543 -0.5594 -0.2266
  529MPD2    C2 7905   0.292   0.783   0.382  0.2016  0.0225 -0.6467
  529MPD2    C3 7906   0.204   0.879   0.332  0.1668 -0.2278  0.7211
  529MPD2    C4 7907   0.085   0.908   0.397 -0.9211 -0.6798  0.2496
  529MPD2    C5 7908   0.056   0.833   0.505 -0.4122  0.3403 -0.0098
  529MPD2     H 7909   0.387   0.752   0.339 -0.2909 -2.3172  0.0086
  529MPD2    H1 7910   0.018   0.987   0.365  0.4545  1.0252  1.5570
  529MPD2    H2 7911   0.115   0.687   0.651  0.7221 -0.8894  0.4550
  529MPD2    H3 7912   4.700   0.860   0.549 -0.8096 -0.6126 -0.2812
  529MPD2     N 7913   0.230   0.961   0.213  0.1956 -0.1087 -0.4992
  529MPD2    H5 7914   0.153   1.024   0.195  1.8484  2.1988  0.6246
  529MPD2    N1 7915   0.350   0.615   0.535 -0.5139  0.1793  0.4455
  529MPD2    H7 7916   0.437   0.609   0.484 -0.7673 -0.5007  0.0818
  530TMC3    C1 7917   0.429   0.432   0.660 -0.2239  0.6499 -0.1340
  530TMC3    C2 7918   0.559   0.481   0.664 -0.3079 -0.7491  0.2540
  530TMC3    C3 7919   0.665   0.400   0.700 -0.6463  0.1655  0.3194
  530TMC3    C4 7920   0.394   0.307   0.691 -0.4214  0.8331 -0.2574
  530TMC3    C5 7921   0.508   0.225   0.714  0.0647  0.3758  0.1755
  530TMC3    C6 7922   0.636   0.268   0.725  0.3537 -0.3296 -1.0999
  530TMC3     C 7923   0.315   0.509   0.621  0.7189 -0.2452 -0.0545
  530TMC3     O 7924   0.212   0.492   0.690 -0.8374  0.0207 -0.4000
  530TMC3     H 7925   0.583   0.587   0.660 -2.9497 -0.1829 -0.7943
  530TMC3    H1 7926   0.292   0.272   0.689  0.0124 -0.3820 -1.2301
  530TMC3    H2 7927   0.707   0.198   0.766 -0.1239  0.0066  0.3014
  530TMC3    C7 7928   0.483   0.096   0.779 -0.1926 -0.7610  0.2298
  530TMC3    C8 7929   0.743   0.462   0.804  0.1899 -1.1452 -0.2726
  530TMC3    O1 7930   0.556   0.004   0.755  0.6613 -0.4793 -0.0929
  530TMC3    O2 7931   0.684   0.551   0.861  0.3725  0.1344  0.2176
  531MPD2     C 7932   2.771   3.369  12.915 -0.0126  0.1535 -0.0277
  531MPD2    C1 7933   2.765   3.480  13.000  0.0990  0.8682 -0.4201
  531MPD2    C2 7934   2.758   3.611  12.944  0.0984 -0.4099  0.4304
  531MPD2    C3 7935   2.756   3.624  12.807 -0.0159  0.3052 -0.0805
  531MPD2    C4 7936   2.757   3.512  12.720  0.1786  0.5255 -0.3205
  531MPD2    C5 7937   2.774   3.385  12.776 -0.1894  0.7482  0.6976
  531MPD2     H 7938   2.762   3.699  13.007 -2.6321  0.3377 -0.4505
  531MPD2    H1 7939   2.760   3.514  12.612  1.7861  1.6172 -0.2479
  531MPD2    H2 7940   2.760   3.271  12.960  2.1707 -0.2902 -0.4172
  531MPD2    H3 7941   2.773   3.304  12.705  0.2945  0.2903  1.2186
  531MPD2     N 7942   2.763   3.760  12.769 -0.8641  0.2290 -0.3522
  531MPD2    H5 7943   2.759   3.835  12.838 -0.5188  2.0025 -2.2497
  531MPD2    N1 7944   2.772   3.460  13.136 -0.6828  0.1966 -0.4168
  531MPD2    H7 7945   2.788   3.370  13.181 -2.4988  0.5734  1.0020
  532TMC3    C1 7946   2.790   3.524  13.360 -0.7502 -0.1644 -0.4450
  532TMC3    C2 7947   2.758   3.628  13.450 -0.1887 -0.7662 -0.0165
  532TMC3    C3 7948   2.853   3.669  13.538  0.3296  0.3058 -0.6396
  532TMC3    C4 7949   2.907   3.455  13.375  0.3045 -0.4369 -0.2338
  532TMC3    C5 7950   2.987   3.489  13.481 -0.1521 -0.7143 -0.4858
  532TMC3    C6 7951   2.966   3.597  13.562 -0.4432 -0.1538 -0.0135
  532TMC3     C 7952   2.744   3.558  13.226  0.1004 -0.1935  0.3323
  532TMC3     O 7953   2.692   3.671  13.214  0.3613  0.1871  0.0277
  532TMC3     H 7954   2.666   3.685  13.458  1.4925  1.7619  1.4834
  532TMC3    H1 7955   2.938   3.382  13.301  0.2629  1.4463 -2.1043
  532TMC3    H2 7956   3.038   3.633  13.635  2.2264 -2.3127 -1.5792
  532TMC3    C7 7957   3.124   3.442  13.480  0.2656  0.0979 -0.0629
  532TMC3    C8 7958   2.881   3.809  13.527 -0.3043  0.0134  0.7874
  532TMC3    O1 7959   3.215   3.515  13.511  0.5321 -0.9808  0.3293
  532TMC3    O2 7960   2.944   3.876  13.606  0.3356 -0.3228 -0.1242
  533TMC3    C1 7961   0.214   0.096  14.230 -0.0671  0.8587 -0.1749
  533TMC3    C2 7962   0.333   0.120  14.290  0.5149  0.3614  0.6779
  533TMC3    C3 7963   0.347   0.246  14.332 -0.7399  0.8790  0.3409
  533TMC3    C4 7964   0.106   0.180  14.231  0.0512 -0.1609  0.5044
  533TMC3    C5 7965   0.127   0.308  14.279 -0.5243 -0.4596 -0.5844
  533TMC3    C6 7966   0.252   0.345  14.324 -1.4786 -0.2267  0.0676
  533TMC3     C 7967   0.175   4.694  14.238 -0.2951  0.3818 -0.0899
  533TMC3     O 7968   0.263   4.620  14.289  0.0022 -0.0240  0.2676
  533TMC3     H 7969   0.406   0.040  14.300  0.0975 -0.0226  0.6564
  533TMC3    H1 7970   0.017   0.162  14.171  1.1636  0.0564 -1.2146
  533TMC3    H2 7971   0.268   0.440  14.373 -1.1772 -0.5366  0.5661
  533TMC3    C7 7972   0.015   0.316  14.372  0.1954 -0.4749 -0.2138
  533TMC3    C8 7973   0.484   0.291  14.351  0.3647  0.0230 -0.1463
  533TMC3    O1 7974   4.672   0.226  14.362 -0.0868  0.0329  0.0380
  533TMC3    O2 7975   0.563   0.195  14.360  0.3008 -0.1245  0.0552
  534MPD2     C 7976   2.934   1.081   0.764  0.2602 -0.2826 -0.2572
  534MPD2    C1 7977   2.885   1.194   0.830  0.3336  0.1395  0.6825
  534MPD2    C2 7978   2.762   1.244   0.804 -0.2875  0.0259  0.1173
  534MPD2    C3 7979   2.680   1.181   0.716 -0.8133  0.1566  0.3828
  534MPD2    C4 7980   2.727   1.067   0.651  0.3884  0.7262 -0.0237
  534MPD2    C5 7981   2.854   1.015   0.672 -0.0819  0.3393 -0.8292
  534MPD2     H 7982   2.730   1.336   0.852  0.6833  0.2755  0.2746
  534MPD2    H1 7983   2.653   1.022   0.587 -2.0061  3.2716  0.9770
  534MPD2    H2 7984   3.034   1.041   0.768  0.7134  1.0447  1.5911
  534MPD2    H3 7985   2.890   0.927   0.620  0.5014 -0.3612  0.7530
  534MPD2     N 7986   2.559   1.223   0.679  0.1638  0.3423 -0.3196
  534MPD2    H5 7987   2.521   1.188   0.592 -1.1156 -2.4432  1.3536
  534MPD2    N1 7988   2.967   1.270   0.916 -0.3077 -0.7946  0.4409
  534MPD2    H7 7989   2.926   1.354   0.956  1.0024 -0.1322  0.3797
  535TMC3    C1 7990   2.354   1.321   0.696 -0.6952  0.1231 -0.2369
  535TMC3    C2 7991   2.250   1.277   0.764 -0.0100 -0.1722  0.0810
  535TMC3    C3 7992   2.144   1.231   0.694  0.0074  0.1636 -0.3235
  535TMC3    C4 7993   2.356   1.340   0.556  0.6163 -1.5058 -0.2684
  535TMC3    C5 7994   2.247   1.288   0.494 -0.2190 -0.0749  0.3865
  535TMC3    C6 7995   2.147   1.217   0.560 -0.1108  0.0209 -0.2458
  535TMC3     C 7996   2.483   1.313   0.756 -0.0494  0.4489 -0.5155
  535TMC3     O 7997   2.500   1.347   0.872 -0.1955  0.2086  0.4644
  535TMC3     H 7998   2.253   1.261   0.871  0.8621  0.1464  0.1000
  535TMC3    H1 7999   2.448   1.348   0.500 -0.6009  0.5239 -1.9566
  535TMC3    H2 8000   2.070   1.155   0.516  0.5998 -0.3739 -0.9279
  535TMC3    C7 8001   2.246   1.276   0.356  0.1407  0.3828 -0.5315
  535TMC3    C8 8002   2.028   1.175   0.770 -0.3996 -0.1662 -0.9044
  535TMC3    O1 8003   2.194   1.175   0.308 -0.1984 -0.0364 -0.1603
  535TMC3    O2 8004   1.957   1.088   0.726  0.0404 -0.4482 -0.5616
  536MPD2     C 8005   1.387   4.283  16.005 -0.2177  0.1205 -0.0418
  536MPD2    C1 8006   1.271   4.242  16.068 -0.1780  0.4368  0.0310
  536MPD2    C2 8007   1.184   4.168  15.985  0.1369  0.9619  0.0024
  536MPD2    C3 8008   1.207   4.160  15.845  0.3033 -0.2902 -0.1415
  536MPD2    C4 8009   1.331   4.194  15.794 -0.4582  0.7496 -0.7514
  536MPD2    C5 8010   1.419   4.261  15.872  0.2770  0.2698  0.3626
  536MPD2     H 8011   1.094   4.130  16.032 -0.6710  3.4570  0.4863
  536MPD2    H1 8012   1.352   4.186  15.688 -0.0645  0.8098 -0.6751
  536MPD2    H2 8013   1.459   4.336  16.065 -1.6067  2.3163 -0.3108
  536MPD2    H3 8014   1.521   4.286  15.843 -0.1103  1.1478 -0.2115
  536MPD2     N 8015   1.099   4.134  15.751 -0.1484 -0.3003  0.0188
  536MPD2    H5 8016   1.125   4.145  15.654  1.1143 -2.8462  0.0653
  536MPD2    N1 8017   1.242   4.273  16.203 -0.6328 -1.0722 -0.4551
  536MPD2    H7 8018   1.311   4.326  16.254 -1.6730 -1.5409  1.4496
  537TMC3    C1 8019   1.139   4.254  16.419  0.2753 -0.0690 -0.4719
  537TMC3    C2 8020   1.219   4.360  16.459 -0.0480  0.0317  0.6501
  537TMC3    C3 8021   1.214   4.382  16.594  0.0839  0.6627 -0.2131
  537TMC3    C4 8022   1.068   4.173  16.507 -0.0296 -0.6855  0.1654
  537TMC3    C5 8023   1.072   4.199  16.639 -0.0414  0.8392 -0.3169
  537TMC3    C6 8024   1.146   4.308  16.685  0.0991 -0.3076 -0.8518
  537TMC3     C 8025   1.132   4.229  16.282 -0.2606 -0.2516 -0.4862
  537TMC3     O 8026   1.033   4.169  16.244 -0.1054  0.3382  0.4301
  537TMC3     H 8027   1.249   4.442  16.394 -0.2384 -0.1868  0.2834
  537TMC3    H1 8028   1.009   4.092  16.463 -0.8253 -1.1191  2.0345
  537TMC3    H2 8029   1.147   4.337  16.790  0.1661 -1.1174 -0.6333
  537TMC3    C7 8030   1.008   4.112  16.736 -0.2601 -0.1911 -0.4349
  537TMC3    C8 8031   1.298   4.486  16.647 -0.2867  0.1631  0.1532
  537TMC3    O1 8032   1.015   4.152  16.854  0.3322 -0.6115 -0.8998
  537TMC3    O2 8033   1.263   4.549  16.747 -0.5335 -0.2021  0.0097
  538TMC3    C1 8034   2.073   3.048  11.388  0.1653  0.7332  0.2376
  538TMC3    C2 8035   2.133   2.933  11.367 -0.2380 -0.3292  0.7489
  538TMC3    C3 8036   2.158   2.891  11.236  0.2521 -0.1297 -0.2864
  538TMC3    C4 8037   2.048   3.137  11.297 -0.0419 -0.5343 -0.0922
  538TMC3    C5 8038   2.064   3.092  11.170  0.4378  0.6499 -0.0490
  538TMC3    C6 8039   2.128   2.973  11.134  0.9384 -1.0673  0.6069
  538TMC3     C 8040   2.006   3.071  11.512  0.6729  0.2832  0.2521
  538TMC3     O 8041   1.944   3.177  11.513  0.3319  0.0827 -0.4237
  538TMC3     H 8042   2.169   2.863  11.441 -0.7275 -2.5434 -1.0954
  538TMC3    H1 8043   1.999   3.232  11.316  0.1010 -0.7583  1.3960
  538TMC3    H2 8044   2.125   2.933  11.034 -1.0843  1.2184 -0.2520
  538TMC3    C7 8045   1.995   3.170  11.070  0.6505  0.7562 -0.3807
  538TMC3    C8 8046   2.247   2.783  11.209  1.0750 -0.0207  0.0938
  538TMC3    O1 8047   1.957   3.283  11.100 -0.1606  0.2291 -0.6300
  538TMC3    O2 8048   2.263   2.691  11.286 -0.4407  0.3350 -0.2965
  539MPD2     C 8049   1.733   2.067  11.555  0.0263  0.0038 -0.0230
  539MPD2    C1 8050   1.850   2.120  11.503 -0.3781 -0.0989  0.3482
  539MPD2    C2 8051   1.860   2.254  11.489 -0.2623 -0.2888  0.0473
  539MPD2    C3 8052   1.755   2.338  11.521  0.5679 -0.2151 -0.6058
  539MPD2    C4 8053   1.642   2.285  11.571 -0.2477 -0.1520 -0.0617
  539MPD2    C5 8054   1.631   2.150  11.600  0.7697  0.7446  0.8829
  539MPD2     H 8055   1.951   2.292  11.444 -0.1964 -0.5647 -0.0496
  539MPD2    H1 8056   1.560   2.349  11.602 -1.0498 -0.0575 -2.4095
  539MPD2    H2 8057   1.722   1.960  11.569 -0.1407 -0.0595 -0.6193
  539MPD2    H3 8058   1.548   2.100  11.648  1.6788 -0.5232  1.1294
  539MPD2     N 8059   1.762   2.482  11.496 -0.2266 -0.0591  0.3924
  539MPD2    H5 8060   1.680   2.536  11.522  0.9501  0.8888  2.1432
  539MPD2    N1 8061   1.958   2.038  11.464 -0.0194  0.4841  0.4077
  539MPD2    H7 8062   2.035   2.091  11.424  0.4966  0.0823  0.8694
  540TMC3    C1 8063   1.813   2.695  11.415  0.3137  0.2181  0.0817
  540TMC3    C2 8064   1.804   2.735  11.285 -0.2717  0.6807  0.0430
  540TMC3    C3 8065   1.740   2.860  11.273  0.3944  0.6602  0.0480
  540TMC3    C4 8066   1.754   2.756  11.530  1.1630  0.2910 -0.0427
  540TMC3    C5 8067   1.699   2.877  11.504  0.0795 -0.0415  0.3200
  540TMC3    C6 8068   1.694   2.934  11.379  0.2676 -0.3735  1.0670
  540TMC3     C 8069   1.849   2.548  11.417  0.0190  0.5290 -0.0031
  540TMC3     O 8070   1.925   2.503  11.331 -0.2669  0.1802  0.5339
  540TMC3     H 8071   1.854   2.693  11.199  0.9942  2.2162  0.0380
  540TMC3    H1 8072   1.775   2.717  11.629  2.1863  1.1456  0.0741
  540TMC3    H2 8073   1.633   3.023  11.364 -0.9810 -1.3403  0.3969
  540TMC3    C7 8074   1.598   2.906  11.602 -0.1276 -0.9224  0.2932
  540TMC3    C8 8075   1.685   2.896  11.147 -0.0753 -0.7920 -0.0023
  540TMC3    O1 8076   1.560   2.810  11.667  0.3052 -0.3246  0.4427
  540TMC3    O2 8077   1.674   3.017  11.126  0.1411  0.1822 -0.1433
  541MPD2     C 8078   4.212   3.892  13.029 -0.2907 -0.4178  0.2948
  541MPD2    C1 8079   4.292   3.788  12.988 -0.0652  0.2392  0.2145
  541MPD2    C2 8080   4.414   3.804  12.921  0.4176 -0.1005 -0.4084
  541MPD2    C3 8081   4.458   3.934  12.902  0.3155  0.9562 -0.0297
  541MPD2    C4 8082   4.388   4.034  12.962 -0.1638 -0.2235 -0.2594
  541MPD2    C5 8083   4.274   4.012  13.038  0.6693  0.3454  0.3103
  541MPD2     H 8084   4.473   3.721  12.884  0.5204 -0.5200  0.6733
  541MPD2    H1 8085   4.421   4.136  12.946 -3.2345  0.5360 -1.7293
  541MPD2    H2 8086   4.113   3.882  13.071  0.7867 -1.8046  2.5150
  541MPD2    H3 8087   4.221   4.095  13.083  1.3373  1.2587 -0.5854
  541MPD2     N 8088   4.570   3.970  12.830 -0.7940 -0.1285 -0.3532
  541MPD2    H5 8089   4.592   4.069  12.834 -1.5977  0.0751 -0.8767
  541MPD2    N1 8090   4.250   3.652  12.982  0.6425 -0.6325  0.4500
  541MPD2    H7 8091   4.314   3.589  12.934  0.8116  0.0870 -0.2692
  542TMC3    C1 8092   4.722   3.955  12.649 -0.4402 -0.3324 -0.1651
  542TMC3    C2 8093   0.024   3.894  12.531  0.1006  0.7192 -0.0893
  542TMC3    C3 8094   0.149   3.927  12.480  0.4154 -0.5449 -1.0797
  542TMC3    C4 8095   0.063   4.041  12.719  0.6821 -0.4364 -0.4337
  542TMC3    C5 8096   0.184   4.068  12.665  0.2427  0.3295 -0.5610
  542TMC3    C6 8097   0.233   4.011  12.549 -0.6108 -0.1650 -0.1021
  542TMC3     C 8098   4.634   3.884  12.736 -0.8468  0.0530  0.1306
  542TMC3     O 8099   4.611   3.769  12.706 -0.6595  0.1713 -0.3320
  542TMC3     H 8100   4.691   3.833  12.477 -1.3450 -0.2380  2.9028
  542TMC3    H1 8101   0.040   4.067  12.822  0.6202  0.5623 -0.6947
  542TMC3    H2 8102   0.327   4.049  12.509 -2.3015  0.8705 -3.0345
  542TMC3    C7 8103   0.275   4.146  12.741  0.3460 -0.2840 -0.2503
  542TMC3    C8 8104   0.205   3.868  12.360  0.2406  0.2487  0.1912
  542TMC3    O1 8105   0.392   4.145  12.708 -0.1808  0.5621 -0.3215
  542TMC3    O2 8106   0.122   3.859  12.273 -0.5561 -0.1726  0.4936
  543TMC3    C1 8107   0.041   0.159  17.092 -0.8759  0.0837 -0.2595
  543TMC3    C2 8108   0.080   0.041  17.149  0.4580  0.3921  0.4687
  543TMC3    C3 8109   0.062   0.022  17.278 -0.1229 -0.4348  1.0438
  543TMC3    C4 8110   4.730   0.265  17.168  0.2883  0.2914  0.2400
  543TMC3    C5 8111   4.709   0.236  17.297  0.7238  0.5659 -0.2678
  543TMC3    C6 8112   0.009   0.118  17.360  0.2124 -0.1651  0.2501
  543TMC3     C 8113   0.074   0.173  16.950  0.3191  0.0267  0.2084
  543TMC3     O 8114   0.139   0.077  16.914 -0.7668  0.0590  1.2583
  543TMC3     H 8115   0.115   4.697  17.088 -1.3052  0.0817 -0.1307
  543TMC3    H1 8116   4.687   0.349  17.115 -1.2173 -1.0317 -0.6738
  543TMC3    H2 8117   4.722   0.088  17.461  1.3885  1.2229  0.9594
  543TMC3    C7 8118   4.639   0.324  17.385 -0.2519  0.7431  0.3685
  543TMC3    C8 8119   0.045   4.618  17.309 -0.1954 -0.5550 -0.0138
  543TMC3    O1 8120   4.595   0.280  17.490 -0.0955  0.1110  0.2131
  543TMC3    O2 8121   0.015   4.549  17.211 -0.4522  0.1413  0.3352
  544MPD2     C 8122   0.111   4.201  17.595 -0.0916 -0.4640  0.2735
  544MPD2    C1 8123   0.053   4.217  17.463  0.4741  0.0494 -0.1373
  544MPD2    C2 8124   0.060   4.343  17.411 -0.4585 -0.0296  0.1844
  544MPD2    C3 8125   0.102   4.452  17.488  0.2032 -1.3146  0.4684
  544MPD2    C4 8126   0.150   4.434  17.612  0.1457 -0.7333  0.0638
  544MPD2    C5 8127   0.164   4.305  17.659 -0.0269 -0.3435  0.3626
  544MPD2     H 8128   0.035   4.360  17.307 -0.9207  0.5604  0.3936
  544MPD2    H1 8129   0.171   4.523  17.671 -0.8654 -1.3017  1.2744
  544MPD2    H2 8130   0.114   4.102  17.640 -2.0891 -1.0478 -0.8961
  544MPD2    H3 8131   0.198   4.272   0.004 -2.8364 -2.1163  0.7510
  544MPD2     N 8132   0.096   4.587  17.435  0.0377  0.0573 -0.1524
  544MPD2    H5 8133   0.147   4.663  17.479 -0.0025  0.6882 -1.1812
  544MPD2    N1 8134   0.006   4.103  17.400  0.7788 -1.0934 -0.1781
  544MPD2    H7 8135   0.003   4.021  17.460  1.0306 -0.1705  1.1136
  545TMC3    C1 8136   4.681   3.952  17.235  0.1057 -0.3454 -0.3656
  545TMC3    C2 8137   4.736   3.934  17.111 -0.6841  0.3284  0.0973
  545TMC3    C3 8138   4.716   3.809  17.061  0.0485 -0.0273 -0.2468
  545TMC3    C4 8139   4.595   3.872  17.306 -0.6438  0.3585  0.2381
  545TMC3    C5 8140   4.577   3.748  17.243  0.1450 -0.1540  0.6219
  545TMC3    C6 8141   4.633   3.720  17.118  0.2112 -0.3003  0.0444
  545TMC3     C 8142   4.690   4.096  17.270 -0.1508  0.3197 -0.6131
  545TMC3     O 8143   4.698   4.177  17.178 -0.7992 -0.0804 -0.2564
  545TMC3     H 8144   0.049   4.016  17.062 -0.4008 -0.0058 -0.1637
  545TMC3    H1 8145   4.565   3.894  17.408 -1.6103  0.6623 -0.1112
  545TMC3    H2 8146   4.614   3.622  17.075 -2.2436  0.6128 -0.9552
  545TMC3    C7 8147   4.560   3.623  17.323 -0.2760  0.1084 -0.0484
  545TMC3    C8 8148   0.064   3.750  16.963  0.4774  0.0770  0.0511
  545TMC3    O1 8149   4.462   3.596  17.384 -0.3222  0.0999  0.1687
  545TMC3    O2 8150   0.016   3.666  16.889 -0.3725  0.0443 -0.0728
  546MPD2     C 8151   1.411   4.683  17.534  0.8906  0.1577  0.0414
  546MPD2    C1 8152   1.375   0.001  17.412 -0.3857 -0.3923  0.6334
  546MPD2    C2 8153   1.418   0.128  17.372 -0.4336 -0.2749  0.4146
  546MPD2    C3 8154   1.499   0.201  17.460  0.1646  0.0096 -0.3365
  546MPD2    C4 8155   1.530   0.147  17.586  0.1755  0.1953  0.3189
  546MPD2    C5 8156   1.486   0.023  17.616  0.3116  0.3765  0.4006
  546MPD2     H 8157   1.403   0.162  17.271 -0.3834 -0.3519  0.3813
  546MPD2    H1 8158   1.583   0.197  17.667 -1.0694  0.5435  0.9176
  546MPD2    H2 8159   1.395   4.580  17.565 -0.8726  0.4342  0.0582
  546MPD2    H3 8160   1.528   4.732  17.711  4.6061  0.6482 -1.3948
  546MPD2     N 8161   1.561   0.322  17.430  0.2229  0.4427 -0.1875
  546MPD2    H5 8162   1.611   0.365  17.507 -0.6078  0.9729  0.0609
  546MPD2    N1 8163   1.289   4.658  17.343  0.1856 -0.1500 -0.0675
  546MPD2    H7 8164   1.269   4.569  17.388  0.8813  0.6041  1.6989
  547TMC3    C1 8165   1.174   4.575  17.156 -0.2946  0.4011  0.8358
  547TMC3    C2 8166   1.103   4.615  17.044  0.2128 -0.9889 -0.2922
  547TMC3    C3 8167   1.017   4.523  16.994 -0.2840  0.4383 -0.2296
  547TMC3    C4 8168   1.191   4.450  17.203  0.4009 -1.1989  0.4428
  547TMC3    C5 8169   1.102   4.360  17.147 -0.2106  0.3876  0.4511
  547TMC3    C6 8170   1.018   4.393  17.047 -0.0897 -0.7527  0.6219
  547TMC3     C 8171   1.254   4.678  17.210  0.2092 -0.1539 -0.3081
  547TMC3     O 8172   1.272   0.037  17.140  0.9184  0.2379  0.0117
  547TMC3     H 8173   1.108   4.716  17.006  1.1482 -1.1819 -0.6896
  547TMC3    H1 8174   1.268   4.422  17.274  1.0318  1.7195  0.9370
  547TMC3    H2 8175   0.956   4.319  16.998  1.3025 -2.0590  0.8363
  547TMC3    C7 8176   1.106   4.231  17.212 -0.9256  0.4636  0.2238
  547TMC3    C8 8177   0.958   4.546  16.858  0.2127 -0.0310 -0.0184
  547TMC3    O1 8178   1.141   4.239  17.333  0.2350  0.0336  0.4926
  547TMC3    O2 8179   0.881   4.461  16.827  0.6892  0.1078 -0.1020
  548MPD2     C 8180   0.933   0.649  12.728  0.0123  0.2170 -0.0269
  548MPD2    C1 8181   0.900   0.612  12.605 -1.0311  0.1164  0.1237
  548MPD2    C2 8182   0.987   0.539  12.529 -0.1370  0.0833  0.4741
  548MPD2    C3 8183   1.103   0.481  12.589 -0.2219 -0.1538 -0.0048
  548MPD2    C4 8184   1.127   0.495  12.723 -0.8364 -0.1392  0.4243
  548MPD2    C5 8185   1.035   0.578  12.789  0.3793  0.3040 -0.1827
  548MPD2     H 8186   0.966   0.507  12.427 -2.3753 -0.8336  1.2255
  548MPD2    H1 8187   1.195   0.445  12.791 -1.3884 -1.2394  0.1713
  548MPD2    H2 8188   0.870   0.709  12.792  0.6579  1.9330 -1.0065
  548MPD2    H3 8189   1.052   0.590  12.895  1.9620 -0.1351 -0.3890
  548MPD2     N 8190   1.181   0.406  12.502  0.2854 -0.7114  0.2135
  548MPD2    H5 8191   1.146   0.403  12.407  0.8915  0.1781 -0.0352
  548MPD2    N1 8192   0.775   0.643  12.566  0.5089  0.0794 -0.1741
  548MPD2    H7 8193   0.712   0.688  12.632  1.1670 -0.3450  0.7563
  549TMC3    C1 8194   0.593   0.654  12.420 -0.0473 -0.5317  0.1899
  549TMC3    C2 8195   0.537   0.752  12.339 -0.0181  0.3995 -0.4374
  549TMC3    C3 8196   0.408   0.765  12.356  0.0776  0.6544 -0.0093
  549TMC3    C4 8197   0.518   0.571  12.498 -0.1550 -0.5546 -0.1572
  549TMC3    C5 8198   0.386   0.590  12.506 -0.8004 -0.2053  0.2221
  549TMC3    C6 8199   0.326   0.689  12.436  0.5819  0.1761  0.2188
  549TMC3     C 8200   0.737   0.639  12.431  0.1477 -0.2791  0.4412
  549TMC3     O 8201   0.805   0.642  12.332 -0.5356  0.5830 -0.3932
  549TMC3     H 8202   0.587   0.812  12.263 -0.8884  0.6912 -0.7734
  549TMC3    H1 8203   0.565   0.488  12.550 -1.7020 -0.5159  1.3211
  549TMC3    H2 8204   0.220   0.713  12.440  0.5061  0.2033 -2.0980
  549TMC3    C7 8205   0.294   0.489  12.546  0.3027 -0.1156  0.9467
  549TMC3    C8 8206   0.358   0.890  12.309 -0.9452  0.2208 -0.3101
  549TMC3    O1 8207   0.173   0.516  12.553 -0.4587 -0.2300 -0.1187
  549TMC3    O2 8208   0.253   0.879  12.243 -0.0282  0.0548  0.3590
  550TMC3    C1 8209   4.222   3.689  12.472 -0.0075 -0.0695  0.3445
  550TMC3    C2 8210   4.218   3.754  12.590  0.7097  0.2559  0.3893
  550TMC3    C3 8211   4.258   3.884  12.584  0.5344  1.0537  0.2146
  550TMC3    C4 8212   4.274   3.732  12.354 -0.5147  0.1191 -0.0260
  550TMC3    C5 8213   4.312   3.865  12.352 -0.5523  0.2132 -0.3888
  550TMC3    C6 8214   4.298   3.944  12.465 -0.0658 -0.0291 -0.7335
  550TMC3     C 8215   4.154   3.563  12.474  0.0858 -0.5586 -0.9868
  550TMC3     O 8216   4.136   3.501  12.579 -0.0380  0.2533  0.2601
  550TMC3     H 8217   4.185   3.714  12.685 -2.0067  1.6323  0.0412
  550TMC3    H1 8218   4.283   3.670  12.265  0.5394  0.0104  0.1580
  550TMC3    H2 8219   4.325   4.049  12.461 -0.6308  0.1804  1.1194
  550TMC3    C7 8220   4.272   3.941  12.235  0.3977 -0.2483  0.2522
  550TMC3    C8 8221   4.199   3.984  12.667 -0.5011 -0.1792  0.1321
  550TMC3    O1 8222   4.199   4.037  12.248  0.1617  0.4370 -0.6818
  550TMC3    O2 8223   4.253   4.098  12.666 -0.6706 -0.5360 -0.1641
  551TMC3    C1 8224   1.889   1.008  13.484 -0.5400  0.1463  0.5618
  551TMC3    C2 8225   2.001   0.951  13.450  0.1237  0.5852 -0.5636
  551TMC3    C3 8226   2.101   0.946  13.538 -0.2529 -1.0191 -0.6738
  551TMC3    C4 8227   1.853   1.059  13.614  0.9119  0.0056 -0.2134
  551TMC3    C5 8228   1.959   1.034  13.701 -0.2107 -0.2906  0.1027
  551TMC3    C6 8229   2.080   0.989  13.668  0.1102  1.0224  0.5211
  551TMC3     C 8230   1.784   1.018  13.378  0.5294  0.6451 -0.4091
  551TMC3     O 8231   1.813   0.990  13.262  0.2864 -0.0097  0.1637
  551TMC3     H 8232   2.013   0.914  13.349 -1.2628 -0.8284 -0.1963
  551TMC3    H1 8233   1.758   1.092  13.655  0.1666 -0.8556 -1.2402
  551TMC3    H2 8234   2.156   0.995  13.744  0.0673 -1.1154  0.7458
  551TMC3    C7 8235   1.975   1.118  13.814  0.3177 -1.3319  0.6594
  551TMC3    C8 8236   2.237   0.943  13.489 -0.1288 -0.2319 -0.5416
  551TMC3    O1 8237   2.024   1.070  13.918 -0.0940 -0.1845 -1.2240
  551TMC3    O2 8238   2.253   0.950  13.366  0.0992  0.4009 -0.3045
  552MPD2     C 8239   3.573   3.036  13.961  0.5183  0.3348 -0.6587
  552MPD2    C1 8240   3.607   2.911  14.007 -0.3725 -0.0884 -0.6019
  552MPD2    C2 8241   3.739   2.889  14.053  1.0700 -0.5578 -0.4083
  552MPD2    C3 8242   3.836   2.978  14.036  0.3795 -0.1066 -0.2261
  552MPD2    C4 8243   3.803   3.098  13.981  0.2853 -0.2213 -0.2410
  552MPD2    C5 8244   3.672   3.133  13.950 -0.0061  0.3791  0.2370
  552MPD2     H 8245   3.764   2.788  14.085  0.5600 -0.9247 -1.1660
  552MPD2    H1 8246   3.875   3.179  13.969 -0.6653  0.4117 -1.7623
  552MPD2    H2 8247   3.471   3.065  13.940 -0.1289 -0.6976  1.0142
  552MPD2    H3 8248   3.654   3.229  13.903  3.4925  1.0220  0.2051
  552MPD2     N 8249   3.962   2.966  14.095 -0.2596  0.7172 -0.0104
  552MPD2    H5 8250   4.031   3.039  14.078  0.0778 -0.1855 -2.5734
  552MPD2    N1 8251   3.518   2.807  14.017 -0.1645 -0.4875  0.3753
  552MPD2    H7 8252   3.547   2.720  14.059 -1.3132 -1.4038 -0.7632
  553TMC3    C1 8253   3.329   2.678  13.970  0.0725 -0.1445  0.1530
  553TMC3    C2 8254   3.199   2.680  13.925  0.7665 -0.4838 -0.2327
  553TMC3    C3 8255   3.157   2.576  13.842 -0.0823 -0.1520 -0.3657
  553TMC3    C4 8256   3.405   2.564  13.949 -0.1036  0.1908  0.5888
  553TMC3    C5 8257   3.354   2.456  13.883  0.4149 -0.2296  0.2743
  553TMC3    C6 8258   3.237   2.467  13.812 -0.2132 -0.4893  0.0048
  553TMC3     C 8259   3.394   2.812  13.977 -0.3632  0.2588 -0.0266
  553TMC3     O 8260   3.336   2.901  13.917  0.2652 -0.2485 -0.0771
  553TMC3     H 8261   3.134   2.765  13.940 -1.0727 -1.7149 -1.1069
  553TMC3    H1 8262   3.507   2.566  13.986  0.5614 -0.8942 -1.1523
  553TMC3    H2 8263   3.211   2.402  13.728 -0.0368 -0.4986 -0.0426
  553TMC3    C7 8264   3.433   2.348  13.837 -1.2616  0.7388  0.1409
  553TMC3    C8 8265   3.047   2.611  13.748  0.2694 -0.0599  0.6763
  553TMC3    O1 8266   3.374   2.245  13.828  0.3975 -0.6435  0.6299
  553TMC3    O2 8267   2.971   2.696  13.791  0.2008 -0.5230  0.0162
  554TMC3    C1 8268   1.172   2.555  11.481  0.1763  1.3956  0.7332
  554TMC3    C2 8269   1.165   2.490  11.364  0.1039  0.2819  0.4997
  554TMC3    C3 8270   1.198   2.561  11.254 -0.3016 -0.2221  0.1736
  554TMC3    C4 8271   1.197   2.691  11.490  0.0793 -0.2927 -0.6264
  554TMC3    C5 8272   1.246   2.751  11.379  1.0558 -0.2478  1.5474
  554TMC3    C6 8273   1.252   2.684  11.260 -0.4567 -0.0122 -0.3726
  554TMC3     C 8274   1.207   2.489  11.607 -0.1691  0.1372  0.1831
  554TMC3     O 8275   1.268   2.569  11.677 -0.1804  0.3208  0.4586
  554TMC3     H 8276   1.151   2.383  11.366  1.4746  0.1142  1.1386
  554TMC3    H1 8277   1.190   2.749  11.582 -0.9212 -2.7573  0.8542
  554TMC3    H2 8278   1.283   2.742  11.173  2.3010 -1.8067 -0.5936
  554TMC3    C7 8279   1.250   2.891  11.371 -0.1678  0.1800 -0.6226
  554TMC3    C8 8280   1.118   2.535  11.142 -0.0594  0.2775  0.3780
  554TMC3    O1 8281   1.345   2.942  11.310 -0.3678  0.6789  0.3942
  554TMC3    O2 8282   1.120   2.620  11.051 -0.0462 -0.6057  0.1405
  555TMC3    C1 8283   4.731   1.710  14.748  0.0519  0.1645  0.3186
  555TMC3    C2 8284   4.676   1.767  14.859  0.0731 -0.2561  0.3442
  555TMC3    C3 8285   4.689   1.699  14.977  0.3385  0.1791 -0.0707
  555TMC3    C4 8286   0.047   1.582  14.750 -0.3308 -0.6866  0.2065
  555TMC3    C5 8287   0.042   1.521  14.873  0.5203 -0.7505  0.1234
  555TMC3    C6 8288   4.731   1.573  14.989  1.0950  0.2192 -0.4695
  555TMC3     C 8289   0.013   1.792  14.625  0.1506  0.2333 -0.2092
  555TMC3     O 8290   4.673   1.884  14.612 -0.1833  0.5154  0.7340
  555TMC3     H 8291   4.653   1.873  14.855 -0.0555 -0.3700 -1.8514
  555TMC3    H1 8292   0.095   1.532  14.666  0.3912 -0.1767  0.3183
  555TMC3    H2 8293   4.714   1.512  15.077  0.9095 -1.9355 -1.9965
  555TMC3    C7 8294   0.079   1.380  14.883  0.0750 -0.4286  0.3506
  555TMC3    C8 8295   4.637   1.765  15.101 -0.5258  0.2233 -0.2302
  555TMC3    O1 8296   0.107   1.343  14.996 -0.4523  0.5822  0.5658
  555TMC3    O2 8297   4.551   1.850  15.078  0.2511 -0.5115 -0.2538
  556MPD2     C 8298   2.617   3.833  10.744  0.1630 -0.3804  0.1738
  556MPD2    C1 8299   2.614   3.763  10.867  0.6026 -0.1717  0.4641
  556MPD2    C2 8300   2.671   3.639  10.876 -0.1714  0.3293 -0.0190
  556MPD2    C3 8301   2.734   3.580  10.769 -0.0915 -1.0656  0.4655
  556MPD2    C4 8302   2.733   3.645  10.647 -0.0055 -0.9662 -0.1291
  556MPD2    C5 8303   2.675   3.766  10.635 -0.3080 -0.2953  0.1244
  556MPD2     H 8304   2.679   3.591  10.973 -1.2606  0.6686  0.2486
  556MPD2    H1 8305   2.780   3.610  10.556 -2.8254 -0.4112 -1.7914
  556MPD2    H2 8306   2.593   3.938  10.728 -1.0516 -0.6852  0.0501
  556MPD2    H3 8307   2.685   3.819  10.540  0.1934  0.9025  0.8368
  556MPD2     N 8308   2.810   3.465  10.785 -0.5197  0.1465  0.1941
  556MPD2    H5 8309   2.812   3.409  10.869  0.1396  0.6944  0.5447
  556MPD2    N1 8310   2.577   3.824  10.991 -0.4165  0.2276 -0.9019
  556MPD2    H7 8311   2.583   3.762  11.071  0.4965  0.7636 -0.5489
  557TMC3    C1 8312   2.904   3.267  10.699 -0.3991  0.9357 -1.2331
  557TMC3    C2 8313   2.998   3.215  10.624 -0.2318  0.1966  0.5809
  557TMC3    C3 8314   2.991   3.079  10.597  0.0089  0.2892 -0.3770
  557TMC3    C4 8315   2.792   3.196  10.734  0.5458 -0.0089 -0.0006
  557TMC3    C5 8316   2.791   3.059  10.710  0.2271 -0.4067  0.1435
  557TMC3    C6 8317   2.885   3.002  10.634  0.2057  0.2849 -0.8639
  557TMC3     C 8318   2.894   3.413  10.688 -0.8579 -0.1928 -0.5233
  557TMC3     O 8319   2.941   3.471  10.589  1.0113  0.2624  0.1873
  557TMC3     H 8320   3.089   3.272  10.608 -0.7047  0.6966 -0.3182
  557TMC3    H1 8321   2.717   3.243  10.796 -0.4907 -0.7242 -0.7346
  557TMC3    H2 8322   2.879   2.896  10.612  4.2406 -0.2826  0.8885
  557TMC3    C7 8323   2.673   2.989  10.767 -0.4482  0.0053  0.1048
  557TMC3    C8 8324   3.062   3.038  10.483  0.3995  0.3799  0.2340
  557TMC3    O1 8325   2.579   3.057  10.809 -0.2865 -0.2569 -0.0529
  557TMC3    O2 8326   3.174   3.088  10.457  0.4519 -0.1022 -0.9131
  558TMC3    C1 8327   0.425   1.844   9.937 -0.0589 -0.0614  0.0412
  558TMC3    C2 8328   0.424   1.738   9.852  0.2937 -0.2394  0.2805
  558TMC3    C3 8329   0.303   1.687   9.821  0.4317 -0.5618 -0.4651
  558TMC3    C4 8330   0.302   1.893   9.989  0.6053  0.0906  0.6628
  558TMC3    C5 8331   0.185   1.851   9.932 -0.3876  0.0852  0.0142
  558TMC3    C6 8332   0.181   1.748   9.846  0.5522  0.7009 -0.1369
  558TMC3     C 8333   0.536   1.847  10.027 -0.4237  0.1685 -0.2764
  558TMC3     O 8334   0.607   1.750  10.021  0.2918  0.4488 -0.4583
  558TMC3     H 8335   0.512   1.675   9.844 -1.4259 -2.4987 -0.9521
  558TMC3    H1 8336   0.298   1.959  10.075 -4.4569 -0.3224  0.7714
  558TMC3    H2 8337   0.088   1.700   9.817 -0.1377  1.4236  0.8620
  558TMC3    C7 8338   0.062   1.895   9.990  0.3324  0.0044  0.0418
  558TMC3    C8 8339   0.291   1.544   9.798  0.1486  0.3450  0.6821
  558TMC3    O1 8340   0.074   2.007  10.034 -0.5193  0.6384 -0.1467
  558TMC3    O2 8341   0.228   1.500   9.708  0.3963 -0.7617 -0.0793
  559MPD2     C 8342   0.443   2.505  10.406 -0.0935 -0.2016  0.0288
  559MPD2    C1 8343   0.382   2.412  10.498 -0.2661  0.1943 -0.2982
  559MPD2    C2 8344   0.460   2.332  10.573 -0.0434  0.3174 -0.1047
  559MPD2    C3 8345   0.600   2.332  10.561 -0.2510  0.5029 -0.5000
  559MPD2    C4 8346   0.659   2.417  10.471 -0.2817 -0.2001 -0.6684
  559MPD2    C5 8347   0.577   2.500  10.396  0.2615  0.0185 -0.2119
  559MPD2     H 8348   0.423   2.268  10.652 -0.2166 -0.5323 -0.8657
  559MPD2    H1 8349   0.764   2.429  10.447 -0.6027  2.9046 -0.5950
  559MPD2    H2 8350   0.386   2.579  10.351  1.5476  1.1220  0.0885
  559MPD2    H3 8351   0.628   2.564  10.324 -0.2477  0.8466  0.1612
  559MPD2     N 8352   0.663   2.232  10.637  0.1170  0.4210  0.2077
  559MPD2    H5 8353   0.615   2.168  10.699 -2.0671 -0.3611 -2.2871
  559MPD2    N1 8354   0.245   2.423  10.520  0.1254 -0.1544 -0.2334
  559MPD2    H7 8355   0.199   2.511  10.499 -1.0612 -0.0961  2.5901
  560TMC3    C1 8356   0.843   2.110  10.741 -0.2011 -0.0175  0.7912
  560TMC3    C2 8357   0.769   1.994  10.737 -0.6973  0.5657  0.0155
  560TMC3    C3 8358   0.785   1.912  10.846 -0.0993  0.5286 -0.4225
  560TMC3    C4 8359   0.924   2.141  10.844  0.6483 -0.3719 -0.5233
  560TMC3    C5 8360   0.917   2.065  10.956  0.8457  0.3925 -0.5034
  560TMC3    C6 8361   0.855   1.947  10.959 -0.1177 -0.1357  0.2996
  560TMC3     C 8362   0.800   2.218  10.656  0.3201  0.4999  0.3939
  560TMC3     O 8363   0.888   2.292  10.614  0.0418 -0.0239  0.2143
  560TMC3     H 8364   0.724   1.964  10.643  0.5669 -0.3561 -0.2974
  560TMC3    H1 8365   0.964   2.241  10.852 -1.9135  0.4529  1.7911
  560TMC3    H2 8366   0.861   1.886  11.048 -1.3682 -1.3551 -0.4479
  560TMC3    C7 8367   1.018   2.088  11.060  0.8091  0.0977 -0.0044
  560TMC3    C8 8368   0.792   1.772  10.812 -0.2231  0.7044 -0.0332
  560TMC3    O1 8369   1.002   2.013  11.155 -0.6730 -0.2235  0.6083
  560TMC3    O2 8370   0.726   1.735  10.719 -0.4379  0.0262  0.1657
  561TMC3    C1 8371   3.363   1.341  11.360 -1.4155 -0.1828 -0.4138
  561TMC3    C2 8372   3.306   1.222  11.401  0.5304 -0.3714 -0.1365
  561TMC3    C3 8373   3.171   1.224  11.428 -0.1802  0.1178 -0.5667
  561TMC3    C4 8374   3.293   1.458  11.343  0.1480 -0.4108  0.8120
  561TMC3    C5 8375   3.164   1.454  11.374 -0.1897  0.0161  0.8051
  561TMC3    C6 8376   3.101   1.342  11.413  0.3397 -0.0473 -0.2818
  561TMC3     C 8377   3.506   1.342  11.366 -0.5412 -0.1615 -0.6993
  561TMC3     O 8378   3.554   1.239  11.411 -0.3253  0.0638  0.0573
  561TMC3     H 8379   3.352   1.124  11.409  2.9319  0.8989  1.5961
  561TMC3    H1 8380   3.347   1.551  11.326 -3.3848  1.6761  0.9950
  561TMC3    H2 8381   2.996   1.350  11.437  0.3040  0.8680 -0.7378
  561TMC3    C7 8382   3.078   1.561  11.317  0.3528  0.5865  0.2546
  561TMC3    C8 8383   3.108   1.101  11.465  0.9890 -0.3393  1.3939
  561TMC3    O1 8384   2.960   1.574  11.353  0.0417  0.2850 -1.0449
  561TMC3    O2 8385   3.156   0.999  11.425 -0.1914 -0.6422  1.1042
  562TMC3    C1 8386   4.508   1.780  16.223 -0.2846  0.0161  0.0521
  562TMC3    C2 8387   4.487   1.902  16.164 -0.2237 -0.0614  0.4203
  562TMC3    C3 8388   4.469   1.897  16.030 -0.0241  0.7816 -0.8461
  562TMC3    C4 8389   4.503   1.660  16.154 -0.8292 -0.5175 -0.2239
  562TMC3    C5 8390   4.472   1.662  16.024  0.0679 -0.0320  0.1434
  562TMC3    C6 8391   4.457   1.782  15.954 -0.1055 -0.3191 -0.1412
  562TMC3     C 8392   4.558   1.781  16.359  0.1459 -0.5462  0.4254
  562TMC3     O 8393   4.627   1.688  16.400  0.6321 -0.2873 -0.1279
  562TMC3     H 8394   4.507   1.996  16.214  3.2028 -0.3739 -0.4146
  562TMC3    H1 8395   4.515   1.569  16.211 -0.0150 -0.5437 -0.4448
  562TMC3    H2 8396   4.452   1.778  15.846  1.9253 -0.0853 -0.2263
  562TMC3    C7 8397   4.509   1.550  15.940  0.2813 -0.0313  0.0472
  562TMC3    C8 8398   4.525   2.017  15.960 -0.2642  0.0222  0.1164
  562TMC3    O1 8399   4.495   1.561  15.817 -0.0138  0.1633 -0.0131
  562TMC3    O2 8400   4.612   2.082  16.016  0.0673  0.2632 -0.2369
  563MPD2     C 8401   2.236   3.159  15.455  0.3150 -0.0967  0.0777
  563MPD2    C1 8402   2.233   3.226  15.575 -0.4051 -0.0853  0.0365
  563MPD2    C2 8403   2.349   3.271  15.633 -0.2251  1.0582 -0.0397
  563MPD2    C3 8404   2.472   3.236  15.587 -0.2591  0.9227  0.4897
  563MPD2    C4 8405   2.473   3.150  15.476 -0.2076  0.1749 -0.1043
  563MPD2    C5 8406   2.358   3.121  15.403 -0.3809 -0.6591 -0.3764
  563MPD2     H 8407   2.344   3.319  15.730  0.1359 -1.0291  1.0157
  563MPD2    H1 8408   2.568   3.128  15.428 -0.7719 -0.6687 -0.8253
  563MPD2    H2 8409   2.144   3.127  15.408  0.2464  0.5477 -0.2291
  563MPD2    H3 8410   2.358   3.061  15.313 -2.7652 -0.8681 -0.2502
  563MPD2     N 8411   2.586   3.284  15.655 -0.1123 -0.5046  0.0085
  563MPD2    H5 8412   2.560   3.345  15.731 -0.3944 -1.3354  0.5762
  563MPD2    N1 8413   2.115   3.251  15.650  1.0218  0.3700 -0.1519
  563MPD2    H7 8414   2.123   3.283  15.747  0.6243  0.2245 -0.0706
  564TMC3    C1 8415   1.905   3.223  15.739  1.0002 -0.3261  0.2222
  564TMC3    C2 8416   1.830   3.110  15.772 -0.7033  0.1449 -0.1580
  564TMC3    C3 8417   1.802   3.098  15.903  0.0910 -0.4835  0.7998
  564TMC3    C4 8418   1.932   3.321  15.830 -0.7760  0.1057 -0.6046
  564TMC3    C5 8419   1.922   3.291  15.963  0.0158 -0.1399 -0.1891
  564TMC3    C6 8420   1.848   3.182  16.001 -0.0983  1.0609 -0.8317
  564TMC3     C 8421   1.983   3.226  15.615  0.4433 -0.2543 -0.2407
  564TMC3     O 8422   1.940   3.178  15.512  0.3623  0.4948  0.0832
  564TMC3     H 8423   1.818   3.029  15.701  1.2146 -0.2217 -0.0798
  564TMC3    H1 8424   1.994   3.406  15.805  3.6180 -2.7675  0.6358
  564TMC3    H2 8425   1.833   3.148  16.103 -3.1186 -0.7625 -1.8517
  564TMC3    C7 8426   2.061   3.299  16.008 -0.0584  0.0401 -0.0190
  564TMC3    C8 8427   1.725   2.986  15.933 -0.5781 -0.4437 -0.2911
  564TMC3    O1 8428   2.157   3.294  15.930 -0.5855 -0.1168  0.8022
  564TMC3    O2 8429   1.736   2.945  16.050  0.0356  0.3260  0.1825
  565TMC3    C1 8430   2.600   0.683   9.838  0.4970 -0.2382 -0.1221
  565TMC3    C2 8431   2.564   0.615   9.952 -0.2031 -0.8700 -0.1018
  565TMC3    C3 8432   2.446   0.539   9.954 -0.0494 -0.6864 -0.0262
  565TMC3    C4 8433   2.510   0.684   9.735 -0.0114 -0.4981 -0.0871
  565TMC3    C5 8434   2.393   0.616   9.738 -1.0419 -0.6014 -0.3787
  565TMC3    C6 8435   2.362   0.534   9.848  0.4889 -0.5492 -0.5820
  565TMC3     C 8436   2.719   0.769   9.827 -0.5321 -0.6157 -0.2500
  565TMC3     O 8437   2.722   0.833   9.723 -0.0530  0.1365  0.1345
  565TMC3     H 8438   2.622   0.623  10.044  1.4739 -0.5104 -1.1953
  565TMC3    H1 8439   2.522   0.745   9.646 -1.8880 -2.1092 -1.4472
  565TMC3    H2 8440   2.256   0.530   9.867  0.7879  0.6799  1.3450
  565TMC3    C7 8441   2.297   0.642   9.635 -0.3393 -0.2825 -0.4813
  565TMC3    C8 8442   2.422   0.467  10.073  0.1149 -0.3000 -0.4986
  565TMC3    O1 8443   2.318   0.740   9.562 -0.9190  0.0101  0.3040
  565TMC3    O2 8444   2.462   0.505  10.180  0.2842  0.4418  0.1048
  566MPD2     C 8445   4.340   1.566  14.117 -0.1789  0.1680  0.2755
  566MPD2    C1 8446   4.366   1.649  14.011 -0.5081  0.7066  0.3916
  566MPD2    C2 8447   4.260   1.688  13.934 -0.1113  0.3876 -1.3136
  566MPD2    C3 8448   4.135   1.631  13.956 -0.3291 -0.3167  0.6696
  566MPD2    C4 8449   4.116   1.542  14.060  0.3876  0.5674 -0.1857
  566MPD2    C5 8450   4.220   1.512  14.144  0.2861 -0.7702  0.3695
  566MPD2     H 8451   4.277   1.739  13.840  0.9936  0.8309 -0.8832
  566MPD2    H1 8452   4.017   1.500  14.079  0.4835  0.6330  0.4775
  566MPD2    H2 8453   4.419   1.532  14.183  0.3689 -0.7750 -0.8527
  566MPD2    H3 8454   4.211   1.449  14.232 -0.1643  0.3163  1.0967
  566MPD2     N 8455   4.025   1.643  13.869  0.1458  0.0089  0.1095
  566MPD2    H5 8456   3.949   1.576  13.881  0.8683 -0.5876  1.3232
  566MPD2    N1 8457   4.498   1.679  13.977 -0.1700 -0.5744  0.0836
  566MPD2    H7 8458   4.568   1.633  14.034 -0.5720 -0.1907  0.8980
  567TMC3    C1 8459   4.665   1.746  13.827  0.2784 -0.3436  0.2980
  567TMC3    C2 8460   4.679   1.766  13.691  0.0115 -0.3868  0.3498
  567TMC3    C3 8461   0.011   1.678  13.624  0.4224  0.4115 -0.4061
  567TMC3    C4 8462   0.006   1.651  13.896  0.4080 -0.2694 -0.8633
  567TMC3    C5 8463   0.081   1.571  13.809 -0.0444 -0.0877  0.2069
  567TMC3    C6 8464   0.083   1.576  13.675  0.2279 -0.0017  0.0964
  567TMC3     C 8465   4.540   1.776  13.891 -0.0243  0.1763 -0.0675
  567TMC3     O 8466   4.463   1.868  13.853 -0.2672 -0.7631 -0.3343
  567TMC3     H 8467   4.604   1.835  13.652 -0.9542 -2.6758 -1.8685
  567TMC3    H1 8468   0.010   1.649  14.004 -0.4235 -3.5235 -0.8821
  567TMC3    H2 8469   0.151   1.515  13.617 -1.0246 -0.9947 -0.3390
  567TMC3    C7 8470   0.125   1.443  13.866  1.1001  0.2336  0.3407
  567TMC3    C8 8471   4.726   1.691  13.481 -0.6473  0.6162  0.4586
  567TMC3    O1 8472   0.206   1.369  13.810  0.0383  0.2973 -0.3098
  567TMC3    O2 8473   4.665   1.783  13.436 -0.2567  0.2803 -0.6427
  568MPD2     C 8474   1.928   1.700  16.317  0.4500 -0.0247  0.1476
  568MPD2    C1 8475   1.880   1.739  16.437  0.3051  0.2579  0.6645
  568MPD2    C2 8476   1.776   1.826  16.439  0.2079  0.3912 -0.8461
  568MPD2    C3 8477   1.719   1.872  16.316 -0.3416 -0.1999 -0.5471
  568MPD2    C4 8478   1.767   1.827  16.194 -0.3043 -1.1499 -0.3391
  568MPD2    C5 8479   1.878   1.747  16.198  0.5361  1.2804  0.8072
  568MPD2     H 8480   1.725   1.856  16.530  1.6579 -0.8282  0.3640
  568MPD2    H1 8481   1.731   1.864  16.098  1.5659 -0.3153 -0.7277
  568MPD2    H2 8482   2.021   1.644  16.307  1.2377  1.5741 -1.4787
  568MPD2    H3 8483   1.928   1.725  16.104  1.1998 -1.0145  1.7079
  568MPD2     N 8484   1.625   1.982  16.329  0.3943  0.1673  0.0280
  568MPD2    H5 8485   1.614   2.015  16.424  0.5266  0.5290 -0.0816
  568MPD2    N1 8486   1.935   1.682  16.560  0.0706  0.1189  0.1836
  568MPD2    H7 8487   1.996   1.601  16.548 -0.4226  0.0752 -2.0579
  569TMC3    C1 8488   1.486   2.161  16.264  0.6199  0.0006  0.2182
  569TMC3    C2 8489   1.487   2.209  16.391  0.1085 -0.2199  0.0105
  569TMC3    C3 8490   1.449   2.339  16.418  0.0614 -0.3468  0.2323
  569TMC3    C4 8491   1.437   2.237  16.161  0.1445  0.0454 -0.2912
  569TMC3    C5 8492   1.402   2.365  16.193 -0.2828 -1.5572  0.0973
  569TMC3    C6 8493   1.415   2.424  16.314 -0.2055  0.3326 -0.1485
  569TMC3     C 8494   1.572   2.051  16.219  0.8122 -0.1332  0.1665
  569TMC3     O 8495   1.614   2.056  16.104  0.2112  0.6555  0.7290
  569TMC3     H 8496   1.535   2.149  16.468 -1.5571 -0.8329  0.5788
  569TMC3    H1 8497   1.457   2.203  16.060 -3.5679  0.0088 -0.9862
  569TMC3    H2 8498   1.384   2.526  16.334  0.6429  0.4178  0.7297
  569TMC3    C7 8499   1.378   2.454  16.079 -0.6806 -0.2574  0.0420
  569TMC3    C8 8500   1.438   2.376  16.560  0.4885 -0.2854 -0.0531
  569TMC3    O1 8501   1.306   2.412  15.989  0.1074 -0.1149  0.1752
  569TMC3    O2 8502   1.415   2.293  16.645 -0.4741  0.1041 -0.6166
  570TMC3    C1 8503   1.056   1.015  15.846 -0.0307  1.1473  0.6286
  570TMC3    C2 8504   1.127   1.010  15.729 -0.1549 -0.2312 -0.4904
  570TMC3    C3 8505   1.229   1.106  15.707  0.0252 -0.1466  0.0456
  570TMC3    C4 8506   1.078   1.108  15.943 -0.4435  1.1212  0.8928
  570TMC3    C5 8507   1.179   1.198  15.921 -0.4578 -0.7112 -0.0130
  570TMC3    C6 8508   1.259   1.186  15.811  0.6223  0.6402  0.3246
  570TMC3     C 8509   0.946   0.918  15.858 -0.3488 -0.5365 -0.1333
  570TMC3     O 8510   0.908   0.868  15.758  0.1802  0.2037  0.2960
  570TMC3     H 8511   1.090   0.945  15.650 -0.1421 -0.9424  0.0908
  570TMC3    H1 8512   1.019   1.111  16.034 -0.0648 -1.0045  1.2076
  570TMC3    H2 8513   1.334   1.262  15.796 -0.6824  1.8380 -0.1885
  570TMC3    C7 8514   1.227   1.259  16.039  0.0470  0.1892 -0.2279
  570TMC3    C8 8515   1.331   1.097  15.603 -0.5572 -0.0808  0.1663
  570TMC3    O1 8516   1.194   1.210  16.145  0.5118 -0.0718  0.2244
  570TMC3    O2 8517   1.416   1.182  15.610  0.3030 -0.7579 -0.0583
  571MPD2     C 8518   3.887   2.868   0.248  0.1925 -0.5510  0.1030
  571MPD2    C1 8519   3.960   2.889   0.364 -0.7131 -1.6945 -0.1285
  571MPD2    C2 8520   3.947   3.009   0.425 -0.2702  0.1957  0.6586
  571MPD2    C3 8521   3.887   3.118   0.360  1.2325 -0.0327  0.6707
  571MPD2    C4 8522   3.833   3.104   0.232  0.1428  0.1458  0.7451
  571MPD2    C5 8523   3.825   2.972   0.185  0.1924  0.3419 -0.7908
  571MPD2     H 8524   3.999   3.029   0.518  0.3954 -0.5763  0.4468
  571MPD2    H1 8525   3.786   3.188   0.180 -0.5136  0.3775  1.7140
  571MPD2    H2 8526   3.885   2.772   0.198 -0.9064  0.2106 -1.3115
  571MPD2    H3 8527   3.774   2.954   0.092 -1.7347 -3.3170  1.0122
  571MPD2     N 8528   3.891   3.248   0.410 -0.4218 -0.1432 -0.2137
  571MPD2    H5 8529   3.836   3.317   0.360 -0.4907  0.5753  0.8565
  571MPD2    N1 8530   4.029   2.778   0.407 -0.4138 -0.2522 -0.0305
  571MPD2    H7 8531   4.021   2.691   0.357 -3.3403  0.5340 -0.8758
  572TMC3    C1 8532   3.983   3.450   0.514 -0.2986 -0.0625 -0.4623
  572TMC3    C2 8533   4.007   3.504   0.635 -0.6213  0.2838  0.2378
  572TMC3    C3 8534   4.050   3.635   0.636  1.0652 -0.5805 -0.7058
  572TMC3    C4 8535   4.003   3.516   0.396  0.3242  0.3727 -0.3552
  572TMC3    C5 8536   4.050   3.645   0.400 -0.4690 -0.4613 -0.9300
  572TMC3    C6 8537   4.069   3.706   0.521 -0.6768 -0.0728  0.0188
  572TMC3     C 8538   3.973   3.303   0.511  0.5503  0.4973 -0.2520
  572TMC3     O 8539   4.010   3.240   0.612 -0.2149 -0.4560  0.4537
  572TMC3     H 8540   3.972   3.445   0.719  1.6808 -0.6097  0.5500
  572TMC3    H1 8541   3.992   3.460   0.303 -1.4931  2.3711 -1.3462
  572TMC3    H2 8542   4.114   3.805   0.522 -1.9767  0.5273 -1.3390
  572TMC3    C7 8543   4.036   3.728   0.284 -0.2265  0.1615 -0.5006
  572TMC3    C8 8544   4.091   3.697   0.757 -0.2779  0.2207  0.5217
  572TMC3    O1 8545   3.955   3.688   0.199 -0.5377 -0.4152  0.2240
  572TMC3    O2 8546   4.138   3.809   0.752 -0.7909  0.1067 -0.1093
  573MPD2     C 8547   0.827   2.907   0.297  0.0168 -0.4531 -0.8636
  573MPD2    C1 8548   0.826   3.038   0.251  0.1105 -0.8889 -0.0822
  573MPD2    C2 8549   0.776   3.054   0.118  0.4392 -0.5281 -0.2909
  573MPD2    C3 8550   0.732   2.953   0.046  0.7280 -0.2548 -0.0418
  573MPD2    C4 8551   0.737   2.821   0.099  0.1374 -0.3128  0.4442
  573MPD2    C5 8552   0.788   2.796   0.220  0.1432 -0.4782  0.3041
  573MPD2     H 8553   0.789   3.156   0.084  1.2760  0.2301  2.2357
  573MPD2    H1 8554   0.708   2.734   0.042 -2.3018  0.5680  0.3539
  573MPD2    H2 8555   0.864   2.884   0.396 -1.3723  0.9316 -0.0174
  573MPD2    H3 8556   0.793   2.693   0.254 -0.5325  0.3256  2.8879
  573MPD2     N 8557   0.681   2.963  17.667 -0.6547  0.2456 -1.0104
  573MPD2    H5 8558   0.644   2.879  17.623 -0.9472 -1.2854  2.1964
  573MPD2    N1 8559   0.884   3.145   0.331  0.3150  0.1381  0.3109
  573MPD2    H7 8560   0.911   3.120   0.425  1.6378 -0.4737 -0.2253
  574TMC3    C1 8561   0.615   3.067  17.466  0.1527 -0.8094  0.1838
  574TMC3    C2 8562   0.488   3.015  17.471  0.2435  0.8138 -0.5012
  574TMC3    C3 8563   0.397   3.049  17.379  0.0804  0.3322 -0.0052
  574TMC3    C4 8564   0.651   3.140  17.364  0.0481 -0.3343  0.4638
  574TMC3    C5 8565   0.562   3.164  17.264 -1.2380  0.4500  0.1360
  574TMC3    C6 8566   0.436   3.119  17.266 -0.1851 -0.1525  0.1138
  574TMC3     C 8567   0.682   3.078  17.593  0.2122 -0.1820  0.0096
  574TMC3     O 8568   0.750   3.182  17.614  0.0512  0.5031 -0.5122
  574TMC3     H 8569   0.448   2.973  17.563  0.7268  0.4514 -0.4598
  574TMC3    H1 8570   0.752   3.180  17.367 -0.8072  2.0230 -1.6393
  574TMC3    H2 8571   0.370   3.125  17.181 -0.4088  1.1055  0.3763
  574TMC3    C7 8572   0.619   3.224  17.144 -0.0593 -0.1255 -0.3100
  574TMC3    C8 8573   0.259   3.061  17.408 -0.6621 -0.5519 -0.1359
  574TMC3    O1 8574   0.706   3.309  17.153  0.4955 -0.2033  0.0661
  574TMC3    O2 8575   0.212   2.966  17.472 -0.6697  0.9958  0.6024
  575TMC3    C1 8576   2.392   0.387  10.910 -0.0659  0.3684  0.3840
  575TMC3    C2 8577   2.406   0.273  10.982  0.1968  0.1085  0.5013
  575TMC3    C3 8578   2.392   0.151  10.918  0.5590  0.4088 -0.1851
  575TMC3    C4 8579   2.350   0.381  10.781 -0.8896  0.0543  0.6350
  575TMC3    C5 8580   2.337   0.260  10.720  0.1152  0.4931 -0.0596
  575TMC3    C6 8581   2.365   0.138  10.782  0.2516  0.6169  0.1308
  575TMC3     C 8582   2.390   0.519  10.969  0.2526  0.2652 -0.1196
  575TMC3     O 8583   2.416   0.613  10.893  0.0528 -0.4430 -0.0456
  575TMC3     H 8584   2.442   0.274  11.084 -1.5414 -0.4619  1.1218
  575TMC3    H1 8585   2.315   0.470  10.730 -1.3489 -0.5775 -0.1626
  575TMC3    H2 8586   2.372   0.044  10.729 -0.6704  2.0025 -2.4552
  575TMC3    C7 8587   2.336   0.283  10.576 -0.5624 -0.1398 -0.1684
  575TMC3    C8 8588   2.421   0.029  10.992 -0.4067  0.1452 -0.2935
  575TMC3    O1 8589   2.356   0.399  10.538 -0.0395 -0.7567  0.1786
  575TMC3    O2 8590   2.443   4.679  10.918  0.2847  0.1996 -0.1534
  576MPD2     C 8591   2.630   0.918  12.703 -0.6640 -0.6967  0.3187
  576MPD2    C1 8592   2.558   1.025  12.655 -0.0397  0.0319  0.3886
  576MPD2    C2 8593   2.510   1.121  12.746  0.2640 -0.1549 -0.5291
  576MPD2    C3 8594   2.541   1.112  12.881 -0.9486 -0.4103  0.0829
  576MPD2    C4 8595   2.608   0.998  12.928  0.1158  0.3739 -0.0784
  576MPD2    C5 8596   2.649   0.900  12.838 -0.1917  0.4612 -0.5092
  576MPD2     H 8597   2.457   1.205  12.704 -0.4497 -0.4921 -0.3099
  576MPD2    H1 8598   2.620   0.977  13.034 -2.2612 -1.8301 -0.2493
  576MPD2    H2 8599   2.681   0.845  12.642  0.5935 -0.1438  0.7129
  576MPD2    H3 8600   2.712   0.819  12.873  0.2388  1.5140  1.1367
  576MPD2     N 8601   2.502   1.217  12.968 -0.1309  0.6438  0.7510
  576MPD2    H5 8602   2.444   1.295  12.937 -1.4934 -1.7235 -2.7377
  576MPD2    N1 8603   2.526   1.044  12.518  0.2425  0.3748 -0.7054
  576MPD2    H7 8604   2.496   1.137  12.491 -1.9328 -0.8047 -2.3572
  577TMC3    C1 8605   2.539   1.007  12.281  0.9187  0.2536 -0.3260
  577TMC3    C2 8606   2.587   0.933  12.178 -0.6440  0.6067 -0.4786
  577TMC3    C3 8607   2.573   0.979  12.056 -0.4195  0.4389  0.4358
  577TMC3    C4 8608   2.459   1.115  12.258  0.3024  0.1960  0.0119
  577TMC3    C5 8609   2.440   1.156  12.131  0.8486 -0.6282  0.8760
  577TMC3    C6 8610   2.494   1.086  12.026 -0.1752  0.7559 -0.6214
  577TMC3     C 8611   2.551   0.956  12.419  0.0157 -0.2013  0.3604
  577TMC3     O 8612   2.593   0.842  12.431  0.1856  0.3319  0.3509
  577TMC3     H 8613   2.645   0.844  12.203 -3.2941 -1.0240 -0.0443
  577TMC3    H1 8614   2.401   1.163  12.336  1.5444 -0.5206  1.3912
  577TMC3    H2 8615   2.461   1.101  11.923  1.4598 -2.1253 -1.5644
  577TMC3    C7 8616   2.309   1.231  12.122  0.3594 -0.5355  0.0768
  577TMC3    C8 8617   2.649   0.910  11.953 -0.1839  0.0283 -0.4226
  577TMC3    O1 8618   2.218   1.205  12.203 -0.5201  0.5236  0.0228
  577TMC3    O2 8619   2.685   0.796  11.974  0.2276 -0.2733 -0.4451
  578MPD2     C 8620   0.552   0.863   1.060 -0.0452 -0.1992  0.3258
  578MPD2    C1 8621   0.626   0.880   0.945  0.4942 -0.5333  0.0261
  578MPD2    C2 8622   0.757   0.853   0.952  0.4931 -0.4514  0.4002
  578MPD2    C3 8623   0.828   0.817   1.071  0.6543 -0.1406  0.3073
  578MPD2    C4 8624   0.751   0.809   1.187 -0.6679 -0.0914  0.3823
  578MPD2    C5 8625   0.619   0.821   1.176  0.2365  0.2144 -0.7769
  578MPD2     H 8626   0.816   0.875   0.864 -2.0299 -0.8359 -1.3888
  578MPD2    H1 8627   0.793   0.781   1.283  1.3616 -0.9430 -0.7370
  578MPD2    H2 8628   0.445   0.874   1.065  0.0327 -0.1068  1.7378
  578MPD2    H3 8629   0.558   0.801   1.263  0.5742 -0.4215 -0.6866
  578MPD2     N 8630   0.968   0.812   1.071 -0.1305  0.2705  0.1039
  578MPD2    H5 8631   1.008   0.800   0.978 -3.1312  1.9215 -1.3780
  578MPD2    N1 8632   0.559   0.928   0.832  0.6277 -0.1691  0.4183
  578MPD2    H7 8633   0.458   0.939   0.843  1.0215  0.8734  3.0092
  579TMC3    C1 8634   1.194   0.806   1.119 -0.3104 -0.5373  0.4721
  579TMC3    C2 8635   1.285   0.895   1.167 -0.4018  0.5075 -0.1312
  579TMC3    C3 8636   1.400   0.911   1.095 -0.6636  0.2404 -0.0741
  579TMC3    C4 8637   1.207   0.733   1.003 -0.1648  0.0947  0.3302
  579TMC3    C5 8638   1.336   0.740   0.950  0.6026 -0.1562 -0.0884
  579TMC3    C6 8639   1.431   0.829   0.984  0.3314 -0.0925  0.1686
  579TMC3     C 8640   1.058   0.823   1.175 -1.1514 -0.3279 -0.6377
  579TMC3     O 8641   1.048   0.843   1.299 -0.1143  0.0895 -0.1458
  579TMC3     H 8642   1.262   0.954   1.255 -1.1371  2.2929 -1.5528
  579TMC3    H1 8643   1.145   0.645   0.992 -0.3480  0.2513  0.0902
  579TMC3    H2 8644   1.526   0.835   0.931  1.3154 -0.3287  1.9013
  579TMC3    C7 8645   1.389   0.626   0.881  0.2012 -0.5175  0.3785
  579TMC3    C8 8646   1.489   1.018   1.127  0.2958  0.4072  0.0050
  579TMC3    O1 8647   1.509   0.599   0.889  0.3532  0.4739 -0.1343
  579TMC3    O2 8648   1.441   1.100   1.199 -0.2939  0.2273  0.0726
  580TMC3    C1 8649   0.007   0.584  12.028 -0.6844  0.6174  0.1333
  580TMC3    C2 8650   0.131   0.637  12.063 -0.0774 -0.7119  0.6927
  580TMC3    C3 8651   0.240   0.554  12.056  0.0207 -0.0464  0.6289
  580TMC3    C4 8652   4.733   0.452  11.993 -0.6936 -0.1560 -0.4351
  580TMC3    C5 8653   0.105   0.370  12.010  0.3868  0.1575  0.2475
  580TMC3    C6 8654   0.221   0.420  12.039 -0.2777  0.3553  0.6981
  580TMC3     C 8655   4.649   0.678  11.970 -0.2677 -0.1263  0.1734
  580TMC3     O 8656   4.697   0.772  11.909  0.5423  0.2376  0.1707
  580TMC3     H 8657   0.141   0.739  12.099  2.1916 -0.1785 -1.4459
  580TMC3    H1 8658   4.643   0.407  11.952 -0.5058 -0.4982 -0.4759
  580TMC3    H2 8659   0.308   0.357  12.055 -0.9870 -0.7797  0.0106
  580TMC3    C7 8660   0.080   0.224  12.007 -0.0909  0.1783  0.0013
  580TMC3    C8 8661   0.360   0.607  11.996  0.0868  0.0230  0.2342
  580TMC3    O1 8662   4.717   0.181  11.946  0.6267  0.3287 -0.3525
  580TMC3    O2 8663   0.442   0.530  11.947 -0.6224 -0.0544  0.4440
  581MPD2     C 8664   3.083   4.354  14.809 -0.0476  0.2301 -0.0749
  581MPD2    C1 8665   3.117   4.462  14.890  0.5875  0.5134  0.1009
  581MPD2    C2 8666   3.027   4.565  14.904 -0.3231 -0.5835 -0.1308
  581MPD2    C3 8667   2.893   4.552  14.861 -1.0286  0.4923 -0.1522
  581MPD2    C4 8668   2.857   4.429  14.799  0.1961  0.0039  0.3575
  581MPD2    C5 8669   2.953   4.339  14.766 -0.0446  0.2442 -0.5956
  581MPD2     H 8670   3.066   4.662  14.933 -0.0943 -1.0476  1.1055
  581MPD2    H1 8671   2.757   4.397  14.773  0.8861 -0.9307 -1.1070
  581MPD2    H2 8672   3.159   4.278  14.792  1.0950  1.2243  0.5299
  581MPD2    H3 8673   2.931   4.241  14.726 -3.0711  0.4549  0.4709
  581MPD2     N 8674   2.798   4.652  14.883 -0.2186  0.4635  0.1442
  581MPD2    H5 8675   2.815   4.734  14.940  0.0310 -0.0338  0.7927
  581MPD2    N1 8676   3.243   4.453  14.942 -0.2752 -0.2239 -0.1514
  581MPD2    H7 8677   3.296   4.372  14.911  0.8594  0.2046  0.6779
  582TMC3    C1 8678   3.437   4.505  15.064  0.1696  0.0265 -0.2702
  582TMC3    C2 8679   3.482   4.556  15.185 -1.2609 -0.6724  0.9303
  582TMC3    C3 8680   3.577   4.488  15.257 -0.2591 -0.5074 -0.0342
  582TMC3    C4 8681   3.478   4.378  15.024  0.2510  0.0672  0.0093
  582TMC3    C5 8682   3.562   4.305  15.112  0.0206 -0.4387  0.6572
  582TMC3    C6 8683   3.614   4.365  15.219  0.1628 -0.7807  0.0685
  582TMC3     C 8684   3.306   4.550  15.015 -0.4831 -0.3280 -0.2348
  582TMC3     O 8685   3.265   4.656  15.063  0.2436 -0.1567 -0.3947
  582TMC3     H 8686   3.449   4.654  15.219 -1.9842  0.2698 -2.3987
  582TMC3    H1 8687   3.448   4.321  14.937  0.4775  0.8422 -0.5743
  582TMC3    H2 8688   3.671   4.303  15.287  2.7650 -0.8690 -2.1867
  582TMC3    C7 8689   3.597   4.165  15.087  0.2086  0.1137 -0.0198
  582TMC3    C8 8690   3.595   4.508  15.403  0.1507  1.0672  0.8512
  582TMC3    O1 8691   3.711   4.133  15.091 -0.1715  0.3965  0.0798
  582TMC3    O2 8692   3.512   4.574  15.463  0.3101 -0.0046  0.2275
  583MPD2     C 8693   3.511   1.516  16.602 -0.4971 -0.2945  0.0807
  583MPD2    C1 8694   3.457   1.613  16.518  0.1352  0.2664 -0.3114
  583MPD2    C2 8695   3.393   1.722  16.572  0.3243  0.0202 -0.6521
  583MPD2    C3 8696   3.409   1.759  16.703 -0.1153  0.0442  0.0161
  583MPD2    C4 8697   3.476   1.663  16.784  0.3043 -0.2253 -0.1789
  583MPD2    C5 8698   3.520   1.542  16.737 -0.0343  0.4679 -0.3469
  583MPD2     H 8699   3.350   1.788  16.498  1.4183  0.8450 -0.5613
  583MPD2    H1 8700   3.486   1.681  16.890 -0.1688 -1.8042  0.1374
  583MPD2    H2 8701   3.539   1.417  16.568 -0.0235  0.2033 -0.9886
  583MPD2    H3 8702   3.569   1.470  16.800 -1.3680  1.2406  1.5743
  583MPD2     N 8703   3.337   1.877  16.740  0.2192 -0.5967  0.3601
  583MPD2    H5 8704   3.294   1.925  16.662  0.7225  0.2749  0.6213
  583MPD2    N1 8705   3.463   1.597  16.377 -0.2194 -0.5273  1.1604
  583MPD2    H7 8706   3.422   1.671  16.321  3.1011 -0.4707 -1.2650
  584TMC3    C1 8707   3.249   2.042  16.895 -0.1035  0.2040  0.9769
  584TMC3    C2 8708   3.240   2.131  16.799  0.4876  0.6687  0.7425
  584TMC3    C3 8709   3.202   2.259  16.841  0.2875  0.5491  0.1718
  584TMC3    C4 8710   3.230   2.074  17.028 -0.6889 -0.3008 -0.3201
  584TMC3    C5 8711   3.191   2.197  17.061 -0.4277  0.0573  0.5860
  584TMC3    C6 8712   3.173   2.298  16.969 -0.8682 -0.4304  0.0339
  584TMC3     C 8713   3.320   1.916  16.868  0.9536 -0.4189  0.3526
  584TMC3     O 8714   3.360   1.856  16.969 -0.0301  0.1760 -0.0804
  584TMC3     H 8715   3.266   2.101  16.698 -0.3216 -0.8932  1.0069
  584TMC3    H1 8716   3.256   1.999  17.102  1.2581  0.9279  0.2449
  584TMC3    H2 8717   3.135   2.395  16.999  1.0382  0.2104  0.3499
  584TMC3    C7 8718   3.191   2.217  17.209  0.3401  0.1460  0.7206
  584TMC3    C8 8719   3.196   2.364  16.739  0.1570  0.5201 -0.1682
  584TMC3    O1 8720   3.192   2.118  17.277  0.0698  0.2135 -0.6144
  584TMC3    O2 8721   3.149   2.339  16.629  0.2613 -0.5543 -0.3267
  585MPD2     C 8722   2.477   0.727   0.263 -0.2404 -0.0752  0.6963
  585MPD2    C1 8723   2.575   0.674   0.188  0.9851 -0.0896 -0.0770
  585MPD2    C2 8724   2.600   0.539   0.196  0.3866  0.0760  0.4328
  585MPD2    C3 8725   2.526   0.463   0.287  0.2594 -0.1568 -0.2748
  585MPD2    C4 8726   2.421   0.520   0.355 -0.5404 -0.5104  1.5698
  585MPD2    C5 8727   2.402   0.655   0.348 -0.9233  0.6111 -0.0426
  585MPD2     H 8728   2.675   0.487   0.138 -0.3632 -0.8316  0.2830
  585MPD2    H1 8729   2.356   0.458   0.415 -0.6175 -1.4594  0.5209
  585MPD2    H2 8730   2.456   0.833   0.268 -2.8739 -0.4588 -2.1473
  585MPD2    H3 8731   2.327   0.706   0.407 -1.6283  0.8756 -1.1687
  585MPD2     N 8732   2.530   0.325   0.290 -0.5819 -0.2044  0.3093
  585MPD2    H5 8733   2.449   0.281   0.332 -0.8032  1.1941  1.3686
  585MPD2    N1 8734   2.638   0.767   0.104 -0.6389 -0.3723 -0.3384
  585MPD2    H7 8735   2.594   0.858   0.092  2.0313  1.2453  2.0562
  586TMC3    C1 8736   2.578   0.106   0.202 -0.1035 -0.6107  0.5373
  586TMC3    C2 8737   2.672   0.012   0.181  0.5596  0.6254  0.1908
  586TMC3    C3 8738   2.634   4.629   0.137 -0.4605  0.3091  0.4770
  586TMC3    C4 8739   2.446   0.086   0.190 -0.5711  0.1499 -0.3390
  586TMC3    C5 8740   2.406   4.709   0.127 -0.3494  1.2304  0.8876
  586TMC3    C6 8741   2.503   4.609   0.101 -0.0099 -0.2066  0.3738
  586TMC3     C 8742   2.619   0.243   0.229  0.2607 -0.7735 -0.4040
  586TMC3     O 8743   2.726   0.271   0.178  0.9033  0.7487  0.1287
  586TMC3     H 8744   2.777   0.035   0.192 -0.1847  3.6165  1.0265
  586TMC3    H1 8745   2.377   0.169   0.199 -0.8729 -0.0029 -1.2815
  586TMC3    H2 8746   2.476   4.528   0.034 -0.8759  1.0081 -0.7442
  586TMC3    C7 8747   2.320   4.736   0.011  0.7067 -0.0379 -0.0327
  586TMC3    C8 8748   2.726   4.563   0.040  0.2238  0.4004  0.6232
  586TMC3    O1 8749   2.201   0.025   0.024  0.0678  0.0650  0.1399
  586TMC3    O2 8750   2.680   4.514  17.690  0.4006  0.0280  0.1875
  587TMC3    C1 8751   0.047   3.831  16.380  0.3292  0.1569 -0.2226
  587TMC3    C2 8752   0.031   3.969  16.375  0.6005 -0.3940 -0.5526
  587TMC3    C3 8753   0.142   4.044  16.359  0.8002  0.4077 -0.3512
  587TMC3    C4 8754   0.173   3.773  16.389 -0.5585  0.1037 -0.2310
  587TMC3    C5 8755   0.281   3.851  16.350 -0.2222 -0.0391  0.1407
  587TMC3    C6 8756   0.258   3.989  16.332  0.5358 -1.2031  0.8414
  587TMC3     C 8757   4.667   3.748  16.377 -0.3048  0.5114  0.1174
  587TMC3     O 8758   4.678   3.638  16.426 -0.1667 -0.8095 -0.7025
  587TMC3     H 8759   4.671   4.013  16.389 -0.4252 -2.0835 -2.4051
  587TMC3    H1 8760   0.190   3.670  16.419 -1.2241 -0.1142 -0.5994
  587TMC3    H2 8761   0.338   4.054  16.302 -0.2914 -0.8420 -0.5542
  587TMC3    C7 8762   0.411   3.795  16.320 -0.2073  1.2870  0.2782
  587TMC3    C8 8763   0.125   4.179  16.314  0.8389 -0.4677 -0.3077
  587TMC3    O1 8764   0.509   3.867  16.315  0.0666 -0.1738  0.1690
  587TMC3    O2 8765   0.179   4.216  16.209 -0.2743  0.1861 -0.0627
  588TMC3    C1 8766   2.113   2.371   9.943  0.1250  0.1627 -0.1422
  588TMC3    C2 8767   2.052   2.248   9.912  0.9121  0.2830  0.2789
  588TMC3    C3 8768   2.076   2.149  10.000 -0.4922  0.0240 -0.1275
  588TMC3    C4 8769   2.192   2.390  10.053 -0.1951  0.9359 -0.1701
  588TMC3    C5 8770   2.207   2.288  10.142 -0.2060  0.4255 -0.0704
  588TMC3    C6 8771   2.154   2.165  10.113 -0.2673 -0.1955  0.1788
  588TMC3     C 8772   2.110   2.480   9.845 -1.0161  0.5715 -0.2556
  588TMC3     O 8773   2.087   2.446   9.731 -1.0061 -0.0555  0.5518
  588TMC3     H 8774   1.991   2.245   9.822  0.8314  0.9570  0.3064
  588TMC3    H1 8775   2.243   2.484  10.074  0.7121  0.6178 -0.9673
  588TMC3    H2 8776   2.161   2.089  10.191  1.9093  0.9492  1.0966
  588TMC3    C7 8777   2.289   2.305  10.265  0.3694  0.3402  0.5877
  588TMC3    C8 8778   2.013   2.022   9.978  0.1616 -0.3106  0.0515
  588TMC3    O1 8779   2.355   2.209  10.297 -0.4975 -0.3729  0.7533
  588TMC3    O2 8780   1.927   2.032   9.898 -0.4623  0.1025  0.6063
  589TMC3    C1 8781   1.864   4.277   1.155 -0.0188 -0.6872 -0.2492
  589TMC3    C2 8782   1.984   4.337   1.171 -0.1532  0.0004 -0.7682
  589TMC3    C3 8783   2.099   4.261   1.164 -0.3255 -0.5564  0.5494
  589TMC3    C4 8784   1.852   4.144   1.134 -0.5135  0.3647 -0.0899
  589TMC3    C5 8785   1.972   4.072   1.116  0.1145  0.9583 -0.3955
  589TMC3    C6 8786   2.095   4.131   1.126  0.6526  0.1590 -0.1961
  589TMC3     C 8787   1.756   4.353   1.208 -0.1118 -0.5853  0.0635
  589TMC3     O 8788   1.642   4.308   1.219  0.3633  0.0007  0.1979
  589TMC3     H 8789   2.003   4.443   1.174  1.5919 -0.2739 -2.0946
  589TMC3    H1 8790   1.753   4.100   1.128  1.2893 -3.8183  0.9166
  589TMC3    H2 8791   2.186   4.080   1.097  2.5691  2.8053  1.1788
  589TMC3    C7 8792   1.972   3.967   1.018 -0.4920  0.4573  0.4163
  589TMC3    C8 8793   2.206   4.299   1.258 -0.8046 -0.1979  0.0157
  589TMC3    O1 8794   2.079   3.910   1.006 -0.3295  0.0925 -0.1999
  589TMC3    O2 8795   2.170   4.363   1.355 -0.0975  0.0776 -0.0217
  590MPD2     C 8796   1.168   2.733  16.536 -0.1736  0.0675  0.9276
  590MPD2    C1 8797   1.100   2.709  16.423 -0.4934 -0.0988  0.8479
  590MPD2    C2 8798   1.151   2.760  16.306  0.7773 -0.1301 -0.1596
  590MPD2    C3 8799   1.254   2.848  16.302  0.5102 -0.8982  0.1076
  590MPD2    C4 8800   1.326   2.864  16.418 -1.1203 -0.2397 -1.0493
  590MPD2    C5 8801   1.288   2.797  16.529 -0.6250 -0.0112 -0.2191
  590MPD2     H 8802   1.086   2.749  16.219  0.5426  0.8984 -0.1145
  590MPD2    H1 8803   1.408   2.933  16.436 -1.7640  0.5441 -1.1234
  590MPD2    H2 8804   1.140   2.693  16.633 -1.1482 -0.9095  0.2418
  590MPD2    H3 8805   1.351   2.809  16.616 -0.7697 -0.4768 -0.0457
  590MPD2     N 8806   1.274   2.919  16.184  0.2002  0.8903  0.2475
  590MPD2    H5 8807   1.209   2.904  16.107  1.2347  1.6975 -0.7926
  590MPD2    N1 8808   0.982   2.635  16.442 -0.4703 -0.2941 -0.4524
  590MPD2    H7 8809   0.946   2.609  16.533  1.0252 -1.4384 -0.1826
  591TMC3    C1 8810   1.364   3.082  16.041  0.2545 -0.3706  0.1388
  591TMC3    C2 8811   1.292   3.026  15.937  0.6176 -0.4593 -0.1430
  591TMC3    C3 8812   1.286   3.107  15.828  0.1104 -0.6804 -0.4751
  591TMC3    C4 8813   1.427   3.204  16.034 -0.4055  0.0365 -0.3518
  591TMC3    C5 8814   1.419   3.270  15.919  0.0729  0.4406 -0.6078
  591TMC3    C6 8815   1.348   3.230  15.813  0.7044 -0.1113  0.2317
  591TMC3     C 8816   1.379   3.013  16.163 -0.1398  0.0260  0.1144
  591TMC3     O 8817   1.471   3.044  16.239  0.3051  0.5490  0.6253
  591TMC3     H 8818   1.262   2.922  15.930 -2.0140  0.1789  1.8751
  591TMC3    H1 8819   1.495   3.236  16.112  0.6805 -0.2393 -1.1861
  591TMC3    H2 8820   1.328   3.293  15.727  0.3529  0.6151  0.8442
  591TMC3    C7 8821   1.520   3.372  15.887 -0.0031 -0.2616  0.1425
  591TMC3    C8 8822   1.244   3.048  15.701 -0.7884  0.6884  0.7005
  591TMC3    O1 8823   1.574   3.438  15.976  0.1974  0.1767 -0.4232
  591TMC3    O2 8824   1.289   3.085  15.594 -0.1174  0.2515 -0.8510
  592MPD2     C 8825   1.247   4.610  11.314 -0.3555 -0.6762 -0.7825
  592MPD2    C1 8826   1.200   4.681  11.425  0.3559 -0.1797  0.4490
  592MPD2    C2 8827   1.078   4.633  11.480 -0.1968 -0.4684 -0.1558
  592MPD2    C3 8828   1.002   4.537  11.412 -0.6278  0.3208  0.5149
  592MPD2    C4 8829   1.043   4.476  11.294  0.0651  0.4677  0.1971
  592MPD2    C5 8830   1.161   4.519  11.243 -0.4395 -0.2687  0.0835
  592MPD2     H 8831   1.026   4.684  11.561 -1.5344 -3.7463  1.0491
  592MPD2    H1 8832   0.973   4.417  11.235  2.0377 -2.1971  0.5419
  592MPD2    H2 8833   1.336   4.630  11.257 -1.2048 -0.7736 -2.1527
  592MPD2    H3 8834   1.197   4.475  11.151  0.0455  1.4658 -0.5604
  592MPD2     N 8835   0.891   4.494  11.483  0.5195 -0.2318  0.0240
  592MPD2    H5 8836   0.883   4.531  11.577  1.4383  0.1847 -0.0560
  592MPD2    N1 8837   1.267   0.059  11.479 -0.0480 -0.1871  0.2853
  592MPD2    H7 8838   1.333   0.107  11.419 -3.2882  2.0261 -1.4783
  593TMC3    C1 8839   1.286   0.235  11.640 -0.4282 -0.1225 -0.6410
  593TMC3    C2 8840   1.282   0.259  11.776  0.7641  0.0276  0.0103
  593TMC3    C3 8841   1.337   0.382  11.810  0.0564  0.2683 -0.5017
  593TMC3    C4 8842   1.328   0.320  11.539 -0.9056  0.4231 -0.2620
  593TMC3    C5 8843   1.404   0.422  11.590  0.2092  1.1595  0.7017
  593TMC3    C6 8844   1.403   0.460  11.718  0.0746  0.7243  0.4700
  593TMC3     C 8845   1.228   0.110  11.604  0.1455  0.4984  0.1201
  593TMC3     O 8846   1.160   0.067  11.698  0.2446 -0.2857  0.3459
  593TMC3     H 8847   1.239   0.196  11.853  1.3974 -0.5995 -0.1485
  593TMC3    H1 8848   1.332   0.300  11.433 -1.2382 -0.2945 -0.1341
  593TMC3    H2 8849   1.458   0.550  11.743  1.6523 -0.2919  0.7133
  593TMC3    C7 8850   1.453   0.527  11.496  0.1981  0.4940 -0.1644
  593TMC3    C8 8851   1.335   0.415  11.952  0.1452  0.5293 -0.7967
  593TMC3    O1 8852   1.466   0.638  11.538 -0.0972 -0.3178 -0.4837
  593TMC3    O2 8853   1.233   0.412  12.017 -0.3282 -0.1866 -0.2888
  594MPD2     C 8854   4.544   2.974  13.770  0.0376 -0.3286 -0.5280
  594MPD2    C1 8855   4.563   2.991  13.906 -0.4924 -0.2131 -0.6847
  594MPD2    C2 8856   4.681   3.046  13.941 -0.6250  0.2032  0.0958
  594MPD2    C3 8857   0.039   3.096  13.854  0.4852  0.0552 -0.2486
  594MPD2    C4 8858   0.009   3.093  13.721  0.2070 -0.5747 -0.2428
  594MPD2    C5 8859   4.634   3.034  13.682 -0.4678  0.4203  0.2793
  594MPD2     H 8860   4.713   3.042  14.045  1.3022  0.8857 -0.4698
  594MPD2    H1 8861   0.075   3.139  13.647  0.1721 -1.1473 -0.6278
  594MPD2    H2 8862   4.450   2.943  13.725 -0.3180  0.9363 -0.6652
  594MPD2    H3 8863   4.613   3.028  13.576  0.4594 -2.0166  0.2358
  594MPD2     N 8864   0.154   3.163  13.902 -0.8327 -0.2004  0.0235
  594MPD2    H5 8865   0.168   3.153  14.002  0.0454 -0.0792 -0.0918
  594MPD2    N1 8866   4.462   2.930  13.992  0.0027 -0.1517 -0.6044
  594MPD2    H7 8867   4.384   2.878  13.952  0.7845 -3.2226  1.8671
  595TMC3    C1 8868   0.538   3.427  13.917 -0.1396 -1.0999  0.1269
  595TMC3    C2 8869   0.453   3.349  13.839 -0.1852  0.3134 -0.1741
  595TMC3    C3 8870   0.352   3.288  13.911  0.1627  0.2290 -0.6732
  595TMC3    C4 8871   0.517   3.448  14.050 -0.7316 -0.1673  0.1460
  595TMC3    C5 8872   0.423   3.379  14.115  0.1019 -0.5318 -0.0198
  595TMC3    C6 8873   0.330   3.299  14.047 -0.0228  0.4518  0.9699
  595TMC3     C 8874   0.670   3.456  13.870 -0.2439 -0.1189 -0.3635
  595TMC3     O 8875   0.746   3.486  13.955 -0.2106  0.1295  0.4736
  595TMC3     H 8876   0.469   3.316  13.737 -0.8076 -2.5556  0.6509
  595TMC3    H1 8877   0.593   3.506  14.101  1.3360 -2.0353 -0.7883
  595TMC3    H2 8878   0.240   3.267  14.098 -0.9799 -0.5684 -1.3577
  595TMC3    C7 8879   0.386   3.427  14.246  0.3006 -1.0979  0.8410
  595TMC3    C8 8880   0.258   3.223  13.826  0.2639  0.0997 -0.2999
  595TMC3    O1 8881   0.266   3.420  14.275 -0.6558 -0.0006 -0.3254
  595TMC3    O2 8882   0.258   3.254  13.707  0.0927 -0.4951  0.9883
  596MPD2     C 8883   4.263   1.379  16.512  0.7976 -0.3392  0.0806
  596MPD2    C1 8884   4.253   1.485  16.423 -0.0869  0.8294 -1.3799
  596MPD2    C2 8885   4.257   1.464  16.288  0.5963  1.0083  0.4016
  596MPD2    C3 8886   4.252   1.329  16.239 -0.3577 -0.8661 -0.2214
  596MPD2    C4 8887   4.259   1.230  16.336 -0.4058 -0.3640  0.0754
  596MPD2    C5 8888   4.264   1.251  16.472 -0.0373  0.1791  0.2372
  596MPD2     H 8889   4.252   1.548  16.220 -1.1716 -0.5433 -1.4018
  596MPD2    H1 8890   4.256   1.125  16.308  0.1843 -0.4177  0.2096
  596MPD2    H2 8891   4.262   1.395  16.620  0.5919 -4.4576  0.6839
  596MPD2    H3 8892   4.264   1.170  16.544 -0.8538 -1.3899 -1.5371
  596MPD2     N 8893   4.243   1.292  16.111  0.5965 -0.3000 -0.3553
  596MPD2    H5 8894   4.256   1.194  16.089 -1.2389 -0.8449  0.9227
  596MPD2    N1 8895   4.231   1.621  16.454 -0.7833 -0.4385  0.2550
  596MPD2    H7 8896   4.224   1.682  16.373  1.6513 -1.3371 -0.6229
  597TMC3    C1 8897   4.150   1.805  16.568  0.2013  0.1717  0.5252
  597TMC3    C2 8898   4.177   1.888  16.465  0.3673 -1.0057  0.2176
  597TMC3    C3 8899   4.141   2.018  16.462 -0.1074  0.8549 -0.3160
  597TMC3    C4 8900   4.088   1.854  16.676 -0.1427  0.0747  0.3392
  597TMC3    C5 8901   4.059   1.988  16.679 -0.0568  0.0731  0.0363
  597TMC3    C6 8902   4.082   2.073  16.570 -0.3618  0.0841 -0.4805
  597TMC3     C 8903   4.187   1.671  16.575  0.7236  0.0873  0.1752
  597TMC3     O 8904   4.158   1.613  16.680  0.4324 -0.0092 -0.1319
  597TMC3     H 8905   4.222   1.854  16.372 -0.1251  0.7597 -0.6696
  597TMC3    H1 8906   4.068   1.789  16.761  1.1667  2.6963  2.6667
  597TMC3    H2 8907   4.077   2.181  16.574 -1.6517  0.0183 -0.2750
  597TMC3    C7 8908   3.965   2.037  16.778 -0.4796  0.3146  0.5037
  597TMC3    C8 8909   4.207   2.104  16.357 -0.1812 -0.3013 -0.4059
  597TMC3    O1 8910   3.936   1.947  16.858  1.0681 -0.2288 -0.0733
  597TMC3    O2 8911   4.311   2.054  16.310  0.2609 -0.1751 -0.0173
  598TMC3    C1 8912   2.073   2.812  14.807  0.6844  0.3721 -0.0212
  598TMC3    C2 8913   1.965   2.729  14.776  0.0533  0.0352 -0.1977
  598TMC3    C3 8914   1.907   2.751  14.655 -0.4124  0.4612 -0.2460
  598TMC3    C4 8915   2.112   2.915  14.726 -0.1067 -0.4491 -1.0904
  598TMC3    C5 8916   2.056   2.920  14.604 -0.5355  0.1914 -0.1793
  598TMC3    C6 8917   1.953   2.840  14.568  0.5679 -0.1677  0.1081
  598TMC3     C 8918   2.137   2.807  14.927 -0.0899 -0.5782  0.2542
  598TMC3     O 8919   2.242   2.869  14.933  0.1002  0.4166 -0.1555
  598TMC3     H 8920   1.919   2.664  14.850 -0.6973 -0.4243 -1.0763
  598TMC3    H1 8921   2.202   2.974  14.742  0.2805 -1.8596  1.9330
  598TMC3    H2 8922   1.907   2.841  14.470  0.3986  1.2385  0.1933
  598TMC3    C7 8923   2.081   3.026  14.510  0.2419  0.3147 -0.1693
  598TMC3    C8 8924   1.823   2.636  14.608 -0.5001  0.2707 -0.0773
  598TMC3    O1 8925   2.036   3.016  14.399 -0.8551 -0.1721 -0.0294
  598TMC3    O2 8926   1.767   2.581  14.702  0.2719  0.0163 -0.0637
  599MPD2     C 8927   2.142   4.628  15.619  0.0345 -0.5377  0.1989
  599MPD2    C1 8928   2.215   4.691  15.722 -0.2910 -1.0282  0.4530
  599MPD2    C2 8929   2.150   0.042  15.798  0.4547 -0.3247  0.8520
  599MPD2    C3 8930   2.018   0.074  15.783 -0.0607  0.0482 -0.0426
  599MPD2    C4 8931   1.952   0.012  15.675 -0.2799 -0.0959  0.8826
  599MPD2    C5 8932   2.010   4.661  15.600  0.7014 -0.7068 -0.2247
  599MPD2     H 8933   2.202   0.103  15.871  0.5607  0.1242  0.3974
  599MPD2    H1 8934   1.848   0.038  15.655 -0.7367 -2.5471  0.1611
  599MPD2    H2 8935   2.188   4.562  15.546  1.4986 -0.7108  1.2740
  599MPD2    H3 8936   1.957   4.612  15.518 -1.1472  0.1845  0.4435
  599MPD2     N 8937   1.955   0.172  15.856  0.0517  0.2554  0.5262
  599MPD2    H5 8938   1.861   0.190  15.821  0.5120 -1.1752 -1.4826
  599MPD2    N1 8939   2.344   4.642  15.732  0.3840  0.1700 -0.3394
  599MPD2    H7 8940   2.359   4.562  15.672 -0.0024 -1.8013  2.1778
  600TMC3    C1 8941   1.899   0.331  16.009 -0.4678 -0.3134  0.1816
  600TMC3    C2 8942   1.768   0.298  16.007  0.0580  0.1719  0.8015
  600TMC3    C3 8943   1.683   0.388  16.059 -0.2922  0.1044  0.7176
  600TMC3    C4 8944   1.946   0.448  16.063 -0.0804 -0.4731 -0.1282
  600TMC3    C5 8945   1.850   0.545  16.108 -0.6296  0.8721 -0.4229
  600TMC3    C6 8946   1.718   0.511  16.105  0.4670 -0.2538 -0.1890
  600TMC3     C 8947   2.002   0.241  15.963  0.2178  0.2435 -0.6203
  600TMC3     O 8948   2.110   0.234  16.020  0.2458  1.0637 -0.0239
  600TMC3     H 8949   1.741   0.195  15.986  2.8137 -0.6451  1.3311
  600TMC3    H1 8950   2.051   0.475  16.067  0.0250 -0.9380  0.2001
  600TMC3    H2 8951   1.638   0.578  16.134  0.8597  0.1360  0.0014
  600TMC3    C7 8952   1.888   0.662  16.182 -0.3553 -0.3350 -0.0549
  600TMC3    C8 8953   1.570   0.329  16.131  0.1618  0.3205 -0.2441
  600TMC3    O1 8954   1.793   0.738  16.201 -0.3050  0.3384 -0.9811
  600TMC3    O2 8955   1.547   0.381  16.239 -0.6195 -0.3101  0.4994
  601MPD2     C 8956   4.132   4.124  17.711  0.7159  0.2787 -0.2976
  601MPD2    C1 8957   4.036   4.031  17.713  0.1273 -0.6398 -0.4701
  601MPD2    C2 8958   4.032   3.935   0.059  0.2881  0.4509 -0.0604
  601MPD2    C3 8959   4.128   3.932   0.163  0.3325 -0.6776  0.0269
  601MPD2    C4 8960   4.224   4.027   0.158  0.7126  0.4263  0.3364
  601MPD2    C5 8961   4.227   4.118   0.058 -0.7819  0.0163 -0.3267
  601MPD2     H 8962   3.949   3.866   0.066 -1.2732  2.5446  2.1334
  601MPD2    H1 8963   4.288   4.022   0.245 -1.6101 -0.3230  2.0224
  601MPD2    H2 8964   4.135   4.208  17.644 -0.0996  2.2431  2.1200
  601MPD2    H3 8965   4.308   4.190   0.052 -0.4148 -0.3459  0.2541
  601MPD2     N 8966   4.125   3.834   0.277 -0.5055  0.8077  0.0051
  601MPD2    H5 8967   4.208   3.835   0.336 -0.7003  0.8818  0.2737
  601MPD2    N1 8968   3.922   4.048  17.629  0.2407 -0.3119  0.2409
  601MPD2    H7 8969   3.852   3.975  17.629 -1.3584  1.2224 -0.0055
  602TMC3    C1 8970   3.751   4.160  17.480 -0.0676  0.5209  0.2027
  602TMC3    C2 8971   3.694   4.282  17.470  0.0534  0.1203 -0.5669
  602TMC3    C3 8972   3.582   4.289  17.395 -0.6867 -0.5684  0.6497
  602TMC3    C4 8973   3.717   4.045  17.415 -0.1221 -0.5433  0.3460
  602TMC3    C5 8974   3.612   4.068  17.333 -0.5110  0.0390 -0.2757
  602TMC3    C6 8975   3.540   4.182  17.327 -0.1044 -0.1322 -0.0321
  602TMC3     C 8976   3.891   4.158  17.544  0.2297 -0.0552 -0.1218
  602TMC3     O 8977   3.948   4.263  17.546 -0.0336  0.9099  0.7692
  602TMC3     H 8978   3.741   4.364  17.522 -1.2035  0.1957  0.4670
  602TMC3    H1 8979   3.758   3.946  17.433 -0.1595 -0.5109  0.6112
  602TMC3    H2 8980   3.449   4.191  17.268 -0.1218  0.6809  0.1157
  602TMC3    C7 8981   3.574   3.963  17.239  0.9401 -0.3116  0.2876
  602TMC3    C8 8982   3.519   4.419  17.378 -1.2599 -0.2662  0.1795
  602TMC3    O1 8983   3.564   3.848  17.278  0.0016 -0.7542 -0.5506
  602TMC3    O2 8984   3.523   4.498  17.472  0.2135 -0.0189  0.3863
  603TMC3    C1 8985   2.173   4.448  11.185  0.3808 -1.1591  0.1399
  603TMC3    C2 8986   2.174   4.434  11.319  0.0027  0.2951 -0.6423
  603TMC3    C3 8987   2.109   4.536  11.386 -0.5593  0.2952  0.4636
  603TMC3    C4 8988   2.140   4.555  11.116  0.6207 -0.2321  0.6240
  603TMC3    C5 8989   2.073   4.652  11.184 -0.0068 -0.1078 -0.6764
  603TMC3    C6 8990   2.061   4.648  11.321 -0.0947  0.1994 -0.4414
  603TMC3     C 8991   2.230   4.335  11.108 -0.1055 -0.6391  0.0142
  603TMC3     O 8992   2.294   4.369  11.010 -0.5268  0.2867  0.5610
  603TMC3     H 8993   2.205   4.346  11.373  0.6883  1.6878  1.2488
  603TMC3    H1 8994   2.141   4.554  11.008 -1.1413 -0.4460  0.6134
  603TMC3    H2 8995   1.972   4.699  11.357 -0.7655 -0.5017 -1.1067
  603TMC3    C7 8996   2.050   0.036  11.116  0.3224  1.1523 -0.2884
  603TMC3    C8 8997   2.039   4.494  11.508  0.6396 -0.5867  0.1320
  603TMC3    O1 8998   2.080   0.137  11.184 -0.0672  0.9616 -0.1723
  603TMC3    O2 8999   2.059   4.380  11.545  0.3611  0.2634 -0.3079
  604MPD2     C 9000   3.230   3.089  15.614  0.1213 -0.2193  0.9608
  604MPD2    C1 9001   3.150   2.997  15.680 -0.4223  0.5240 -0.4825
  604MPD2    C2 9002   3.134   2.873  15.623  0.1615 -0.0801  0.6643
  604MPD2    C3 9003   3.218   2.830  15.528 -0.1522  0.3014  0.5165
  604MPD2    C4 9004   3.307   2.916  15.465  0.5792 -0.2382 -0.0063
  604MPD2    C5 9005   3.302   3.047  15.505 -0.1212 -0.5010 -0.4545
  604MPD2     H 9006   3.077   2.792  15.668 -1.3341  1.0822  0.8363
  604MPD2    H1 9007   3.381   2.889  15.391 -0.4614  0.7242 -1.4080
  604MPD2    H2 9008   3.243   3.189  15.654  0.2197  0.1714 -0.0458
  604MPD2    H3 9009   3.372   3.118  15.461 -0.9453  0.6476  0.1094
  604MPD2     N 9010   3.205   2.694  15.487 -0.0161  0.6817 -0.1314
  604MPD2    H5 9011   3.136   2.628  15.522 -0.9148  1.1103 -1.1258
  604MPD2    N1 9012   3.078   3.054  15.787  0.0266  0.3567  0.1296
  604MPD2    H7 9013   3.109   3.147  15.815  1.0234  1.2137 -3.8913
  605TMC3    C1 9014   2.919   3.092  15.944  0.5144 -0.0293 -0.9368
  605TMC3    C2 9015   3.006   3.157  16.021  0.4805  0.1299 -0.4676
  605TMC3    C3 9016   2.956   3.249  16.112 -0.2520 -0.2177 -0.1951
  605TMC3    C4 9017   2.782   3.090  15.964 -0.1588  0.3140 -0.1550
  605TMC3    C5 9018   2.736   3.171  16.063 -0.5860  0.1983  0.4870
  605TMC3    C6 9019   2.817   3.258  16.131 -0.1769  0.0211  0.0668
  605TMC3     C 9020   2.974   2.997  15.854 -0.2719  0.0292 -0.3169
  605TMC3     O 9021   2.918   2.889  15.836 -0.2825 -0.0495  0.3365
  605TMC3     H 9022   3.113   3.153  16.002  0.2272 -0.3518 -1.7181
  605TMC3    H1 9023   2.721   3.014  15.917  1.2787  0.9649 -3.0930
  605TMC3    H2 9024   2.787   3.324  16.211  0.1084  0.5340 -0.2548
  605TMC3    C7 9025   2.591   3.187  16.063 -0.2010 -0.1532 -0.5061
  605TMC3    C8 9026   3.056   3.300  16.210  0.2397  0.2450  0.3649
  605TMC3    O1 9027   2.527   3.164  15.960  1.3729  0.1628  0.1394
  605TMC3    O2 9028   3.161   3.232  16.212  0.0674  0.2238 -0.3229
  606TMC3    C1 9029   4.350   1.816  17.084 -0.3882 -0.0312  0.1798
  606TMC3    C2 9030   4.422   1.786  17.202  0.3432  0.3481 -0.5103
  606TMC3    C3 9031   4.524   1.696  17.193  0.3877 -0.0479 -0.5392
  606TMC3    C4 9032   4.370   1.753  16.966  0.2613 -0.0688  0.7364
  606TMC3    C5 9033   4.474   1.656  16.971 -0.2000  1.0395 -0.0677
  606TMC3    C6 9034   4.546   1.628  17.081 -0.1575 -0.5296 -0.3471
  606TMC3     C 9035   4.243   1.915  17.103 -0.1566 -0.2246  0.7750
  606TMC3     O 9036   4.198   1.977  17.008  0.1650  0.2156 -0.3392
  606TMC3     H 9037   4.415   1.837  17.297  1.9470  1.1245 -0.7996
  606TMC3    H1 9038   4.332   1.795  16.874 -1.5570  1.0270  1.9967
  606TMC3    H2 9039   4.626   1.556  17.079  0.4167  0.1853 -3.2416
  606TMC3    C7 9040   4.470   1.553  16.871  0.2898 -0.0942 -0.5301
  606TMC3    C8 9041   4.578   1.631  17.315  0.0707  0.3460 -0.1566
  606TMC3    O1 9042   4.454   1.581  16.749 -0.2694 -0.4213  0.6962
  606TMC3    O2 9043   4.677   1.565  17.289  0.4693 -0.5963  0.1566
  607MPD2     C 9044   1.043   4.212  11.569  0.0049 -0.0369  0.7165
  607MPD2    C1 9045   1.088   4.262  11.690  0.3556 -0.5842 -0.2863
  607MPD2    C2 9046   1.019   4.227  11.800 -0.2591 -0.3013 -0.3203
  607MPD2    C3 9047   0.919   4.143  11.796  0.3046 -0.1419 -0.2687
  607MPD2    C4 9048   0.887   4.075  11.682 -0.1254 -1.1053 -0.1250
  607MPD2    C5 9049   0.958   4.108  11.574 -0.1892  1.1087  0.8649
  607MPD2     H 9050   1.047   4.269  11.896  0.9201  0.8454 -1.1710
  607MPD2    H1 9051   0.810   4.001  11.666 -0.8572 -0.5752  0.9506
  607MPD2    H2 9052   1.097   4.231  11.477 -0.1788  0.7224  0.7615
  607MPD2    H3 9053   0.944   4.047  11.486  0.5007  0.5602  1.1408
  607MPD2     N 9054   0.846   4.122  11.917  0.6607  0.2087 -0.0846
  607MPD2    H5 9055   0.869   4.182  11.995  2.3905 -1.2142  0.4866
  607MPD2    N1 9056   1.195   4.350  11.711 -0.7494  0.0635  0.2189
  607MPD2    H7 9057   1.204   4.397  11.800  1.6646 -1.5593  0.8345
  608TMC3    C1 9058   1.403   4.456  11.684 -0.2558  0.1815 -0.0734
  608TMC3    C2 9059   1.414   4.434  11.817 -0.7619  0.0835 -0.2103
  608TMC3    C3 9060   1.498   4.517  11.888  0.3735 -0.0075 -0.1625
  608TMC3    C4 9061   1.452   4.568  11.624 -0.2401  0.2743 -0.2792
  608TMC3    C5 9062   1.539   4.647  11.698  0.0551 -0.2690 -0.3394
  608TMC3    C6 9063   1.561   4.625  11.833  0.2416 -1.0763 -0.3381
  608TMC3     C 9064   1.284   4.388  11.619 -0.0384  0.0524  0.0015
  608TMC3     O 9065   1.299   4.354  11.504 -0.0673  0.0208  0.9942
  608TMC3     H 9066   1.397   4.339  11.865  3.9138 -0.4093  0.5247
  608TMC3    H1 9067   1.446   4.580  11.517  0.4424 -2.5112 -0.6330
  608TMC3    H2 9068   1.623   4.689  11.894 -1.4828 -1.2176  1.5716
  608TMC3    C7 9069   1.609   0.016  11.624  0.4003  0.4811 -0.0674
  608TMC3    C8 9070   1.489   4.517  12.035 -0.5232  0.6549 -0.3359
  608TMC3    O1 9071   1.615   0.007  11.505  0.0578  0.0592 -0.3278
  608TMC3    O2 9072   1.562   4.596  12.102  0.0431 -0.2943  0.4375
  609TMC3    C1 9073   4.022   3.190   8.993  0.0619  0.0424  0.2935
  609TMC3    C2 9074   4.014   3.241   8.867 -0.4015  0.0887  0.1923
  609TMC3    C3 9075   4.135   3.232   8.796 -0.6042 -0.2767 -0.1143
  609TMC3    C4 9076   4.135   3.132   9.054 -0.9368 -0.1811 -0.2029
  609TMC3    C5 9077   4.245   3.126   8.981  0.9399 -0.4244 -0.2788
  609TMC3    C6 9078   4.254   3.177   8.851 -0.4085 -0.3194 -0.3208
  609TMC3     C 9079   3.918   3.214   9.091  0.0191  0.2913  0.5105
  609TMC3     O 9080   3.910   3.137   9.187  0.4739  0.3179 -0.2877
  609TMC3     H 9081   3.926   3.290   8.827  0.1118  0.6592 -0.2447
  609TMC3    H1 9082   4.129   3.082   9.150  0.6212 -1.3873 -0.7397
  609TMC3    H2 9083   4.343   3.159   8.791  1.8744  0.2576  2.8820
  609TMC3    C7 9084   4.367   3.088   9.054 -0.2778 -0.4120  0.4609
  609TMC3    C8 9085   4.137   3.248   8.649 -0.0519  0.0315  0.6644
  609TMC3    O1 9086   4.374   3.110   9.175  0.1830  0.4608 -0.2927
  609TMC3    O2 9087   4.249   3.262   8.606  0.1241  0.3407  0.3521
  610TMC3    C1 9088   1.755   4.400  12.610 -0.1415 -0.4958 -0.7450
  610TMC3    C2 9089   1.857   4.456  12.542 -0.5362  0.1226 -0.1775
  610TMC3    C3 9090   1.949   4.366  12.488 -1.1735 -1.3341  0.6392
  610TMC3    C4 9091   1.748   4.264  12.643  0.3534 -0.3352 -0.0701
  610TMC3    C5 9092   1.853   4.183  12.593 -0.2025  0.8813  1.3794
  610TMC3    C6 9093   1.952   4.231  12.519  0.1147  0.1848  0.2495
  610TMC3     C 9094   1.642   4.483  12.655 -0.5186 -0.3798  0.1197
  610TMC3     O 9095   1.638   4.597  12.600  0.3051  0.0175  0.3174
  610TMC3     H 9096   1.870   4.561  12.516 -2.6699  0.4288  0.0149
  610TMC3    H1 9097   1.658   4.219  12.684  1.5715 -1.9975  0.7825
  610TMC3    H2 9098   2.032   4.162  12.494 -0.8053 -0.0965 -2.0166
  610TMC3    C7 9099   1.871   4.051  12.648 -0.5561 -0.4955 -0.3531
  610TMC3    C8 9100   2.064   4.429  12.418 -0.1768 -0.6507  0.4239
  610TMC3    O1 9101   1.946   3.975  12.589 -0.1704 -0.3281  0.0123
  610TMC3    O2 9102   2.153   4.348  12.405  0.3586  0.7104 -0.3305
  611MPD2     C 9103   1.199   4.409  10.471 -0.0441 -0.0898 -0.2391
  611MPD2    C1 9104   1.150   4.535  10.432 -0.2983  0.3269 -0.3514
  611MPD2    C2 9105   1.237   4.636  10.390 -1.0320 -0.0683  0.9506
  611MPD2    C3 9106   1.372   4.610  10.401 -0.0885 -0.5652 -0.6050
  611MPD2    C4 9107   1.424   4.488  10.437  0.3267 -0.3844  0.8099
  611MPD2    C5 9108   1.339   4.388  10.465  0.1851 -0.8059 -0.0101
  611MPD2     H 9109   1.205   4.734  10.357  0.0178 -0.6075 -1.6886
  611MPD2    H1 9110   1.532   4.485  10.450  0.2529 -0.2105  1.4323
  611MPD2    H2 9111   1.127   4.337  10.510  2.2446 -1.4629  1.4738
  611MPD2    H3 9112   1.378   4.292  10.495  0.2578 -1.0307 -0.8322
  611MPD2     N 9113   1.472   4.703  10.349  0.1769 -0.5863 -0.7722
  611MPD2    H5 9114   1.564   4.661  10.353  0.2232 -0.4827 -0.7619
  611MPD2    N1 9115   1.011   4.544  10.432 -0.0515 -0.2706 -0.0856
  611MPD2    H7 9116   0.971   4.460  10.473 -1.4927  0.0479 -0.8405
  612TMC3    C1 9117   1.585   0.158  10.275  0.9410 -0.6813  0.8138
  612TMC3    C2 9118   1.693   0.121  10.348  0.1978  0.0440  0.4108
  612TMC3    C3 9119   1.814   0.175  10.319 -0.0113 -0.3047  0.4255
  612TMC3    C4 9120   1.594   0.244  10.165  0.5833 -0.2622  0.0572
  612TMC3    C5 9121   1.716   0.293  10.143  0.1501  0.2390 -0.2004
  612TMC3    C6 9122   1.829   0.266  10.213  0.8173 -0.2093  0.1412
  612TMC3     C 9123   1.455   0.095  10.311  0.0851  0.7872  0.2040
  612TMC3     O 9124   1.352   0.160  10.281  0.6734  0.5953  0.0723
  612TMC3     H 9125   1.672   0.064  10.438  1.6054  0.6135  1.0906
  612TMC3    H1 9126   1.506   0.281  10.114  2.0366  3.9014  0.5909
  612TMC3    H2 9127   1.926   0.303  10.181  0.2135  0.3194 -1.0621
  612TMC3    C7 9128   1.732   0.367  10.022  0.4104  0.4419  0.0994
  612TMC3    C8 9129   1.900   0.221  10.427 -0.1849 -0.2416 -0.3338
  612TMC3    O1 9130   1.648   0.355   9.932  0.2910  0.2741 -0.4537
  612TMC3    O2 9131   1.965   0.321  10.405  0.0655  0.2072 -0.7616
  613MPD2     C 9132   0.647   1.537  16.407  0.3635 -0.5341 -0.3643
  613MPD2    C1 9133   0.532   1.530  16.330  0.4716 -0.4307  0.0823
  613MPD2    C2 9134   0.452   1.412  16.341  0.5408 -0.1023 -0.1650
  613MPD2    C3 9135   0.507   1.304  16.413  0.7857 -0.0703 -0.2520
  613MPD2    C4 9136   0.621   1.318  16.485 -0.0420  0.7181  0.1265
  613MPD2    C5 9137   0.687   1.435  16.494  0.3412  0.4236  0.0937
  613MPD2     H 9138   0.356   1.408  16.290  0.6187 -0.8235 -0.2439
  613MPD2    H1 9139   0.660   1.239  16.548 -0.2817 -1.3131 -2.2673
  613MPD2    H2 9140   0.705   1.629  16.403 -0.3762 -0.0126  0.6322
  613MPD2    H3 9141   0.778   1.453  16.551 -0.5175 -4.2948  2.8827
  613MPD2     N 9142   0.461   1.174  16.397  0.3234  0.2523 -0.2891
  613MPD2    H5 9143   0.516   1.102  16.445  0.3386 -0.0721 -0.7975
  613MPD2    N1 9144   0.501   1.630  16.235  0.3848 -0.2152 -0.2269
  613MPD2    H7 9145   0.573   1.699  16.220 -0.6146  1.4774  2.6570
  614TMC3    C1 9146   0.388   1.713  16.054 -0.1608  0.2334 -0.3131
  614TMC3    C2 9147   0.498   1.678  15.979 -0.5492  0.2015  0.1617
  614TMC3    C3 9148   0.485   1.650  15.849  0.7035  0.1251 -0.2577
  614TMC3    C4 9149   0.271   1.739  15.995  0.2551  0.1709  0.0674
  614TMC3    C5 9150   0.262   1.721  15.859 -0.1649 -0.0060  0.4814
  614TMC3    C6 9151   0.366   1.669  15.783  0.2934 -0.1771  0.0317
  614TMC3     C 9152   0.380   1.639  16.170  0.2510 -0.4659 -0.9835
  614TMC3     O 9153   0.265   1.588  16.194 -0.6496 -0.2314 -0.0481
  614TMC3     H 9154   0.598   1.676  16.021 -0.7859  2.4516  0.8403
  614TMC3    H1 9155   0.183   1.775  16.046  1.9707 -1.2631  3.9906
  614TMC3    H2 9156   0.352   1.663  15.675  1.2129 -0.1302 -0.0850
  614TMC3    C7 9157   0.138   1.763  15.792  0.0569 -0.2991 -0.1471
  614TMC3    C8 9158   0.532   1.515  15.840 -0.3053 -0.8813 -0.2142
  614TMC3    O1 9159   0.054   1.822  15.863 -0.6651 -0.2890  0.0822
  614TMC3    O2 9160   0.570   1.466  15.945 -0.0287  0.0383 -0.1417
  615MPD2     C 9161   4.524   3.009  16.100 -0.0896 -0.1846 -0.2061
  615MPD2    C1 9162   4.503   3.085  15.988 -0.1362  0.0585 -0.0320
  615MPD2    C2 9163   4.468   3.013  15.871  0.1338  0.4862 -0.2308
  615MPD2    C3 9164   4.464   2.870  15.861 -0.4956  0.3329  0.8397
  615MPD2    C4 9165   4.498   2.805  15.977 -0.6515 -0.0159 -0.1963
  615MPD2    C5 9166   4.511   2.871  16.105  0.9035 -0.5041  0.1669
  615MPD2     H 9167   4.435   3.064  15.781 -1.0196  1.3838  0.7023
  615MPD2    H1 9168   4.509   2.698  15.976 -1.4246 -0.0786 -2.2741
  615MPD2    H2 9169   4.547   3.052  16.197 -1.1988 -1.7773  0.7684
  615MPD2    H3 9170   4.538   2.812  16.191 -0.3129  1.9100  2.1806
  615MPD2     N 9171   4.440   2.811  15.739  0.2493  0.5059  0.1014
  615MPD2    H5 9172   4.429   2.867  15.655 -0.2501 -0.5669 -0.5589
  615MPD2    N1 9173   4.511   3.228  15.987  0.3117  0.4820  0.6000
  615MPD2    H7 9174   4.480   3.280  15.905  1.2088  1.1459  0.6752
  616TMC3    C1 9175   4.544   3.448  16.066 -0.5602  0.3725  0.5948
  616TMC3    C2 9176   4.653   3.527  16.062  0.3901 -0.4349  0.1176
  616TMC3    C3 9177   4.632   3.658  16.028  0.3161 -0.1620 -0.0648
  616TMC3    C4 9178   4.419   3.485  16.026  0.0629  0.0222  0.4144
  616TMC3    C5 9179   4.401   3.616  16.006  0.0655  0.5251  0.6255
  616TMC3    C6 9180   4.500   3.709  16.017  0.3907 -0.5109 -0.1499
  616TMC3     C 9181   4.570   3.306  16.085  0.0422 -0.4285  0.5375
  616TMC3     O 9182   4.648   3.271  16.173  0.2611  0.0930  0.0929
  616TMC3     H 9183   0.013   3.500  16.094  0.9004  0.3297 -0.7921
  616TMC3    H1 9184   4.342   3.409  16.025 -0.8028  0.8918  1.5358
  616TMC3    H2 9185   4.482   3.815  16.005  1.1550 -0.4528 -0.8248
  616TMC3    C7 9186   4.267   3.664  15.998 -0.5513  0.5211 -0.4190
  616TMC3    C8 9187   0.005   3.760  16.038  0.2947 -0.2216 -0.0360
  616TMC3    O1 9188   4.187   3.574  15.992 -0.1622  0.3681  0.2130
  616TMC3    O2 9189   4.711   3.879  16.032 -0.1594 -0.2000  0.4599
  617MPD2     C 9190   2.530   1.235  13.718  0.6710  0.0380  0.1561
  617MPD2    C1 9191   2.591   1.162  13.810  0.5965 -0.0257  0.4328
  617MPD2    C2 9192   2.521   1.106  13.915 -0.1266  0.4988  0.2273
  617MPD2    C3 9193   2.386   1.129  13.925 -0.7615  0.1356  0.3709
  617MPD2    C4 9194   2.322   1.204  13.827 -0.0842 -0.2519  0.6559
  617MPD2    C5 9195   2.396   1.261  13.719 -0.5480 -0.0755 -0.0412
  617MPD2     H 9196   2.575   1.051  13.991 -0.8533 -1.4656 -0.6620
  617MPD2    H1 9197   2.215   1.213  13.840  0.1728  1.2061  1.8034
  617MPD2    H2 9198   2.575   1.265  13.624  0.5520 -0.4770 -0.0623
  617MPD2    H3 9199   2.344   1.310  13.637  1.0004  1.9985  0.2204
  617MPD2     N 9200   2.299   1.056  14.010  0.2002 -0.4026  0.1407
  617MPD2    H5 9201   2.200   1.073  13.999  0.2218 -0.9906 -0.9919
  617MPD2    N1 9202   2.724   1.119  13.804  0.7334  0.1236  0.1827
  617MPD2    H7 9203   2.757   1.076  13.889  1.3783  2.4063  1.0862
  618TMC3    C1 9204   2.945   1.078  13.739 -0.3056  0.1696  0.3487
  618TMC3    C2 9205   2.953   0.975  13.833 -0.1714 -0.3209  0.0803
  618TMC3    C3 9206   3.077   0.916  13.850  0.2310  0.1754  0.1883
  618TMC3    C4 9207   3.048   1.102  13.648  0.3172  0.6474 -0.3410
  618TMC3    C5 9208   3.162   1.027  13.652 -0.1419 -0.2036 -0.2508
  618TMC3    C6 9209   3.186   0.951  13.767 -0.3013 -0.8052 -0.1073
  618TMC3     C 9210   2.816   1.146  13.705  0.3806  0.3757 -0.1181
  618TMC3     O 9211   2.801   1.187  13.595  0.8066  0.0353 -0.4036
  618TMC3     H 9212   2.870   0.946  13.897 -1.5872  0.4845 -1.3784
  618TMC3    H1 9213   3.032   1.166  13.562  0.6566  0.3730 -0.6137
  618TMC3    H2 9214   3.283   0.902  13.772  0.4761  0.2943 -4.1424
  618TMC3    C7 9215   3.244   1.014  13.529  0.3913 -1.1275 -0.2096
  618TMC3    C8 9216   3.069   0.787  13.903 -0.2218 -0.2836 -0.0033
  618TMC3    O1 9217   3.276   1.120  13.473 -0.0661  0.5934  0.3289
  618TMC3    O2 9218   2.962   0.730  13.908 -0.3393 -0.2927  0.0106
  619MPD2     C 9219   3.773   2.422  13.092 -0.1477  0.7747 -0.1833
  619MPD2    C1 9220   3.639   2.407  13.079  0.0653  0.1248 -0.0167
  619MPD2    C2 9221   3.579   2.303  13.147  0.2468  0.4000 -0.2658
  619MPD2    C3 9222   3.658   2.209  13.213 -0.0069  0.0004 -0.2105
  619MPD2    C4 9223   3.793   2.219  13.219 -0.2099 -0.3411  0.4336
  619MPD2    C5 9224   3.849   2.326  13.154  1.3909 -0.1841 -0.1200
  619MPD2     H 9225   3.471   2.296  13.144  0.3473 -0.8029 -0.9549
  619MPD2    H1 9226   3.868   2.163  13.275  1.1550  2.5702  1.5274
  619MPD2    H2 9227   3.826   2.503  13.042  0.1163  1.0781  0.5906
  619MPD2    H3 9228   3.955   2.351  13.157  0.5669  3.3954 -0.6297
  619MPD2     N 9229   3.613   2.101  13.296  1.0623 -0.4892 -0.1132
  619MPD2    H5 9230   3.680   2.049  13.352 -0.3560 -2.7795 -0.5524
  619MPD2    N1 9231   3.559   2.490  13.006  0.0315 -0.1721 -0.1671
  619MPD2    H7 9232   3.461   2.468  13.023  0.1934 -1.2021 -0.5657
  620TMC3    C1 9233   3.474   2.674  12.889  0.8220 -0.9041 -0.7901
  620TMC3    C2 9234   3.356   2.617  12.931 -0.5989 -0.3396 -1.4434
  620TMC3    C3 9235   3.249   2.690  12.974 -0.5142  0.2632  0.5241
  620TMC3    C4 9236   3.480   2.812  12.882  0.3949  0.2951 -0.7229
  620TMC3    C5 9237   3.369   2.883  12.924  0.5861  0.2533 -0.2181
  620TMC3    C6 9238   3.257   2.827  12.976 -0.4791 -0.3752  0.0414
  620TMC3     C 9239   3.594   2.606  12.939 -0.0495 -0.6151 -0.6948
  620TMC3     O 9240   3.703   2.661  12.923  0.5978  0.3213  0.0807
  620TMC3     H 9241   3.338   2.510  12.924  0.2604 -0.2942 -4.6875
  620TMC3    H1 9242   3.569   2.859  12.842  0.2897 -0.0186 -1.3237
  620TMC3    H2 9243   3.170   2.890  12.992  0.0696  0.5738 -0.7475
  620TMC3    C7 9244   3.391   3.028  12.945 -0.1840 -0.8082 -0.2661
  620TMC3    C8 9245   3.206   2.637  13.101  1.0340  0.6255 -0.3806
  620TMC3    O1 9246   3.469   3.082  12.871  0.1693 -0.0048 -0.4006
  620TMC3    O2 9247   3.279   2.561  13.160 -0.3251 -0.1466  0.2951
  621MPD2     C 9248   4.259   2.797   9.579  0.6152  0.0861 -0.7416
  621MPD2    C1 9249   4.151   2.802   9.486  0.5107 -0.4767 -0.2207
  621MPD2    C2 9250   4.100   2.925   9.448  0.1680 -0.3740 -0.4071
  621MPD2    C3 9251   4.159   3.042   9.485  0.1892  0.5845  0.1979
  621MPD2    C4 9252   4.264   3.044   9.563 -0.5473 -0.2875 -0.6858
  621MPD2    C5 9253   4.298   2.921   9.619  1.1715  0.0289  0.1514
  621MPD2     H 9254   4.006   2.920   9.393  0.8918  2.2085 -1.8536
  621MPD2    H1 9255   4.317   3.132   9.598  2.4852 -1.9575 -1.1379
  621MPD2    H2 9256   4.297   2.707   9.625 -0.1756 -0.2165 -0.6905
  621MPD2    H3 9257   4.374   2.922   9.696  1.3545 -0.1979 -0.0258
  621MPD2     N 9258   4.112   3.158   9.411 -0.2016 -0.4403  0.0978
  621MPD2    H5 9259   4.029   3.149   9.353 -0.4893 -1.5627  0.6552
  621MPD2    N1 9260   4.087   2.687   9.445  0.0459 -0.0541 -0.1295
  621MPD2    H7 9261   3.995   2.692   9.401 -0.4333  0.8909  0.9747
  622TMC3    C1 9262   4.041   2.455   9.406  0.2751  0.3183 -0.0784
  622TMC3    C2 9263   4.043   2.328   9.456  0.3941 -0.0203 -0.0712
  622TMC3    C3 9264   3.994   2.225   9.376 -0.0568  0.2028 -0.5119
  622TMC3    C4 9265   4.014   2.483   9.273 -0.3995 -0.5124  0.5538
  622TMC3    C5 9266   3.975   2.378   9.196  0.0747 -0.1109 -0.2158
  622TMC3    C6 9267   3.964   2.254   9.245  0.8442 -0.1872  0.5445
  622TMC3     C 9268   4.125   2.558   9.468 -0.3693  0.5481  0.5382
  622TMC3     O 9269   4.222   2.513   9.528  0.2107  0.1658  0.0971
  622TMC3     H 9270   4.091   2.317   9.552 -2.5457  0.8668  1.5056
  622TMC3    H1 9271   4.022   2.581   9.227 -1.8064 -0.2091  0.9450
  622TMC3    H2 9272   3.933   2.174   9.179 -0.0408 -1.8424  2.9414
  622TMC3    C7 9273   3.981   2.389   9.051  0.5906  0.5657 -0.0928
  622TMC3    C8 9274   3.965   2.092   9.422  0.8368  0.1779  0.4340
  622TMC3    O1 9275   4.049   2.309   8.986 -0.5873 -0.2592  0.1280
  622TMC3    O2 9276   3.933   1.998   9.349  0.6919  0.2565  0.4033
  623MPD2     C 9277   3.430   3.573  15.594  0.0859  0.3502 -0.9479
  623MPD2    C1 9278   3.365   3.499  15.684  0.1824 -0.1422 -0.0457
  623MPD2    C2 9279   3.435   3.444  15.793 -0.5380 -0.1886 -0.2343
  623MPD2    C3 9280   3.566   3.479  15.815 -0.1489 -0.5390  0.3845
  623MPD2    C4 9281   3.626   3.558  15.725 -0.4539  0.6685  0.1227
  623MPD2    C5 9282   3.559   3.607  15.620 -0.2029 -0.5708 -0.5979
  623MPD2     H 9283   3.382   3.373  15.856  0.4107 -1.1071 -0.4969
  623MPD2    H1 9284   3.727   3.595  15.740  0.2661 -0.9593 -0.7510
  623MPD2    H2 9285   3.365   3.616  15.518  0.8180  3.2468  0.0372
  623MPD2    H3 9286   3.604   3.688  15.564  2.9328 -2.8563 -1.3951
  623MPD2     N 9287   3.613   3.438  15.938 -0.5030 -0.2323  0.2966
  623MPD2    H5 9288   3.552   3.387  16.001 -0.8105  0.3051  0.4403
  623MPD2    N1 9289   3.226   3.490  15.673 -0.5496 -0.2993 -0.5613
  623MPD2    H7 9290   3.171   3.541  15.604 -1.7687 -0.7539  0.0698
  624TMC3    C1 9291   3.866   3.372  16.325  0.3916  0.4648  0.1417
  624TMC3    C2 9292   3.749   3.382  16.401  0.5626  0.2508  0.1492
  624TMC3    C3 9293   3.636   3.422  16.344 -0.6991  0.8927  0.4030
  624TMC3    C4 9294   3.865   3.395  16.187 -0.0754  0.8940 -0.7057
  624TMC3    C5 9295   3.747   3.444  16.133 -0.0943  1.0075  0.5884
  624TMC3    C6 9296   3.635   3.457  16.211  0.1693  0.0553 -0.0175
  624TMC3     C 9297   3.981   3.302  16.393  0.3831  0.4363 -0.2889
  624TMC3     O 9298   3.993   3.298  16.514  0.5880 -0.7645 -0.2717
  624TMC3     H 9299   3.748   3.367  16.509  0.3718 -2.3312 -0.2016
  624TMC3    H1 9300   3.961   3.390  16.137  0.6454  1.1536  0.6473
  624TMC3    H2 9301   3.535   3.477  16.175  0.1425  2.0691  1.1866
  624TMC3    C7 9302   3.737   3.465  15.988  0.2069 -0.9033 -0.1014
  624TMC3    C8 9303   3.507   3.401  16.404 -0.7989 -0.0919  0.0034
  624TMC3    O1 9304   3.825   3.527  15.934  0.2821 -0.1177 -0.2698
  624TMC3    O2 9305   3.471   3.284  16.394 -0.0361  0.5091 -0.3994
  625MPD2     C 9306   4.213   4.410   0.921 -0.1750 -0.4673 -0.2941
  625MPD2    C1 9307   4.251   4.520   0.844 -0.2119  0.9476  0.4498
  625MPD2    C2 9308   4.374   4.519   0.774  0.2508 -0.2739 -0.6599
  625MPD2    C3 9309   4.463   4.417   0.807  0.8848 -0.0405  0.2725
  625MPD2    C4 9310   4.432   4.311   0.887  0.1287  0.6074  0.0500
  625MPD2    C5 9311   4.305   4.309   0.943 -0.4541  0.5956  0.9117
  625MPD2     H 9312   4.395   4.601   0.707 -0.9236  0.9241  0.4401
  625MPD2    H1 9313   4.500   4.229   0.906  0.4025  0.9277  0.4540
  625MPD2    H2 9314   4.114   4.394   0.962  0.3699 -0.6232  0.9619
  625MPD2    H3 9315   4.274   4.225   1.005  0.6609 -0.7066 -0.3115
  625MPD2     N 9316   4.598   4.428   0.742  0.2595 -0.8480  0.4363
  625MPD2    H5 9317   4.605   4.484   0.658 -0.5558 -0.4909  0.6121
  625MPD2    N1 9318   4.168   4.631   0.829  0.2481 -0.0098 -0.6587
  625MPD2    H7 9319   4.186   4.706   0.763 -2.4707  0.8688 -0.4047
  626TMC3    C1 9320   3.999   0.040   0.863  0.6658 -0.1766  0.2521
  626TMC3    C2 9321   3.980   0.076   0.737  0.0831  0.1830  0.4412
  626TMC3    C3 9322   3.914   0.199   0.710 -0.0375 -0.8142  0.2920
  626TMC3    C4 9323   3.966   0.129   0.966  0.3442 -0.0498  0.2518
  626TMC3    C5 9324   3.915   0.251   0.938 -0.9966  0.0802  0.1774
  626TMC3    C6 9325   3.895   0.293   0.808  0.1962 -0.1505 -0.0465
  626TMC3     C 9326   4.054   4.648   0.898 -0.6556 -0.6252  0.0472
  626TMC3     O 9327   4.031   4.611   1.010  0.0363 -0.5245  0.0945
  626TMC3     H 9328   4.002   0.011   0.653 -1.1966 -0.5012  0.6296
  626TMC3    H1 9329   3.992   0.103   1.068  2.3161 -0.9378 -0.4722
  626TMC3    H2 9330   3.878   0.397   0.780 -1.3828 -0.4393 -0.1446
  626TMC3    C7 9331   3.893   0.331   1.048 -0.4411  0.7917  0.7796
  626TMC3    C8 9332   3.862   0.235   0.582 -0.4428  0.4341  0.6193
  626TMC3    O1 9333   3.923   0.307   1.163  0.5492 -0.0022  0.0328
  626TMC3    O2 9334   3.895   0.177   0.478  0.1550 -0.0498  0.0011
  627MPD2     C 9335   1.986   0.038  14.716  0.4718  0.0264  0.2398
  627MPD2    C1 9336   2.087   4.682  14.718  0.1234 -0.7379 -0.0641
  627MPD2    C2 9337   2.068   4.560  14.645 -0.5873  0.6555 -0.2153
  627MPD2    C3 9338   1.958   4.537  14.558 -0.0813 -0.5130 -0.4408
  627MPD2    C4 9339   1.862   4.640  14.553  0.9650 -0.1693 -0.0184
  627MPD2    C5 9340   1.875   0.013  14.638  0.7678  0.1605 -1.0484
  627MPD2     H 9341   2.142   4.480  14.652 -2.8296 -1.2668  1.5036
  627MPD2    H1 9342   1.770   4.626  14.497  0.6946 -1.4667  0.7589
  627MPD2    H2 9343   1.977   0.133  14.768 -4.2597 -0.5675  0.5041
  627MPD2    H3 9344   1.792   0.083  14.642  0.7167  0.1013 -1.0865
  627MPD2     N 9345   1.950   4.416  14.489  1.2713  0.8490  0.1723
  627MPD2    H5 9346   2.024   4.348  14.500 -0.7582 -1.2426  0.8597
  627MPD2    N1 9347   2.205   4.706  14.796 -0.3626  0.1154 -1.0216
  627MPD2    H7 9348   2.280   4.638  14.795 -0.0320  0.4329  1.5872
  628TMC3    C1 9349   2.361   0.075  14.939 -0.1504  0.3301 -0.4068
  628TMC3    C2 9350   2.454   4.722  14.899 -0.3400  0.4572  0.0234
  628TMC3    C3 9351   2.582   0.013  14.913  0.4173  0.1356  0.3849
  628TMC3    C4 9352   2.398   0.193  14.984  0.2258  0.1298  0.3900
  628TMC3    C5 9353   2.527   0.230  14.986  0.3419 -1.1013  0.0733
  628TMC3    C6 9354   2.622   0.139  14.951 -0.0495  0.7548 -0.8524
  628TMC3     C 9355   2.226   0.075  14.876 -0.3735  0.7935  0.2333
  628TMC3     O 9356   2.155   0.171  14.901 -0.1316 -0.2110  0.0667
  628TMC3     H 9357   2.424   4.621  14.875  1.6936  0.1580 -1.3040
  628TMC3    H1 9358   2.321   0.268  15.001  1.2101  0.8578  1.7590
  628TMC3    H2 9359   2.722   0.173  14.924  0.5047 -1.1612 -1.1991
  628TMC3    C7 9360   2.552   0.365  14.955 -0.0879  0.3417 -0.4488
  628TMC3    C8 9361   2.665   4.650  14.848 -0.3668  0.5729 -0.0776
  628TMC3    O1 9362   2.662   0.410  14.987  0.1809 -1.0364  0.6477
  628TMC3    O2 9363   2.606   4.569  14.771 -0.5181 -0.0939  0.1727
  629MPD2     C 9364   0.493   3.882  15.953 -0.0637  0.2766 -0.4832
  629MPD2    C1 9365   0.473   3.746  15.923  0.1794  0.0370  0.6713
  629MPD2    C2 9366   0.354   3.688  15.945  0.2163  0.2608 -0.2598
  629MPD2    C3 9367   0.244   3.760  15.999 -0.1969 -0.1043 -0.2709
  629MPD2    C4 9368   0.265   3.892  16.022 -0.6624  0.0201  0.6820
  629MPD2    C5 9369   0.385   3.954  15.996 -0.3265  0.0159 -0.1437
  629MPD2     H 9370   0.340   3.581  15.930  0.3592  0.0973  0.7829
  629MPD2    H1 9371   0.194   3.955  16.074 -0.1625  0.3777  0.9324
  629MPD2    H2 9372   0.587   3.932  15.936  1.3878 -1.6520  1.8278
  629MPD2    H3 9373   0.403   4.059  16.016 -0.3090 -0.1902  0.9697
  629MPD2     N 9374   0.123   3.694  16.015  0.2402  0.0159 -0.3220
  629MPD2    H5 9375   0.109   3.594  16.003  0.9718 -0.1336  0.0857
  629MPD2    N1 9376   0.586   3.678  15.878  0.8586  0.1840 -0.0583
  629MPD2    H7 9377   0.674   3.723  15.899  0.5017 -0.5409  2.9692
  630TMC3    C1 9378   0.726   3.522  15.775 -0.3085 -0.6298  0.6995
  630TMC3    C2 9379   0.827   3.615  15.759  0.2274  0.4745  0.3567
  630TMC3    C3 9380   0.956   3.580  15.762  0.1472  0.4302 -0.7752
  630TMC3    C4 9381   0.766   3.392  15.785 -0.4558  0.5153 -0.2179
  630TMC3    C5 9382   0.895   3.358  15.810 -0.5129  0.6362  0.4478
  630TMC3    C6 9383   0.990   3.456  15.790 -0.5182  0.4362 -0.2750
  630TMC3     C 9384   0.590   3.556  15.822  0.1987  0.3236  0.3090
  630TMC3     O 9385   0.502   3.485  15.778  0.1482  0.3747 -0.0124
  630TMC3     H 9386   0.798   3.719  15.747 -0.2126  0.1298 -1.5395
  630TMC3    H1 9387   0.692   3.320  15.818  0.9297 -1.3997 -1.2168
  630TMC3    H2 9388   1.095   3.442  15.815 -1.0892 -1.3535  1.1418
  630TMC3    C7 9389   0.919   3.262  15.920 -0.9825 -0.5918  0.2711
  630TMC3    C8 9390   1.023   3.670  15.848 -0.1884 -0.3367 -0.3084
  630TMC3    O1 9391   1.017   3.282  15.988 -0.0282  1.3231 -0.8286
  630TMC3    O2 9392   0.953   3.728  15.932 -0.2748 -0.2652 -0.0426
  631MPD2     C 9393   3.716   3.037  15.302  0.5930  0.2572  0.3733
  631MPD2    C1 9394   3.834   3.087  15.246 -0.3611  0.7492  0.1131
  631MPD2    C2 9395   3.953   3.021  15.240 -0.9399 -0.3482  0.2876
  631MPD2    C3 9396   3.950   2.892  15.288 -0.2293  0.3847 -0.4781
  631MPD2    C4 9397   3.833   2.834  15.331 -0.8422  0.3836  0.1560
  631MPD2    C5 9398   3.717   2.907  15.335  0.0885 -1.2315 -0.0845
  631MPD2     H 9399   4.043   3.048  15.186  1.4810 -2.3282  3.3667
  631MPD2    H1 9400   3.829   2.735  15.373  1.2015  1.0012  1.8239
  631MPD2    H2 9401   3.629   3.099  15.321  1.2106  1.5152 -0.8975
  631MPD2    H3 9402   3.633   2.861  15.386 -1.3816 -2.2811 -3.4850
  631MPD2     N 9403   4.078   2.825  15.303  0.5407 -0.4569 -0.3553
  631MPD2    H5 9404   4.165   2.872  15.280  0.0415  0.9873  0.7789
  631MPD2    N1 9405   3.826   3.217  15.199  0.1852  1.2168 -0.2530
  631MPD2    H7 9406   3.730   3.249  15.185  0.0296  1.4769  1.4035
  632TMC3    C1 9407   3.876   3.428  15.131  0.6558 -0.0871  0.7658
  632TMC3    C2 9408   3.763   3.478  15.191 -0.2078 -0.1503  0.0561
  632TMC3    C3 9409   3.721   3.601  15.150  0.4495  0.0968 -0.1607
  632TMC3    C4 9410   3.963   3.504  15.066  0.1119  0.7233  0.6461
  632TMC3    C5 9411   3.908   3.621  15.025  0.3599 -0.4931 -0.7850
  632TMC3    C6 9412   3.793   3.677  15.069 -0.1130 -0.1489 -0.0840
  632TMC3     C 9413   3.928   3.300  15.172 -0.2660  0.0914  0.0096
  632TMC3     O 9414   4.047   3.281  15.174  0.3885  0.0334  0.1596
  632TMC3     H 9415   3.700   3.420  15.258 -0.0626 -1.1886 -0.6963
  632TMC3    H1 9416   4.059   3.465  15.034 -0.6396  0.7464 -1.5995
  632TMC3    H2 9417   3.760   3.774  15.034  0.4750 -1.2298 -3.6323
  632TMC3    C7 9418   3.957   3.671  14.897  0.3198 -0.3396  0.4040
  632TMC3    C8 9419   3.630   3.671  15.236  0.2733 -0.2952  0.3193
  632TMC3    O1 9420   3.877   3.734  14.833 -0.2250  0.7380  0.8501
  632TMC3    O2 9421   3.523   3.614  15.252 -0.4550 -0.0757 -0.1302
  633MPD2     C 9422   3.757   1.448  17.147 -0.1670  0.1806  0.0731
  633MPD2    C1 9423   3.877   1.414  17.082  0.3832  0.0409  0.2232
  633MPD2    C2 9424   3.954   1.310  17.139  0.1211 -0.7138  0.6674
  633MPD2    C3 9425   3.922   1.248  17.256  0.3666 -0.3820 -0.6318
  633MPD2    C4 9426   3.811   1.283  17.327  0.1227  0.5548  0.7834
  633MPD2    C5 9427   3.735   1.386  17.271 -0.2863  0.1574 -0.4798
  633MPD2     H 9428   4.039   1.269  17.085  1.0520  1.4469  0.5074
  633MPD2    H1 9429   3.780   1.229  17.416  1.6483  0.8805  1.5235
  633MPD2    H2 9430   3.687   1.528  17.124  0.2525 -0.0974 -2.1879
  633MPD2    H3 9431   3.642   1.409  17.321 -0.5876 -2.7465  0.3102
  633MPD2     N 9432   3.986   1.127  17.298  0.0616 -0.2158  0.1790
  633MPD2    H5 9433   3.937   1.066  17.362 -2.3587  2.0835  0.5277
  633MPD2    N1 9434   3.915   1.472  16.958  0.2189  0.0472  0.0619
  633MPD2    H7 9435   3.992   1.430  16.906 -0.9593 -3.9221  1.5071
  634TMC3    C1 9436   3.866   1.569  16.749  0.3457 -0.1730 -0.0585
  634TMC3    C2 9437   3.896   1.452  16.689  0.0115  0.0550 -0.0675
  634TMC3    C3 9438   3.893   1.451  16.548 -0.4546  0.4105  0.3283
  634TMC3    C4 9439   3.828   1.684  16.680 -0.2962 -0.3403  0.4823
  634TMC3    C5 9440   3.835   1.681  16.546 -0.4373 -0.1439  0.3855
  634TMC3    C6 9441   3.859   1.559  16.476 -0.7718 -0.2342  0.4160
  634TMC3     C 9442   3.849   1.571  16.889  0.1674  0.1111  0.5628
  634TMC3     O 9443   3.773   1.648  16.942  0.3462  0.2717  0.5839
  634TMC3     H 9444   3.902   1.363  16.750 -2.0030  0.7676  1.1520
  634TMC3    H1 9445   3.805   1.777  16.730  0.2114 -0.8791  1.7115
  634TMC3    H2 9446   3.862   1.562  16.368 -1.3184  1.5035  0.4516
  634TMC3    C7 9447   3.768   1.784  16.464 -0.6759  0.1512 -0.0405
  634TMC3    C8 9448   3.905   1.321  16.484 -0.3483 -0.3905 -0.5880
  634TMC3    O1 9449   3.788   1.775  16.343 -0.2148 -0.1006  0.3231
  634TMC3    O2 9450   3.935   1.225  16.549  0.7910 -0.0686  0.8960
  635TMC3    C1 9451   4.149   2.648   0.562 -0.7194 -0.6834 -1.0660
  635TMC3    C2 9452   4.265   2.637   0.635  0.1767  0.8939 -0.1868
  635TMC3    C3 9453   4.315   2.507   0.666  0.0792 -0.4768  0.2697
  635TMC3    C4 9454   4.091   2.538   0.504 -0.1587  0.2545  0.1931
  635TMC3    C5 9455   4.131   2.420   0.542  0.3523  0.2133  0.4648
  635TMC3    C6 9456   4.240   2.403   0.618  0.0989 -0.0676 -0.7335
  635TMC3     C 9457   4.100   2.778   0.523  0.9374  0.4638  0.0642
  635TMC3     O 9458   4.151   2.871   0.590  0.2236 -0.0406 -0.2542
  635TMC3     H 9459   4.308   2.726   0.679  1.3062  0.1168  0.2693
  635TMC3    H1 9460   3.996   2.550   0.454 -0.9524  1.1266  1.9177
  635TMC3    H2 9461   4.268   2.299   0.634  1.6657  0.5054  0.2839
  635TMC3    C7 9462   4.075   2.303   0.462  0.9042  1.0458  0.3758
  635TMC3    C8 9463   4.432   2.499   0.745  0.0398 -0.1624  0.1496
  635TMC3    O1 9464   3.990   2.326   0.379  0.3436 -0.7145 -0.5545
  635TMC3    O2 9465   4.487   2.607   0.769 -0.3145  0.3017 -0.2874
  636MPD2     C 9466   4.521   1.268  15.855 -0.8800  0.2214  0.1362
  636MPD2    C1 9467   4.596   1.321  15.960  0.0396  0.0958 -0.1005
  636MPD2    C2 9468   4.675   1.241  16.039 -0.4334 -0.0949  0.4491
  636MPD2    C3 9469   4.707   1.109  15.998 -0.3956 -0.6513  0.4523
  636MPD2    C4 9470   4.640   1.059  15.888  0.0309 -0.1198  0.6330
  636MPD2    C5 9471   4.549   1.136  15.822  0.3280 -0.4254  0.6662
  636MPD2     H 9472   4.713   1.286  16.130  0.6408 -0.6851  0.2923
  636MPD2    H1 9473   4.656   0.959  15.849 -1.9751 -1.3519  2.9227
  636MPD2    H2 9474   4.454   1.325  15.792 -0.7221 -0.6201 -0.8134
  636MPD2    H3 9475   4.488   1.095  15.742  0.1565 -2.6283  1.9487
  636MPD2     N 9476   0.064   1.035  16.073  0.0302 -0.8683  0.2845
  636MPD2    H5 9477   0.109   1.083  16.151  0.9432  0.1543 -0.8559
  636MPD2    N1 9478   4.578   1.451  16.004  0.1056  0.6515  0.0513
  636MPD2    H7 9479   4.614   1.467  16.098 -0.8488  0.5872  0.4317
  637TMC3    C1 9480   0.239   0.885  16.121  0.0131 -0.1449 -0.2889
  637TMC3    C2 9481   0.246   0.929  16.245 -0.1510 -0.9285  0.8220
  637TMC3    C3 9482   0.367   0.980  16.290 -0.5457  0.2804 -0.2900
  637TMC3    C4 9483   0.350   0.865  16.051 -0.4903  0.4389  0.0933
  637TMC3    C5 9484   0.474   0.900  16.100  0.1480 -0.1682  0.1038
  637TMC3    C6 9485   0.489   0.959  16.220  0.2062 -0.5486  0.7283
  637TMC3     C 9486   0.123   0.920  16.037 -0.5514  0.7422 -0.0702
  637TMC3     O 9487   0.121   0.872  15.928  0.3031 -0.4170  0.3440
  637TMC3     H 9488   0.154   0.951  16.299 -0.0312 -2.1752  1.5445
  637TMC3    H1 9489   0.341   0.842  15.945  0.7423 -3.9476  0.9221
  637TMC3    H2 9490   0.586   0.996  16.251 -0.7373  2.0829  0.5055
  637TMC3    C7 9491   0.537   0.999  16.007 -0.2732 -0.4645  0.5602
  637TMC3    C8 9492   0.353   1.125  16.325 -0.2933 -0.6023 -0.6192
  637TMC3    O1 9493   0.587   1.097  16.055 -0.4019 -0.6227 -0.4455
  637TMC3    O2 9494   0.259   1.176  16.262  0.0789 -0.0366  0.8687
  638MPD2     C 9495   0.006   0.511  14.681  0.0493  0.5693  0.0559
  638MPD2    C1 9496   4.735   0.401  14.600 -0.0161 -0.0406 -1.2060
  638MPD2    C2 9497   4.713   0.279  14.653  0.8480 -0.0383 -0.1678
  638MPD2    C3 9498   4.690   0.264  14.787 -0.3722  0.1942 -0.6088
  638MPD2    C4 9499   4.696   0.381  14.869  0.0403  0.7243  0.3354
  638MPD2    C5 9500   4.717   0.502  14.814 -0.2967  0.3071  0.3509
  638MPD2     H 9501   4.714   0.194  14.586  0.7018 -0.2439  0.0883
  638MPD2    H1 9502   4.665   0.368  14.972 -0.7804 -0.3064 -0.0437
  638MPD2    H2 9503   0.040   0.603  14.632 -0.6785  2.1796  2.6004
  638MPD2    H3 9504   4.719   0.588  14.881  0.3183 -0.9913  2.0039
  638MPD2     N 9505   4.656   0.138  14.835 -0.7021  0.7936 -0.7805
  638MPD2    H5 9506   4.658   0.066  14.764 -0.1815  0.6423 -0.6133
  638MPD2    N1 9507   0.037   0.412  14.469 -0.1699 -0.4791 -0.3401
  638MPD2    H7 9508   0.077   0.500  14.438 -0.0613 -1.4067 -2.8366
  639TMC3    C1 9509   4.633   4.682  14.972  0.5166  0.0330  0.4420
  639TMC3    C2 9510   4.544   4.639  14.878 -0.6395  0.8630  0.1442
  639TMC3    C3 9511   4.560   4.506  14.834  0.0491  0.1998  0.3267
  639TMC3    C4 9512   4.732   4.608  15.031  0.6880  0.1764  0.5913
  639TMC3    C5 9513   0.019   4.487  14.968 -0.6215 -0.1437  0.0963
  639TMC3    C6 9514   4.676   4.436  14.868 -0.2261  0.3001 -0.7514
  639TMC3     C 9515   4.657   0.091  14.960  1.0638 -0.0500  0.0593
  639TMC3     O 9516   4.699   0.143  15.061 -0.1639 -0.1918 -0.6862
  639TMC3     H 9517   4.460   4.689  14.831  0.2000  1.1265 -1.0759
  639TMC3    H1 9518   0.061   4.654  15.102  1.8944  1.8459 -1.6502
  639TMC3    H2 9519   4.714   4.348  14.819 -0.9294 -0.8134  0.7022
  639TMC3    C7 9520   0.113   4.398  15.026 -0.4367  0.2213  0.2886
  639TMC3    C8 9521   4.481   4.444  14.736 -0.3406 -0.0665 -0.1276
  639TMC3    O1 9522   0.099   4.350  15.136  0.2529  0.6280  0.6322
  639TMC3    O2 9523   4.532   4.356  14.666 -0.0276 -0.2504  0.1705
  640MPD2     C 9524   4.231   4.177  10.231 -0.2232 -0.4017  0.2330
  640MPD2    C1 9525   4.189   4.208  10.101 -0.4415  0.2840 -0.2653
  640MPD2    C2 9526   4.100   4.311  10.091 -0.1185  0.2611  0.0784
  640MPD2    C3 9527   4.063   4.396  10.196  0.4749 -0.2148 -0.5861
  640MPD2    C4 9528   4.119   4.367  10.326 -0.1103 -0.0236 -0.4080
  640MPD2    C5 9529   4.193   4.254  10.336 -0.2865 -0.2852 -0.9904
  640MPD2     H 9530   4.070   4.342   9.992 -0.4774  0.0337  0.1125
  640MPD2    H1 9531   4.098   4.426  10.415 -0.6366 -0.9184  0.0702
  640MPD2    H2 9532   4.292   4.091  10.258  1.2285  0.0652 -1.5226
  640MPD2    H3 9533   4.232   4.239  10.436 -0.8582 -0.5944 -0.8121
  640MPD2     N 9534   3.969   4.506  10.185  0.1596  0.3904 -0.3223
  640MPD2    H5 9535   3.944   4.552  10.272  0.0190 -0.6797  0.2053
  640MPD2    N1 9536   4.241   4.142   9.986  0.1068 -0.1303  1.1657
  640MPD2    H7 9537   4.311   4.069   9.996  2.1031  1.8988  2.0367
  641TMC3    C1 9538   4.295   4.097   9.766  0.7294 -0.0960  0.1829
  641TMC3    C2 9539   4.371   3.984   9.798 -0.4265 -0.2758  0.0469
  641TMC3    C3 9540   4.443   3.928   9.697 -0.2460 -0.1662 -0.1383
  641TMC3    C4 9541   4.289   4.147   9.635 -0.2270  0.1944 -0.3270
  641TMC3    C5 9542   4.357   4.080   9.537  0.0117  0.1335 -0.4078
  641TMC3    C6 9543   4.435   3.966   9.559  0.6386 -0.1703  0.5274
  641TMC3     C 9544   4.206   4.163   9.857  0.4056  0.1404  0.5759
  641TMC3     O 9545   4.117   4.228   9.801 -0.3706  0.3416 -0.1665
  641TMC3     H 9546   4.357   3.937   9.895  4.3231 -0.5660  0.5637
  641TMC3    H1 9547   4.246   4.244   9.614  0.7526  1.0934  1.7534
  641TMC3    H2 9548   4.466   3.908   9.473  1.6005  0.1227  0.6727
  641TMC3    C7 9549   4.392   4.153   9.414  0.0226  0.4793  0.7186
  641TMC3    C8 9550   4.520   3.811   9.713  0.0262 -0.5827  0.3697
  641TMC3    O1 9551   4.506   4.143   9.367 -0.5503  0.2371  0.6942
  641TMC3    O2 9552   4.559   3.761   9.610 -0.1970  0.0212  0.0817
  642TMC3    C1 9553   1.313   0.227  12.431  0.5436 -0.4265  0.3841
  642TMC3    C2 9554   1.444   0.211  12.390  0.5530 -0.3055  0.2388
  642TMC3    C3 9555   1.462   0.174  12.259 -0.7962  0.3698 -0.3264
  642TMC3    C4 9556   1.208   0.175  12.366 -0.0841  0.5922  0.5678
  642TMC3    C5 9557   1.237   0.127  12.242 -0.2860 -0.2247  0.1000
  642TMC3    C6 9558   1.364   0.112  12.192  0.1522 -0.2849  0.2352
  642TMC3     C 9559   1.287   0.326  12.536  0.8353 -0.1886  0.7610
  642TMC3     O 9560   1.354   0.333  12.639 -0.1325  0.0190  0.1104
  642TMC3     H 9561   1.513   0.268  12.451 -1.4645  0.7295  1.5529
  642TMC3    H1 9562   1.112   0.197  12.411  0.3248  1.1143  1.1966
  642TMC3    H2 9563   1.385   0.071  12.094  0.2486  1.9002 -0.6686
  642TMC3    C7 9564   1.139   0.038  12.177 -0.8372 -0.0319  0.1079
  642TMC3    C8 9565   1.587   0.204  12.193  0.6070 -0.4588  0.6418
  642TMC3    O1 9566   1.165   4.729  12.065 -0.1241  0.3648  0.3691
  642TMC3    O2 9567   1.589   0.180  12.073 -0.7070  0.3445  0.1647
  643TMC3    C1 9568   1.064   3.936   0.087  0.1813  0.2031  0.2900
  643TMC3    C2 9569   0.937   3.941   0.032  0.7027  0.0233  0.0114
  643TMC3    C3 9570   0.911   3.844  17.689  0.0606  0.2187  0.2300
  643TMC3    C4 9571   1.164   3.852   0.032  0.2305 -0.2780  0.1622
  643TMC3    C5 9572   1.132   3.765  17.677  0.5641 -0.1124  0.1906
  643TMC3    C6 9573   1.001   3.751  17.650  0.1967 -0.5174  0.7235
  643TMC3     C 9574   1.098   4.033   0.188 -0.1570  0.3404 -0.0407
  643TMC3     O 9575   1.017   4.124   0.204  0.0989  1.0746  0.0958
  643TMC3     H 9576   0.875   4.017   0.077 -0.9013  0.3050 -2.7066
  643TMC3    H1 9577   1.267   3.884   0.033  0.5787 -1.4260  1.4256
  643TMC3    H2 9578   0.966   3.680  17.576 -2.3207  3.1542 -1.6357
  643TMC3    C7 9579   1.194   3.828  17.555 -0.4406 -0.1390 -0.5111
  643TMC3    C8 9580   0.830   3.889  17.577  0.1410  0.6170  0.0391
  643TMC3    O1 9581   1.234   3.944  17.563  0.1513 -0.0829 -0.2470
  643TMC3    O2 9582   0.781   3.808  17.500  0.8583 -0.1563 -0.1175
  644MPD2     C 9583   4.565   4.382  10.131  0.4275  0.0886  0.7086
  644MPD2    C1 9584   4.563   4.355   9.996 -0.3159 -0.2104  0.3458
  644MPD2    C2 9585   4.466   4.406   9.912  0.0807 -0.1997 -0.0719
  644MPD2    C3 9586   4.378   4.500   9.967 -0.1742 -0.6216 -0.1213
  644MPD2    C4 9587   4.386   4.529  10.101 -0.1748 -0.1161  0.3161
  644MPD2    C5 9588   4.469   4.464  10.186  0.4490  0.6564  0.2913
  644MPD2     H 9589   4.448   4.369   9.811 -0.1724  2.1583 -0.9020
  644MPD2    H1 9590   4.311   4.586  10.154 -0.0161 -0.2446  0.6755
  644MPD2    H2 9591   4.631   4.327  10.197 -1.0493 -3.0778 -0.4597
  644MPD2    H3 9592   4.460   4.460  10.294 -0.7778  4.4258  0.3485
  644MPD2     N 9593   4.270   4.540   9.888  0.4670 -0.1459 -0.3119
  644MPD2    H5 9594   4.273   4.502   9.794  1.5517 -0.1214 -0.2812
  644MPD2    N1 9595   4.658   4.256   9.951 -0.3836  0.3521 -0.0104
  644MPD2    H7 9596   4.712   4.210  10.023  0.9544  1.2202 -0.4683
  645TMC3    C1 9597   4.094   4.671   9.807 -0.6020  1.7116 -0.3402
  645TMC3    C2 9598   4.024   4.567   9.751  0.1885 -0.1747 -0.2748
  645TMC3    C3 9599   3.925   4.607   9.662  0.1105  0.6768  0.3570
  645TMC3    C4 9600   4.064   0.065   9.788  0.9253  0.7515 -0.5063
  645TMC3    C5 9601   3.960   0.089   9.707  0.4076 -0.2014 -0.1896
  645TMC3    C6 9602   3.888   4.735   9.640 -0.7102  0.3512  0.3076
  645TMC3     C 9603   4.174   4.641   9.916 -0.8984 -0.5603 -0.7714
  645TMC3     O 9604   4.170   4.713  10.011  0.0603 -0.8313 -0.0632
  645TMC3     H 9605   4.051   4.464   9.769 -1.0757 -0.6981 -1.3752
  645TMC3    H1 9606   4.123   0.138   9.841 -3.0501  3.0687  0.6852
  645TMC3    H2 9607   3.810   0.021   9.569 -0.9874  1.2535  0.9247
  645TMC3    C7 9608   3.925   0.227   9.672  0.0813 -0.6896  0.3808
  645TMC3    C8 9609   3.831   4.504   9.620 -0.2368  0.1958 -0.3397
  645TMC3    O1 9610   3.824   0.240   9.604  0.3600  0.6479  0.2806
  645TMC3    O2 9611   3.784   4.532   9.510 -0.1131 -0.0241 -0.2703
  646MPD2     C 9612   0.120   3.683  14.157 -0.3328 -0.0462 -0.4624
  646MPD2    C1 9613   0.027   3.679  14.259 -0.3372  0.1692  0.8644
  646MPD2    C2 9614   4.655   3.765  14.250 -0.3631 -0.0911 -0.0323
  646MPD2    C3 9615   4.633   3.850  14.150 -0.1761 -0.4424  0.3809
  646MPD2    C4 9616   4.736   3.865  14.054 -0.3253  0.4036 -0.1667
  646MPD2    C5 9617   0.103   3.776  14.060 -0.7068  0.1029  0.0758
  646MPD2     H 9618   4.580   3.754  14.328  0.1991 -2.0096  0.2398
  646MPD2    H1 9619   4.728   3.932  13.970  0.8280  0.3830 -0.3005
  646MPD2    H2 9620   0.215   3.632  14.167 -0.3313 -0.3264 -1.8456
  646MPD2    H3 9621   0.181   3.784  13.984 -0.9475 -3.1712 -0.5404
  646MPD2     N 9622   4.513   3.918  14.140  0.3725  0.4821 -0.5435
  646MPD2    H5 9623   4.438   3.878  14.196  1.3985  0.1329  0.5897
  646MPD2    N1 9624   0.051   3.585  14.369  0.7104 -0.0076 -0.2578
  646MPD2    H7 9625   0.120   3.513  14.350 -0.2028 -0.9453 -0.0250
  647TMC3    C1 9626   0.029   3.498  14.593 -0.2240  0.6538  0.1315
  647TMC3    C2 9627   0.028   3.554  14.717 -0.2153  0.2310  0.2536
  647TMC3    C3 9628   0.131   3.515  14.803  0.3842 -0.1438 -0.0938
  647TMC3    C4 9629   0.115   3.400  14.560  0.5902 -0.0966 -0.0822
  647TMC3    C5 9630   0.218   3.376  14.646 -0.9536  0.0131 -0.3636
  647TMC3    C6 9631   0.228   3.430  14.769  0.3725  0.2058 -0.2747
  647TMC3     C 9632   4.725   3.590  14.491 -0.2377  0.1569  0.5235
  647TMC3     O 9633   4.666   3.690  14.530  0.1139  0.6563  0.4535
  647TMC3     H 9634   4.695   3.628  14.751  0.0179  1.3207 -1.6437
  647TMC3    H1 9635   0.116   3.364  14.458 -0.6785  1.9304 -0.8120
  647TMC3    H2 9636   0.304   3.402  14.841  0.7508  0.3990 -0.5952
  647TMC3    C7 9637   0.295   3.248  14.623  0.1202 -0.0252  0.2625
  647TMC3    C8 9638   0.106   3.501  14.941 -0.2635 -0.9057 -0.3809
  647TMC3    O1 9639   0.402   3.252  14.680 -0.0742  0.1555  0.0495
  647TMC3    O2 9640   0.203   3.494  15.015  0.5568 -0.4417 -0.0765
  648TMC3    C1 9641   4.182   1.331  15.884 -0.2207  0.3187 -0.2355
  648TMC3    C2 9642   4.183   1.193  15.860  0.5534 -0.5060 -0.0821
  648TMC3    C3 9643   4.183   1.160  15.731  0.3201 -1.0096 -0.6575
  648TMC3    C4 9644   4.135   1.416  15.789 -0.0544 -0.0274  0.3169
  648TMC3    C5 9645   4.099   1.363  15.673 -0.2678 -0.0194  0.6752
  648TMC3    C6 9646   4.126   1.236  15.635 -0.3242  0.2426 -0.3808
  648TMC3     C 9647   4.210   1.382  16.012  0.0168  0.3829  0.0721
  648TMC3     O 9648   4.179   1.500  16.024  0.1234 -0.4307 -0.5317
  648TMC3     H 9649   4.205   1.119  15.936 -1.6589 -0.9832  0.0680
  648TMC3    H1 9650   4.128   1.523  15.801  2.7776  0.3238 -1.2094
  648TMC3    H2 9651   4.103   1.195  15.537  1.8397  0.3465 -0.9197
  648TMC3    C7 9652   4.033   1.444  15.575  0.4228  0.5677  0.3810
  648TMC3    C8 9653   4.190   1.017  15.702  0.0259  0.0388  0.1050
  648TMC3    O1 9654   4.000   1.388  15.471  0.3125 -0.0396  0.3557
  648TMC3    O2 9655   4.154   0.943  15.794  0.1798 -0.2774  0.0644
  649TMC3    C1 9656   2.735   2.598  12.559  0.1915  0.5629 -0.3672
  649TMC3    C2 9657   2.842   2.671  12.530 -0.1981  0.6309 -0.4425
  649TMC3    C3 9658   2.952   2.666  12.613 -0.9349  0.3005  0.0005
  649TMC3    C4 9659   2.726   2.523  12.672 -0.8776  0.4541  0.2894
  649TMC3    C5 9660   2.830   2.516  12.752  0.2930 -0.0725 -0.2613
  649TMC3    C6 9661   2.948   2.586  12.725 -0.1002 -0.0335 -0.1484
  649TMC3     C 9662   2.609   2.653  12.512  0.2048 -0.3285 -0.5019
  649TMC3     O 9663   2.523   2.654  12.600 -0.4365 -0.1362 -0.3262
  649TMC3     H 9664   2.837   2.742  12.449 -1.4710  1.2603  0.1825
  649TMC3    H1 9665   2.634   2.468  12.688  0.4275 -0.9449  2.8341
  649TMC3    H2 9666   3.030   2.604  12.793 -1.0121 -4.5212  2.0911
  649TMC3    C7 9667   2.801   2.435  12.865  0.1645 -0.3820  0.5492
  649TMC3    C8 9668   3.072   2.745  12.582 -0.0767  0.1244  0.2461
  649TMC3    O1 9669   2.683   2.408  12.892 -0.2677  0.0454 -0.0240
  649TMC3    O2 9670   3.168   2.723  12.656  0.8951 -0.0207  0.2729
  650TMC3    C1 9671   0.637   4.364  12.581 -0.4698  0.6484 -0.6930
  650TMC3    C2 9672   0.627   4.472  12.660 -0.1447  0.2394 -0.0288
  650TMC3    C3 9673   0.506   4.526  12.675  0.4735 -0.2027 -0.0845
  650TMC3    C4 9674   0.539   4.322  12.498  0.4468  0.3415  0.7365
  650TMC3    C5 9675   0.417   4.391  12.502  0.0392  0.7145 -0.4378
  650TMC3    C6 9676   0.395   4.488  12.595 -0.3182  0.0241  0.2682
  650TMC3     C 9677   0.746   4.277  12.611 -0.0317 -0.4153 -0.3640
  650TMC3     O 9678   0.862   4.310  12.581 -0.3905 -0.2323  0.1489
  650TMC3     H 9679   0.706   4.502  12.728  0.1450 -0.9047  0.1279
  650TMC3    H1 9680   0.555   4.246  12.422  3.1000  2.1383 -0.4576
  650TMC3    H2 9681   0.299   4.538  12.593  0.0067  0.4745 -2.7001
  650TMC3    C7 9682   0.344   4.400  12.381 -0.3121 -0.1236 -0.0227
  650TMC3    C8 9683   0.494   4.654  12.726  0.3513 -0.3440 -0.0378
  650TMC3    O1 9684   0.337   4.297  12.314 -0.2765  0.7564  0.3954
  650TMC3    O2 9685   0.591   4.723  12.701 -0.0431  0.1673 -0.9760
  651MPD2     C 9686   4.105   1.817  10.726  0.0039  0.2547  0.1524
  651MPD2    C1 9687   4.056   1.939  10.699 -0.2502  0.1442 -0.0553
  651MPD2    C2 9688   4.153   2.036  10.681  0.2732 -0.1231 -0.0144
  651MPD2    C3 9689   4.291   2.016  10.683  0.3838  0.3242 -0.4736
  651MPD2    C4 9690   4.335   1.894  10.720  0.0643  0.1636  0.5196
  651MPD2    C5 9691   4.241   1.790  10.733  1.0675 -0.1036 -0.4096
  651MPD2     H 9692   4.113   2.129  10.640  2.2447  1.7152  2.2616
  651MPD2    H1 9693   4.439   1.864  10.716  0.6395  2.4304 -1.1848
  651MPD2    H2 9694   4.051   1.727  10.754  1.1369 -0.2896  0.6223
  651MPD2    H3 9695   4.273   1.687  10.747  0.1408 -0.3996 -0.5087
  651MPD2     N 9696   4.373   2.131  10.670 -0.8845 -0.3296 -0.2052
  651MPD2    H5 9697   4.323   2.216  10.648  1.0428  0.9293  0.2882
  651MPD2    N1 9698   3.924   1.974  10.691  0.1663  0.4563 -0.5050
  651MPD2    H7 9699   3.906   2.071  10.670 -2.1074  0.5742  2.1071
  652TMC3    C1 9700   0.038   2.367  10.602 -0.2793  0.3254  0.5581
  652TMC3    C2 9701   4.699   2.267  10.657  0.1844 -0.5390  0.1758
  652TMC3    C3 9702   4.564   2.264  10.645  0.0495  0.3033 -0.0824
  652TMC3    C4 9703   4.716   2.461  10.526 -0.7886  0.5808  0.4198
  652TMC3    C5 9704   4.578   2.453  10.515 -0.2633 -0.0204 -0.0729
  652TMC3    C6 9705   4.497   2.356  10.567  0.2529  0.4054 -0.5586
  652TMC3     C 9706   0.175   2.322  10.578  0.7020 -0.1347 -0.1397
  652TMC3     O 9707   0.213   2.216  10.625  0.0898 -0.1314  0.0296
  652TMC3     H 9708   0.015   2.205  10.726  3.8905 -1.5706 -3.6852
  652TMC3    H1 9709   0.027   2.546  10.481 -0.1455  0.0449  0.1147
  652TMC3    H2 9710   4.392   2.353  10.543  0.2134  1.3876 -0.4872
  652TMC3    C7 9711   4.514   2.568  10.453  0.6145  0.2787 -0.7143
  652TMC3    C8 9712   4.507   2.139  10.688 -0.4430  0.4490 -0.1993
  652TMC3    O1 9713   4.587   2.670  10.452 -0.5762 -0.1031  0.4268
  652TMC3    O2 9714   4.578   2.052  10.742 -0.1614 -0.3169  0.5064
  653MPD2     C 9715   3.154   1.866  17.690 -0.2128 -0.5454  0.4663
  653MPD2    C1 9716   3.218   1.855  17.563 -0.3214 -0.2178 -0.6693
  653MPD2    C2 9717   3.184   1.756  17.471 -0.2398 -0.1772  1.1506
  653MPD2    C3 9718   3.070   1.674  17.494 -0.5306  0.1673 -0.2081
  653MPD2    C4 9719   3.010   1.683  17.622  0.3218  0.0895 -1.2691
  653MPD2    C5 9720   3.052   1.776  17.708 -0.5306  0.3014 -0.1532
  653MPD2     H 9721   3.240   1.757  17.378  0.2205 -3.5307  1.3751
  653MPD2    H1 9722   2.919   1.631  17.646  0.3741 -0.4117 -2.1278
  653MPD2    H2 9723   3.169   1.936   0.018 -1.3806  0.1324  0.1020
  653MPD2    H3 9724   3.014   1.764   0.056 -0.4338  1.7105  0.0551
  653MPD2     N 9725   3.034   1.579  17.399  0.3958  0.1749 -0.0883
  653MPD2    H5 9726   3.091   1.561  17.317  2.3410  0.5541  1.1839
  653MPD2    N1 9727   3.323   1.945  17.526 -0.1757 -0.1649 -0.0415
  653MPD2    H7 9728   3.347   1.950  17.428 -0.1174  1.5905  0.0709
  654TMC3    C1 9729   2.930   1.391  17.300  0.5383 -0.4155  0.3204
  654TMC3    C2 9730   2.823   1.373  17.223 -0.3217  0.0589  0.2018
  654TMC3    C3 9731   2.836   1.299  17.110 -0.4316 -0.1446  0.0634
  654TMC3    C4 9732   3.052   1.335  17.274  0.0749 -0.6065 -0.3363
  654TMC3    C5 9733   3.054   1.274  17.147  0.9952 -0.0232  0.3419
  654TMC3    C6 9734   2.954   1.254  17.058 -0.1341  0.0279 -0.4928
  654TMC3     C 9735   2.929   1.494  17.403  0.0830 -0.4231 -0.0935
  654TMC3     O 9736   2.828   1.511  17.468 -0.3291 -0.2376 -0.3785
  654TMC3     H 9737   2.729   1.415  17.256 -0.3752  0.9421 -1.0959
  654TMC3    H1 9738   3.135   1.356  17.340 -0.7140  0.1793  0.4107
  654TMC3    H2 9739   2.969   1.212  16.959 -1.1622 -1.2485 -0.1146
  654TMC3    C7 9740   3.183   1.223  17.111 -0.5682  0.9633 -0.3761
  654TMC3    C8 9741   2.717   1.296  17.026 -0.3723  0.0291  0.0378
  654TMC3    O1 9742   3.237   1.248  17.001  0.4738  0.6296 -0.7466
  654TMC3    O2 9743   2.625   1.367  17.058  0.6653 -0.0770 -0.1121
  655MPD2     C 9744   4.547   1.326  15.217  0.2712  0.1334 -0.2782
  655MPD2    C1 9745   4.459   1.410  15.150 -0.1792  0.7292  0.5570
  655MPD2    C2 9746   4.432   1.389  15.015 -0.6041  0.5672  0.1660
  655MPD2    C3 9747   4.487   1.278  14.947  0.2113  0.3558  0.1339
  655MPD2    C4 9748   4.577   1.197  15.014 -0.1805 -0.3053 -0.5976
  655MPD2    C5 9749   4.610   1.225  15.144  0.1866 -0.2594  0.4539
  655MPD2     H 9750   4.389   1.471  14.959  2.6054 -0.2273 -3.4385
  655MPD2    H1 9751   4.625   1.108  14.974 -0.2350 -0.7313  0.2763
  655MPD2    H2 9752   4.569   1.328  15.323 -0.3699 -1.2402 -0.1251
  655MPD2    H3 9753   4.682   1.160  15.193  2.6194  2.1047  0.0383
  655MPD2     N 9754   4.451   1.248  14.811 -0.3483  0.0191  0.1118
  655MPD2    H5 9755   4.491   1.159  14.784  0.5858  0.4974 -0.0799
  655MPD2    N1 9756   4.397   1.522  15.212 -0.1840  0.3676  0.5474
  655MPD2    H7 9757   4.323   1.570  15.161 -0.5456  1.2037  1.8537
  656TMC3    C1 9758   4.328   1.688  15.369 -0.1009 -0.3238  0.0604
  656TMC3    C2 9759   4.312   1.721  15.501 -0.2150  0.6058  0.3110
  656TMC3    C3 9760   4.234   1.829  15.531 -0.5015  0.0484  0.0916
  656TMC3    C4 9761   4.289   1.767  15.257 -0.3904  0.7928 -0.0700
  656TMC3    C5 9762   4.201   1.868  15.293  0.3236  0.2975  0.2193
  656TMC3    C6 9763   4.174   1.898  15.430  0.3486 -0.0121 -0.0310
  656TMC3     C 9764   4.411   1.565  15.345 -0.7510 -1.7165 -0.2149
  656TMC3     O 9765   4.473   1.511  15.435  0.0781 -0.0542 -0.0689
  656TMC3     H 9766   4.338   1.645  15.574 -1.2855 -1.5482 -1.5636
  656TMC3    H1 9767   4.307   1.741  15.153  0.1355 -0.9566  0.4590
  656TMC3    H2 9768   4.094   1.963  15.465  1.4980  1.4606 -0.1023
  656TMC3    C7 9769   4.134   1.950  15.193  0.3425 -0.8980  0.4131
  656TMC3    C8 9770   4.192   1.840  15.668 -0.9759 -0.4360 -0.3155
  656TMC3    O1 9771   4.187   1.947  15.084  0.3684  0.1741 -0.3019
  656TMC3    O2 9772   4.230   1.749  15.741  0.1003 -0.5259 -0.3237
  657TMC3    C1 9773   3.170   0.855  14.657  0.0512  0.0555 -0.4764
  657TMC3    C2 9774   3.234   0.942  14.743  0.1284 -0.2612 -0.4262
  657TMC3    C3 9775   3.211   1.076  14.733 -0.1250  0.7198 -0.4423
  657TMC3    C4 9776   3.073   0.903  14.572  0.1025 -0.9326  0.1543
  657TMC3    C5 9777   3.052   1.042  14.570  0.8613  0.9793 -0.6156
  657TMC3    C6 9778   3.117   1.126  14.651 -0.7829  0.3463 -0.0375
  657TMC3     C 9779   3.196   0.714  14.643 -0.1540 -0.2422 -0.0534
  657TMC3     O 9780   3.100   0.642  14.622 -0.1751 -0.0040 -0.0049
  657TMC3     H 9781   3.305   0.905  14.816  0.4519  2.5559  0.7011
  657TMC3    H1 9782   3.026   0.837  14.500 -4.7783  0.7224  1.8327
  657TMC3    H2 9783   3.097   1.232  14.667  0.0065  0.5601 -0.4782
  657TMC3    C7 9784   2.934   1.083  14.496 -0.3264  0.0368 -0.3818
  657TMC3    C8 9785   3.253   1.163  14.839 -0.0098 -0.6237  0.6445
  657TMC3    O1 9786   2.865   1.002  14.435  0.6577 -0.2187 -0.0480
  657TMC3    O2 9787   3.209   1.278  14.840 -0.1392 -1.1044 -0.0996
  658MPD2     C 9788   0.049   1.069  14.220  0.1805 -0.1108  0.2072
  658MPD2    C1 9789   4.697   1.166  14.244  0.3139  0.0646 -0.1541
  658MPD2    C2 9790   4.705   1.277  14.158 -0.0287 -0.9017 -0.0448
  658MPD2    C3 9791   0.050   1.287  14.050  0.4325 -0.2882  0.4802
  658MPD2    C4 9792   0.136   1.180  14.032 -0.0626 -0.3023 -0.4128
  658MPD2    C5 9793   0.132   1.073  14.118  0.3347 -0.1092  0.2269
  658MPD2     H 9794   4.637   1.357  14.183 -1.1304 -1.5846 -0.8003
  658MPD2    H1 9795   0.201   1.182  13.945 -1.4623 -1.4555 -1.4835
  658MPD2    H2 9796   0.055   0.979  14.280  2.1219  0.3627  0.7604
  658MPD2    H3 9797   0.199   0.991  14.098  0.1415 -0.0037 -0.8795
  658MPD2     N 9798   0.044   1.403  13.969 -0.0587  0.1940  0.0837
  658MPD2    H5 9799   4.717   1.475  13.998 -2.3477 -1.9031  0.1216
  658MPD2    N1 9800   4.591   1.137  14.335 -0.8861  0.1253  0.1458
  658MPD2    H7 9801   4.599   1.060  14.400  1.2144  0.4431  0.2670
  659TMC3    C1 9802   4.374   1.151  14.413  0.3959  0.4305 -0.1099
  659TMC3    C2 9803   4.407   1.176  14.543 -0.0037  0.1145 -0.0159
  659TMC3    C3 9804   4.306   1.230  14.619 -0.0536  0.0727 -1.4843
  659TMC3    C4 9805   4.240   1.153  14.369 -0.2636  0.1649  0.0236
  659TMC3    C5 9806   4.142   1.212  14.448 -0.2649  0.0473 -0.1792
  659TMC3    C6 9807   4.175   1.250  14.577  0.0658  0.6601 -0.4325
  659TMC3     C 9808   4.464   1.185  14.310 -0.3355 -0.5886 -0.3794
  659TMC3     O 9809   4.423   1.216  14.200 -0.3797  0.2932  0.1839
  659TMC3     H 9810   4.510   1.177  14.576 -0.2834 -0.6259  0.8878
  659TMC3    H1 9811   4.217   1.119  14.269  1.0178  0.6606 -0.4337
  659TMC3    H2 9812   4.105   1.306  14.638  0.0651  2.2623 -1.9252
  659TMC3    C7 9813   4.010   1.238  14.401 -0.2833 -0.1673 -0.3480
  659TMC3    C8 9814   4.352   1.308  14.738 -0.5252  0.7593 -0.4779
  659TMC3    O1 9815   3.951   1.328  14.459  0.4080  0.2161 -0.2778
  659TMC3    O2 9816   4.295   1.416  14.750 -0.0396 -0.0629 -0.4748
  660MPD2     C 9817   2.571   0.482  12.609  0.5366  0.2993  0.1434
  660MPD2    C1 9818   2.437   0.520  12.601  0.2006 -0.0621  0.1883
  660MPD2    C2 9819   2.354   0.454  12.688  0.3524 -0.7422 -0.1004
  660MPD2    C3 9820   2.386   0.342  12.768  0.1240  0.0242  0.0662
  660MPD2    C4 9821   2.522   0.305  12.762  0.4144  1.1205  0.0026
  660MPD2    C5 9822   2.608   0.380  12.692  0.5257 -0.4055 -0.2717
  660MPD2     H 9823   2.250   0.483  12.693 -0.1682 -3.0181  1.9261
  660MPD2    H1 9824   2.559   0.223  12.821 -2.8676  0.4267  1.1134
  660MPD2    H2 9825   2.646   0.544  12.562 -0.2951 -0.5060 -2.2388
  660MPD2    H3 9826   2.713   0.369  12.714  0.2114 -3.5328 -0.3563
  660MPD2     N 9827   2.291   0.281  12.860 -0.5282 -0.8766 -0.0311
  660MPD2    H5 9828   2.332   0.237  12.942  1.2987 -0.2566 -0.6045
  660MPD2    N1 9829   2.389   0.628  12.523 -0.5016  0.1170 -0.3253
  660MPD2    H7 9830   2.456   0.657  12.453 -0.4438  1.0951  0.1447
  661TMC3    C1 9831   2.205   0.755  12.442 -0.0896 -0.9290 -0.2450
  661TMC3    C2 9832   2.275   0.755  12.327 -0.7234 -0.0122 -0.2742
  661TMC3    C3 9833   2.193   0.759  12.214 -0.1727 -0.1845  0.7263
  661TMC3    C4 9834   2.069   0.774  12.464  0.1418 -0.3779 -0.0413
  661TMC3    C5 9835   1.996   0.754  12.348  0.7354 -0.1885  0.4530
  661TMC3    C6 9836   2.059   0.752  12.227  0.2705 -0.5542 -0.1775
  661TMC3     C 9837   2.275   0.704  12.556  0.6327 -0.0501  0.2623
  661TMC3     O 9838   2.223   0.713  12.666  0.2153 -0.1836  0.1547
  661TMC3     H 9839   2.382   0.743  12.313 -0.6778  0.5521 -0.4037
  661TMC3    H1 9840   2.032   0.757  12.564 -1.6901  0.4924 -0.5836
  661TMC3    H2 9841   1.999   0.738  12.138 -1.1153 -1.4301  0.8935
  661TMC3    C7 9842   1.859   0.705  12.368  0.1127 -0.8240  1.0778
  661TMC3    C8 9843   2.256   0.793  12.084  0.0430  0.4634 -0.3900
  661TMC3    O1 9844   1.809   0.728  12.478  0.9470  0.1624  0.2848
  661TMC3    O2 9845   2.369   0.748  12.053  0.2442  0.4747 -0.1433
  662MPD2     C 9846   3.187   4.386  17.640  0.3268 -0.3728 -0.3934
  662MPD2    C1 9847   3.068   4.403  17.572  0.0713  0.9830  0.1464
  662MPD2    C2 9848   2.959   4.470  17.633  1.0254  0.2804  0.8214
  662MPD2    C3 9849   2.967   4.506   0.012  0.5707 -0.3080  0.2206
  662MPD2    C4 9850   3.086   4.489   0.087 -0.3594  0.6756  0.2106
  662MPD2    C5 9851   3.183   4.422   0.021 -0.2782  0.4109  0.3721
  662MPD2     H 9852   2.867   4.487  17.578  0.6981  0.2738  1.3662
  662MPD2    H1 9853   3.085   4.511   0.193 -1.9483 -1.8675  0.7154
  662MPD2    H2 9854   3.281   4.342  17.608 -0.4313 -0.9104 -1.8944
  662MPD2    H3 9855   3.263   4.383   0.083 -0.5741 -0.4808  0.1790
  662MPD2     N 9856   2.856   4.558   0.081 -0.4364  0.2868  0.0003
  662MPD2    H5 9857   2.868   4.601   0.172 -1.2081  1.2485 -0.3584
  662MPD2    N1 9858   3.050   4.347  17.440  0.1211  0.1961  0.0937
  662MPD2    H7 9859   2.958   4.360  17.397 -0.0169 -1.2110 -0.0431
  663TMC3    C1 9860   3.075   4.218  17.242 -0.4999 -0.1501 -0.3639
  663TMC3    C2 9861   3.144   4.119  17.179 -0.6585  0.0483  0.3836
  663TMC3    C3 9862   3.077   4.037  17.092 -0.0068 -0.1103 -0.0639
  663TMC3    C4 9863   2.944   4.243  17.216  0.3707 -0.2321 -0.0771
  663TMC3    C5 9864   2.884   4.175  17.117 -0.5039  0.5173  0.5223
  663TMC3    C6 9865   2.955   4.086  17.040 -0.4075  0.0149 -0.1924
  663TMC3     C 9866   3.131   4.250  17.374  0.4508 -0.2277  0.4981
  663TMC3     O 9867   3.231   4.193  17.415  0.3774 -0.1832 -0.0139
  663TMC3     H 9868   3.242   4.082  17.208 -1.1378  0.8891  3.0964
  663TMC3    H1 9869   2.879   4.272  17.298 -0.4497 -1.0354 -0.4432
  663TMC3    H2 9870   2.913   4.009  16.976  1.8648 -1.2542 -0.1743
  663TMC3    C7 9871   2.745   4.150  17.128 -0.2156  0.0871  0.6007
  663TMC3    C8 9872   3.050   3.900  17.134 -0.3679 -0.0344 -0.4763
  663TMC3    O1 9873   2.685   4.248  17.171 -0.1172  0.1754  0.0018
  663TMC3    O2 9874   2.935   3.867  17.157 -0.1368 -0.1128 -0.4107
  664MPD2     C 9875   0.840   2.886  17.130  0.6727  0.2416 -0.2183
  664MPD2    C1 9876   0.936   2.975  17.135  0.3494  0.1448  0.6225
  664MPD2    C2 9877   1.003   2.995  17.256 -0.1719  0.4125  0.0454
  664MPD2    C3 9878   0.978   2.920  17.371 -0.2347  0.5769 -0.1248
  664MPD2    C4 9879   0.889   2.821  17.357  1.7559 -0.2247  0.4375
  664MPD2    C5 9880   0.813   2.808  17.239 -0.0146 -0.5831 -0.1470
  664MPD2     H 9881   1.078   3.071  17.274  0.9089 -0.9636  1.3223
  664MPD2    H1 9882   0.857   2.761  17.442 -0.0813  0.4069  0.1853
  664MPD2    H2 9883   0.775   2.872  17.045  0.5475  0.3797 -0.1460
  664MPD2    H3 9884   0.725   2.745  17.236 -2.5626  2.9953 -0.8258
  664MPD2     N 9885   1.048   2.957  17.488  0.4040  0.2222  0.3640
  664MPD2    H5 9886   1.103   3.041  17.477 -0.7513  0.6269 -2.4237
  664MPD2    N1 9887   0.985   3.051  17.018  0.7182 -0.0002  0.1027
  664MPD2    H7 9888   1.055   3.123  17.028  1.8754 -0.9353 -1.3702
  665TMC3    C1 9889   1.089   2.969  17.723 -0.2396 -0.3163 -0.5539
  665TMC3    C2 9890   1.121   2.894   0.080 -0.8487 -0.7116 -0.6180
  665TMC3    C3 9891   1.171   2.962   0.188  0.7717 -0.4174 -0.3476
  665TMC3    C4 9892   1.117   3.107  17.712  0.5455 -0.9877 -0.5080
  665TMC3    C5 9893   1.186   3.165   0.057 -0.7601 -0.2988 -0.8895
  665TMC3    C6 9894   1.199   3.096   0.176 -0.1619 -0.2731 -0.3040
  665TMC3     C 9895   1.024   2.903  17.612  0.0338 -0.7381 -0.4866
  665TMC3     O 9896   0.967   2.794  17.641 -0.1336  0.0094  0.2717
  665TMC3     H 9897   1.091   2.790   0.076 -1.6574 -0.5223  0.6533
  665TMC3    H1 9898   1.093   3.173  17.630 -1.5991  0.7368  1.4918
  665TMC3    H2 9899   1.230   3.131   0.274 -1.1808  1.1050 -0.4701
  665TMC3    C7 9900   1.171   3.308   0.079  0.6289 -0.6891  0.1900
  665TMC3    C8 9901   1.168   2.902   0.318  0.1840  0.1947 -0.3746
  665TMC3    O1 9902   1.108   3.373  17.750 -0.3283  0.7934  0.2444
  665TMC3    O2 9903   1.151   2.978   0.414 -0.0557 -0.2713  0.4121
  666TMC3    C1 9904   4.091   3.398   9.374  0.2572  1.1772 -0.2790
  666TMC3    C2 9905   4.146   3.518   9.399 -0.3442 -1.1758 -0.4520
  666TMC3    C3 9906   4.064   3.616   9.448  0.2490 -0.5493 -0.2955
  666TMC3    C4 9907   3.958   3.378   9.386 -0.0784 -0.6828 -0.0252
  666TMC3    C5 9908   3.879   3.483   9.429  0.1846 -0.0612 -0.7539
  666TMC3    C6 9909   3.927   3.605   9.456  0.9787 -0.3008  1.1230
  666TMC3     C 9910   4.176   3.279   9.400 -0.0558  0.2420  0.1227
  666TMC3     O 9911   4.289   3.312   9.428 -0.6564  0.4319 -0.6100
  666TMC3     H 9912   4.253   3.532   9.386 -0.4446  0.9766  1.0967
  666TMC3    H1 9913   3.919   3.280   9.363 -1.2033  0.0090 -1.0308
  666TMC3    H2 9914   3.864   3.674   9.511  1.6831  1.4703 -0.3213
  666TMC3    C7 9915   3.759   3.449   9.499 -0.0876  0.2699 -0.3429
  666TMC3    C8 9916   4.131   3.696   9.549 -0.5316  0.3524  1.3147
  666TMC3    O1 9917   3.768   3.346   9.561  0.4919  0.3792 -0.0347
  666TMC3    O2 9918   4.248   3.660   9.573  0.4564 -0.2956  0.4032
  667MPD2     C 9919   1.756   2.922  14.067 -0.3645  0.1039  0.1093
  667MPD2    C1 9920   1.709   2.985  14.179  0.7221  0.1906 -0.2082
  667MPD2    C2 9921   1.635   2.899  14.262  0.0622  0.1983  0.2869
  667MPD2    C3 9922   1.583   2.773  14.227 -0.2192 -0.2849  0.0088
  667MPD2    C4 9923   1.635   2.721  14.110 -0.5735 -0.8731 -0.0647
  667MPD2    C5 9924   1.718   2.797  14.028 -0.9350 -0.4055  0.4807
  667MPD2     H 9925   1.598   2.939  14.356 -0.8749 -0.2807  0.1252
  667MPD2    H1 9926   1.618   2.619  14.076 -0.2101 -0.8245 -0.3989
  667MPD2    H2 9927   1.835   2.966  14.008  0.0015  0.1739  0.6590
  667MPD2    H3 9928   1.761   2.753  13.938 -0.2001 -0.1867  0.7252
  667MPD2     N 9929   1.489   2.697  14.310  0.2460  0.5307 -0.3305
  667MPD2    H5 9930   1.452   2.611  14.270 -0.7025  0.7216  0.1373
  667MPD2    N1 9931   1.750   3.107  14.235 -0.0315  0.0310  0.1827
  667MPD2    H7 9932   1.714   3.142  14.323 -2.5299 -2.0869  0.0062
  668TMC3    C1 9933   1.880   3.310  14.243 -0.3459  0.3090 -0.4948
  668TMC3    C2 9934   1.926   3.416  14.170  0.4084 -0.0367  1.1950
  668TMC3    C3 9935   1.983   3.515  14.237 -0.4531  0.1535 -0.5220
  668TMC3    C4 9936   1.881   3.296  14.379  0.8990  0.4703  0.1205
  668TMC3    C5 9937   1.943   3.398  14.445 -0.6358 -0.0858 -0.3797
  668TMC3    C6 9938   1.984   3.511  14.374 -0.0749 -0.3765 -0.6996
  668TMC3     C 9939   1.836   3.198  14.164 -0.8274  0.2188  0.2458
  668TMC3     O 9940   1.879   3.191  14.050  0.3050 -0.4087 -0.4628
  668TMC3     H 9941   1.904   3.416  14.064 -0.8392 -0.2151  1.4562
  668TMC3    H1 9942   1.863   3.199  14.424 -1.9936  1.0378  0.1910
  668TMC3    H2 9943   2.031   3.588  14.433 -1.3104 -0.2912  0.1546
  668TMC3    C7 9944   1.963   3.397  14.586  0.5651  0.6622  0.7628
  668TMC3    C8 9945   1.984   3.644  14.173  0.0188  0.1687  0.5214
  668TMC3    O1 9946   2.032   3.485  14.634 -0.3492 -0.0441 -0.7522
  668TMC3    O2 9947   1.884   3.715  14.184 -0.0627  0.2502 -0.0592
  669TMC3    C1 9948   4.277   2.778  14.406  0.3598  0.1733  0.3879
  669TMC3    C2 9949   4.150   2.801  14.359 -0.1824 -0.3645  0.6808
  669TMC3    C3 9950   4.131   2.875  14.238  0.3598 -0.0856 -0.1631
  669TMC3    C4 9951   4.383   2.834  14.334 -0.2480  1.1883  0.0720
  669TMC3    C5 9952   4.360   2.888  14.210  0.5717 -0.5817  0.0309
  669TMC3    C6 9953   4.237   2.902  14.156  0.7125  0.1179 -0.7422
  669TMC3     C 9954   4.293   2.730  14.541  0.7025 -0.2280 -0.0260
  669TMC3     O 9955   4.188   2.704  14.597  0.0594 -0.2805 -0.4588
  669TMC3     H 9956   4.065   2.761  14.413 -0.3362 -0.8966  0.0386
  669TMC3    H1 9957   4.483   2.846  14.373  0.2992 -0.0692 -0.9272
  669TMC3    H2 9958   4.218   2.955  14.063 -1.3041  0.7515  0.0318
  669TMC3    C7 9959   4.471   2.934  14.131 -0.3441  0.3119 -0.0109
  669TMC3    C8 9960   3.994   2.864  14.180 -0.1126 -0.1154 -0.2962
  669TMC3    O1 9961   4.564   2.970  14.199  0.3580 -0.4236 -0.1544
  669TMC3    O2 9962   3.931   2.771  14.227 -0.1416  0.6716  0.2049
  670MPD2     C 9963   2.361   0.423  14.045 -0.0722 -0.2788  0.4072
  670MPD2    C1 9964   2.435   0.315  13.995 -0.2120  0.4964 -0.5368
  670MPD2    C2 9965   2.445   0.200  14.077  0.2355  0.5584 -0.5998
  670MPD2    C3 9966   2.387   0.204  14.206 -0.3098  0.4111  0.1001
  670MPD2    C4 9967   2.315   0.312  14.241 -0.6118 -0.1235 -0.8462
  670MPD2    C5 9968   2.299   0.424  14.167 -0.3876  0.9990  0.1183
  670MPD2     H 9969   2.512   0.118  14.054 -1.3659 -1.4986  1.9131
  670MPD2    H1 9970   2.271   0.317  14.341  0.2868  0.0053 -0.4574
  670MPD2    H2 9971   2.361   0.513  13.983  1.8237 -0.0822  0.6862
  670MPD2    H3 9972   2.245   0.514  14.195  0.8114  0.7877  3.0928
  670MPD2     N 9973   2.421   0.097  14.289  0.7273  0.2183  0.1450
  670MPD2    H5 9974   2.478   0.023  14.251  0.9005 -0.4866  1.8088
  670MPD2    N1 9975   2.508   0.323  13.873 -0.4064  0.3035 -0.0004
  670MPD2    H7 9976   2.570   0.244  13.861 -1.3439 -0.3112 -0.7788
  671TMC3    C1 9977   2.420   4.672  14.456 -0.0496 -0.7769  0.2097
  671TMC3    C2 9978   2.554   4.665  14.452 -0.1874  0.1155  0.5038
  671TMC3    C3 9979   2.604   4.546  14.406  0.3419 -0.4201  0.0627
  671TMC3    C4 9980   2.340   4.566  14.438 -0.2162  0.1134  0.1069
  671TMC3    C5 9981   2.394   4.453  14.388  0.7078  0.3422  0.1194
  671TMC3    C6 9982   2.529   4.441  14.373 -0.1959  0.0662 -0.5667
  671TMC3     C 9983   2.371   0.065  14.417  0.0152  0.1860 -0.0578
  671TMC3     O 9984   2.275   0.111  14.476  0.6616  0.1549  0.2914
  671TMC3     H 9985   2.608   0.019  14.467  3.3033 -2.1331  1.7994
  671TMC3    H1 9986   2.233   4.575  14.452  0.2792  2.9189  2.2979
  671TMC3    H2 9987   2.575   4.357  14.321 -0.6220 -1.5436  1.6450
  671TMC3    C7 9988   2.302   4.394  14.293 -0.8774 -0.3626 -0.1035
  671TMC3    C8 9989   2.744   4.544  14.364  0.3082  0.5574  0.3995
  671TMC3    O1 9990   2.213   4.320  14.343  0.2280 -0.4524  0.3970
  671TMC3    O2 9991   2.779   4.484  14.263  0.0446 -0.1190  0.6622
  672MPD2     C 9992   3.135   1.691   0.846 -0.8630  0.1019  0.6040
  672MPD2    C1 9993   3.213   1.616   0.759  0.3262 -0.1702  0.5060
  672MPD2    C2 9994   3.349   1.646   0.750 -0.3619 -0.1545 -0.4113
  672MPD2    C3 9995   3.404   1.750   0.826 -0.4889  1.1641 -0.7445
  672MPD2    C4 9996   3.327   1.818   0.911  0.0998  0.0357  0.3164
  672MPD2    C5 9997   3.196   1.783   0.925  1.0516 -0.0166  0.2989
  672MPD2     H 9998   3.414   1.589   0.685 -0.6401 -0.9346  0.0007
  672MPD2    H1 9999   3.362   1.888   0.986  1.7779 -0.2601 -0.1824
  672MPD2    H210000   3.030   1.668   0.861 -0.4155 -1.7213  0.9656
  672MPD2    H310001   3.134   1.835   0.997 -0.8022  0.0645 -1.3485
  672MPD2     N10002   3.541   1.787   0.826  0.6474 -0.1712 -0.1751
  672MPD2    H510003   3.571   1.867   0.881  0.2862  0.3058 -0.6701
  672MPD2    N110004   3.163   1.521   0.672  0.5382 -0.3024 -0.2057
  672MPD2    H710005   3.224   1.467   0.611  1.1816  1.0179 -0.7242
  673TMC3    C110006   3.004   1.382   0.564  0.1244  0.1148 -0.9076
  673TMC3    C210007   3.085   1.277   0.556  0.3642 -0.8270 -0.2345
  673TMC3    C310008   3.062   1.192   0.447 -0.6071  0.2347  0.3758
  673TMC3    C410009   2.885   1.391   0.500 -0.0413  0.1306  0.8440
  673TMC3    C510010   2.860   1.306   0.392 -0.3568 -0.1166  0.7076
  673TMC3    C610011   2.945   1.199   0.375 -0.1798 -0.5401  0.5960
  673TMC3     C10012   3.031   1.487   0.661 -0.0669 -0.2902 -0.2378
  673TMC3     O10013   2.935   1.560   0.683 -0.1385  0.7424  0.5925
  673TMC3     H10014   3.175   1.275   0.616  0.9485 -1.2797 -1.1389
  673TMC3    H110015   2.806   1.460   0.527  0.2464  0.8011 -0.0273
  673TMC3    H210016   2.932   1.144   0.283 -0.3015  2.2363 -1.0547
  673TMC3    C710017   2.774   1.344   0.287 -0.2614 -0.0114  0.7234
  673TMC3    C810018   3.146   1.073   0.427 -0.7461  0.3763 -0.0783
  673TMC3    O110019   2.738   1.262   0.206 -0.0163 -0.2532  0.2923
  673TMC3    O210020   3.089   0.989   0.364  0.1441  0.2723  0.0721
  674MPD2     C10021   3.307   0.563  17.222 -0.3405 -0.1780 -0.0075
  674MPD2    C110022   3.237   0.512  17.329  0.1169 -0.4284 -0.6656
  674MPD2    C210023   3.127   0.582  17.381  0.1526  0.5463 -0.5008
  674MPD2    C310024   3.094   0.707  17.329 -0.2202  0.2559  0.0674
  674MPD2    C410025   3.159   0.755  17.218 -0.4271  0.5836 -0.0915
  674MPD2    C510026   3.261   0.680  17.161  0.2252  0.6434  0.1300
  674MPD2     H10027   3.083   0.543  17.472  0.1619  2.3574  0.2813
  674MPD2    H110028   3.134   0.846  17.165  0.1881  0.9197  0.1922
  674MPD2    H210029   3.392   0.510  17.181  0.7069  0.5150  1.2729
  674MPD2    H310030   3.299   0.713  17.065 -1.3235 -0.1424 -0.7545
  674MPD2     N10031   3.003   0.781  17.408  0.2023 -0.5708  0.1976
  674MPD2    H510032   2.952   0.723  17.474 -0.4864 -0.3903 -0.1763
  674MPD2    N110033   3.284   0.400  17.404  0.0570 -0.3261  0.2108
  674MPD2    H710034   3.340   0.336  17.349 -2.1861 -1.0293 -1.2674
  675TMC3    C110035   3.252   0.467  17.638  0.1119  0.0566 -0.4912
  675TMC3    C210036   3.188   0.426   0.003 -0.1461  0.3631  0.5447
  675TMC3    C310037   3.178   0.515   0.105 -0.0673  0.4523 -0.0624
  675TMC3    C410038   3.303   0.592  17.620 -0.5014 -0.4612 -0.4813
  675TMC3    C510039   3.271   0.683  17.713  0.6477  0.0567  0.2417
  675TMC3    C610040   3.211   0.646   0.079  0.1386  0.0743 -0.3427
  675TMC3     C10041   3.274   0.367  17.536 -0.1052  0.5872 -0.3207
  675TMC3     O10042   3.300   0.256  17.590  0.2011 -0.1620  0.0521
  675TMC3     H10043   3.153   0.324   0.008 -0.8572  0.5950  0.2457
  675TMC3    H110044   3.345   0.614  17.522 -2.0629  0.4843 -0.9451
  675TMC3    H210045   3.207   0.721   0.156  1.6265  0.3012 -0.5026
  675TMC3    C710046   3.294   0.822  17.681  0.4704  0.6559  1.0258
  675TMC3    C810047   3.093   0.482   0.218 -0.2417 -0.4083 -0.0834
  675TMC3    O110048   3.368   0.835  17.583 -0.7529  0.5760  0.0413
  675TMC3    O210049   3.044   0.370   0.216  0.5304 -0.2093 -0.0816
  676MPD2     C10050   0.914   4.467  10.803  0.1254  0.0466 -0.4514
  676MPD2    C110051   0.783   4.431  10.834  0.2481 -0.6400 -0.6258
  676MPD2    C210052   0.729   4.321  10.769  0.4306  0.6571  0.5235
  676MPD2    C310053   0.796   4.254  10.671  0.5374 -0.2952  0.7990
  676MPD2    C410054   0.927   4.285  10.645  0.2563 -0.2324 -0.4015
  676MPD2    C510055   0.982   4.389  10.711  0.3960 -0.7190 -1.1897
  676MPD2     H10056   0.627   4.293  10.791 -0.5080  3.3844 -0.3409
  676MPD2    H110057   0.987   4.216  10.587 -2.2429 -2.4249 -0.3983
  676MPD2    H210058   0.973   4.532  10.867 -0.2159  0.3252 -0.4222
  676MPD2    H310059   1.087   4.413  10.699  0.3840 -0.0785 -0.0092
  676MPD2     N10060   0.736   4.139  10.605 -0.6550 -0.4536  0.8527
  676MPD2    H510061   0.777   4.107  10.518 -0.3153  1.7774  0.1903
  676MPD2    N110062   0.705   4.463  10.948 -0.6890  0.8091 -0.1273
  676MPD2    H710063   0.619   4.410  10.961  1.1867 -2.2152 -0.0478
  677TMC3    C110064   0.639   4.581  11.143  0.3156 -0.4964 -0.5509
  677TMC3    C210065   0.510   4.546  11.125 -0.0083  0.1272  0.3558
  677TMC3    C310066   0.420   4.590  11.215  0.1605  0.2595 -0.1010
  677TMC3    C410067   0.686   4.651  11.254  0.1442  0.4249 -1.0297
  677TMC3    C510068   0.589   4.688  11.347 -0.4433  0.0082  0.4490
  677TMC3    C610069   0.457   4.658  11.325  0.0330  0.4318 -0.0395
  677TMC3     C10070   0.740   4.560  11.040 -0.4557 -0.0461  0.3444
  677TMC3     O10071   0.844   4.628  11.040  0.1564 -0.7458 -0.7228
  677TMC3     H10072   0.481   4.512  11.026  0.9473 -1.4789  0.6103
  677TMC3    H110073   0.786   4.691  11.255 -0.3775  1.7004  1.5130
  677TMC3    H210074   0.383   4.688  11.399  1.2858  0.4224  1.2202
  677TMC3    C710075   0.621   4.722  11.478  0.6074 -0.6312  0.1289
  677TMC3    C810076   0.314   4.497  11.248 -0.5009 -0.2509  0.5692
  677TMC3    O110077   0.555   4.681  11.570  0.1524  0.1508 -0.0555
  677TMC3    O210078   0.338   4.391  11.194 -0.1476 -1.0028  0.3485
  678MPD2     C10079   2.678   4.241   1.447  0.4604  0.5249 -0.0419
  678MPD2    C110080   2.674   4.179   1.324 -0.5366  0.6439  0.3309
  678MPD2    C210081   2.557   4.187   1.247 -0.4848  0.4945  0.4239
  678MPD2    C310082   2.446   4.250   1.299 -0.2746 -0.1166  0.0870
  678MPD2    C410083   2.450   4.308   1.424  0.8343 -0.5357 -0.4810
  678MPD2    C510084   2.569   4.306   1.490 -0.1766 -0.4133  0.2158
  678MPD2     H10085   2.552   4.133   1.153 -0.6465  0.3118  0.5381
  678MPD2    H110086   2.370   4.367   1.467  0.3391 -0.6630 -1.2279
  678MPD2    H210087   2.763   4.245   1.515 -0.0969 -0.8142  0.7403
  678MPD2    H310088   2.576   4.366   1.580 -1.0722 -0.4056  0.2865
  678MPD2     N10089   2.330   4.241   1.229 -0.9751 -0.5298  0.8632
  678MPD2    H510090   2.341   4.213   1.132 -1.6958 -0.6833  0.8237
  678MPD2    N110091   2.775   4.098   1.271 -0.0672 -0.0011 -0.1083
  678MPD2    H710092   2.755   4.047   1.186 -0.7227  0.1568 -0.0479
  679TMC3    C110093   3.153   3.850   1.235 -0.0872  0.3933 -0.0312
  679TMC3    C210094   3.067   3.922   1.310  0.4475 -0.0746 -0.1341
  679TMC3    C310095   2.976   3.997   1.237 -0.3161  0.4171 -0.4715
  679TMC3    C410096   3.145   3.846   1.098 -0.3641  1.0192 -0.4498
  679TMC3    C510097   3.048   3.915   1.037  0.3713 -0.4722  0.4148
  679TMC3    C610098   2.965   3.999   1.101  0.2526 -0.4564  0.4949
  679TMC3     C10099   3.223   3.738   1.289 -0.0851 -0.2832 -0.3961
  679TMC3     O10100   3.305   3.677   1.220  0.5584 -0.8017  0.2942
  679TMC3     H10101   3.071   3.926   1.418  0.0083  2.6287 -0.2032
  679TMC3    H110102   3.196   3.773   1.036  1.0585  0.9275  0.8059
  679TMC3    H210103   2.897   4.058   1.039 -0.0764 -0.8401  0.4954
  679TMC3    C710104   3.061   3.942   0.898  0.3399 -0.2330 -0.4198
  679TMC3    C810105   2.897   4.083   1.324  0.2752 -0.1824  0.9576
  679TMC3    O110106   2.960   3.963   0.835 -0.2306  0.1314  0.3868
  679TMC3    O210107   2.942   4.120   1.434 -0.2247 -0.1831 -0.0824
  680MPD2     C10108   2.167   2.398  13.395  0.3320  0.0110  1.0188
  680MPD2    C110109   2.264   2.365  13.489 -0.3470  0.1368 -0.2946
  680MPD2    C210110   2.311   2.468  13.571  0.7766 -0.4334  0.1325
  680MPD2    C310111   2.281   2.605  13.549  0.1442 -0.0052 -0.1902
  680MPD2    C410112   2.193   2.633  13.448 -0.3749  0.4308 -0.0354
  680MPD2    C510113   2.142   2.532  13.373  0.4165 -0.1731 -0.5955
  680MPD2     H10114   2.382   2.437  13.648 -1.0898 -1.9238  1.2474
  680MPD2    H110115   2.165   2.735  13.421  2.2553  1.5376  1.3725
  680MPD2    H210116   2.121   2.329  13.324 -0.7959  1.7950  0.0253
  680MPD2    H310117   2.068   2.551  13.296  0.3504  0.6749 -0.3325
  680MPD2     N10118   2.348   2.709  13.617 -0.7180 -0.3179 -0.6918
  680MPD2    H510119   2.359   2.799  13.571  0.2643 -0.7455 -1.2906
  680MPD2    N110120   2.317   2.234  13.513  0.7454 -0.6108 -1.1012
  680MPD2    H710121   2.386   2.229  13.588 -0.0805 -1.8531 -0.4311
  681TMC3    C110122   2.399   2.020  13.459  0.5161 -0.5997 -0.0897
  681TMC3    C210123   2.363   1.888  13.480  0.2784 -0.1938 -0.2858
  681TMC3    C310124   2.468   1.805  13.497  0.1444  0.8468 -0.3841
  681TMC3    C410125   2.523   2.074  13.416 -0.0026  0.1736 -0.4536
  681TMC3    C510126   2.619   1.979  13.427  0.0171 -0.3648 -0.0504
  681TMC3    C610127   2.593   1.854  13.473  0.0763 -0.0684  0.1156
  681TMC3     C10128   2.292   2.122  13.453 -0.9204  0.3466  0.0418
  681TMC3     O10129   2.179   2.084  13.411 -0.2648  0.2920 -0.1431
  681TMC3     H10130   2.263   1.851  13.500  1.2166 -1.9815  1.1539
  681TMC3    H110131   2.549   2.178  13.402 -1.2088  0.6610  0.8245
  681TMC3    H210132   2.672   1.780  13.468  0.0198 -0.0950 -0.4541
  681TMC3    C710133   2.748   2.011  13.371  0.1793 -0.3415  0.1497
  681TMC3    C810134   2.461   1.688  13.583  0.6879 -0.6121  1.0182
  681TMC3    O110135   2.845   1.942  13.406  0.2698  0.1475 -0.7736
  681TMC3    O210136   2.392   1.594  13.542  0.4647  0.3060  0.5142
  682MPD2     C10137   3.837   4.251  10.440  0.2893  0.2029  0.6154
  682MPD2    C110138   3.890   4.134  10.489  0.1890 -0.3830  0.0879
  682MPD2    C210139   3.976   4.137  10.598  0.0318  0.3515  0.1148
  682MPD2    C310140   4.002   4.256  10.669 -0.4060  0.6154 -0.0945
  682MPD2    C410141   3.934   4.367  10.636 -0.4914 -0.6556 -0.5647
  682MPD2    C510142   3.850   4.360  10.526  0.5956  0.4734  0.2456
  682MPD2     H10143   4.020   4.044  10.631  1.1893  0.8790  0.0481
  682MPD2    H110144   3.952   4.458  10.692 -0.0871 -0.8952 -0.3037
  682MPD2    H210145   3.769   4.264  10.356  2.1160 -1.8079 -1.1779
  682MPD2    H310146   3.799   4.453  10.501  0.4150  0.5919  1.0432
  682MPD2     N10147   4.076   4.255  10.790 -0.0367  0.0835  0.4249
  682MPD2    H510148   4.068   4.340  10.844 -0.9198 -0.0976  0.5883
  682MPD2    N110149   3.865   4.007  10.425 -0.3095 -0.1461 -0.2339
  682MPD2    H710150   3.912   3.928  10.468 -0.4703 -0.5042 -0.7119
  683TMC3    C110151   4.152   4.190  11.182  0.2837 -0.0542 -0.2684
  683TMC3    C210152   4.217   4.075  11.227  0.0280  0.3028  0.5009
  683TMC3    C310153   4.287   4.011  11.132 -0.5527  0.5474  0.3803
  683TMC3    C410154   4.143   4.233  11.055 -0.7256 -0.0496  0.3172
  683TMC3    C510155   4.209   4.160  10.957  0.3210  0.0039 -0.6168
  683TMC3    C610156   4.284   4.048  10.999 -0.6192  0.3504 -0.0732
  683TMC3     C10157   4.145   4.290  11.282 -0.1043  0.8918 -0.7671
  683TMC3     O10158   4.142   4.408  11.246  0.2722  0.2880  0.1225
  683TMC3     H10159   4.233   4.050  11.331  0.9783  0.1296  0.3090
  683TMC3    H110160   4.070   4.312  11.040 -0.3640 -0.1998 -2.2143
  683TMC3    H210161   4.351   3.991  10.936  0.8708  1.6157  0.3707
  683TMC3    C710162   4.155   4.143  10.825  0.5927  0.0230  0.0259
  683TMC3    C810163   4.329   3.875  11.165  0.1069 -0.2655  0.1452
  683TMC3    O110164   4.191   4.039  10.776 -0.0005  0.5018 -0.3277
  683TMC3    O210165   4.411   3.826  11.085  0.3269 -0.1083  0.7856
  684MPD2     C10166   2.658   3.553  16.296 -0.1095 -0.0987 -0.4748
  684MPD2    C110167   2.591   3.559  16.177 -0.4870  0.1318 -0.1183
  684MPD2    C210168   2.455   3.586  16.179  0.1805 -1.0703  0.6985
  684MPD2    C310169   2.402   3.602  16.304  0.1526 -0.0986  0.3636
  684MPD2    C410170   2.474   3.603  16.423 -0.0708 -0.3432 -0.2293
  684MPD2    C510171   2.604   3.576  16.419 -0.4855 -0.1578  0.0125
  684MPD2     H10172   2.398   3.591  16.087 -0.6465  0.4421  1.3042
  684MPD2    H110173   2.432   3.637  16.517  1.0515  0.4283 -0.0170
  684MPD2    H210174   2.766   3.542  16.294 -0.0088  0.7983  0.2602
  684MPD2    H310175   2.667   3.596  16.506  1.5902  0.6000 -1.6470
  684MPD2     N10176   2.270   3.645  16.324  0.3923  0.5145  0.6624
  684MPD2    H510177   2.237   3.652  16.420 -0.0140  2.7924  0.3733
  684MPD2    N110178   2.649   3.543  16.052  0.2451 -0.0081 -0.5238
  684MPD2    H710179   2.595   3.530  15.967 -0.0632 -0.6516 -0.2274
  685TMC3    C110180   2.816   3.520  15.886  0.3765  0.4691 -0.3712
  685TMC3    C210181   2.743   3.424  15.814  0.4252  0.1798 -0.0085
  685TMC3    C310182   2.796   3.354  15.707 -0.3653 -0.0776  0.1562
  685TMC3    C410183   2.953   3.523  15.858 -0.5015  0.0728 -0.6911
  685TMC3    C510184   3.000   3.438  15.756  0.6805  0.0033  0.1333
  685TMC3    C610185   2.929   3.355  15.684  0.2500 -0.4393  0.4334
  685TMC3     C10186   2.780   3.556  16.017 -1.0404 -0.3551 -0.0155
  685TMC3     O10187   2.869   3.593  16.091  0.1322 -0.1218  0.3437
  685TMC3     H10188   2.643   3.401  15.847  0.9889 -1.9252  0.2713
  685TMC3    H110189   3.023   3.584  15.913  0.7087 -1.1221 -0.9049
  685TMC3    H210190   2.975   3.300  15.603 -2.8351 -0.8432 -1.0374
  685TMC3    C710191   3.142   3.407  15.756  0.3898 -0.1302 -0.0703
  685TMC3    C810192   2.719   3.264  15.626  0.1211 -1.0200 -0.2050
  685TMC3    O110193   3.173   3.327  15.842  0.3511  0.1453 -0.3086
  685TMC3    O210194   2.769   3.190  15.538 -0.1973 -0.1055  0.1752
  686MPD2     C10195   4.333   3.129  15.087  0.2276 -0.3295  0.0961
  686MPD2    C110196   4.341   3.074  15.212 -0.6009  0.1658  0.0408
  686MPD2    C210197   4.439   2.980  15.237 -0.0197  0.0093 -0.2787
  686MPD2    C310198   4.494   2.913  15.133  0.3819 -0.1956 -0.0943
  686MPD2    C410199   4.481   2.963  15.004  0.2622 -0.3948  0.2344
  686MPD2    C510200   4.398   3.067  14.983  0.3036 -0.2114 -0.5781
  686MPD2     H10201   4.469   2.960  15.339 -1.5424 -0.2553  0.1172
  686MPD2    H110202   4.526   2.917  14.917 -0.2195 -0.0748 -0.1821
  686MPD2    H210203   4.261   3.210  15.076  0.1547 -0.4042  0.0181
  686MPD2    H310204   4.385   3.103  14.881 -1.5426  0.4769 -0.0842
  686MPD2     N10205   4.569   2.792  15.149  0.3880 -0.1406 -0.3165
  686MPD2    H510206   4.621   2.764  15.066 -1.4411  2.0317 -2.1999
  686MPD2    N110207   4.260   3.133  15.309 -0.1366 -0.3283 -0.6091
  686MPD2    H710208   4.212   3.215  15.274 -0.9917  0.5289  2.6099
  687TMC3    C110209   4.467   2.715  15.354  0.3802 -0.1775  0.2646
  687TMC3    C210210   4.336   2.698  15.317 -0.1064 -0.1552  0.0444
  687TMC3    C310211   4.237   2.681  15.409  0.5192 -0.0483 -0.2092
  687TMC3    C410212   4.505   2.687  15.487  0.0777 -0.6520  0.0357
  687TMC3    C510213   4.399   2.658  15.576  0.4585  0.3602 -0.3342
  687TMC3    C610214   4.270   2.646  15.539 -0.8130  0.5763 -0.0134
  687TMC3     C10215   4.576   2.706  15.258  0.1050  0.0826 -0.6477
  687TMC3     O10216   4.670   2.629  15.279  0.2802 -0.4902 -0.9655
  687TMC3     H10217   4.301   2.704  15.214  1.2348 -2.3092 -0.5309
  687TMC3    H110218   4.609   2.685  15.516  0.4497  1.0310 -1.2263
  687TMC3    H210219   4.192   2.628  15.613 -0.2304  2.1899  1.0090
  687TMC3    C710220   4.428   2.679  15.717  0.7426 -0.2119  0.0457
  687TMC3    C810221   4.100   2.717  15.377  0.3298  0.7577  0.8877
  687TMC3    O110222   4.390   2.593  15.793 -0.0756 -0.1628 -0.2424
  687TMC3    O210223   4.024   2.676  15.465  0.6263 -0.7068 -0.2200
  688MPD2     C10224   3.583   2.326  16.947  0.2937  0.1669 -0.3698
  688MPD2    C110225   3.663   2.236  17.023 -0.2593  0.0751  0.0048
  688MPD2    C210226   3.761   2.162  16.959 -0.3823  0.2616  0.5457
  688MPD2    C310227   3.792   2.203  16.824  0.1175 -0.1045 -0.1215
  688MPD2    C410228   3.733   2.314  16.768 -0.0190  0.1693 -0.2653
  688MPD2    C510229   3.628   2.376  16.829  0.4583  0.3634  0.0751
  688MPD2     H10230   3.811   2.081  17.011  0.3583  0.8091  0.6948
  688MPD2    H110231   3.757   2.348  16.668 -3.4220 -3.4126 -2.2871
  688MPD2    H210232   3.494   2.374  16.987  0.3170  0.5995 -0.8367
  688MPD2    H310233   3.570   2.449  16.773  0.3235 -0.8970 -1.4241
  688MPD2     N10234   3.887   2.142  16.740 -0.1102  0.0107  0.1983
  688MPD2    H510235   3.890   2.162  16.641  1.2206  2.6195  0.7686
  688MPD2    N110236   3.630   2.204  17.158  0.3930  0.2112 -0.4218
  688MPD2    H710237   3.672   2.123  17.200  1.5500  0.2325 -1.5500
  689TMC3    C110238   3.575   2.256  17.381  0.7007  0.2310  0.2295
  689TMC3    C210239   3.612   2.359  17.461  0.3965  0.2321  0.8132
  689TMC3    C310240   3.575   2.347  17.592  0.0826  0.3299  0.0843
  689TMC3    C410241   3.502   2.147  17.425  0.5977  0.4002  0.5902
  689TMC3    C510242   3.473   2.135  17.556 -0.1247 -0.1133  0.2751
  689TMC3    C610243   3.508   2.239  17.641  0.3048  0.0630  0.6854
  689TMC3     C10244   3.567   2.292  17.243 -0.5239 -0.1196 -0.3359
  689TMC3     O10245   3.533   2.408  17.226 -0.7537 -0.3472 -0.5063
  689TMC3     H10246   3.673   2.439  17.421 -1.5358  1.6162  0.6369
  689TMC3    H110247   3.479   2.069  17.354  0.1897  1.5224 -0.5003
  689TMC3    H210248   3.490   2.228  17.748  1.2912  1.5301  0.9904
  689TMC3    C710249   3.388   2.027  17.612  0.2107 -0.1195  0.6397
  689TMC3    C810250   3.597   2.459  17.686 -0.0719  0.2295 -0.2680
  689TMC3    O110251   3.387   2.027  17.738  0.2747  0.2565  0.0568
  689TMC3    O210252   3.590   2.432   0.050 -0.1635 -0.1967  0.6496
  690MPD2     C10253   1.364   3.936  15.542 -0.1616  0.0286 -0.6531
  690MPD2    C110254   1.334   3.886  15.417 -0.6794  0.0528 -0.4019
  690MPD2    C210255   1.428   3.909  15.314  0.4652  0.1509 -0.8679
  690MPD2    C310256   1.550   3.974  15.332 -0.3670 -0.2559 -0.0517
  690MPD2    C410257   1.582   4.003  15.462  0.6592  0.2817  0.4088
  690MPD2    C510258   1.491   3.982  15.564  0.0321  0.1194  0.0690
  690MPD2     H10259   1.394   3.888  15.214 -0.1675  0.0251 -0.6256
  690MPD2    H110260   1.671   4.058  15.490  0.4195  0.5006  0.7517
  690MPD2    H210261   1.297   3.918  15.625  1.8879  1.2087  1.2568
  690MPD2    H310262   1.519   4.016  15.663  1.6616 -1.0106  0.0011
  690MPD2     N10263   1.635   3.996  15.224 -0.1787 -0.9705  0.7408
  690MPD2    H510264   1.615   3.947  15.137  0.5923 -0.2044  0.1338
  690MPD2    N110265   1.226   3.800  15.377  0.1205 -0.0750 -0.8493
  690MPD2    H710266   1.228   3.757  15.285 -1.1143 -3.1145  0.5469
  691TMC3    C110267   1.015   3.706  15.386  0.4680  0.1441  0.4533
  691TMC3    C210268   0.884   3.752  15.384  0.2785 -0.4750 -0.4991
  691TMC3    C310269   0.797   3.664  15.320  0.3031  0.0082 -0.0128
  691TMC3    C410270   1.056   3.594  15.331 -0.6669  0.3349 -0.1631
  691TMC3    C510271   0.959   3.514  15.282 -0.6030  0.1157 -0.1879
  691TMC3    C610272   0.833   3.554  15.258 -0.4846 -0.6153 -0.0554
  691TMC3     C10273   1.113   3.785  15.455 -0.6594 -0.8422 -0.4364
  691TMC3     O10274   1.067   3.825  15.563  0.1857  0.3126  0.2451
  691TMC3     H10275   0.849   3.847  15.424  0.9911  1.2667 -4.0092
  691TMC3    H110276   1.151   3.550  15.360 -0.5236  1.0517  0.4361
  691TMC3    H210277   0.764   3.496  15.198 -1.4321  0.8941 -0.4378
  691TMC3    C710278   0.969   3.365  15.289  0.0314  0.0763  0.5360
  691TMC3    C810279   0.678   3.643  15.400  0.1248  0.6344 -0.1534
  691TMC3    O110280   1.082   3.317  15.294  0.1617  0.4171 -0.0417
  691TMC3    O210281   0.653   3.525  15.419  0.1387 -0.8298  0.2518
  692TMC3    C110282   2.566   4.629  15.808  0.6553 -0.3610  0.0819
  692TMC3    C210283   2.676   4.693  15.857  0.5011 -0.0320 -0.7246
  692TMC3    C310284   2.791   4.622  15.888 -0.8114 -1.0936  0.0233
  692TMC3    C410285   2.555   4.493  15.831 -0.0948  0.0239  0.2310
  692TMC3    C510286   2.667   4.431  15.881  0.3937  0.4587  0.1684
  692TMC3    C610287   2.788   4.488  15.894 -0.2233 -0.1463 -0.3747
  692TMC3     C10288   2.444   4.708  15.785 -0.4673  0.3716 -0.0332
  692TMC3     O10289   2.449   0.083  15.832 -0.1598  0.2704  0.4259
  692TMC3     H10290   2.684   0.061  15.839 -0.9944 -0.0148 -1.2819
  692TMC3    H110291   2.458   4.448  15.816  0.0985 -0.2989 -0.0365
  692TMC3    H210292   2.870   4.438  15.944  1.6505  1.8903 -1.4114
  692TMC3    C710293   2.659   4.293  15.916 -0.2639  0.1775  0.1191
  692TMC3    C810294   2.843   4.679  16.008  0.2252  0.4383 -0.7147
  692TMC3    O110295   2.763   4.228  15.914  0.2895  0.2959  0.3572
  692TMC3    O210296   2.966   4.677  16.020  0.5400 -0.0153  0.0981
  693MPD2     C10297   1.706   3.159  10.661 -1.5069 -1.0124  0.7405
  693MPD2    C110298   1.688   3.223  10.779  0.3498 -0.1008 -0.0354
  693MPD2    C210299   1.786   3.212  10.884 -0.3597 -0.6022 -0.0090
  693MPD2    C310300   1.889   3.128  10.858  0.1425  0.3494 -0.0162
  693MPD2    C410301   1.907   3.065  10.738  0.0473 -0.1062 -0.3454
  693MPD2    C510302   1.814   3.071  10.637  0.1549  0.3119  0.0181
  693MPD2     H10303   1.774   3.268  10.975 -0.4394  0.2102 -0.5170
  693MPD2    H110304   1.998   3.007  10.731  0.1207 -0.2132  1.4386
  693MPD2    H210305   1.629   3.161  10.585  1.9422  1.3176 -2.6800
  693MPD2    H310306   1.813   3.002  10.553 -1.5269  0.6861 -0.2521
  693MPD2     N10307   1.982   3.097  10.955  0.4285  0.0268 -0.6912
  693MPD2    H510308   2.042   3.016  10.944 -1.1992 -1.3868  0.8631
  693MPD2    N110309   1.561   3.290  10.801 -0.2447 -0.6400  0.3158
  693MPD2    H710310   1.491   3.272  10.729  0.9703  0.5823 -1.1795
  694TMC3    C110311   1.389   3.402  10.916  0.0388 -0.1818  0.1579
  694TMC3    C210312   1.296   3.357  10.826  0.2836 -0.2061  0.3661
  694TMC3    C310313   1.168   3.406  10.837  0.6114 -0.4008  0.1143
  694TMC3    C410314   1.352   3.479  11.019 -0.2272 -0.3276 -0.2594
  694TMC3    C510315   1.225   3.526  11.034  0.0285 -0.3958  0.3184
  694TMC3    C610316   1.131   3.491  10.941  0.3547  0.0886 -0.0554
  694TMC3     C10317   1.517   3.344  10.920  0.0629  0.0078  0.6087
  694TMC3     O10318   1.582   3.352  11.031 -0.8124  0.1640  0.5128
  694TMC3     H10319   1.327   3.297  10.741  0.0067 -0.7978  0.6876
  694TMC3    H110320   1.428   3.525  11.081  0.6356 -1.2218 -0.6566
  694TMC3    H210321   1.028   3.514  10.968  0.0734 -0.6623 -0.4722
  694TMC3    C710322   1.172   3.513  11.168 -0.5775  0.0132  0.2477
  694TMC3    C810323   1.065   3.364  10.745 -0.2324 -0.0283  0.0856
  694TMC3    O110324   1.082   3.588  11.203 -0.8840  0.5268 -0.3798
  694TMC3    O210325   1.066   3.255  10.692  0.5537  0.2080  0.0716
  695MPD2     C10326   3.038   0.228  13.392 -0.0932 -0.1341  0.3944
  695MPD2    C110327   3.000   0.148  13.490  0.0465 -0.3529 -0.1436
  695MPD2    C210328   2.866   0.117  13.501  0.4792  1.1679  0.1402
  695MPD2    C310329   2.773   0.159  13.409 -0.8229 -0.2611  0.2496
  695MPD2    C410330   2.815   0.247  13.310  0.0490  0.4185  0.5437
  695MPD2    C510331   2.943   0.282  13.309 -0.2198  0.1752 -0.0074
  695MPD2     H10332   2.833   0.068  13.591  2.0886 -1.1966 -0.5596
  695MPD2    H110333   2.744   0.296  13.244  0.5756  0.1869 -0.1876
  695MPD2    H210334   3.138   0.268  13.378  0.5411 -1.7758  0.1907
  695MPD2    H310335   2.974   0.364  13.246 -1.2208 -1.3700 -2.4834
  695MPD2     N10336   2.639   0.132  13.440  0.0379  0.3348 -0.4302
  695MPD2    H510337   2.632   0.086  13.530  2.3971 -0.4593 -0.6635
  695MPD2    N110338   3.079   0.111  13.601 -0.1939  0.1391  0.2639
  695MPD2    H710339   3.024   0.061  13.670 -0.5123  1.4400  0.9553
  696TMC3    C110340   2.403   0.158  13.445  1.1809 -0.5016  0.1918
  696TMC3    C210341   2.400   0.049  13.535  0.4905 -0.2030  0.7911
  696TMC3    C310342   2.295   0.046  13.619  0.3878 -0.2410 -0.3200
  696TMC3    C410343   2.309   0.257  13.438 -0.2863 -0.2093  0.0603
  696TMC3    C510344   2.218   0.257  13.537  0.3243 -0.0095 -0.0055
  696TMC3    C610345   2.206   0.152  13.629 -0.5008 -0.3808 -0.4268
  696TMC3     C10346   2.525   0.178  13.374 -1.1428 -0.2900 -0.3903
  696TMC3     O10347   2.514   0.252  13.275 -0.3202  0.1897  0.6578
  696TMC3     H10348   2.473   4.709  13.545  1.1211  0.3849  0.8576
  696TMC3    H110349   2.327   0.343  13.374  0.9350 -2.2917 -2.3804
  696TMC3    H210350   2.130   0.144  13.705  1.1699 -1.6680  1.1281
  696TMC3    C710351   2.118   0.364  13.528 -0.6417  0.4078  0.3519
  696TMC3    C810352   2.297   4.676  13.716  0.2662  0.1375 -0.6419
  696TMC3    O110353   2.097   0.409  13.416  0.2558  0.3654  0.2802
  696TMC3    O210354   2.405   4.621  13.739  0.3554  0.0383 -0.2839
  697MPD2     C10355   1.754   1.864  15.130 -0.2680  0.1966  0.0245
  697MPD2    C110356   1.791   1.793  15.021  0.5857 -0.5984 -0.5570
  697MPD2    C210357   1.802   1.846  14.895  0.0394 -0.7755  0.0606
  697MPD2    C310358   1.780   1.983  14.882 -0.2323  0.9840  0.4051
  697MPD2    C410359   1.716   2.049  14.983 -0.2367  0.1137 -0.0915
  697MPD2    C510360   1.700   1.988  15.105 -0.2244 -0.0812 -0.1021
  697MPD2     H10361   1.855   1.787  14.820 -0.3306 -0.8355 -0.1520
  697MPD2    H110362   1.680   2.150  14.972 -1.3006 -0.3597 -1.0652
  697MPD2    H210363   1.745   1.814  15.225 -0.1277  0.2803  0.0818
  697MPD2    H310364   1.666   2.054  15.183  2.2720  1.0116  0.0623
  697MPD2     N10365   1.821   2.040  14.756  0.0303  0.1892 -0.0231
  697MPD2    H510366   1.864   1.975  14.691  0.9952 -0.2557  1.0757
  697MPD2    N110367   1.819   1.656  15.029  0.7949  0.4933  0.5661
  697MPD2    H710368   1.809   1.606  14.942 -0.2225 -0.5250  1.2618
  698TMC3    C110369   1.915   2.206  14.626  0.8382 -0.2654 -0.2135
  698TMC3    C210370   1.994   2.319  14.636 -0.5977 -0.2510  0.3580
  698TMC3    C310371   2.075   2.347  14.526 -0.6049 -0.0379  0.4431
  698TMC3    C410372   1.898   2.134  14.509 -0.3256  0.3832  0.4132
  698TMC3    C510373   1.969   2.172  14.397 -0.4721  0.7477 -0.6240
  698TMC3    C610374   2.050   2.284  14.400  0.5888  0.8710  0.7485
  698TMC3     C10375   1.832   2.177  14.736  0.7295  0.0636  0.3315
  698TMC3     O10376   1.817   2.263  14.820  0.1379  0.1356 -0.0587
  698TMC3     H10377   1.996   2.387  14.720  2.1687  0.6031 -0.3962
  698TMC3    H110378   1.820   2.059  14.510  1.1881 -1.1849  1.8667
  698TMC3    H210379   2.113   2.301  14.313  0.3946 -0.8422  0.2731
  698TMC3    C710380   1.983   2.069  14.296 -0.1172  0.3558 -0.6026
  698TMC3    C810381   2.131   2.478  14.508  0.3747 -0.3521  0.6354
  698TMC3    O110382   1.929   1.961  14.322 -0.6257  0.1060 -1.0069
  698TMC3    O210383   2.124   2.514  14.393  0.2161  0.2043  0.7506
  699TMC3    C110384   2.095   0.259  12.976 -0.3322  0.5967 -0.0242
  699TMC3    C210385   2.138   0.158  13.057  0.4904 -0.3788  0.6726
  699TMC3    C310386   2.057   0.127  13.167  0.0907  0.1701  0.4947
  699TMC3    C410387   1.981   0.329  12.997 -0.0436  0.4366  0.2809
  699TMC3    C510388   1.907   0.292  13.108  0.3924  0.6403 -0.4694
  699TMC3    C610389   1.943   0.195  13.196  0.0231  0.0062  0.6952
  699TMC3     C10390   2.158   0.291  12.850  0.7604  0.2602  0.1880
  699TMC3     O10391   2.088   0.355  12.772  0.6024  0.4438  0.4475
  699TMC3     H10392   2.233   0.111  13.036 -0.9942 -3.0745 -0.0013
  699TMC3    H110393   1.951   0.415  12.938 -0.1050  0.9927  1.1093
  699TMC3    H210394   1.881   0.167  13.280 -0.3311  0.0534  0.4485
  699TMC3    C710395   1.786   0.370  13.140 -0.8686 -0.2209 -0.0199
  699TMC3    C810396   2.086   0.007  13.256  0.0502 -1.3650  0.3559
  699TMC3    O110397   1.750   0.355  13.256 -0.3434 -0.0874  0.1583
  699TMC3    O210398   1.994   4.710  13.329 -0.2593 -0.1112 -0.2552
  700TMC3    C110399   1.367   2.111  17.544 -0.4938  0.8823 -0.1627
  700TMC3    C210400   1.425   2.000  17.497  0.0133 -0.6382 -0.1493
  700TMC3    C310401   1.565   2.003  17.501 -0.2417 -0.2881 -0.3477
  700TMC3    C410402   1.427   2.207  17.630  0.5084 -0.1473 -0.4592
  700TMC3    C510403   1.561   2.176  17.659 -0.4024 -0.7282  0.1538
  700TMC3    C610404   1.625   2.086  17.583  0.1743  0.3093  0.1781
  700TMC3     C10405   1.248   2.157  17.480 -0.4419 -0.4544 -0.0423
  700TMC3     O10406   1.174   2.078  17.422  0.2199 -0.4637  0.2328
  700TMC3     H10407   1.372   1.933  17.431  1.7881 -0.5397 -1.6811
  700TMC3    H110408   1.368   2.273  17.693 -3.0280 -1.3202 -2.5253
  700TMC3    H210409   1.733   2.090  17.580  0.0937 -0.1267 -2.7016
  700TMC3    C710410   1.640   2.266  17.739 -0.5296  0.4437  0.0424
  700TMC3    C810411   1.638   1.888  17.445 -0.7462  0.1391 -0.2455
  700TMC3    O110412   1.761   2.272  17.719  0.0167  0.5643 -0.3213
  700TMC3    O210413   1.758   1.904  17.428 -0.1151  0.4319 -0.1572
  701TMC3    C110414   1.297   1.519  15.356 -0.3032  0.0689  0.4890
  701TMC3    C210415   1.356   1.407  15.296 -0.4166  0.3742  0.5504
  701TMC3    C310416   1.450   1.426  15.197  0.5656  0.9044 -0.4423
  701TMC3    C410417   1.342   1.646  15.327  0.1031  0.3473  0.5044
  701TMC3    C510418   1.435   1.660  15.230  0.8942 -0.1227  0.3268
  701TMC3    C610419   1.490   1.550  15.163 -0.5546 -0.4562  0.1985
  701TMC3     C10420   1.193   1.524  15.454  0.2908 -0.0695  0.1460
  701TMC3     O10421   1.185   1.623  15.525 -0.2294  0.0632 -0.6422
  701TMC3     H10422   1.346   1.311  15.346  2.6588 -0.3554 -0.1876
  701TMC3    H110423   1.316   1.736  15.382 -2.9364  0.4200 -1.0137
  701TMC3    H210424   1.555   1.568  15.078 -0.2325  1.3542  0.8420
  701TMC3    C710425   1.413   1.791  15.167 -0.8123 -0.0370  0.1744
  701TMC3    C810426   1.481   1.314  15.108 -0.2116  0.9683  0.0815
  701TMC3    O110427   1.393   1.889  15.242  0.8497  0.5577  0.5850
  701TMC3    O210428   1.575   1.332  15.032  0.3140  0.1290 -0.0151
  702MPD2     C10429   0.232   4.338  10.138  0.0861  0.5330  0.8125
  702MPD2    C110430   0.355   4.341  10.190 -0.1010  0.4087 -0.1274
  702MPD2    C210431   0.433   4.457  10.179  0.2155  0.1020  0.4961
  702MPD2    C310432   0.379   4.570  10.117  0.3650 -0.0589  0.6858
  702MPD2    C410433   0.250   4.558  10.069  0.9988 -0.8330 -0.4073
  702MPD2    C510434   0.183   4.440  10.081 -0.5109  0.1399 -0.5790
  702MPD2     H10435   0.537   4.450  10.206  0.7713  3.1566 -0.8224
  702MPD2    H110436   0.209   4.646  10.021  0.6397 -1.5309 -1.3836
  702MPD2    H210437   0.168   4.251  10.130  0.1626  0.4435  1.1633
  702MPD2    H310438   0.084   4.434  10.039 -1.2503  1.6900  0.9204
  702MPD2     N10439   0.427   4.704  10.094  0.0713  0.3594 -0.1697
  702MPD2    H510440   0.359   0.028  10.053 -0.6842 -0.9100 -0.8642
  702MPD2    N110441   0.409   4.229  10.257  0.2773 -0.0604 -0.1539
  702MPD2    H710442   0.503   4.246  10.289  0.0121 -0.1097  0.6573
  703TMC3    C110443   0.604   4.714  10.260  0.0244 -0.4828  0.0896
  703TMC3    C210444   0.528   4.677  10.375  0.0895 -0.0036  0.7874
  703TMC3    C310445   0.595   4.615  10.474  0.5928 -0.5638 -0.1241
  703TMC3    C410446   0.740   4.688  10.252  0.1726 -0.0639  0.0164
  703TMC3    C510447   0.798   4.620  10.355  0.6144  0.5596  0.0064
  703TMC3    C610448   0.731   4.575  10.467 -0.8848 -0.8888  0.1168
  703TMC3     C10449   0.539   0.024  10.138  0.9207 -0.4893  0.0799
  703TMC3     O10450   0.574   0.135  10.103  0.5176 -0.5134 -0.2769
  703TMC3     H10451   0.420   4.688  10.374  0.1248  0.3651  2.6914
  703TMC3    H110452   0.797   4.732  10.171  0.8736  2.3648  1.8084
  703TMC3    H210453   0.774   4.509  10.541  2.5038  0.6503 -0.4468
  703TMC3    C710454   0.943   4.634  10.351 -0.1132 -0.4380 -0.0559
  703TMC3    C810455   0.523   4.494  10.514 -0.6211 -0.0566 -0.7150
  703TMC3    O110456   0.994   4.714  10.272  0.0990 -0.2874 -0.4854
  703TMC3    O210457   0.560   4.395  10.455  0.1993  0.3351 -0.8260
  704TMC3    C110458   3.161   1.641  12.661 -0.0409 -0.5031 -0.4140
  704TMC3    C210459   3.253   1.719  12.600  0.7952  0.5971 -0.2855
  704TMC3    C310460   3.380   1.729  12.659  0.4298 -0.4485 -0.7598
  704TMC3    C410461   3.194   1.570  12.774 -0.2314  0.2664 -0.0868
  704TMC3    C510462   3.320   1.573  12.829 -0.2967  0.0581  0.2418
  704TMC3    C610463   3.416   1.649  12.771 -0.2474 -0.0835 -0.2736
  704TMC3     C10464   3.024   1.633  12.621 -0.2078 -0.4131  0.2708
  704TMC3     O10465   2.939   1.564  12.687  0.3157  0.2022  0.4607
  704TMC3     H10466   3.221   1.776  12.513  2.0829  0.0139 -1.1391
  704TMC3    H110467   3.123   1.497  12.813 -1.2333  0.9323 -0.6531
  704TMC3    H210468   3.516   1.658  12.813  0.2372 -1.3810 -1.1611
  704TMC3    C710469   3.366   1.459  12.909 -0.1619 -0.1261 -0.2932
  704TMC3    C810470   3.487   1.707  12.562 -0.3943  0.0295  0.1487
  704TMC3    O110471   3.287   1.367  12.918 -1.0282  0.2814  0.0601
  704TMC3    O210472   3.604   1.728  12.598  0.0546  0.0436  0.0902
  705MPD2     C10473   2.846   4.369  16.227  0.1366 -0.2571 -0.1964
  705MPD2    C110474   2.897   4.465  16.310 -0.3522  0.2213 -0.2807
  705MPD2    C210475   2.814   4.519  16.409 -0.4625 -0.4543  0.2485
  705MPD2    C310476   2.686   4.475  16.424  0.4289  0.2433  0.5002
  705MPD2    C410477   2.634   4.382  16.339 -0.2926 -0.3246 -0.1240
  705MPD2    C510478   2.718   4.316  16.250  0.1578  0.7176 -0.4292
  705MPD2     H10479   2.855   4.606  16.461  1.1954  0.1263 -2.0301
  705MPD2    H110480   2.533   4.346  16.355  0.2669 -1.4927  0.8319
  705MPD2    H210481   2.900   4.336  16.140  1.2810 -0.2033  0.4929
  705MPD2    H310482   2.674   4.253  16.173  1.1950 -0.8166  0.2516
  705MPD2     N10483   2.591   4.530  16.514 -0.3925 -0.5598 -0.6122
  705MPD2    H510484   2.494   4.501  16.509 -0.7617  0.4498  0.4710
  705MPD2    N110485   3.026   4.513  16.300 -0.1167 -0.3318 -0.2276
  705MPD2    H710486   3.053   4.581  16.371 -1.4185  0.0033 -0.0673
  706TMC3    C110487   3.464   4.538  16.134  0.0027 -0.2370 -0.1420
  706TMC3    C210488   3.467   4.676  16.145  0.2301  0.1951 -0.7357
  706TMC3    C310489   3.356   0.005  16.196 -0.8071 -0.0702 -0.1710
  706TMC3    C410490   3.360   4.462  16.187  0.0428  0.1533  0.2238
  706TMC3    C510491   3.258   4.531  16.242 -0.1246  0.4748 -0.6682
  706TMC3    C610492   3.249   4.670  16.249 -0.5131  0.2358  0.3464
  706TMC3     C10493   3.565   4.465  16.060  0.2999 -0.0656  0.6665
  706TMC3     O10494   3.608   4.363  16.114 -0.1648  0.1499  0.2407
  706TMC3     H10495   3.548   4.727  16.095 -0.0839  1.3614 -0.0665
  706TMC3    H110496   3.349   4.357  16.164 -1.1687  0.4639 -0.6356
  706TMC3    H210497   3.156   4.713  16.283 -0.5172  0.9594 -0.5806
  706TMC3    C710498   3.125   4.474  16.213 -0.1968 -0.0370  0.6941
  706TMC3    C810499   3.371   0.144  16.232  0.4974 -0.1427 -0.2946
  706TMC3    O110500   3.122   4.380  16.133 -0.8212  0.1990  0.8121
  706TMC3    O210501   3.421   0.222  16.150  0.3137 -0.5022  0.3033
  707TMC3    C110502   0.380   3.520   1.313 -0.3489  0.0775  0.4995
  707TMC3    C210503   0.450   3.426   1.381 -0.4793  0.0437  0.2860
  707TMC3    C310504   0.378   3.349   1.466  0.7141 -0.3663  0.0401
  707TMC3    C410505   0.249   3.553   1.347 -0.1048  0.1395 -0.4572
  707TMC3    C510506   0.183   3.467   1.429  0.5040 -0.3738  0.1901
  707TMC3    C610507   0.249   3.367   1.500 -0.6745  0.0010  0.5464
  707TMC3     C10508   0.440   3.578   1.192  0.4347 -0.0952 -0.3995
  707TMC3     O10509   0.555   3.613   1.195  0.3272  0.5311  0.0423
  707TMC3     H10510   0.556   3.414   1.364  0.3708  2.5820  3.7220
  707TMC3    H110511   0.189   3.625   1.293 -1.1018 -1.0006 -0.8798
  707TMC3    H210512   0.197   3.289   1.553 -1.9293  0.6948  0.3292
  707TMC3    C710513   0.038   3.473   1.445 -0.6892  0.9754  0.5390
  707TMC3    C810514   0.455   3.250   1.544  0.4350  0.0657 -0.5643
  707TMC3    O110515   4.728   3.363   1.482  0.3829 -0.2374 -0.3070
  707TMC3    O210516   0.413   3.226   1.660  0.2087  0.2024 -0.6488
  708MPD2     C10517   1.253   2.687  13.182  0.2874  0.1472  0.2231
  708MPD2    C110518   1.195   2.709  13.304  0.4321  0.2185  0.0013
  708MPD2    C210519   1.219   2.603  13.396  0.0790 -0.0222 -0.4059
  708MPD2    C310520   1.296   2.491  13.367 -0.4899  0.0809  0.6594
  708MPD2    C410521   1.350   2.479  13.239  0.0346  0.4311  0.0357
  708MPD2    C510522   1.328   2.575  13.146 -0.9926 -0.2002  0.9663
  708MPD2     H10523   1.185   2.616  13.499  0.0800 -0.8302 -0.3023
  708MPD2    H110524   1.412   2.392  13.220 -4.4285 -2.1142 -2.6828
  708MPD2    H210525   1.231   2.755  13.101  0.1339 -1.8427 -1.4100
  708MPD2    H310526   1.361   2.556  13.044  0.5310  2.6454  0.9071
  708MPD2     N10527   1.329   2.391  13.464 -0.0207  0.4791  0.3685
  708MPD2    H510528   1.390   2.314  13.440  1.1375  1.5681 -0.1367
  708MPD2    N110529   1.112   2.820  13.322  0.0208  0.0843 -0.0236
  708MPD2    H710530   1.086   2.882  13.246 -0.2715  0.7027  0.5835
  709TMC3    C110531   1.051   3.001  13.448 -0.2828 -0.3461  0.4871
  709TMC3    C210532   0.919   3.016  13.424  0.2547  0.6156  0.2878
  709TMC3    C310533   0.845   3.093  13.513 -0.4458 -0.1684  0.8047
  709TMC3    C410534   1.099   3.055  13.566  0.3706 -0.5661 -0.1312
  709TMC3    C510535   1.018   3.115  13.657 -0.4884  0.1446 -0.4971
  709TMC3    C610536   0.890   3.145  13.630  1.0777  0.0079  0.5200
  709TMC3     C10537   1.087   2.859  13.451  0.7983  0.9566  0.3186
  709TMC3     O10538   1.094   2.802  13.559 -0.2830 -0.1640 -0.1794
  709TMC3     H10539   0.871   2.971  13.338  0.7371 -0.9086  0.8172
  709TMC3    H110540   1.194   3.021  13.606 -0.3684 -0.1485  1.9675
  709TMC3    H210541   0.832   3.203  13.701 -0.4447 -0.3897 -0.3977
  709TMC3    C710542   1.039   3.082  13.795  0.2826  0.3787  0.4808
  709TMC3    C810543   0.702   3.110  13.482 -0.4499  0.9250 -0.1394
  709TMC3    O110544   1.011   3.157  13.885  0.3359  0.4985 -0.3138
  709TMC3    O210545   0.623   3.124  13.579 -0.6569 -0.5378  0.4627
  710TMC3    C110546   2.791   4.181   0.131 -0.3158 -0.2040 -0.2134
  710TMC3    C210547   2.818   4.121   0.007  0.7307 -0.0403  0.5336
  710TMC3    C310548   2.948   4.089  17.733 -0.1552  0.1218 -0.2127
  710TMC3    C410549   2.893   4.191   0.217 -0.3390  0.3944  0.3987
  710TMC3    C510550   3.018   4.154   0.183 -0.2905  0.1437  0.1764
  710TMC3    C610551   3.056   4.105   0.063 -0.6778 -0.7590  0.4043
  710TMC3     C10552   2.652   4.164   0.177 -0.4585 -0.0393 -0.2196
  710TMC3     O10553   2.575   4.109   0.103  0.2688  0.1731  0.0534
  710TMC3     H10554   2.742   4.111  17.683  1.0310 -2.5901  0.5652
  710TMC3    H110555   2.872   4.214   0.320  0.0834 -1.7825  0.9755
  710TMC3    H210556   3.160   4.089   0.038 -0.6368  0.8300 -0.4325
  710TMC3    C710557   3.127   4.169   0.285 -0.3929  0.0917  0.3595
  710TMC3    C810558   2.974   4.006  17.622  0.1773  0.3993  0.2385
  710TMC3    O110559   3.238   4.204   0.243  0.7474 -0.1164  0.1044
  710TMC3    O210560   2.910   4.046  17.522  0.6636 -0.4917 -0.3311
  711TMC3    C110561   2.000   0.274  15.430 -0.1251  0.1142 -0.4118
  711TMC3    C210562   2.000   0.347  15.544  0.2388  0.6505 -0.7617
  711TMC3    C310563   2.119   0.352  15.608  0.2359 -0.4773 -0.1628
  711TMC3    C410564   2.105   0.196  15.387 -0.8961 -0.0425  0.2831
  711TMC3    C510565   2.219   0.190  15.464 -0.1822  0.5024 -0.9987
  711TMC3    C610566   2.233   0.279  15.572 -0.5830  0.7102 -0.1855
  711TMC3     C10567   1.887   0.286  15.333  0.7700 -0.6208 -0.3251
  711TMC3     O10568   1.899   0.237  15.222 -0.4870  0.1999  0.2287
  711TMC3     H10569   1.911   0.401  15.575  1.0694  2.3942 -1.4138
  711TMC3    H110570   2.098   0.135  15.297  1.2121 -0.5451  0.4534
  711TMC3    H210571   2.327   0.290  15.625  0.4601  0.3894 -1.9810
  711TMC3    C710572   2.338   0.132  15.407  0.1736 -0.4127  0.3532
  711TMC3    C810573   2.125   0.474  15.687 -0.0519  0.0472  0.2833
  711TMC3    O110574   2.439   0.162  15.469  0.1202  0.5832 -0.4258
  711TMC3    O210575   2.023   0.540  15.698  0.3412  0.2817 -0.2902
  712MPD2     C10576   3.766   1.363  13.958  0.4901 -0.0138  0.0899
  712MPD2    C110577   3.745   1.370  13.821 -0.4008  0.3437 -0.3756
  712MPD2    C210578   3.705   1.494  13.766  0.2296  0.0624 -0.1391
  712MPD2    C310579   3.667   1.603  13.842 -0.4108  0.9160  0.8862
  712MPD2    C410580   3.700   1.594  13.978 -0.5050  0.4686 -0.7204
  712MPD2    C510581   3.747   1.474  14.029 -0.6263 -0.1877 -0.5301
  712MPD2     H10582   3.676   1.500  13.661 -0.2929 -0.1411 -0.0048
  712MPD2    H110583   3.678   1.674  14.048  0.6846 -0.1637  0.3708
  712MPD2    H210584   3.794   1.271  14.007 -2.6584 -0.9468  0.1278
  712MPD2    H310585   3.769   1.458  14.134 -0.6151  0.6247 -0.4044
  712MPD2     N10586   3.596   1.715  13.788  0.0320  0.6754  0.5265
  712MPD2    H510587   3.556   1.789  13.845 -0.5985 -0.5715  1.6658
  712MPD2    N110588   3.738   1.252  13.747  0.2897 -0.1504 -0.1696
  712MPD2    H710589   3.748   1.161  13.793 -0.7050  0.3757  1.0660
  713TMC3    C110590   3.516   1.862  13.622  0.8088  0.1603  0.4073
  713TMC3    C210591   3.549   1.905  13.504 -0.4711  0.0047  0.3232
  713TMC3    C310592   3.456   1.979  13.440 -0.3466 -0.0656 -0.1028
  713TMC3    C410593   3.392   1.883  13.681  0.8440  0.4451  0.1903
  713TMC3    C510594   3.305   1.965  13.614 -0.4995 -0.0666 -0.2391
  713TMC3    C610595   3.336   2.007  13.494  0.3321  0.0872 -0.8166
  713TMC3     C10596   3.584   1.735  13.652  0.9750  0.8062  0.5351
  713TMC3     O10597   3.624   1.669  13.558 -0.1811  0.4546  0.6485
  713TMC3     H10598   3.647   1.890  13.459 -0.7484 -3.1469  0.7563
  713TMC3    H110599   3.374   1.838  13.778 -0.0619 -0.0605 -0.2110
  713TMC3    H210600   3.261   2.051  13.429 -2.3738 -1.7467  1.0698
  713TMC3    C710601   3.187   2.005  13.692 -0.0464  0.2093  0.7803
  713TMC3    C810602   3.482   2.068  13.321  0.5585 -0.2528 -0.1899
  713TMC3    O110603   3.180   1.958  13.803  0.5847 -0.0223 -0.0952
  713TMC3    O210604   3.388   2.138  13.284  0.4399  0.1433 -0.4423
  714MPD2     C10605   1.043   0.440   1.198  0.5546  0.1352  0.2346
  714MPD2    C110606   1.097   0.364   1.097 -0.2249  0.4285  0.0357
  714MPD2    C210607   1.029   0.351   0.981  0.3745 -0.3537  0.7318
  714MPD2    C310608   0.906   0.404   0.975 -0.0978  0.3344  0.5886
  714MPD2    C410609   0.846   0.477   1.082 -0.6977 -0.4043 -0.0608
  714MPD2    C510610   0.920   0.490   1.195  0.2983  0.1832  0.0451
  714MPD2     H10611   1.069   0.291   0.900  1.1688 -1.6554  2.1046
  714MPD2    H110612   0.744   0.515   1.081 -1.3963 -2.3273 -0.8680
  714MPD2    H210613   1.099   0.447   1.291  1.4054 -0.5169 -0.2327
  714MPD2    H310614   0.869   0.547   1.272 -1.9426 -0.4293 -0.9861
  714MPD2     N10615   0.844   0.383   0.856  0.5016  0.0964 -0.2939
  714MPD2    H510616   0.897   0.326   0.791  3.4229  0.8510  1.4216
  714MPD2    N110617   1.224   0.317   1.115 -0.6995  0.2560 -0.3933
  714MPD2    H710618   1.276   0.338   1.200 -0.1845 -1.8643 -0.1665
  715TMC3    C110619   1.430   0.220   1.036 -0.3370 -0.6342  0.4172
  715TMC3    C210620   1.498   0.112   0.992 -0.0594 -0.2309  0.0457
  715TMC3    C310621   1.633   0.131   0.989  0.3135 -0.5526  0.2196
  715TMC3    C410622   1.493   0.336   1.075 -0.0516  0.5524 -0.2229
  715TMC3    C510623   1.625   0.345   1.063 -0.0081 -0.0544  0.3906
  715TMC3    C610624   1.700   0.247   1.031  0.2059 -0.1344 -0.3562
  715TMC3     C10625   1.282   0.219   1.032 -0.4271 -0.1436 -0.1727
  715TMC3     O10626   1.224   0.133   0.968  0.0043 -0.0452 -0.2680
  715TMC3     H10627   1.444   0.027   0.952  0.3627 -1.8896  3.0134
  715TMC3    H110628   1.439   0.428   1.091 -0.1722  0.4166  0.1592
  715TMC3    H210629   1.808   0.255   1.017  0.5056  0.3254  2.2671
  715TMC3    C710630   1.692   0.459   1.115 -0.7349  0.4029  0.1277
  715TMC3    C810631   1.709   0.011   0.957 -0.1551 -0.3889  0.4116
  715TMC3    O110632   1.810   0.484   1.081 -0.4291 -0.0310  0.4654
  715TMC3    O210633   1.659   4.664   0.891 -0.5481 -0.2064 -0.4194
  716MPD2     C10634   4.637   3.634  10.016  0.5548 -0.9349  0.5723
  716MPD2    C110635   4.617   3.658   9.885  0.6466 -0.5454 -0.2137
  716MPD2    C210636   4.678   3.571   9.800  0.2739 -0.1483 -0.0162
  716MPD2    C310637   0.023   3.472   9.838  0.3700  0.4092  0.3986
  716MPD2    C410638   0.039   3.452   9.976 -0.3418 -0.0245  0.9189
  716MPD2    C510639   4.724   3.540  10.068 -0.3584 -0.6089  0.1534
  716MPD2     H10640   4.661   3.584   9.693 -0.5701 -1.1107 -0.0057
  716MPD2    H110641   0.115   3.386  10.017  2.3550  2.7503  0.3857
  716MPD2    H210642   4.581   3.680  10.098 -1.4398 -1.6945 -0.3563
  716MPD2    H310643   4.733   3.514  10.173  0.3027 -0.5770  0.1046
  716MPD2     N10644   0.082   3.384   9.739 -0.5114 -0.0422  0.0932
  716MPD2    H510645   0.062   3.407   9.642 -1.4797  0.8090  0.4899
  716MPD2    N110646   4.544   3.768   9.843 -0.0776 -0.3810 -0.0159
  716MPD2    H710647   4.511   3.825   9.920  0.8046  0.7133 -0.4629
  717TMC3    C110648   0.208   3.206   9.658 -0.0630 -0.3876 -0.4126
  717TMC3    C210649   0.136   3.198   9.540 -0.0845 -0.1092 -0.0370
  717TMC3    C310650   0.169   3.108   9.445  0.4342 -0.2360 -0.2645
  717TMC3    C410651   0.320   3.123   9.676 -0.6948 -0.0425  0.4132
  717TMC3    C510652   0.336   3.015   9.589  0.8610 -0.4640 -0.4867
  717TMC3    C610653   0.268   3.015   9.470  0.3570  0.6428 -0.8599
  717TMC3     C10654   0.159   3.277   9.775 -0.1492  0.2677  0.1965
  717TMC3     O10655   0.182   3.218   9.882  0.2424  0.1719  0.1826
  717TMC3     H10656   0.044   3.254   9.524 -0.6119 -0.8884  0.2521
  717TMC3    H110657   0.377   3.139   9.767 -0.4122  2.8190 -0.2535
  717TMC3    H210658   0.303   2.939   9.401  0.7797  0.8824 -0.9093
  717TMC3    C710659   0.439   2.912   9.608  0.3633  0.0729 -0.4526
  717TMC3    C810660   0.083   3.107   9.326  0.0805  0.6067  0.0206
  717TMC3    O110661   0.426   2.817   9.534  0.0714 -0.3703 -0.0544
  717TMC3    O210662   4.705   3.151   9.348  0.1844 -0.2460  0.3803
  718MPD2     C10663   0.262   2.642  12.282  0.1007 -0.4263  0.2407
  718MPD2    C110664   0.156   2.655  12.371  0.3943  0.6590 -0.7837
  718MPD2    C210665   0.046   2.577  12.342  0.4349 -0.7233  1.3628
  718MPD2    C310666   0.035   2.483  12.242 -0.5847 -0.6111  0.1520
  718MPD2    C410667   0.142   2.480  12.156 -0.0127  0.4340  0.0990
  718MPD2    C510668   0.252   2.552  12.176  0.4661 -0.2710  0.0208
  718MPD2     H10669   4.690   2.592  12.392  0.2861 -0.0321  0.8690
  718MPD2    H110670   0.147   2.421  12.065  0.8985 -0.1309  0.5116
  718MPD2    H210671   0.357   2.692  12.292 -1.2582  1.9195  1.6052
  718MPD2    H310672   0.330   2.526  12.105 -0.5400  0.5524 -1.3837
  718MPD2     N10673   4.648   2.422  12.224  0.1326  0.4043 -0.4274
  718MPD2    H510674   4.572   2.451  12.284  1.8426  2.0143  0.9445
  718MPD2    N110675   0.163   2.759  12.466  0.0639 -0.0622  0.3052
  718MPD2    H710676   0.246   2.817  12.451 -1.3349  1.9001  0.1659
  719TMC3    C110677   0.055   2.925  12.598  0.5627  0.5591  0.4346
  719TMC3    C210678   4.658   2.942  12.591  0.3253 -0.6942 -0.8029
  719TMC3    C310679   4.609   3.024  12.498 -0.1150  0.0644 -0.1613
  719TMC3    C410680   0.133   3.004  12.528 -0.1403  0.4444 -0.2140
  719TMC3    C510681   0.089   3.084  12.432  0.2894  0.2188  0.0542
  719TMC3    C610682   4.695   3.089  12.413 -0.0219 -0.3116 -0.4674
  719TMC3     C10683   0.061   2.785  12.558 -0.3102 -0.2417 -0.1804
  719TMC3     O10684   4.713   2.708  12.602 -0.0077  0.8425  0.2317
  719TMC3     H10685   4.599   2.886  12.662  1.8358  2.0217  2.5963
  719TMC3    H110686   0.240   2.993  12.541  0.0445  1.5152 -0.7724
  719TMC3    H210687   4.645   3.140  12.331  0.6103  0.6264 -0.2721
  719TMC3    C710688   0.176   3.080  12.316 -0.2343  0.1765  0.0130
  719TMC3    C810689   4.479   2.979  12.452  0.2283  0.5565 -0.1700
  719TMC3    O110690   0.297   3.095  12.330 -0.0442  0.0066 -0.8173
  719TMC3    O210691   4.429   2.877  12.497 -0.1968  0.2974  0.0507
  720MPD2     C10692   3.355   3.529  13.790 -0.0378 -0.7963  0.0650
  720MPD2    C110693   3.425   3.650  13.767 -0.7886  0.5500  0.1396
  720MPD2    C210694   3.540   3.689  13.831  0.6238 -0.5431  0.1315
  720MPD2    C310695   3.589   3.604  13.922 -0.2446 -0.4720 -0.7261
  720MPD2    C410696   3.532   3.476  13.940  0.1921 -0.0399 -0.2765
  720MPD2    C510697   3.412   3.441  13.879  0.4728 -0.0640 -0.1168
  720MPD2     H10698   3.586   3.784  13.809  1.2362 -0.7395  0.5522
  720MPD2    H110699   3.574   3.401  14.006 -2.7807 -2.0031 -0.6143
  720MPD2    H210700   3.264   3.501  13.738  0.1179 -2.3918  0.6250
  720MPD2    H310701   3.379   3.339  13.873  0.6608 -0.4020  4.7359
  720MPD2     N10702   3.707   3.646  13.983  0.1068 -0.0132  0.4895
  720MPD2    H510703   3.749   3.733  13.953 -1.2002 -0.1428 -1.6831
  720MPD2    N110704   3.372   3.720  13.656 -0.9542 -0.2437 -0.0360
  720MPD2    H710705   3.313   3.675  13.588  0.7630  1.2194 -2.4879
  721TMC3    C110706   3.920   3.621  14.071 -0.7230 -0.3431  0.4141
  721TMC3    C210707   3.991   3.632  14.184  0.6276 -1.0697  0.3353
  721TMC3    C310708   4.115   3.691  14.176 -0.2456 -0.1813 -0.4898
  721TMC3    C410709   3.975   3.654  13.948  0.1182 -0.0837 -0.8587
  721TMC3    C510710   4.095   3.705  13.940  0.3739 -0.4512  0.1732
  721TMC3    C610711   4.170   3.730  14.054 -0.1658  0.1018  0.0853
  721TMC3     C10712   3.782   3.571  14.068  0.6357 -0.1787 -0.2475
  721TMC3     O10713   3.745   3.478  14.141 -0.8493  0.0436  0.3059
  721TMC3     H10714   3.950   3.586  14.273 -2.7574 -0.2596 -0.8107
  721TMC3    H110715   3.919   3.629  13.858  0.6512  0.0219 -1.2151
  721TMC3    H210716   4.276   3.750  14.049 -0.1960  0.1194 -0.5342
  721TMC3    C710717   4.161   3.704  13.812 -0.1358 -0.4469  0.0333
  721TMC3    C810718   4.200   3.714  14.287 -0.6229 -0.5400 -0.0214
  721TMC3    O110719   4.258   3.776  13.810  0.1920  0.8381 -0.0585
  721TMC3    O210720   4.310   3.768  14.266  0.1102  0.1876  0.3864
  722MPD2     C10721   2.209   2.214  13.114 -0.2729 -0.9637  0.3515
  722MPD2    C110722   2.229   2.336  13.057 -0.2059  0.1221  1.3739
  722MPD2    C210723   2.132   2.398  12.977  0.5472 -0.3184 -0.2335
  722MPD2    C310724   2.014   2.337  12.957 -0.4169 -0.0856  0.4032
  722MPD2    C410725   1.994   2.218  13.016  0.1535 -0.4369  0.3766
  722MPD2    C510726   2.084   2.161  13.098  0.0101  0.0319  0.3459
  722MPD2     H10727   2.156   2.492  12.929 -2.7514  1.3650  1.3993
  722MPD2    H110728   1.912   2.150  12.998 -1.4302  1.7610 -0.5746
  722MPD2    H210729   2.282   2.149  13.161  0.8057 -0.5537 -0.7524
  722MPD2    H310730   2.071   2.059  13.133 -0.1956  0.0719  0.3850
  722MPD2     N10731   1.936   2.393  12.859 -0.6101  0.0666  1.1673
  722MPD2    H510732   1.958   2.476  12.805 -1.4397 -0.1116  0.5552
  722MPD2    N110733   2.348   2.409  13.063  0.2177 -0.0054  0.0869
  722MPD2    H710734   2.337   2.508  13.043  1.5388  0.0178 -0.5216
  723TMC3    C110735   1.741   2.443  12.737  0.3749 -0.0541  0.0034
  723TMC3    C210736   1.651   2.391  12.640 -0.0803  0.0220  0.0822
  723TMC3    C310737   1.563   2.482  12.575  0.1331  0.0887  0.3444
  723TMC3    C410738   1.753   2.579  12.753  1.0484 -0.6776  0.0661
  723TMC3    C510739   1.676   2.659  12.677 -0.3550  0.5712  0.1227
  723TMC3    C610740   1.581   2.621  12.588 -0.5803 -0.4108 -0.2522
  723TMC3     C10741   1.813   2.341  12.813 -0.1013 -0.3959  0.4074
  723TMC3     O10742   1.772   2.230  12.817  0.7133 -0.4752 -0.0535
  723TMC3     H10743   1.655   2.287  12.609  0.0326  1.3490 -4.4149
  723TMC3    H110744   1.830   2.628  12.812 -0.3591 -0.5187  1.7597
  723TMC3    H210745   1.523   2.693  12.531  0.8375  0.1554 -0.9774
  723TMC3    C710746   1.736   2.790  12.668  0.0758 -0.1533 -0.1959
  723TMC3    C810747   1.500   2.450  12.454  0.3716  0.7322  0.3976
  723TMC3    O110748   1.797   2.834  12.767 -0.0738 -0.2997 -0.1025
  723TMC3    O210749   1.497   2.538  12.369 -0.3617  0.6664  0.3017
  724TMC3    C110750   3.072   1.215  10.633  0.4479  0.0397 -0.3416
  724TMC3    C210751   3.012   1.127  10.547  0.1376 -0.1011  0.0156
  724TMC3    C310752   2.932   1.174  10.443 -1.1248 -0.7506  0.3538
  724TMC3    C410753   3.043   1.344  10.615  0.2099  0.1860 -0.6054
  724TMC3    C510754   2.954   1.394  10.521 -0.2867 -0.1945 -0.2484
  724TMC3    C610755   2.904   1.305  10.424 -0.6331  0.4778  0.0577
  724TMC3     C10756   3.207   1.186  10.673 -0.2322  0.2121 -0.1580
  724TMC3     O10757   3.291   1.269  10.642 -0.2467  0.4817 -0.1660
  724TMC3     H10758   3.031   1.021  10.544 -0.0111 -0.0794 -1.6259
  724TMC3    H110759   3.109   1.407  10.674  1.2705 -1.8918  0.4381
  724TMC3    H210760   2.846   1.349  10.344 -1.3797  0.3567  0.5317
  724TMC3    C710761   2.991   1.518  10.462  0.1579  0.3386 -1.0172
  724TMC3    C810762   2.837   1.069  10.385  0.2258 -0.0662 -0.0603
  724TMC3    O110763   3.027   1.508  10.346  0.5620  0.1536 -0.2188
  724TMC3    O210764   2.825   0.961  10.445  0.0572  0.6958 -0.0335
  725TMC3    C110765   4.144   0.018  12.571  0.5524  0.2959 -0.0223
  725TMC3    C210766   4.079   0.005  12.453  0.2339  0.1442 -0.0309
  725TMC3    C310767   3.974   4.655  12.443 -0.2096 -0.1596 -0.5217
  725TMC3    C410768   4.096   4.692  12.688  0.5684  0.4323  0.1052
  725TMC3    C510769   4.001   4.596  12.667 -0.3155  0.3581  0.5245
  725TMC3    C610770   3.937   4.579  12.548 -0.1766  0.0777 -0.6138
  725TMC3     C10771   4.267   0.092  12.593 -0.7525  0.5592 -0.3613
  725TMC3     O10772   4.291   0.142  12.706 -0.4692  0.3862 -0.0539
  725TMC3     H10773   4.122   0.037  12.359  0.2225 -2.0389 -0.7747
  725TMC3    H110774   4.147   4.696  12.783  0.3830  1.0746  0.1720
  725TMC3    H210775   3.862   4.501  12.536 -1.5730  0.8850  2.8210
  725TMC3    C710776   4.017   4.467  12.743 -0.3995  0.3305  0.0937
  725TMC3    C810777   3.938   4.593  12.316 -0.5368 -0.1239 -0.3854
  725TMC3    O110778   4.130   4.438  12.782  0.6590 -0.2151  0.1066
  725TMC3    O210779   3.939   4.469  12.324  0.1105  0.4688 -0.0076
  726MPD2     C10780   1.511   1.305   9.935  0.0687  0.0394 -0.1821
  726MPD2    C110781   1.522   1.376  10.048 -0.0874  1.1142  0.4572
  726MPD2    C210782   1.505   1.320  10.171 -0.0048  0.2870  0.1100
  726MPD2    C310783   1.471   1.187  10.179 -0.0288  0.7842 -0.2404
  726MPD2    C410784   1.447   1.114  10.060  0.6568 -0.1234  0.1555
  726MPD2    C510785   1.463   1.177   9.938 -0.3616  0.2299 -0.0935
  726MPD2     H10786   1.503   1.371  10.266 -1.3754  1.5975 -0.6141
  726MPD2    H110787   1.415   1.011  10.057  2.3608 -0.6497  0.4848
  726MPD2    H210788   1.519   1.348   9.835 -2.5452 -2.5496 -1.5172
  726MPD2    H310789   1.466   1.125   9.842 -2.1479 -0.8089  0.4279
  726MPD2     N10790   1.412   1.127  10.295  0.3081 -1.3035 -0.5937
  726MPD2    H510791   1.372   1.035  10.285  1.6704 -2.1194  1.2596
  726MPD2    N110792   1.547   1.520  10.041 -0.2095  0.3127  0.1317
  726MPD2    H710793   1.575   1.576  10.122 -0.0615  0.3520  0.0523
  727TMC3    C110794   1.549   1.740   9.949  0.4935  0.6646 -0.2743
  727TMC3    C210795   1.610   1.795  10.062  0.1390 -0.6149 -0.0058
  727TMC3    C310796   1.619   1.927  10.080  0.2179  0.9055 -0.5882
  727TMC3    C410797   1.489   1.830   9.863  0.2229 -0.2476  0.0261
  727TMC3    C510798   1.513   1.965   9.888  0.0228  0.5121  0.1239
  727TMC3    C610799   1.579   2.017   9.992  0.5389  0.6238 -0.3100
  727TMC3     C10800   1.517   1.601   9.929  0.3009  0.2093  0.0766
  727TMC3     O10801   1.479   1.572   9.820 -0.6729 -0.3649  0.1741
  727TMC3     H10802   1.663   1.729  10.129  0.7351 -1.3342 -1.1776
  727TMC3    H110803   1.425   1.798   9.782  0.8658 -0.6529 -0.3135
  727TMC3    H210804   1.630   2.111   9.976 -0.8040  1.2018 -1.2704
  727TMC3    C710805   1.454   2.063   9.798 -0.2001  0.2122  0.2417
  727TMC3    C810806   1.722   1.968  10.179 -0.1428  0.3777  0.8155
  727TMC3    O110807   1.409   2.020   9.696  0.2158  0.2880 -0.1827
  727TMC3    O210808   1.760   1.882  10.261  0.2342  0.1438  0.1511
  728TMC3    C110809   1.825   4.071  15.096  0.0814 -0.3667  0.4317
  728TMC3    C210810   1.960   4.062  15.077 -0.7182 -0.8488 -0.5462
  728TMC3    C310811   2.007   4.054  14.948 -1.1379  0.3105 -0.4596
  728TMC3    C410812   1.736   4.085  14.991 -0.1539  0.2345  0.8361
  728TMC3    C510813   1.790   4.098  14.866  0.9263 -0.4941  0.3725
  728TMC3    C610814   1.923   4.082  14.842 -0.1658 -0.3862 -0.0954
  728TMC3     C10815   1.758   4.055  15.232 -0.2814  0.2548  0.4600
  728TMC3     O10816   1.823   4.087  15.329 -0.1127  0.7572  0.4450
  728TMC3     H10817   2.032   4.048  15.158  1.4553  2.8142 -1.8536
  728TMC3    H110818   1.629   4.104  14.992 -0.0089  1.1004  0.3047
  728TMC3    H210819   1.967   4.101  14.745  0.7722  1.4929  0.6979
  728TMC3    C710820   1.714   4.145  14.752  0.7778  0.1635 -0.7080
  728TMC3    C810821   2.152   4.076  14.932 -0.0684 -0.2477 -0.3334
  728TMC3    O110822   1.753   4.096  14.650  0.7123 -0.2670  0.5812
  728TMC3    O210823   2.199   4.134  15.027 -0.0142  0.4230 -0.2279
  729MPD2     C10824   3.576   0.702  16.746  0.4764  0.4073 -0.3266
  729MPD2    C110825   3.703   0.671  16.721  0.6909  0.5921  0.1099
  729MPD2    C210826   3.805   0.685  16.815  0.6969  0.5112 -1.1562
  729MPD2    C310827   3.774   0.726  16.937 -0.5407  0.1271  0.2761
  729MPD2    C410828   3.645   0.762  16.967 -0.0474  0.3268  0.1949
  729MPD2    C510829   3.549   0.760  16.872  0.0438  0.2847 -0.3727
  729MPD2     H10830   3.910   0.679  16.788  1.0117 -0.7159  0.3559
  729MPD2    H110831   3.628   0.796  17.068  2.1509 -0.5240  0.8463
  729MPD2    H210832   3.493   0.690  16.678 -1.4942  1.6008  1.8278
  729MPD2    H310833   3.449   0.789  16.901 -0.1155  0.9759 -1.6334
  729MPD2     N10834   3.872   0.736  17.047 -0.0965 -0.4232  0.1203
  729MPD2    H510835   3.835   0.773  17.134  0.0146 -0.2968  0.1133
  729MPD2    N110836   3.737   0.623  16.597  0.0428  0.4509 -0.1080
  729MPD2    H710837   3.677   0.629  16.516  0.2809 -0.7383 -0.3746
  730TMC3    C110838   4.091   0.751  17.151 -0.0211  0.3400  0.2646
  730TMC3    C210839   4.226   0.726  17.136 -0.2054  0.2387 -0.4104
  730TMC3    C310840   4.313   0.815  17.188  0.5361 -0.5307  0.4043
  730TMC3    C410841   4.048   0.850  17.237 -0.4273  0.1414  0.2806
  730TMC3    C510842   4.135   0.942  17.292  0.6062 -0.8031 -0.3182
  730TMC3    C610843   4.272   0.921  17.269 -0.1289 -0.5025  0.1660
  730TMC3     C10844   4.002   0.708  17.039  0.4398 -0.0834 -0.5493
  730TMC3     O10845   4.059   0.649  16.951 -0.0875  0.0917 -0.1083
  730TMC3     H10846   4.269   0.643  17.080 -0.9752 -0.5666  0.2068
  730TMC3    H110847   3.945   0.880  17.250 -1.3377 -3.5742  1.5436
  730TMC3    H210848   4.338   0.987  17.322  1.4295 -0.7384 -1.5036
  730TMC3    C710849   4.109   1.084  17.254  0.3498  0.4952  0.7496
  730TMC3    C810850   4.393   0.865  17.074  0.0942 -0.4944  0.5207
  730TMC3    O110851   4.200   1.153  17.209  0.4875 -0.0491  0.3447
  730TMC3    O210852   4.436   0.780  16.997  0.2100  0.2892 -0.6442
  731MPD2     C10853   3.583   4.013  12.386  0.6426  0.2029  0.1172
  731MPD2    C110854   3.475   4.014  12.294  0.0510  0.7344  0.1456
  731MPD2    C210855   3.343   4.031  12.344  0.3791 -0.5642  0.3215
  731MPD2    C310856   3.321   4.036  12.480  0.1726 -0.0631 -0.3745
  731MPD2    C410857   3.424   4.038  12.571 -0.1781  0.0443  1.0118
  731MPD2    C510858   3.552   4.024  12.518 -0.3527  0.0286  0.7542
  731MPD2     H10859   3.260   4.047  12.277  0.2647 -1.5660  0.2207
  731MPD2    H110860   3.412   4.035  12.678 -2.3020 -3.3562  0.6752
  731MPD2    H210861   3.687   4.025  12.359  1.2066 -0.2184  2.0796
  731MPD2    H310862   3.636   4.031  12.586 -0.8117 -2.5102  1.5858
  731MPD2     N10863   3.184   4.047  12.522  0.5836 -0.2555 -0.0152
  731MPD2    H510864   3.109   4.023  12.459  1.8407 -1.2914 -1.1160
  731MPD2    N110865   3.501   4.011  12.160 -0.3378 -0.8003 -0.3662
  731MPD2    H710866   3.600   4.003  12.135 -0.2141  0.8637 -0.4061
  732TMC3    C110867   3.480   4.000  11.921 -0.0162  0.1993 -0.2499
  732TMC3    C210868   3.397   4.011  11.815 -0.0586 -0.0990  0.9501
  732TMC3    C310869   3.451   3.992  11.693 -0.0930 -0.0755  0.0150
  732TMC3    C410870   3.618   3.986  11.916 -0.0863  0.2163  0.3159
  732TMC3    C510871   3.664   3.965  11.788 -0.1356  0.3210  0.3002
  732TMC3    C610872   3.582   3.974  11.678  0.4940  1.0782  0.2994
  732TMC3     C10873   3.413   4.015  12.048  0.7663  0.3605 -0.1649
  732TMC3     O10874   3.290   4.014  12.052  0.4235 -0.0317  0.1944
  732TMC3     H10875   3.290   4.030  11.825  0.1497  1.8907 -0.5616
  732TMC3    H110876   3.684   3.989  12.003 -0.8763  1.4756  0.8627
  732TMC3    H210877   3.618   3.939  11.582  0.0183 -1.0830  0.8893
  732TMC3    C710878   3.802   3.939  11.756 -0.0302 -0.6281  0.3055
  732TMC3    C810879   3.364   3.958  11.576  0.0575 -1.0562  0.0133
  732TMC3    O110880   3.824   3.905  11.644  0.8916  0.0912 -0.1328
  732TMC3    O210881   3.419   3.930  11.470  0.0279 -0.2564 -0.2156
  733TMC3    C110882   4.293   2.183  12.149 -0.2386  0.3966 -0.4338
  733TMC3    C210883   4.432   2.184  12.151 -0.5740 -0.6824 -0.4625
  733TMC3    C310884   4.492   2.298  12.124  0.0607  0.5138 -0.9416
  733TMC3    C410885   4.223   2.290  12.102  0.0114  0.1451  0.4336
  733TMC3    C510886   4.289   2.404  12.075  0.4243 -0.2170 -0.0435
  733TMC3    C610887   4.420   2.413  12.090 -0.4979  0.0886  0.2115
  733TMC3     C10888   4.219   2.117  12.254 -0.8969 -0.3891 -0.3844
  733TMC3     O10889   4.106   2.162  12.268 -0.1836  0.1835  0.1118
  733TMC3     H10890   4.500   2.111  12.193 -1.2313 -1.9581 -1.6263
  733TMC3    H110891   4.116   2.307  12.104 -0.1986 -0.9401 -1.2005
  733TMC3    H210892   4.467   2.507  12.065 -1.9020  0.6470 -0.2959
  733TMC3    C710893   4.223   2.533  12.053 -0.4315  0.0936  0.6210
  733TMC3    C810894   4.629   2.311  12.150  0.3219  0.2272  0.4610
  733TMC3    O110895   4.120   2.540  11.987 -0.1137 -0.4447  0.2066
  733TMC3    O210896   4.700   2.241  12.084 -0.4216  0.4344 -0.0067
  734MPD2     C10897   1.179   4.433  12.450  1.4712 -0.0193  0.0351
  734MPD2    C110898   1.137   4.366  12.331 -0.1863  0.2599  0.2991
  734MPD2    C210899   1.209   4.370  12.220  0.0398  0.0596  0.0268
  734MPD2    C310900   1.323   4.439  12.212  0.4822  0.2774  0.5235
  734MPD2    C410901   1.367   4.501  12.328  0.2263  0.6531 -0.2922
  734MPD2    C510902   1.301   4.490  12.444 -0.0957 -0.1089  0.0110
  734MPD2     H10903   1.177   4.313  12.133  0.2368  0.1351 -0.0949
  734MPD2    H110904   1.464   4.548  12.335  1.5085 -2.1649  0.8850
  734MPD2    H210905   1.122   4.422  12.541 -0.5383  0.4737 -1.1744
  734MPD2    H310906   1.328   4.534  12.540 -0.9514  3.0653 -1.2103
  734MPD2     N10907   1.376   4.454  12.081  0.0044  0.6017 -0.0459
  734MPD2    H510908   1.326   4.402  12.010  0.8984 -2.8907  1.8799
  734MPD2    N110909   1.028   4.271  12.335  0.0815  0.2622  0.9843
  734MPD2    H710910   0.975   4.263  12.421  0.7273  0.5385  1.4043
  735TMC3    C110911   0.838   4.150  12.255  0.2726  0.4863 -0.1972
  735TMC3    C210912   0.756   4.128  12.149 -0.3960 -1.1908  0.2280
  735TMC3    C310913   0.755   4.005  12.092 -0.0554  0.8207 -0.2845
  735TMC3    C410914   0.884   4.046  12.329  0.0135  0.5023  1.0073
  735TMC3    C510915   0.877   3.925  12.271  0.0226 -0.0036 -0.1610
  735TMC3    C610916   0.813   3.898  12.154  0.1094  0.5069 -0.1452
  735TMC3     C10917   0.948   4.240  12.229 -0.0162  0.2127 -0.7699
  735TMC3     O10918   0.961   4.279  12.114  0.2672 -0.6060 -0.1543
  735TMC3     H10919   0.715   4.214  12.099 -1.7519 -2.7586 -1.3531
  735TMC3    H110920   0.931   4.059  12.425 -0.3916  0.9232  1.1420
  735TMC3    H210921   0.829   3.807  12.097 -1.2005  0.8333 -1.0310
  735TMC3    C710922   0.967   3.825  12.332  0.1981  0.4333  0.2314
  735TMC3    C810923   0.785   4.005  11.951  0.5155 -0.5772 -0.2545
  735TMC3    O110924   0.926   3.711  12.340  0.2617 -0.5704  0.1318
  735TMC3    O210925   0.766   3.909  11.877 -0.8115 -0.0594  0.2511
  736MPD2     C10926   1.213   3.677  12.392  0.2224  0.2166 -0.4598
  736MPD2    C110927   1.212   3.807  12.348 -0.0621 -0.2432 -0.4233
  736MPD2    C210928   1.329   3.869  12.318  0.5248 -0.9170  0.0318
  736MPD2    C310929   1.452   3.806  12.321 -0.2868 -0.7401  0.0775
  736MPD2    C410930   1.455   3.674  12.363  0.1697  0.4346  0.3158
  736MPD2    C510931   1.338   3.615  12.400  0.0668 -0.4617 -0.4893
  736MPD2     H10932   1.329   3.971  12.281  0.1505 -0.4166  1.4351
  736MPD2    H110933   1.545   3.613  12.358 -0.7049 -0.8683  0.5735
  736MPD2    H210934   1.126   3.619  12.416 -0.2367  1.6659  1.3640
  736MPD2    H310935   1.342   3.513  12.436 -3.4358 -0.6625 -0.6869
  736MPD2     N10936   1.581   3.871  12.307 -0.2548  0.3043  0.0971
  736MPD2    H510937   1.659   3.806  12.313  0.1363  0.8836  1.5028
  736MPD2    N110938   1.089   3.876  12.330 -0.2874 -0.1805 -0.3614
  736MPD2    H710939   1.105   3.966  12.286  0.8915 -0.3120 -0.1967
  737TMC3    C110940   1.742   4.034  12.264  0.2767 -0.1776  0.5897
  737TMC3    C210941   1.759   4.170  12.246  0.3730  0.1899  0.0766
  737TMC3    C310942   1.851   4.211  12.150 -0.0891 -0.3563 -0.0446
  737TMC3    C410943   1.811   3.940  12.188 -0.0991  0.0617 -0.5484
  737TMC3    C510944   1.920   3.985  12.116  0.1956 -0.1711  0.1925
  737TMC3    C610945   1.929   4.121  12.084  0.0400 -0.4309 -0.2777
  737TMC3     C10946   1.602   4.007  12.299 -0.2963  0.6479  0.1573
  737TMC3     O10947   1.520   4.093  12.288  0.3545 -0.0356  0.1439
  737TMC3     H10948   1.703   4.242  12.304  0.8906 -0.4962  1.4269
  737TMC3    H110949   1.796   3.835  12.210  1.1012  0.3901  1.8458
  737TMC3    H210950   2.018   4.150  12.030 -0.6161 -0.3190 -1.2930
  737TMC3    C710951   2.006   3.876  12.051 -1.2660 -0.1828  0.2619
  737TMC3    C810952   1.858   4.348  12.117 -0.1275  0.2960 -0.1855
  737TMC3    O110953   1.985   3.763  12.090 -0.2308 -0.4690  0.2812
  737TMC3    O210954   1.814   4.426  12.199  0.7300  0.1560  0.0488
  738MPD2     C10955   2.287   2.739  14.507 -0.3317  0.2386 -0.7267
  738MPD2    C110956   2.291   2.639  14.610  0.0510  0.2070  0.3449
  738MPD2    C210957   2.378   2.658  14.715  0.1609 -0.7513  0.0849
  738MPD2    C310958   2.458   2.768  14.713 -0.3226  0.4965  0.9364
  738MPD2    C410959   2.454   2.869  14.617  0.0602 -0.2006 -0.7778
  738MPD2    C510960   2.368   2.849  14.514  0.4501  0.0251 -0.7424
  738MPD2     H10961   2.371   2.593  14.802 -1.0974  3.7001  3.3249
  738MPD2    H110962   2.528   2.948  14.616  2.3753 -2.3128  1.6370
  738MPD2    H210963   2.215   2.735  14.426 -1.3154  0.6732  0.1356
  738MPD2    H310964   2.361   2.923  14.435 -0.9930 -1.2326 -1.8091
  738MPD2     N10965   2.563   2.786  14.799  0.6826  0.5662  1.0085
  738MPD2    H510966   2.618   2.871  14.789  0.4747  0.6355  0.4497
  738MPD2    N110967   2.210   2.525  14.614 -0.0904 -0.7421  0.0070
  738MPD2    H710968   2.203   2.474  14.702 -0.4583 -0.2092  0.2829
  739TMC3    C110969   2.761   2.687  14.849 -0.1230  0.3133 -1.6558
  739TMC3    C210970   2.803   2.655  14.726  0.4109  0.2647  0.5949
  739TMC3    C310971   2.895   2.741  14.671  0.8806  0.5446 -0.8952
  739TMC3    C410972   2.818   2.786  14.927  0.6737  0.2736 -0.3717
  739TMC3    C510973   2.932   2.845  14.880  0.5968  0.3153  0.1518
  739TMC3    C610974   2.952   2.841  14.743  0.0488  0.3378 -0.3918
  739TMC3     C10975   2.617   2.678  14.859  0.0347 -0.4910  0.6494
  739TMC3     O10976   2.567   2.571  14.886 -0.8965 -0.2676  0.0023
  739TMC3     H10977   2.746   2.585  14.667 -1.8320  0.6508  2.3204
  739TMC3    H110978   2.793   2.778  15.033  1.7206  2.4159  0.0478
  739TMC3    H210979   3.024   2.911  14.704  1.5274 -0.1659  1.4417
  739TMC3    C710980   3.003   2.939  14.955  0.3158  0.1385 -0.2876
  739TMC3    C810981   2.919   2.726  14.530  0.2035  0.2436 -0.5953
  739TMC3    O110982   2.951   2.997  15.050  0.3514  0.4988 -0.3198
  739TMC3    O210983   2.817   2.682  14.474  0.5513 -0.3236 -0.3707
  740TMC3    C110984   3.491   3.972  14.313  0.7056  0.5799 -0.5495
  740TMC3    C210985   3.544   3.891  14.410 -0.3333  0.3190 -0.0454
  740TMC3    C310986   3.681   3.864  14.397 -0.1881  0.4699 -0.7232
  740TMC3    C410987   3.554   4.023  14.207 -0.5441 -0.9327 -0.2650
  740TMC3    C510988   3.692   4.001  14.198  0.1277 -0.0662 -0.8807
  740TMC3    C610989   3.752   3.915  14.290 -0.0863 -0.5539 -0.4800
  740TMC3     C10990   3.369   4.054  14.346  0.6430 -0.5610  0.5157
  740TMC3     O10991   3.370   4.167  14.296  0.7943  0.3206 -0.2005
  740TMC3     H10992   3.471   3.850  14.479  0.6906 -0.6640  0.4335
  740TMC3    H110993   3.502   4.080  14.131  1.3988  0.8298 -0.2878
  740TMC3    H210994   3.857   3.890  14.293  0.1656  0.8585  2.3549
  740TMC3    C710995   3.759   3.999  14.068 -0.0541 -0.5801 -0.3206
  740TMC3    C810996   3.738   3.750  14.474  0.0054  0.5867 -1.1068
  740TMC3    O110997   3.850   3.920  14.047 -0.4421  0.0903  0.1547
  740TMC3    O210998   3.850   3.713  14.442 -0.1923 -0.2650  0.2980
  741TMC3    C110999   2.829   3.454  14.020  0.2638  0.3073  0.1410
  741TMC3    C211000   2.719   3.382  13.988  0.2934  0.6568 -1.0993
  741TMC3    C311001   2.667   3.288  14.068 -0.7504  0.2066 -0.0454
  741TMC3    C411002   2.891   3.428  14.147  0.6700 -0.0993 -0.1814
  741TMC3    C511003   2.833   3.339  14.232  0.1199  0.0450 -0.2239
  741TMC3    C611004   2.726   3.263  14.193  0.4452 -0.7318  0.1614
  741TMC3     C11005   2.834   3.586  13.958 -0.9215 -0.5503  0.6664
  741TMC3     O11006   2.936   3.654  13.961  0.0552  0.0555 -0.2510
  741TMC3     H11007   2.685   3.375  13.885 -1.0028  3.1815 -0.8637
  741TMC3    H111008   2.961   3.507  14.172  0.1534  0.6688 -1.1964
  741TMC3    H211009   2.670   3.191  14.251  0.1804 -0.2647  0.4796
  741TMC3    C711010   2.912   3.284  14.335  0.7135  0.4179 -0.4346
  741TMC3    C811011   2.537   3.242  14.027  0.5752  0.0522  0.2072
  741TMC3    O111012   2.862   3.213  14.420  0.0979  0.1341 -0.5392
  741TMC3    O211013   2.472   3.317  13.956 -0.3584  0.1325 -0.9172
  742TMC3    C111014   2.859   2.151  14.955 -0.0723 -0.2486 -0.0330
  742TMC3    C211015   2.744   2.081  14.922 -0.3979  1.2472 -0.0100
  742TMC3    C311016   2.758   1.955  14.869  0.4284  0.7070 -0.4165
  742TMC3    C411017   2.977   2.090  14.975 -0.0585 -0.1899  0.0931
  742TMC3    C511018   2.983   1.958  14.929 -0.2332  0.5256 -0.6627
  742TMC3    C611019   2.876   1.892  14.876 -0.1114  0.0172 -0.2873
  742TMC3     C11020   2.845   2.282  15.009 -0.0683  0.0019 -0.1109
  742TMC3     O11021   2.734   2.304  15.058 -0.3184 -0.3432 -0.9597
  742TMC3     H11022   2.662   2.136  14.877 -2.4833  0.2232  2.5578
  742TMC3    H111023   3.060   2.144  15.019 -1.2142  0.9303  0.8871
  742TMC3    H211024   2.880   1.792  14.833 -0.6656  0.2550 -0.8899
  742TMC3    C711025   3.107   1.888  14.909  0.1983 -0.5903  0.1957
  742TMC3    C811026   2.645   1.861  14.872  0.6315  0.5777  0.3911
  742TMC3    O111027   3.112   1.793  14.833  0.2244 -0.2038  0.7780
  742TMC3    O211028   2.668   1.753  14.819  0.0816  0.1237 -0.6990
  743MPD2     C11029   1.336   2.445   1.542  0.5223  0.2559  0.8174
  743MPD2    C111030   1.398   2.532   1.459 -0.0967  0.6023  0.1531
  743MPD2    C211031   1.535   2.564   1.481  0.5931  0.0966 -0.0143
  743MPD2    C311032   1.609   2.489   1.571 -0.2128  1.0770 -0.0503
  743MPD2    C411033   1.544   2.401   1.656 -0.3661  0.2667  0.2856
  743MPD2    C511034   1.409   2.383   1.643 -0.2477 -0.5011 -0.1749
  743MPD2     H11035   1.587   2.633   1.416  0.3204 -0.5923 -0.9626
  743MPD2    H111036   1.593   2.342   1.733  1.2228  0.7921 -0.3157
  743MPD2    H211037   1.229   2.423   1.543  0.1307  2.1888  1.3437
  743MPD2    H311038   1.366   2.307   1.707  1.9176 -1.1993  0.4557
  743MPD2     N11039   1.752   2.508   1.570 -0.1951  0.2392  0.4355
  743MPD2    H511040   1.791   2.586   1.519  2.1995  0.2425  2.2401
  743MPD2    N111041   1.320   2.586   1.356 -0.3124  0.6962 -0.2416
  743MPD2    H711042   1.220   2.571   1.365 -0.5567  1.7896 -1.0727
  744TMC3    C111043   1.270   2.741   1.186  0.3011  0.2909 -0.0589
  744TMC3    C211044   1.169   2.802   1.261 -0.0552  0.1911 -0.2015
  744TMC3    C311045   1.081   2.876   1.188  0.3476 -0.5814 -0.1389
  744TMC3    C411046   1.286   2.744   1.050 -0.6544 -0.3670 -0.5834
  744TMC3    C511047   1.205   2.838   0.988 -0.8552  0.0566  0.2392
  744TMC3    C611048   1.100   2.896   1.053 -0.0753 -0.3250  0.6853
  744TMC3     C11049   1.369   2.670   1.262 -0.7898  0.8176  0.3687
  744TMC3     O11050   1.483   2.680   1.217  0.1545 -0.2102 -0.5099
  744TMC3     H11051   1.165   2.796   1.369 -0.3897  0.0933 -0.2190
  744TMC3    H111052   1.377   2.698   1.013  0.3134  1.2628 -0.2266
  744TMC3    H211053   1.027   2.948   0.992 -0.2223 -0.6966  0.5443
  744TMC3    C711054   1.193   2.826   0.840  0.3340 -0.1350 -0.0069
  744TMC3    C811055   0.967   2.931   1.249 -0.3070 -0.2588  0.8943
  744TMC3    O111056   1.146   2.921   0.779  0.1046 -0.3155  0.2470
  744TMC3    O211057   0.873   2.965   1.177 -0.4024  0.1022 -0.0329
  745TMC3    C111058   3.539   1.269  13.622 -0.3350  0.3750 -0.5404
  745TMC3    C211059   3.480   1.233  13.739 -1.1740 -0.3511  0.7825
  745TMC3    C311060   3.366   1.293  13.777 -0.0124  0.3504 -0.1001
  745TMC3    C411061   3.490   1.365  13.542 -0.5157 -0.1858  0.4534
  745TMC3    C511062   3.383   1.432  13.586 -0.6049  0.0886 -0.1904
  745TMC3    C611063   3.322   1.396  13.705 -0.1130 -0.1192 -0.3453
  745TMC3     C11064   3.684   1.249  13.621  0.1084 -0.2270  0.0823
  745TMC3     O11065   3.740   1.297  13.525  0.2463  0.5202  0.0416
  745TMC3     H11066   3.520   1.153  13.801 -1.9651 -0.4484  1.1601
  745TMC3    H111067   3.537   1.398  13.451  1.1747 -3.3798  0.1615
  745TMC3    H211068   3.230   1.440  13.742  0.4334  0.1769  0.6511
  745TMC3    C711069   3.294   1.514  13.498  0.4826 -0.1741  0.6722
  745TMC3    C811070   3.362   1.318  13.923 -0.1475  0.5035 -0.2673
  745TMC3    O111071   3.178   1.528  13.541 -0.0731 -0.0740 -0.2331
  745TMC3    O211072   3.381   1.221  13.995 -0.1567 -0.2095 -0.4197
  746TMC3    C111073   0.562   3.996  10.561 -0.0395  0.0862 -0.3316
  746TMC3    C211074   0.525   4.065  10.447 -0.5110 -0.5141 -0.2043
  746TMC3    C311075   0.415   4.020  10.377 -0.3532  0.0790  0.5260
  746TMC3    C411076   0.484   3.892  10.608 -0.4821 -0.5298  0.0069
  746TMC3    C511077   0.373   3.855  10.535 -0.6115 -0.3876  0.3929
  746TMC3    C611078   0.337   3.914  10.417  0.1594 -0.8650  0.5048
  746TMC3     C11079   0.632   4.064  10.661 -0.8115  0.3488 -0.4947
  746TMC3     O11080   0.603   4.063  10.777  1.1290  0.4351 -0.1067
  746TMC3     H11081   0.589   4.144  10.410 -1.4288  0.9239  1.3157
  746TMC3    H111082   0.510   3.860  10.709  1.7013  1.5523  0.1038
  746TMC3    H211083   0.250   3.882  10.361  1.2598 -0.7590 -1.2677
  746TMC3    C711084   0.296   3.733  10.567 -0.4174 -0.2911  0.0918
  746TMC3    C811085   0.344   4.110  10.287 -0.0477 -0.2341 -0.0693
  746TMC3    O111086   0.189   3.725  10.507 -0.4290  0.3321 -0.1630
  746TMC3    O211087   0.224   4.086  10.258 -0.4046  0.3525 -0.2598
  747TMC3    C111088   2.547   3.998  11.152  0.0308 -0.4704 -0.3614
  747TMC3    C211089   2.457   3.926  11.227 -0.2852  0.6208  0.8067
  747TMC3    C311090   2.452   3.962  11.357 -0.1898 -0.0962 -0.6926
  747TMC3    C411091   2.635   4.087  11.206 -1.0491 -0.4851 -0.1121
  747TMC3    C511092   2.627   4.118  11.342 -0.4768  0.3285  0.7353
  747TMC3    C611093   2.539   4.051  11.421 -0.3504 -0.4741 -0.1784
  747TMC3     C11094   2.563   3.962  11.012  0.7733 -0.4005 -0.9243
  747TMC3     O11095   2.568   4.050  10.925 -0.3498  0.0430  0.1418
  747TMC3     H11096   2.395   3.859  11.168  0.7024 -1.8842  2.6017
  747TMC3    H111097   2.681   4.163  11.144 -1.2155 -1.1833 -1.0943
  747TMC3    H211098   2.540   4.053  11.529  0.0270 -0.0472 -0.1916
  747TMC3    C711099   2.749   4.155  11.404  0.5513 -0.3180 -0.6950
  747TMC3    C811100   2.385   3.866  11.434 -0.0261  0.0410  0.2015
  747TMC3    O111101   2.743   4.190  11.521  0.0161  0.0487  0.2416
  747TMC3    O211102   2.398   3.752  11.391 -0.2358  0.6619  0.3746
  748MPD2     C11103   4.445   3.772   0.963  0.4898 -1.1762  0.4966
  748MPD2    C111104   4.489   3.879   0.897  0.1400  0.4536 -0.4667
  748MPD2    C211105   4.605   3.939   0.938 -0.6781 -0.2444  0.0722
  748MPD2    C311106   4.689   3.881   1.029  0.6456 -0.7054 -0.4149
  748MPD2    C411107   4.646   3.761   1.082  0.1526 -0.8879  0.5317
  748MPD2    C511108   4.526   3.699   1.047 -0.5631 -0.0521 -0.3059
  748MPD2     H11109   4.635   4.033   0.894 -2.7136  0.6720  0.6276
  748MPD2    H111110   4.702   3.715   1.163  0.0779  1.3491  1.8800
  748MPD2    H211111   4.345   3.733   0.950  0.0631  0.4666 -1.1040
  748MPD2    H311112   4.487   3.614   1.103 -0.8827  0.1307 -0.2506
  748MPD2     N11113   0.075   3.937   1.052  0.5164 -0.3508  0.9194
  748MPD2    H511114   0.104   4.013   0.991 -0.3387  1.3579  2.6604
  748MPD2    N111115   4.405   3.937   0.799  0.0418 -0.3404  0.4188
  748MPD2    H711116   4.311   3.897   0.794 -1.1993  2.5004  1.3611
  749TMC3    C111117   0.287   3.965   1.132  0.0110  0.4076  0.8658
  749TMC3    C211118   0.381   3.934   1.228  0.0085  0.1752 -0.8569
  749TMC3    C311119   0.509   3.952   1.197 -0.1301 -0.6567 -0.1301
  749TMC3    C411120   0.330   3.999   1.008 -0.7091  0.7459  1.3057
  749TMC3    C511121   0.456   4.023   0.979 -0.4126  0.2983 -0.4230
  749TMC3    C611122   0.548   4.000   1.075 -0.3013  0.0035  0.0277
  749TMC3     C11123   0.157   3.904   1.155 -0.2976 -0.5127  0.1171
  749TMC3     O11124   0.130   3.862   1.266 -0.0300  0.1771  0.3300
  749TMC3     H11125   0.354   3.893   1.325  2.1564 -0.3409 -0.4815
  749TMC3    H111126   0.259   4.033   0.933 -1.3953 -1.8605  0.7779
  749TMC3    H211127   0.653   4.015   1.051 -0.0758  2.1859  2.4981
  749TMC3    C711128   0.498   4.082   0.851  0.1378  0.1403  0.1243
  749TMC3    C811129   0.613   3.927   1.295  0.3518 -0.2608  0.1162
  749TMC3    O111130   0.420   4.157   0.795 -0.2939 -0.2251  0.4298
  749TMC3    O211131   0.591   3.966   1.411  0.3780 -0.4757 -0.0318
  750MPD2     C11132   0.173   1.106  11.170 -0.1003 -0.7252  0.1133
  750MPD2    C111133   0.095   1.050  11.270  0.2584  0.1632  0.1236
  750MPD2    C211134   0.161   0.953  11.349  0.3955 -1.1583  0.9688
  750MPD2    C311135   0.298   0.919  11.329  0.5245  0.0718 -1.2072
  750MPD2    C411136   0.369   0.988  11.237  0.1244  0.5453  0.1272
  750MPD2    C511137   0.310   1.074  11.156 -0.3522  0.0603 -0.2234
  750MPD2     H11138   0.106   0.908  11.431 -1.5616 -0.1886  0.1707
  750MPD2    H111139   0.474   0.961  11.229 -0.5471 -1.8091 -0.9486
  750MPD2    H211140   0.141   1.197  11.120 -0.9637 -1.0123  0.1484
  750MPD2    H311141   0.377   1.128  11.089 -0.6069  1.7573  0.8717
  750MPD2     N11142   0.368   0.818  11.400  0.2042 -0.7225 -0.1186
  750MPD2    H511143   0.469   0.814  11.396  0.1655 -0.3754 -1.4136
  750MPD2    N111144   4.696   1.086  11.280  0.2920  0.2888  0.1579
  750MPD2    H711145   4.658   1.128  11.196 -1.1616 -0.5515  0.4074
  751TMC3    C111146   0.397   0.631  11.542 -0.0745 -1.0161  0.6927
  751TMC3    C211147   0.330   0.555  11.635 -0.4430  0.2391 -0.3563
  751TMC3    C311148   0.349   0.418  11.634  0.1641  0.1682 -0.0867
  751TMC3    C411149   0.484   0.575  11.455 -0.8911  0.1703  0.1224
  751TMC3    C511150   0.516   0.442  11.469 -0.3222  0.2654  0.9637
  751TMC3    C611151   0.446   0.366  11.553 -0.4021 -0.3397  0.3262
  751TMC3     C11152   0.313   0.730  11.489 -0.5988 -0.3444 -0.0109
  751TMC3     O11153   0.195   0.717  11.523 -0.6455  0.2000  0.3795
  751TMC3     H11154   0.264   0.603  11.706  0.6414  2.2335 -0.6949
  751TMC3    H111155   0.534   0.636  11.380  1.6278 -1.1628  0.7049
  751TMC3    H211156   0.472   0.261  11.558  0.7043 -0.1157 -0.6884
  751TMC3    C711157   0.525   0.388  11.341 -0.0495 -0.2897 -0.1282
  751TMC3    C811158   0.229   0.348  11.591 -0.2745 -0.2280  0.0487
  751TMC3    O111159   0.610   0.436  11.265 -0.2605  0.6006 -0.7289
  751TMC3    O211160   0.243   0.259  11.508 -0.0715  0.1067  0.0342
  752TMC3    C111161   4.420   0.081  17.055 -0.4636 -0.3606 -0.0269
  752TMC3    C211162   4.449   4.715  17.140 -0.1419  0.0881  0.5654
  752TMC3    C311163   4.410   4.729  17.268 -0.4998  0.2037  0.3768
  752TMC3    C411164   4.358   0.195  17.102  0.3459 -0.4529  0.0499
  752TMC3    C511165   4.336   0.210  17.237  0.8372  0.3171  0.7387
  752TMC3    C611166   4.357   0.108  17.322  0.6709  0.2060 -0.0439
  752TMC3     C11167   4.465   0.066  16.928  0.2083 -0.2054  0.6281
  752TMC3     O11168   4.556   4.724  16.910  0.0147 -0.0262 -0.3648
  752TMC3     H11169   4.489   4.620  17.108  2.2618  0.8879  1.2152
  752TMC3    H111170   4.330   0.266  17.025  1.3268  0.8147  0.8659
  752TMC3    H211171   4.324   0.098  17.424  2.1790  0.7168  0.4918
  752TMC3    C711172   4.252   0.315  17.274  0.4782  0.2499 -0.1571
  752TMC3    C811173   4.451   4.616  17.355 -0.5602 -0.4785 -0.5903
  752TMC3    O111174   4.238   0.402  17.189 -0.7025 -0.1023  0.3710
  752TMC3    O211175   4.494   4.630  17.469  0.2782 -0.4518 -0.2378
  753TMC3    C111176   1.145   1.554  12.908 -0.0993  0.8488 -0.7095
  753TMC3    C211177   1.274   1.524  12.924  0.6198  0.1064 -0.1192
  753TMC3    C311178   1.299   1.399  12.971  0.7137  0.2483  0.0982
  753TMC3    C411179   1.040   1.472  12.925 -0.1742  0.2598  0.9235
  753TMC3    C511180   1.066   1.349  12.976 -0.3678 -0.8958 -0.4493
  753TMC3    C611181   1.195   1.311  12.998 -0.2305 -0.6480  0.2454
  753TMC3     C11182   1.113   1.687  12.872 -0.0902  0.3914  0.3085
  753TMC3     O11183   1.028   1.705  12.787 -0.2923 -0.2094  0.3459
  753TMC3     H11184   1.360   1.577  12.885  2.4069 -1.1638  2.0912
  753TMC3    H111185   0.938   1.502  12.901 -1.5647 -2.0092  3.9774
  753TMC3    H211186   1.208   1.212  13.040  0.9548 -0.4302  0.3909
  753TMC3    C711187   0.955   1.287  13.049  1.2649  0.3523 -0.6172
  753TMC3    C811188   1.428   1.375  13.030  0.2470  0.7382 -0.3833
  753TMC3    O111189   0.851   1.352  13.062 -0.4043 -0.6671  0.2157
  753TMC3    O211190   1.505   1.288  12.985  0.0611 -0.4879 -0.5284
  754MPD2     C11191   0.627   0.365  12.973 -0.0050 -0.8802  0.7063
  754MPD2    C111192   0.507   0.351  13.046  0.5139  0.2726  0.3754
  754MPD2    C211193   0.389   0.423  13.020 -0.2967 -0.0528 -0.5461
  754MPD2    C311194   0.382   0.515  12.918  0.3411 -1.0800  0.0850
  754MPD2    C411195   0.499   0.532  12.847  0.0942  0.9286 -0.8839
  754MPD2    C511196   0.614   0.463  12.876  0.3407 -0.0522  0.2154
  754MPD2     H11197   0.310   0.428  13.094 -0.7594 -1.3574 -0.9582
  754MPD2    H111198   0.517   0.611  12.775  3.7046  2.6004  1.8842
  754MPD2    H211199   0.719   0.317  13.003 -0.0521 -0.5867  1.3202
  754MPD2    H311200   0.700   0.491  12.817 -1.0092 -0.7955 -2.0892
  754MPD2     N11201   0.263   0.588  12.891 -0.6099  0.1481  0.0602
  754MPD2    H511202   0.252   0.644  12.806  1.5906 -0.7050 -0.7913
  754MPD2    N111203   0.496   0.267  13.161 -0.2863  0.5527  0.4916
  754MPD2    H711204   0.402   0.263  13.201 -0.9200  0.2175 -1.0112
  755MPD2     C11205   4.008   0.828  13.312 -0.0514  0.4803  0.6499
  755MPD2    C111206   4.084   0.717  13.345 -0.1523 -0.2490  0.1536
  755MPD2    C211207   4.209   0.701  13.284 -0.7446 -0.4269  0.3529
  755MPD2    C311208   4.239   0.783  13.176  0.4682 -1.0114  0.1803
  755MPD2    C411209   4.144   0.882  13.135  0.7858 -0.0071 -0.6267
  755MPD2    C511210   4.036   0.910  13.207 -0.0190 -0.2227  0.5574
  755MPD2     H11211   4.272   0.621  13.322  0.1286 -0.5047 -1.2498
  755MPD2    H111212   4.168   0.936  13.044 -2.0062  0.8441 -0.8449
  755MPD2    H211213   3.915   0.849  13.363 -0.6576 -2.8597  0.9488
  755MPD2    H311214   3.975   0.996  13.185 -0.3416 -0.1711  1.6561
  755MPD2     N11215   4.347   0.770  13.092  0.0328  0.6335  0.5890
  755MPD2    H511216   4.351   0.842  13.021 -1.3742 -3.0547 -3.1776
  755MPD2    N111217   4.028   0.619  13.431 -0.2112  0.1235  0.5273
  755MPD2    H711218   4.083   0.540  13.461 -1.1911 -0.7253  0.0836
  756MPD2     C11219   4.514   1.929  10.033  0.0741  0.2883 -0.3581
  756MPD2    C111220   4.577   1.807  10.028 -0.1318 -0.4052  0.4189
  756MPD2    C211221   4.501   1.689  10.018 -0.0266  0.3581 -0.6181
  756MPD2    C311222   4.367   1.701  10.037  0.1286 -0.6071  0.4372
  756MPD2    C411223   4.301   1.829  10.038 -0.0018 -0.9428 -0.3020
  756MPD2    C511224   4.377   1.944  10.027 -0.0047  0.1228 -0.6013
  756MPD2     H11225   4.546   1.591  10.009  0.4103  0.2763  2.3345
  756MPD2    H111226   4.194   1.828  10.054 -0.0819  1.2481 -0.7147
  756MPD2    H211227   4.575   2.019  10.027 -1.5759  1.6065  2.4347
  756MPD2    H311228   4.335   2.042  10.044  1.3960  0.8960 -1.6147
  756MPD2     N11229   4.297   1.583  10.034 -0.1629 -0.2277  0.3402
  756MPD2    H511230   4.358   1.501  10.036 -0.3437 -0.3197  1.8600
  756MPD2    N111231   4.712   1.789  10.002  0.3165 -0.0152 -0.0852
  756MPD2    H711232   0.007   1.693   9.993  1.6746  0.6873 -2.2754
  757MPD2     C11233   4.459   0.853   9.437  0.0117 -0.2600 -0.2098
  757MPD2    C111234   4.318   0.853   9.425  0.7453  0.2740  0.5833
  757MPD2    C211235   4.244   0.944   9.502  0.2794 -0.1124  0.3839
  757MPD2    C311236   4.300   1.024   9.597 -0.5545 -0.1656  0.1665
  757MPD2    C411237   4.436   1.042   9.586  0.4500 -0.1905 -0.3297
  757MPD2    C511238   4.514   0.959   9.511  0.3195  0.6706  0.4049
  757MPD2     H11239   4.136   0.934   9.505  0.2341  0.5193  1.0166
  757MPD2    H111240   4.485   1.116   9.649 -0.5130  1.4057 -1.4618
  757MPD2    H211241   4.516   0.773   9.391  1.6823 -0.3341  1.9742
  757MPD2    H311242   4.621   0.969   9.521  0.3115  2.6155 -1.2850
  757MPD2     N11243   4.224   1.089   9.697  0.3092  0.0135 -0.5680
  757MPD2    H511244   4.123   1.081   9.689  0.2621 -2.7500  2.2959
  757MPD2    N111245   4.255   0.745   9.361 -0.6041  0.8043  0.3529
  757MPD2    H711246   4.313   0.661   9.362 -1.8975 -0.1262 -2.4966
  758MPD2     C11247   0.503   4.574  15.559  0.1197 -0.3181 -0.5642
  758MPD2    C111248   0.501   4.458  15.637  0.5968 -0.0388  0.1810
  758MPD2    C211249   0.453   4.472  15.767 -0.1270 -0.9165 -0.2424
  758MPD2    C311250   0.398   4.589  15.817 -0.0804 -0.6694 -0.2035
  758MPD2    C411251   0.392   4.700  15.734 -0.2433  0.2531  0.2695
  758MPD2    C511252   0.446   4.692  15.606 -0.4161 -0.8289  0.2714
  758MPD2     H11253   0.451   4.382  15.828 -0.7186 -1.8845 -1.6780
  758MPD2    H111254   0.350   0.058  15.761  1.8697  1.1354  0.4251
  758MPD2    H211255   0.554   4.562  15.464  1.5730  0.1890  0.1451
  758MPD2    H311256   0.452   0.041  15.543  4.5534 -1.5945 -0.3830
  758MPD2     N11257   0.359   4.602  15.955 -0.3433  0.8358 -0.1666
  758MPD2    H511258   0.336   4.696  15.987 -1.8019  0.7185 -0.8582
  758MPD2    N111259   0.559   4.337  15.584 -0.7970 -0.6610  0.1296
  758MPD2    H711260   0.597   4.346  15.491  0.3269  1.8861  0.8295
  759MPD2     C11261   3.699   2.840  10.156 -0.5807  0.1102 -0.0017
  759MPD2    C111262   3.596   2.770  10.104  0.3733  0.6557 -0.3541
  759MPD2    C211263   3.509   2.823  10.017 -0.0231  0.4314  0.1800
  759MPD2    C311264   3.516   2.958   9.992 -0.2475  0.0453 -0.8558
  759MPD2    C411265   3.626   3.032  10.041  0.5215 -0.7977 -0.6091
  759MPD2    C511266   3.716   2.973  10.122 -0.6058  0.2146 -0.1338
  759MPD2     H11267   3.433   2.755   9.980  0.5285 -0.7038  1.1248
  759MPD2    H111268   3.643   3.133  10.003 -0.1950 -0.7328 -0.7572
  759MPD2    H211269   3.768   2.808  10.233 -0.3304  1.5404  0.3609
  759MPD2    H311270   3.797   3.032  10.162 -0.1355  0.1380 -0.9848
  759MPD2     N11271   3.431   3.014   9.892  0.2686 -0.5406 -0.9339
  759MPD2    H511272   3.366   2.952   9.846 -1.2830  0.4257 -0.0551
  759MPD2    N111273   3.568   2.636  10.148 -0.5134  0.0235 -0.4628
  759MPD2    H711274   3.489   2.590  10.105  0.4013  0.3467 -2.4798
  760MPD2     C11275   3.243   0.791  11.701 -0.0752  0.2707 -0.0155
  760MPD2    C111276   3.374   0.832  11.681  0.1373  0.0646 -0.2343
  760MPD2    C211277   3.467   0.736  11.642  0.2206  0.2514 -0.0775
  760MPD2    C311278   3.429   0.600  11.632  0.7602  0.2454 -0.4796
  760MPD2    C411279   3.296   0.572  11.636 -0.2393 -0.4262  0.0623
  760MPD2    C511280   3.200   0.662  11.674 -0.8266  0.0288  0.4771
  760MPD2     H11281   3.569   0.765  11.619  0.9195 -0.7407  1.8106
  760MPD2    H111282   3.257   0.471  11.644  0.2991 -0.5247  1.5726
  760MPD2    H211283   3.163   0.849  11.745  1.1426  1.0685  1.1558
  760MPD2    H311284   3.097   0.633  11.693 -1.2143  1.9300  1.2949
  760MPD2     N11285   3.523   0.496  11.612  0.4649  0.0295  0.3769
  760MPD2    H511286   3.497   0.398  11.606 -0.4607  0.4010 -1.8440
  760MPD2    N111287   3.423   0.958  11.698  0.4676 -0.2045 -0.5809
  760MPD2    H711288   3.523   0.965  11.681  0.9751 -0.5428  2.1185
  761MPD2     C11289   4.455   0.313  11.532  0.3732  0.1387 -0.2900
  761MPD2    C111290   4.558   0.248  11.466  0.2448  0.4597 -0.0107
  761MPD2    C211291   4.686   0.277  11.501  0.2462 -0.0384  0.6230
  761MPD2    C311292   4.718   0.377  11.589  0.0612 -0.3252  0.1959
  761MPD2    C411293   4.611   0.443  11.644  0.5986 -0.3227  0.1224
  761MPD2    C511294   4.483   0.409  11.616  0.3922  0.1599  0.1986
  761MPD2     H11295   0.026   0.218  11.455  0.9684  1.3124  0.1393
  761MPD2    H111296   4.632   0.521  11.715 -0.3250  0.8552 -0.8932
  761MPD2    H211297   4.351   0.294  11.508  0.4853  1.0383 -1.5094
  761MPD2    H311298   4.398   0.466  11.651  0.1291 -0.0735 -0.0642
  761MPD2     N11299   0.109   0.409  11.627  0.4691 -0.1676 -0.5075
  761MPD2    H511300   0.122   0.489  11.688 -1.5084 -0.7749  0.7003
  761MPD2    N111301   4.528   0.132  11.390  0.0838 -0.0480  0.3840
  761MPD2    H711302   4.434   0.097  11.404 -0.2552  0.7399  0.0688
  762MPD2     C11303   0.211   4.260  10.865  0.3631  0.0980  0.4892
  762MPD2    C111304   0.187   4.398  10.865 -0.2959 -0.5433 -0.0980
  762MPD2    C211305   0.259   4.477  10.774 -0.9945  0.4396 -0.2073
  762MPD2    C311306   0.352   4.427  10.688 -0.4168  0.1006  0.2288
  762MPD2    C411307   0.374   4.291  10.687  0.7351  0.2826 -0.3892
  762MPD2    C511308   0.302   4.213  10.774 -0.6897  0.1932 -0.5802
  762MPD2     H11309   0.244   4.584  10.769  1.7403  0.7795 -1.2425
  762MPD2    H111310   0.447   4.252  10.619 -0.4237 -2.1705 -0.2146
  762MPD2    H211311   0.165   4.185  10.928 -0.2119  0.4372  0.4716
  762MPD2    H311312   0.333   4.111  10.758  0.3601  0.7409 -2.0800
  762MPD2     N11313   0.432   4.517  10.614 -0.5889 -0.2330 -0.2979
  762MPD2    H511314   0.411   4.610  10.649  2.0179  0.3802 -0.3952
  762MPD2    N111315   0.083   4.439  10.957 -0.5167  0.1717  0.1435
  762MPD2    H711316   0.050   4.365  11.017  0.0441 -0.4752 -0.3441
  763MPD2     C11317   1.754   4.488  15.931  0.0249 -1.2051  0.0536
  763MPD2    C111318   1.891   4.496  15.934 -0.0058 -0.0639  0.0569
  763MPD2    C211319   1.948   4.594  16.022 -0.2872  0.0408  0.4117
  763MPD2    C311320   1.875   4.679  16.095 -0.1489 -0.1847  0.3261
  763MPD2    C411321   1.735   4.672  16.085  0.6327 -0.0636  0.5996
  763MPD2    C511322   1.681   4.576  16.003 -0.0725 -0.7404  0.4527
  763MPD2     H11323   2.055   4.595  16.035 -0.0514 -3.3751 -1.1488
  763MPD2    H111324   1.659   4.728  16.140  1.6191  1.0814  0.7908
  763MPD2    H211325   1.693   4.415  15.878  0.7698 -0.1391 -2.3140
  763MPD2    H311326   1.573   4.580  15.999  0.0155 -1.2805 -2.6990
  763MPD2     N11327   1.944   0.030  16.176 -0.4485 -0.8846 -0.4465
  763MPD2    H511328   2.045   0.034  16.166 -0.1643  0.1932  3.0053
  763MPD2    N111329   1.976   4.408  15.860  0.0496 -0.6102  0.6651
  763MPD2    H711330   2.074   4.434  15.858 -0.4981  1.4673  0.9977
  764MPD2     C11331   0.780   1.465  17.153 -0.5212  0.1514 -0.4812
  764MPD2    C111332   0.666   1.406  17.112  0.5012 -0.0917 -0.8531
  764MPD2    C211333   0.607   1.316  17.197 -0.2524 -0.0151 -0.2381
  764MPD2    C311334   0.654   1.284  17.321  0.3301 -0.0465  0.4221
  764MPD2    C411335   0.776   1.339  17.357 -0.1788 -0.5000 -0.4810
  764MPD2    C511336   0.835   1.432  17.278 -0.2710  0.6898 -1.0430
  764MPD2     H11337   0.521   1.262  17.161 -0.5032  0.1299  0.1382
  764MPD2    H111338   0.808   1.331  17.460  0.0315 -0.9118 -0.5749
  764MPD2    H211339   0.827   1.546  17.099 -1.6355  0.7554 -0.5523
  764MPD2    H311340   0.916   1.492  17.317 -1.6566  1.2041  1.0619
  764MPD2     N11341   0.567   1.215  17.410  0.1018  0.3301  0.1061
  764MPD2    H511342   0.472   1.199  17.378  0.4636 -0.6104 -0.4740
  764MPD2    N111343   0.585   1.442  16.999  0.1534  0.1505  0.4390
  764MPD2    H711344   0.506   1.380  16.986 -0.4795  1.1695 -0.5413
  765MPD2     C11345   0.242   3.813  15.603 -0.4148 -0.3347  0.0912
  765MPD2    C111346   0.298   3.925  15.543 -0.3814 -0.7253 -0.5469
  765MPD2    C211347   0.419   3.905  15.472  0.2661 -0.1983 -0.0991
  765MPD2    C311348   0.490   3.782  15.474  0.2199 -0.1274  0.0473
  765MPD2    C411349   0.432   3.681  15.549  0.9619  0.1219  0.0895
  765MPD2    C511350   0.310   3.691  15.604  0.0776 -0.6462 -0.0468
  765MPD2     H11351   0.471   3.987  15.423 -0.0835  0.9993  1.5633
  765MPD2    H111352   0.488   3.589  15.561  0.6001 -0.2689 -1.2114
  765MPD2    H211353   0.152   3.819  15.662 -1.0541 -1.2776 -0.7872
  765MPD2    H311354   0.268   3.609  15.661  0.9842 -0.5009  0.8279
  765MPD2     N11355   0.610   3.756  15.403 -0.1225 -0.4526 -0.1268
  765MPD2    H511356   0.649   3.830  15.345 -1.3211  1.6313  1.7104
  765MPD2    N111357   0.230   4.051  15.546  0.2129 -0.5118 -0.3070
  765MPD2    H711358   0.152   4.064  15.610  2.2606  0.8286  1.9042
  766MPD2     C11359   4.306   4.359  15.177  0.5492 -0.6587 -0.1402
  766MPD2    C111360   4.422   4.291  15.191 -0.3964 -0.1102 -0.4043
  766MPD2    C211361   4.465   4.200  15.093 -0.4709  0.1559 -0.6643
  766MPD2    C311362   4.381   4.179  14.980  0.0671  1.0420  0.0358
  766MPD2    C411363   4.260   4.235  14.975 -0.2710 -0.5479  0.8417
  766MPD2    C511364   4.227   4.330  15.066  0.2932 -0.7380  0.3799
  766MPD2     H11365   4.568   4.168  15.106 -0.5425 -0.1477 -0.8416
  766MPD2    H111366   4.191   4.219  14.893  0.6779  1.4503 -0.3650
  766MPD2    H211367   4.285   4.440  15.246 -0.2381  0.3670 -1.5966
  766MPD2    H311368   4.132   4.380  15.056  0.6784 -0.0790  0.0727
  766MPD2     N11369   4.423   4.091  14.877 -0.4468  0.3501 -0.2397
  766MPD2    H511370   4.363   4.083  14.796 -1.6434 -0.7588  0.7574
  766MPD2    N111371   4.501   4.327  15.303 -0.4238  0.1810 -0.5235
  766MPD2    H711372   4.463   4.407  15.353 -0.1962  0.4689 -0.8171
  767MPD2     C11373   4.119   4.478  14.698 -0.3449 -0.2882  0.5858
  767MPD2    C111374   4.243   4.440  14.662 -0.0492 -0.1097 -0.1400
  767MPD2    C211375   4.259   4.356  14.550 -0.0862  0.7388 -0.0728
  767MPD2    C311376   4.149   4.305  14.488  0.3183 -0.3352  0.7697
  767MPD2    C411377   4.022   4.339  14.526 -0.4502  0.8417  0.9205
  767MPD2    C511378   4.011   4.429  14.630 -0.3880 -0.1926 -0.4237
  767MPD2     H11379   4.354   4.327  14.507 -0.9868  0.8789 -2.1635
  767MPD2    H111380   3.930   4.310  14.477  1.1319  0.6711 -1.9537
  767MPD2    H211381   4.095   4.540  14.784 -0.1181  2.0470 -1.0482
  767MPD2    H311382   3.915   4.465  14.666 -0.4948  0.5924 -1.4861
  767MPD2     N11383   4.183   4.216  14.376  0.0566  0.1138 -0.1690
  767MPD2    H511384   4.280   4.204  14.349 -0.0169 -4.7682  1.8531
  767MPD2    N111385   4.355   4.494  14.740  0.0081 -0.5324  0.1575
  767MPD2    H711386   4.336   4.559  14.815 -0.0222  1.7079 -1.8076
  768MPD2     C11387   4.655   2.598  10.850  1.0398  0.1662 -0.2034
  768MPD2    C111388   4.715   2.720  10.828  0.0940 -0.7578  0.3467
  768MPD2    C211389   0.097   2.763  10.884  0.1842 -0.0872 -0.6425
  768MPD2    C311390   0.165   2.679  10.970 -0.5590  0.8634 -0.5532
  768MPD2    C411391   0.120   2.549  10.988 -0.1307 -0.2624  0.1246
  768MPD2    C511392   4.735   2.518  10.928  0.7694 -0.4697  0.4833
  768MPD2     H11393   0.129   2.865  10.865  1.7366 -0.2324  1.2324
  768MPD2    H111394   0.179   2.477  11.044  0.9135  1.3574  1.1119
  768MPD2    H211395   4.555   2.576  10.815  0.3615  0.4944  1.5437
  768MPD2    H311396   4.692   2.420  10.951 -0.0106 -1.0096 -3.2540
  768MPD2     N11397   0.288   2.719  11.021  0.5994 -0.0629  0.0391
  768MPD2    H511398   0.325   2.649  11.084  0.8845 -0.7544 -0.8920
  768MPD2    N111399   4.646   2.814  10.752  0.5531 -0.2524  1.0580
  768MPD2    H711400   4.694   2.896  10.717 -0.6445  0.1887  0.4562
  769MPD2     C11401   1.469   0.824  14.948  0.7617 -0.5903  0.6790
  769MPD2    C111402   1.353   0.849  15.022  0.7751  0.6256 -0.0265
  769MPD2    C211403   1.330   0.975  15.074  0.3323  0.2254  0.1102
  769MPD2    C311404   1.420   1.080  15.053 -0.0940  0.5262  0.1319
  769MPD2    C411405   1.536   1.054  14.982 -0.0047 -0.2698 -0.1999
  769MPD2    C511406   1.565   0.924  14.932  0.1930  0.6317 -0.6564
  769MPD2     H11407   1.249   0.988  15.144  1.3237  0.8019  1.1554
  769MPD2    H111408   1.614   1.124  14.954 -0.5962  0.6304  0.3967
  769MPD2    H211409   1.488   0.728  14.902 -1.2692 -0.4980 -0.3406
  769MPD2    H311410   1.657   0.901  14.880 -2.6867 -1.6193 -4.7646
  769MPD2     N11411   1.393   1.207  15.121  0.6334  0.0086  0.5451
  769MPD2    H511412   1.311   1.224  15.177 -0.0940 -0.2436 -0.4484
  769MPD2    N111413   1.270   0.743  15.046  0.7253 -1.1620 -0.6979
  769MPD2    H711414   1.298   0.655  15.004 -0.2700 -1.6040 -0.4398
  770MPD2     C11415   1.226   4.530  14.891 -0.5871 -0.2794  0.0976
  770MPD2    C111416   1.114   4.566  14.820  0.0125 -0.4899  0.1096
  770MPD2    C211417   1.064   4.689  14.829 -0.0945  0.1135  0.3515
  770MPD2    C311418   1.113   0.030  14.934  0.6280 -0.9147  0.1132
  770MPD2    C411419   1.221   4.729  15.010  1.2369  0.0667  0.4201
  770MPD2    C511420   1.276   4.611  14.986 -0.4314  0.8226  0.0712
  770MPD2     H11421   0.991   4.723  14.756  0.7893 -0.9738 -1.0357
  770MPD2    H111422   1.265   0.041  15.095  0.3544  2.5507 -0.6121
  770MPD2    H211423   1.280   4.438  14.877 -0.4219 -0.1662 -0.0042
  770MPD2    H311424   1.364   4.591  15.045 -0.3914  0.4270 -0.1238
  770MPD2     N11425   1.059   0.164  14.946 -0.5180  0.3701  0.1970
  770MPD2    H511426   0.987   0.193  14.881 -1.9174  0.9868  2.0174
  770MPD2    N111427   1.073   4.476  14.726 -0.2782 -0.9434  0.2453
  770MPD2    H711428   1.121   4.386  14.722 -0.0674 -0.8109 -0.2412
  771MPD2     C11429   1.994   3.601  13.536  0.1692  0.6856  0.6975
  771MPD2    C111430   1.895   3.693  13.524  0.0571  0.0851 -0.2750
  771MPD2    C211431   1.791   3.670  13.439 -0.1520  0.6644 -0.2133
  771MPD2    C311432   1.792   3.566  13.349 -0.0754  0.1614  0.0253
  771MPD2    C411433   1.897   3.477  13.356 -0.1280 -0.0842  0.5173
  771MPD2    C511434   1.992   3.491  13.455  0.1978  0.2347  0.6959
  771MPD2     H11435   1.700   3.729  13.429  0.4736  1.8386  1.1259
  771MPD2    H111436   1.909   3.392  13.289  0.5565 -0.5019  1.1697
  771MPD2    H211437   2.063   3.596  13.620  0.1487 -1.4741  0.5827
  771MPD2    H311438   2.071   3.419  13.474 -0.7065 -1.3986 -1.7830
  771MPD2     N11439   1.681   3.554  13.254  0.6642 -0.0934  0.0502
  771MPD2    H511440   1.610   3.626  13.254 -0.2737 -1.0313 -2.1358
  771MPD2    N111441   1.885   3.808  13.601  0.0938 -0.1488 -0.6250
  771MPD2    H711442   1.804   3.866  13.581 -1.0605 -1.3159  0.6973
  772MPD2     C11443   1.427   4.358  13.673 -0.0475 -0.5506  0.4330
  772MPD2    C111444   1.475   4.245  13.605  0.0661 -0.4983 -0.3178
  772MPD2    C211445   1.388   4.182  13.513 -0.3401 -0.0715 -0.2528
  772MPD2    C311446   1.268   4.242  13.481 -0.7642  0.0959  0.0229
  772MPD2    C411447   1.227   4.358  13.549  0.1727 -0.0125  0.3291
  772MPD2    C511448   1.305   4.417  13.643 -0.9393 -0.4659 -0.3166
  772MPD2     H11449   1.422   4.098  13.453 -2.4796 -1.7161  0.8124
  772MPD2    H111450   1.128   4.396  13.529  0.7031  1.3266  0.2920
  772MPD2    H211451   1.475   4.400  13.761  0.5552  0.8363 -0.5445
  772MPD2    H311452   1.272   4.494  13.712  0.2920  1.7851 -2.2477
  772MPD2     N11453   1.178   4.192  13.378 -0.6479  0.1340 -0.2417
  772MPD2    H511454   1.101   4.256  13.363  0.3216  1.2318 -0.5356
  772MPD2    N111455   1.599   4.185  13.636 -0.1517  0.2231 -0.1443
  772MPD2    H711456   1.622   4.106  13.576 -2.9322 -1.4151  0.9211
  773MPD2     C11457   1.144   0.107   0.105 -0.1713  0.2592  0.4282
  773MPD2    C111458   1.135   0.001   0.010  0.0879 -0.8360  0.7323
  773MPD2    C211459   1.193   4.621   0.042 -0.1198 -0.2647  0.0918
  773MPD2    C311460   1.267   4.607   0.159 -0.0823 -0.3868 -0.8278
  773MPD2    C411461   1.268   4.707   0.256  0.6068  0.7802 -0.7998
  773MPD2    C511462   1.201   0.081   0.227  0.7498 -0.1321  0.6336
  773MPD2     H11463   1.196   4.542  17.722 -0.3042 -1.2336  1.1357
  773MPD2    H111464   1.332   4.709   0.344  0.3797 -1.1680 -0.5867
  773MPD2    H211465   1.088   0.199   0.098 -1.4779 -0.6094 -0.4418
  773MPD2    H311466   1.206   0.167   0.292 -0.4857  1.7003 -1.6843
  773MPD2     N11467   1.361   4.497   0.167 -0.0946 -0.0848  0.4375
  773MPD2    H511468   1.367   4.438   0.085 -1.8487  1.5801 -0.8959
  773MPD2    N111469   1.064   0.001  17.639 -0.6276  0.2213  0.2484
  773MPD2    H711470   1.064   4.650  17.591  0.0142  1.3685 -1.8802
  774MPD2     C11471   0.315   4.034  13.403 -0.4955  0.4369  0.3418
  774MPD2    C111472   0.214   4.122  13.394  0.1426  0.1465  0.2628
  774MPD2    C211473   0.234   4.260  13.403 -1.1006  0.0804 -0.1942
  774MPD2    C311474   0.364   4.308  13.435 -0.5981 -0.7107 -0.0257
  774MPD2    C411475   0.460   4.211  13.458  0.9880 -0.1379  0.1983
  774MPD2    C511476   0.436   4.084  13.448  0.0085 -0.7992 -0.4307
  774MPD2     H11477   0.155   4.328  13.372 -0.1888  0.9369 -0.6337
  774MPD2    H111478   0.559   4.242  13.491  2.0739 -3.7081  0.2570
  774MPD2    H211479   0.303   3.931  13.372 -2.1830  0.9392 -0.6641
  774MPD2    H311480   0.521   4.018  13.453  1.2201  0.8461  0.6912
  774MPD2     N11481   0.389   4.450  13.442  0.1627  0.1744  0.2805
  774MPD2    H511482   0.310   4.513  13.432 -0.0556  0.1455  1.8526
  774MPD2    N111483   0.092   4.065  13.357  0.8675 -0.0766 -0.2400
  774MPD2    H711484   0.094   3.964  13.353  0.3483 -0.1130  0.5904
  775MPD2     C11485   1.413   0.829  15.378 -0.1095  0.3793  0.5538
  775MPD2    C111486   1.432   0.942  15.444 -0.8678 -0.4251  0.6888
  775MPD2    C211487   1.538   1.023  15.409  0.5181 -0.4877  0.6490
  775MPD2    C311488   1.629   0.982  15.313 -0.1429  0.1148 -0.1034
  775MPD2    C411489   1.612   0.856  15.256  0.4900  1.0300  0.3016
  775MPD2    C511490   1.505   0.778  15.295  0.1182  0.8089 -0.2251
  775MPD2     H11491   1.554   1.121  15.451  1.2024  0.5971 -2.1062
  775MPD2    H111492   1.682   0.821  15.181  1.8916  1.8174  1.2244
  775MPD2    H211493   1.330   0.764  15.401 -0.0801 -0.2819 -1.2101
  775MPD2    H311494   1.496   0.681  15.249  2.3061 -0.8129  2.7798
  775MPD2     N11495   1.735   1.066  15.270 -0.1313 -0.2555 -0.2516
  775MPD2    H511496   1.783   1.044  15.183  0.2875 -0.5577  0.0598
  775MPD2    N111497   1.326   0.983  15.532 -0.1435 -0.0343 -0.1550
  775MPD2    H711498   1.243   0.924  15.534  1.8163 -2.7467  1.1833
  776MPD2     C11499   4.138   1.730  11.453  0.2103 -0.4215  0.9280
  776MPD2    C111500   4.262   1.663  11.459  0.2253 -0.0097  0.2601
  776MPD2    C211501   4.378   1.738  11.464 -0.4011 -0.1366 -0.2491
  776MPD2    C311502   4.380   1.879  11.467 -0.0737 -0.0510 -0.1507
  776MPD2    C411503   4.259   1.940  11.453  0.0254  0.0679 -0.5949
  776MPD2    C511504   4.144   1.866  11.455  0.4599  0.5383 -0.4188
  776MPD2     H11505   4.476   1.692  11.468 -0.7313 -0.9612 -1.7234
  776MPD2    H111506   4.247   2.048  11.450 -0.4733  0.0443  0.4071
  776MPD2    H211507   4.042   1.679  11.460 -1.0174  1.7007 -0.4880
  776MPD2    H311508   4.051   1.922  11.460 -0.1863 -0.6006  0.4136
  776MPD2     N11509   4.499   1.954  11.487 -0.3178 -0.0256 -0.0013
  776MPD2    H511510   4.495   2.055  11.491  0.1365 -0.0538  1.3574
  776MPD2    N111511   4.264   1.521  11.467  0.1599  0.2490 -0.7257
  776MPD2    H711512   4.173   1.477  11.480  0.8646 -0.8239  0.5111
  777MPD2     C11513   1.131   3.688   0.418 -0.4728 -0.2312  0.7545
  777MPD2    C111514   1.228   3.603   0.460  0.5698  0.0083  0.6092
  777MPD2    C211515   1.260   3.489   0.382  0.1872 -0.9500  0.7962
  777MPD2    C311516   1.188   3.467   0.265  0.0221 -0.8731 -0.0028
  777MPD2    C411517   1.095   3.564   0.221  0.0801 -0.1761 -0.3459
  777MPD2    C511518   1.073   3.672   0.299 -0.1630 -0.5350 -0.2715
  777MPD2     H11519   1.336   3.417   0.412  0.9071 -0.2047  0.7494
  777MPD2    H111520   1.037   3.562   0.129 -1.6766 -2.3376  0.8223
  777MPD2    H211521   1.123   3.773   0.484 -0.0700  0.6055 -0.2745
  777MPD2    H311522   0.995   3.740   0.268 -0.3801  0.6324  2.8129
  777MPD2     N11523   1.230   3.354   0.193 -0.0706 -0.0625  0.2473
  777MPD2    H511524   1.303   3.293   0.228  1.0407  1.4102  0.5127
  777MPD2    N111525   1.269   3.619   0.597  0.3061 -0.5502 -0.3360
  777MPD2    H711526   1.226   3.697   0.645  1.5428 -0.3583  0.4532
  778MPD2     C11527   2.100   3.922  14.130  0.1239 -0.5177  0.0002
  778MPD2    C111528   2.174   3.809  14.148  0.4325 -0.3441 -0.3138
  778MPD2    C211529   2.308   3.823  14.162 -0.7225  0.3092  0.0042
  778MPD2    C311530   2.377   3.944  14.152 -0.8371  0.5055  0.2748
  778MPD2    C411531   2.299   4.051  14.127 -1.0052 -0.5191  0.6212
  778MPD2    C511532   2.168   4.041  14.120  0.3415  0.3964  0.0271
  778MPD2     H11533   2.368   3.736  14.185 -1.4968 -0.1114  0.4505
  778MPD2    H111534   2.335   4.154  14.128  0.2437 -0.9612  0.7227
  778MPD2    H211535   1.993   3.920  14.116 -0.1163  4.5800  1.0923
  778MPD2    H311536   2.116   4.135  14.108  1.1786  0.6027 -1.9635
  778MPD2     N11537   2.520   3.956  14.165  0.5731  0.1232  0.1788
  778MPD2    H511538   2.578   3.873  14.172 -0.1271 -0.7556 -4.5380
  778MPD2    N111539   2.117   3.679  14.162 -0.4307 -0.0866  0.0133
  778MPD2    H711540   2.186   3.604  14.168 -1.5039 -0.8201  3.2244
  779MPD2     C11541   1.796   2.660  13.137  0.1995  0.0812  0.2803
  779MPD2    C111542   1.783   2.632  13.269 -0.0707  0.3567  0.2778
  779MPD2    C211543   1.811   2.727  13.367  0.0444 -0.3653  0.5667
  779MPD2    C311544   1.825   2.858  13.328  0.1499 -0.0374 -0.9266
  779MPD2    C411545   1.842   2.887  13.194  0.1545 -0.3053 -0.2813
  779MPD2    C511546   1.828   2.788  13.103 -0.4311 -0.4008  0.9260
  779MPD2     H11547   1.792   2.696  13.469  2.0421 -0.7977  0.8128
  779MPD2    H111548   1.891   2.978  13.163  2.5911 -1.1124  1.1275
  779MPD2    H211549   1.791   2.596  13.050 -1.1069 -1.3254  1.4003
  779MPD2    H311550   1.854   2.811  13.000 -0.3411  1.4808  1.3758
  779MPD2     N11551   1.846   2.958  13.429  0.0162  0.3702 -0.7213
  779MPD2    H511552   1.856   2.931  13.526 -1.2284  1.1723 -0.3720
  779MPD2    N111553   1.756   2.506  13.325 -0.4148 -0.0627 -0.1124
  779MPD2    H711554   1.741   2.497  13.425 -2.7043 -1.7253 -0.6261
  780MPD2     C11555   1.764   1.816   1.283 -0.6749  0.3165  0.2873
  780MPD2    C111556   1.660   1.871   1.202 -0.1910  0.5576 -0.4331
  780MPD2    C211557   1.704   1.965   1.106 -0.5957  0.0181  0.2643
  780MPD2    C311558   1.831   2.010   1.097 -0.3306 -0.2415  0.1757
  780MPD2    C411559   1.935   1.951   1.175  0.2172  0.3694  0.7371
  780MPD2    C511560   1.895   1.859   1.266 -0.5822 -0.1474 -0.1634
  780MPD2     H11561   1.638   2.016   1.037 -2.4370  0.0122  2.0066
  780MPD2    H111562   2.041   1.970   1.183  0.2583  0.3779  0.1774
  780MPD2    H211563   1.748   1.746   1.364  2.6456 -0.9311 -0.1336
  780MPD2    H311564   1.967   1.821   1.337 -1.5572 -1.6374  0.0296
  780MPD2     N11565   1.859   2.113   1.002  0.3084 -0.1678  0.4162
  780MPD2    H511566   1.782   2.127   0.937  0.4362 -0.1348  0.2713
  780MPD2    N111567   1.525   1.823   1.219  0.2591 -0.2616 -0.1515
  780MPD2    H711568   1.507   1.752   1.289 -0.2991  1.7848  1.7747
  781MPD2     C11569   2.968   0.020  11.924  0.2577  0.1241  0.5197
  781MPD2    C111570   3.056   0.004  12.029  0.5816 -0.1472  0.1414
  781MPD2    C211571   3.191   0.011  12.001 -0.3475  0.0988  0.0718
  781MPD2    C311572   3.241   0.021  11.867 -0.7791  0.0072  0.3402
  781MPD2    C411573   3.147   0.047  11.769 -0.1971  0.0068  0.0372
  781MPD2    C511574   3.017   0.038  11.797  0.3033  0.0822  0.1007
  781MPD2     H11575   3.263   0.004  12.082  0.5186  2.0210 -0.5297
  781MPD2    H111576   3.185   0.069  11.670 -1.3115  0.8923 -0.1963
  781MPD2    H211577   2.861   0.002  11.932 -0.0697  1.5262 -0.8049
  781MPD2    H311578   2.947   0.038  11.713 -0.3935 -0.2713  0.6772
  781MPD2     N11579   3.376   4.725  11.837  0.0626 -0.2713 -0.4948
  781MPD2    H511580   3.405   4.718  11.740 -3.0762 -1.1004 -1.3575
  781MPD2    N111581   3.025   4.691  12.148  0.1209  0.6278 -0.1214
  781MPD2    H711582   3.097   4.697  12.219 -0.1254 -0.1088  0.1868
  782MPD2     C11583   0.862   0.546  10.217  0.5247  0.5639 -0.6313
  782MPD2    C111584   0.891   0.539  10.350 -0.5867 -0.2526 -0.3024
  782MPD2    C211585   0.947   0.649  10.414 -0.1721  0.8288  0.1317
  782MPD2    C311586   0.975   0.764  10.343  0.0199  0.3217 -0.9345
  782MPD2    C411587   0.953   0.764  10.204 -0.7111 -0.4725 -0.2798
  782MPD2    C511588   0.899   0.657  10.138 -0.2061  0.7154  0.6839
  782MPD2     H11589   0.962   0.642  10.522 -2.1538 -0.9506  0.2792
  782MPD2    H111590   0.979   0.848  10.141 -0.1064  1.5569  2.6521
  782MPD2    H211591   0.816   0.457  10.176 -1.4013  0.4992  1.6187
  782MPD2    H311592   0.881   0.663  10.031 -2.8527  0.9440  1.1486
  782MPD2     N11593   1.024   0.886  10.393  0.3758  0.9024  0.0953
  782MPD2    H511594   1.036   0.965  10.330  0.7544  1.0188  0.3167
  782MPD2    N111595   0.862   0.430  10.435  0.0832  0.3542 -0.0388
  782MPD2    H711596   0.882   0.441  10.534  0.9141 -0.6697 -0.0911
  783MPD2     C11597   0.295   0.170  11.178  0.2817 -0.7994  0.1111
  783MPD2    C111598   0.414   0.223  11.199 -0.4070  0.1708  0.2052
  783MPD2    C211599   0.515   0.199  11.104 -0.0501  0.7047  0.0931
  783MPD2    C311600   0.485   0.132  10.988 -0.3695  0.1948 -0.2457
  783MPD2    C411601   0.359   0.079  10.966 -0.0774  0.2065 -0.7060
  783MPD2    C511602   0.265   0.101  11.068 -0.8524 -0.5052  0.0778
  783MPD2     H11603   0.613   0.245  11.109  0.0723  0.5128 -0.5239
  783MPD2    H111604   0.343   0.012  10.882  3.1580 -0.6140 -0.6843
  783MPD2    H211605   0.211   0.187  11.245 -0.2322  2.4914 -1.3867
  783MPD2    H311606   0.168   0.054  11.053 -1.0337 -0.1326  0.0891
  783MPD2     N11607   0.600   0.123  10.897 -0.2165 -0.3606  1.0426
  783MPD2    H511608   0.693   0.155  10.921  0.4945 -0.3896 -1.7545
  783MPD2    N111609   0.440   0.292  11.322  0.3587  0.1715 -0.1129
  783MPD2    H711610   0.368   0.278  11.392 -0.1737  2.3012 -0.2632
  784MPD2     C11611   3.573   0.796   0.465 -0.0893 -0.1857  0.3975
  784MPD2    C111612   3.567   0.876   0.576 -0.0606 -0.0493  0.9062
  784MPD2    C211613   3.470   0.975   0.578 -0.1890 -0.3682 -0.5082
  784MPD2    C311614   3.373   0.986   0.485  0.6537  0.8323 -0.1567
  784MPD2    C411615   3.377   0.894   0.379 -0.0355 -0.0524 -0.7517
  784MPD2    C511616   3.473   0.799   0.371  0.7945  0.1884  0.7154
  784MPD2     H11617   3.461   1.041   0.664 -1.0128 -2.8639  1.3439
  784MPD2    H111618   3.308   0.899   0.296  1.3188  0.7981 -1.8248
  784MPD2    H211619   3.656   0.726   0.457  0.0659 -0.0519  0.8505
  784MPD2    H311620   3.487   0.741   0.280 -0.6353  1.1482 -0.1296
  784MPD2     N11621   3.272   1.088   0.486  0.2690  0.0395 -0.2903
  784MPD2    H511622   3.297   1.164   0.547 -2.7838  1.2284 -0.5374
  784MPD2    N111623   3.656   0.873   0.686  0.2445  0.0030 -0.0627
  784MPD2    H711624   3.663   0.953   0.748  1.3366 -0.3160  0.2257
  785MPD2     C11625   3.666   3.791  10.617  0.1796  0.6268  0.2273
  785MPD2    C111626   3.582   3.891  10.583 -0.6645  0.6664  0.3546
  785MPD2    C211627   3.482   3.876  10.482 -0.2200 -0.2486  0.6598
  785MPD2    C311628   3.462   3.746  10.434 -0.4284  0.1143  0.9264
  785MPD2    C411629   3.537   3.644  10.486 -0.4184 -0.8809  0.1803
  785MPD2    C511630   3.639   3.667  10.573 -0.3790 -0.1181 -0.2676
  785MPD2     H11631   3.419   3.954  10.442  0.3633 -1.1158 -2.0001
  785MPD2    H111632   3.521   3.542  10.451  0.5974 -0.8917 -0.2663
  785MPD2    H211633   3.751   3.810  10.683  1.7361 -2.3785 -0.9153
  785MPD2    H311634   3.710   3.591  10.601  0.9184  1.1996  0.0182
  785MPD2     N11635   3.356   3.735  10.339 -0.2685 -0.9172 -0.2830
  785MPD2    H511636   3.306   3.820  10.317  3.3141  1.0923 -0.6505
  785MPD2    N111637   3.608   4.019  10.651 -0.3211 -0.7843 -0.3327
  785MPD2    H711638   3.671   4.012  10.730 -0.9147 -1.5790  0.0697
  786MPD2     C11639   2.155   1.741  14.916 -0.5178 -0.0177 -0.3404
  786MPD2    C111640   2.255   1.701  14.837  0.7658 -0.3941 -0.3459
  786MPD2    C211641   2.379   1.761  14.831  0.5048 -0.2445  0.7997
  786MPD2    C311642   2.412   1.862  14.928 -0.1630  0.2204 -0.2077
  786MPD2    C411643   2.314   1.896  15.019  0.9280 -0.9642  0.4091
  786MPD2    C511644   2.188   1.839  15.012  0.4470 -0.4086  0.9644
  786MPD2     H11645   2.448   1.738  14.752  0.9053  0.2923  0.9922
  786MPD2    H111646   2.339   1.955  15.107  1.7688 -1.9288  0.8190
  786MPD2    H211647   2.059   1.692  14.928 -0.8184  0.5378 -0.4705
  786MPD2    H311648   2.113   1.859  15.087 -1.4043 -0.1325 -0.9565
  786MPD2     N11649   2.543   1.912  14.947 -0.8846  0.0239  0.2608
  786MPD2    H511650   2.555   1.977  15.024 -1.0472  1.3124 -0.8019
  786MPD2    N111651   2.239   1.589  14.753 -0.1755  0.1849  0.0796
  786MPD2    H711652   2.329   1.547  14.730 -0.2261  0.2991 -0.3244
  787MPD2     C11653   2.696   1.222  14.832  0.7378 -0.2215 -0.2345
  787MPD2    C111654   2.623   1.148  14.736 -0.3704 -0.0155  0.3417
  787MPD2    C211655   2.664   1.026  14.701 -0.1170 -0.1503  0.7317
  787MPD2    C311656   2.779   0.972  14.760 -0.4960  0.0774 -0.0125
  787MPD2    C411657   2.847   1.054  14.853  0.5012  0.3521 -0.0245
  787MPD2    C511658   2.814   1.177  14.881 -0.3224 -0.3457  0.4103
  787MPD2     H11659   2.614   0.972  14.622 -0.2041  1.2417 -0.1684
  787MPD2    H111660   2.931   1.017  14.910 -0.6314 -2.2967 -0.0818
  787MPD2    H211661   2.656   1.322  14.845 -2.8837 -1.6983 -0.1287
  787MPD2    H311662   2.873   1.239  14.947 -2.5634  2.1362  0.1002
  787MPD2     N11663   2.809   0.835  14.739 -0.1288  0.2241 -0.8881
  787MPD2    H511664   2.767   0.783  14.662 -0.6906  0.1270 -0.5154
  787MPD2    N111665   2.507   1.214  14.684 -0.1180 -0.1808  0.0071
  787MPD2    H711666   2.503   1.312  14.707 -0.6689  0.5387 -3.1200
  788MPD2     C11667   4.736   0.283   0.516  0.0873  0.5154  0.3087
  788MPD2    C111668   0.112   0.222   0.476  0.1461  0.1160 -0.1480
  788MPD2    C211669   0.185   0.276   0.364  0.6272 -0.1049  0.7165
  788MPD2    C311670   0.144   0.400   0.320  0.2675 -0.2342 -0.0316
  788MPD2    C411671   0.043   0.469   0.381  0.3127  0.1705 -0.1054
  788MPD2    C511672   4.705   0.408   0.479 -0.4270 -0.2270  0.6974
  788MPD2     H11673   0.280   0.233   0.336  1.0754  0.8318  0.8282
  788MPD2    H111674   0.006   0.561   0.339  0.6130  0.4450  0.2291
  788MPD2    H211675   4.665   0.240   0.587 -1.2305 -2.2217 -2.6439
  788MPD2    H311676   4.623   0.463   0.524 -0.6452  0.6246 -0.7451
  788MPD2     N11677   0.205   0.465   0.212  0.2855 -0.0517  0.0717
  788MPD2    H511678   0.159   0.551   0.184  2.0938  0.9257  0.0788
  788MPD2    N111679   0.163   0.102   0.533  0.6337 -0.2026  0.0055
  788MPD2    H711680   0.250   0.074   0.489  0.9465  3.1107 -1.4853
  789MPD2     C11681   4.677   4.382  16.218  0.0286 -0.6628 -0.0311
  789MPD2    C111682   4.674   4.341  16.349  0.3567  1.1900  0.4943
  789MPD2    C211683   4.574   4.384  16.437  0.2277 -0.1075  0.1007
  789MPD2    C311684   4.480   4.479  16.403  0.1224 -0.6181 -0.7264
  789MPD2    C411685   4.500   4.532  16.277 -0.6157 -0.0196  0.6730
  789MPD2    C511686   4.595   4.485  16.191  0.5817  0.2521 -0.3169
  789MPD2     H11687   4.574   4.335  16.535 -1.5153 -0.5830 -0.1401
  789MPD2    H111688   4.433   4.613  16.249 -1.5018 -0.9488  0.0990
  789MPD2    H211689   0.016   4.359  16.145  0.1752  0.1498 -0.1258
  789MPD2    H311690   4.600   4.530  16.093 -0.1115  2.7526  0.7935
  789MPD2     N11691   4.378   4.530  16.485 -1.1479 -0.0879 -0.2468
  789MPD2    H511692   4.317   4.602  16.447 -0.2376  0.3598 -0.8599
  789MPD2    N111693   0.023   4.234  16.389  0.2513  0.1043 -0.6485
  789MPD2    H711694   0.024   4.200  16.485  0.6872 -1.3538 -1.1689
  790MPD2     C11695   0.438   1.927  13.323 -0.8571 -0.2054 -0.3564
  790MPD2    C111696   0.441   1.794  13.338  0.5826 -0.3986 -0.0003
  790MPD2    C211697   0.429   1.719  13.223  0.1529 -0.4678 -0.0168
  790MPD2    C311698   0.417   1.781  13.095 -0.2659 -0.5545  0.3173
  790MPD2    C411699   0.428   1.918  13.086 -0.7164  0.2728  0.7421
  790MPD2    C511700   0.423   1.990  13.199 -0.1925 -0.9746 -0.2274
  790MPD2     H11701   0.434   1.611  13.229  0.5367 -0.5157 -1.1534
  790MPD2    H111702   0.434   1.975  12.994  2.1010 -0.3791  0.5139
  790MPD2    H211703   0.445   1.974  13.420  0.7315 -0.7103 -0.2289
  790MPD2    H311704   0.435   2.098  13.198  0.2832 -1.0020  2.0233
  790MPD2     N11705   0.395   1.703  12.986  0.3243  0.0304 -1.3054
  790MPD2    H511706   0.398   1.602  13.001 -1.2134  0.3190  1.0038
  790MPD2    N111707   0.447   1.734  13.470  0.1417  0.6419 -0.0707
  790MPD2    H711708   0.449   1.798  13.549  0.9461 -0.2865  0.6581
  791MPD2     C11709   4.518   1.552  12.540  0.2793 -0.2433  0.9850
  791MPD2    C111710   4.609   1.456  12.557 -0.5036 -0.1195 -0.1188
  791MPD2    C211711   4.575   1.328  12.513  0.3007  0.1271 -0.1868
  791MPD2    C311712   4.442   1.298  12.492 -0.0556  0.5632  0.6330
  791MPD2    C411713   4.349   1.398  12.469  0.0285 -0.5894 -0.0017
  791MPD2    C511714   4.390   1.528  12.482 -1.1706 -0.7478 -0.2835
  791MPD2     H11715   4.638   1.240  12.510  0.3157  0.1556 -0.6363
  791MPD2    H111716   4.249   1.375  12.436 -0.4960 -0.3131  1.3965
  791MPD2    H211717   4.545   1.656  12.553 -0.1303  0.2950 -2.2864
  791MPD2    H311718   4.325   1.613  12.465 -0.5097  0.0855  1.4868
  791MPD2     N11719   4.416   1.157  12.478 -0.7387 -0.0533 -0.0789
  791MPD2    H511720   4.492   1.091  12.484 -2.1536 -1.6114  0.8029
  791MPD2    N111721   4.735   1.495  12.593  0.1313 -0.0679 -0.0053
  791MPD2    H711722   0.013   1.593  12.614 -1.7479 -0.1237  1.7264
  792MPD2     C11723   0.974   1.493  10.979  0.1742 -0.5656  0.1578
  792MPD2    C111724   0.896   1.549  10.881 -0.5600  0.1055 -0.3975
  792MPD2    C211725   0.848   1.461  10.783 -1.1914 -0.1195 -0.9883
  792MPD2    C311726   0.862   1.321  10.798  0.6421  0.4173  0.9545
  792MPD2    C411727   0.917   1.273  10.913 -0.1742 -0.4236  0.5429
  792MPD2    C511728   0.973   1.365  11.001  0.4139  0.7400 -0.1786
  792MPD2     H11729   0.814   1.507  10.692  0.9947 -0.0160 -1.7477
  792MPD2    H111730   0.929   1.168  10.937 -1.6805 -0.6443  0.3405
  792MPD2    H211731   1.019   1.552  11.058  0.0753 -1.5290  0.9255
  792MPD2    H311732   1.025   1.331  11.089 -1.6716 -0.2156  0.6884
  792MPD2     N11733   0.809   1.217  10.713 -0.3843  0.3591 -0.1282
  792MPD2    H511734   0.817   1.120  10.745 -0.6398  0.4135  0.1035
  792MPD2    N111735   0.874   1.692  10.889  0.0716 -0.2914 -0.2071
  792MPD2    H711736   0.912   1.746  10.967 -2.0198 -1.4561  1.6102
  793MPD2     C11737   0.402   1.271   9.782 -0.2321 -0.1594 -0.2440
  793MPD2    C111738   0.418   1.351   9.886  0.3429 -0.0268  0.4261
  793MPD2    C211739   0.476   1.304  10.006 -0.0056 -0.5473 -0.1305
  793MPD2    C311740   0.515   1.172  10.019  0.4312  0.0316  0.4534
  793MPD2    C411741   0.489   1.087   9.915  0.2767 -0.2507  0.2278
  793MPD2    C511742   0.441   1.141   9.798 -0.1052 -0.3147 -0.7090
  793MPD2     H11743   0.501   1.366  10.091  0.7692  1.1273 -1.5926
  793MPD2    H111744   0.512   0.981   9.919  1.5305  0.0994  2.4181
  793MPD2    H211745   0.371   1.314   9.687 -1.1886 -2.8522 -1.1564
  793MPD2    H311746   0.437   1.075   9.713  0.0052 -0.5690 -0.5143
  793MPD2     N11747   0.572   1.130  10.138 -0.4325  0.3633  0.0359
  793MPD2    H511748   0.583   1.194  10.216  1.6284 -0.0426  0.0809
  793MPD2    N111749   0.379   1.484   9.886 -1.0441 -0.2664 -0.0249
  793MPD2    H711750   0.400   1.547   9.963  1.3998  1.9319 -2.4874
  794MPD2     C11751   0.582   0.532  17.223 -0.2702  0.1447 -0.3725
  794MPD2    C111752   0.600   0.433  17.125 -0.0193 -0.3955 -0.2403
  794MPD2    C211753   0.538   0.439  17.003  0.0903 -1.3737  0.4529
  794MPD2    C311754   0.465   0.548  16.968  0.3595 -0.2176 -0.3710
  794MPD2    C411755   0.451   0.648  17.058 -0.3903 -0.9665 -0.1324
  794MPD2    C511756   0.503   0.639  17.188 -0.3065  0.3541  0.0353
  794MPD2     H11757   0.545   0.356  16.933  0.0172  1.2219 -2.6516
  794MPD2    H111758   0.398   0.740  17.035  0.2658 -0.6334 -0.3320
  794MPD2    H211759   0.614   0.524  17.326  0.9458 -0.7224 -0.8242
  794MPD2    H311760   0.475   0.719  17.255 -0.3965  0.3088  0.0523
  794MPD2     N11761   0.398   0.568  16.847  0.2226 -0.0282  0.1545
  794MPD2    H511762   0.336   0.649  16.844  0.6277  0.3189  1.0041
  794MPD2    N111763   0.686   0.314  17.148  0.2976 -0.3098 -1.3132
  794MPD2    H711764   0.695   0.235  17.085 -2.4376 -1.2308 -0.5660
  795MPD2     C11765   2.772   2.308  13.731 -0.5401  0.1856  0.0539
  795MPD2    C111766   2.830   2.319  13.603  0.0339 -0.3537 -0.1673
  795MPD2    C211767   2.944   2.252  13.573  0.4523 -0.3427  0.4068
  795MPD2    C311768   2.993   2.166  13.665 -0.3831  0.1185  0.3435
  795MPD2    C411769   2.941   2.152  13.786 -0.9790  0.2123 -0.5117
  795MPD2    C511770   2.829   2.226  13.827 -0.2333  0.2921  0.1024
  795MPD2     H11771   2.989   2.256  13.475  0.4626 -1.4769  0.3603
  795MPD2    H111772   2.989   2.089  13.860 -0.2917  0.9220 -0.3488
  795MPD2    H211773   2.680   2.354  13.767 -2.0820 -0.9903 -2.4292
  795MPD2    H311774   2.796   2.228  13.930  2.6281  1.1755  1.0220
  795MPD2     N11775   3.107   2.089  13.618 -0.3462 -0.0370  0.2874
  795MPD2    H511776   3.151   2.125  13.534  0.8444 -0.8520  0.5607
  795MPD2    N111777   2.769   2.390  13.501 -0.0526 -0.0006 -0.2156
  795MPD2    H711778   2.804   2.377  13.407 -1.5438 -1.0011 -0.6364
  796MPD2     C11779   2.370   3.876  15.941  0.5547  0.8231 -0.2341
  796MPD2    C111780   2.291   3.981  15.977 -0.5184 -0.2440 -0.5402
  796MPD2    C211781   2.353   4.108  15.989 -0.0054 -0.0852  0.0333
  796MPD2    C311782   2.483   4.128  15.945  0.1367 -0.4633  0.7518
  796MPD2    C411783   2.560   4.012  15.915 -0.1171 -0.2548 -0.4520
  796MPD2    C511784   2.501   3.893  15.917 -0.1642 -0.9364 -0.3765
  796MPD2     H11785   2.289   4.191  16.017  1.8076  1.4000 -0.2034
  796MPD2    H111786   2.666   4.012  15.889 -0.2885 -1.7805 -1.1205
  796MPD2    H211787   2.333   3.779  15.973  2.0214  0.8422  1.5263
  796MPD2    H311788   2.561   3.805  15.904  2.0026  0.4190  0.4973
  796MPD2     N11789   2.536   4.259  15.951 -0.0635  0.0714 -0.1582
  796MPD2    H511790   2.477   4.342  15.955 -2.8945 -1.9681  0.3990
  796MPD2    N111791   2.161   3.950  16.015 -0.6292  0.1881 -0.0554
  796MPD2    H711792   2.140   3.851  16.019 -1.4081  0.3673  0.3422
  797MPD2     C11793   3.430   3.833  17.007 -0.2779 -0.7470  0.7655
  797MPD2    C111794   3.448   3.971  17.022  0.0720 -0.5710 -0.5312
  797MPD2    C211795   3.382   4.055  16.934  0.4020  0.0712  1.0358
  797MPD2    C311796   3.294   4.004  16.844 -0.9066  0.0500 -0.5096
  797MPD2    C411797   3.274   3.870  16.826  0.0714  0.2788 -0.2398
  797MPD2    C511798   3.344   3.784  16.913  0.0766 -0.4440  0.0584
  797MPD2     H11799   3.385   4.162  16.951 -1.0349  0.6990 -2.6551
  797MPD2    H111800   3.204   3.825  16.756  0.6394 -1.6702  0.4616
  797MPD2    H211801   3.471   3.764  17.079  1.3640  0.8025  1.3420
  797MPD2    H311802   3.322   3.679  16.903  0.0049 -0.2587 -1.7753
  797MPD2     N11803   3.209   4.099  16.783  1.1269  0.1667 -0.3699
  797MPD2    H511804   3.220   4.193  16.818 -2.9540  0.2113  0.7630
  797MPD2    N111805   3.535   4.024  17.122 -0.3402  0.3025 -0.0913
  797MPD2    H711806   3.559   4.122  17.115  0.5474  0.0901  0.0155
  798MPD2     C11807   3.100   4.633  17.170  0.6110 -0.3291 -0.9070
  798MPD2    C111808   3.158   4.539  17.080  0.0046 -0.4228  0.3913
  798MPD2    C211809   3.278   4.484  17.111 -0.4825 -0.2720  0.2304
  798MPD2    C311810   3.335   4.506  17.233 -0.2316 -0.1768 -0.1253
  798MPD2    C411811   3.281   4.596  17.323 -0.5807 -0.2783  0.4518
  798MPD2    C511812   3.159   4.653  17.290 -0.2693  0.1237 -1.1782
  798MPD2     H11813   3.323   4.411  17.044  0.2206  1.1322 -0.8316
  798MPD2    H111814   3.327   4.624  17.416 -0.8699  2.7624 -0.3281
  798MPD2    H211815   3.007   4.679  17.139  0.8821  0.9436  0.1667
  798MPD2    H311816   3.113   4.723  17.358  2.5566  0.2837  0.5668
  798MPD2     N11817   3.450   4.430  17.256  0.1818  0.1987 -0.5466
  798MPD2    H511818   3.479   4.364  17.184 -0.6237 -0.6191 -0.1067
  798MPD2    N111819   3.090   4.524  16.956  0.7753  0.6674 -0.0091
  798MPD2    H711820   2.993   4.552  16.949  0.6674  0.6034  1.2874
  799MPD2     C11821   2.505   0.651  14.912 -0.6755  0.4340 -0.0648
  799MPD2    C111822   2.455   0.551  14.832 -0.0725 -0.7542  0.6470
  799MPD2    C211823   2.404   0.583  14.708  0.3847 -0.1279 -0.8206
  799MPD2    C311824   2.397   0.710  14.664  0.2174  0.2569 -0.1584
  799MPD2    C411825   2.444   0.807  14.748  0.3248  0.6644 -0.4361
  799MPD2    C511826   2.497   0.778  14.873  0.1171  0.4621 -0.1716
  799MPD2     H11827   2.365   0.501  14.649 -1.6102  0.7926 -0.7925
  799MPD2    H111828   2.434   0.908  14.709  0.1284  1.7010  2.2920
  799MPD2    H211829   2.556   0.627  15.004  1.8429  2.1299 -1.0176
  799MPD2    H311830   2.537   0.859  14.933  0.2113 -0.2846  0.7739
  799MPD2     N11831   2.343   0.760  14.541 -0.2977  0.1794 -0.5137
  799MPD2    H511832   2.348   0.859  14.519 -0.2209  0.6094  1.4718
  799MPD2    N111833   2.465   0.417  14.862  0.0472 -0.0388  0.1870
  799MPD2    H711834   2.401   0.353  14.815  1.3925 -0.3022 -1.2764
  800MPD2     C11835   3.399   1.683  14.290  0.0998  0.7970 -0.1311
  800MPD2    C111836   3.416   1.744  14.165  0.5048  0.1953 -0.0031
  800MPD2    C211837   3.400   1.671  14.049 -0.4720 -0.2064  0.0486
  800MPD2    C311838   3.389   1.530  14.056  0.3739  0.1020  0.6034
  800MPD2    C411839   3.380   1.469  14.172 -0.2520  0.4287 -0.3263
  800MPD2    C511840   3.380   1.548  14.290  0.3043  0.1219 -0.2637
  800MPD2     H11841   3.394   1.714  13.950 -2.9227 -0.9554 -0.1046
  800MPD2    H111842   3.376   1.361  14.176  0.5372  0.4578  1.3984
  800MPD2    H211843   3.409   1.748  14.376 -1.0420 -0.5798  1.0544
  800MPD2    H311844   3.370   1.502  14.388 -0.3009 -2.5991 -1.6011
  800MPD2     N11845   3.377   1.453  13.940 -0.3348  0.6814  0.5057
  800MPD2    H511846   3.370   1.506  13.853  0.4334 -0.4623 -0.2661
  800MPD2    N111847   3.432   1.886  14.172  0.4941  0.0333 -0.3029
  800MPD2    H711848   3.407   1.933  14.259 -0.7846  0.2044 -0.7652
  801MPD2     C11849   3.140   2.362  14.584 -0.6701 -0.5619 -0.4079
  801MPD2    C111850   3.145   2.242  14.515  0.0411 -0.2266  0.0009
  801MPD2    C211851   3.028   2.168  14.510 -0.0436  0.3325  0.2064
  801MPD2    C311852   2.912   2.207  14.575 -0.8531 -1.0793  0.1330
  801MPD2    C411853   2.920   2.315  14.651 -0.4759  0.0060  0.6041
  801MPD2    C511854   3.026   2.396  14.651  0.0333  0.3365 -0.0520
  801MPD2     H11855   3.030   2.082  14.444 -1.9625 -1.2971  2.2263
  801MPD2    H111856   2.831   2.340  14.708  0.5596  0.8580  1.8578
  801MPD2    H211857   3.221   2.434  14.590 -0.9052 -0.1518 -2.1075
  801MPD2    H311858   3.018   2.483  14.715  1.2845 -1.1726  2.1564
  801MPD2     N11859   2.789   2.135  14.580  0.0011  0.0069 -0.2336
  801MPD2    H511860   2.718   2.172  14.643  1.0057  1.4828  0.0323
  801MPD2    N111861   3.257   2.201  14.429  0.4508  0.5662  0.5149
  801MPD2    H711862   3.244   2.108  14.392 -0.5123  0.3271  1.4719
  802MPD2     C11863   2.866   2.349  17.399  0.0424 -0.7209 -0.5856
  802MPD2    C111864   2.856   2.486  17.392  0.6494  0.3707 -0.2322
  802MPD2    C211865   2.873   2.549  17.269  0.0631 -0.3164 -0.1491
  802MPD2    C311866   2.878   2.475  17.152 -0.0875 -1.1150  0.2209
  802MPD2    C411867   2.869   2.337  17.165  0.4174 -0.0490 -0.4139
  802MPD2    C511868   2.864   2.275  17.285  0.1515  0.1261 -0.4510
  802MPD2     H11869   2.857   2.656  17.272  0.3007 -0.2946  0.2900
  802MPD2    H111870   2.847   2.273  17.080 -0.7086 -1.3565  0.8530
  802MPD2    H211871   2.853   2.292  17.490  3.6589 -3.4155 -1.7050
  802MPD2    H311872   2.871   2.168  17.302 -0.4839  0.0992 -0.3622
  802MPD2     N11873   2.872   2.545  17.027 -0.2217 -0.2192 -0.1742
  802MPD2    H511874   2.878   2.647  17.031  1.4871 -0.3604  0.3918
  802MPD2    N111875   2.843   2.567  17.505 -0.0121 -0.1380  0.0374
  802MPD2    H711876   2.857   2.666  17.486  0.6661  0.0864  1.6112
  803MPD2     C11877   3.224   0.519  12.465 -0.4219  0.3181 -0.3541
  803MPD2    C111878   3.279   0.643  12.480 -0.0064 -0.6376  0.7218
  803MPD2    C211879   3.337   0.669  12.603 -0.5209 -0.3002 -0.6428
  803MPD2    C311880   3.343   0.573  12.699 -0.0108  0.2966  0.4646
  803MPD2    C411881   3.300   0.447  12.672 -0.7517  0.2367  0.0439
  803MPD2    C511882   3.239   0.421  12.561  0.4613  0.8958 -0.1608
  803MPD2     H11883   3.361   0.773  12.623  0.4518 -1.2774  3.2484
  803MPD2    H111884   3.303   0.363  12.740  0.1423  0.3408  0.1394
  803MPD2    H211885   3.186   0.481  12.370  0.0828 -0.0706 -0.3968
  803MPD2    H311886   3.186   0.329  12.539 -0.1020  1.2989 -0.4733
  803MPD2     N11887   3.393   0.591  12.828  0.1593  0.8156  0.2756
  803MPD2    H511888   3.398   0.509  12.887  0.2433 -1.9194 -3.4803
  803MPD2    N111889   3.278   0.742  12.380  0.2072 -0.0525 -0.7590
  803MPD2    H711890   3.347   0.815  12.392  1.1197 -0.8962 -0.8188
  804MPD2     C11891   3.199   2.637  16.591 -0.0539 -0.5200  0.7885
  804MPD2    C111892   3.264   2.608  16.710 -0.5159 -0.0015 -0.2710
  804MPD2    C211893   3.330   2.715  16.771  0.4541  0.6999  0.3576
  804MPD2    C311894   3.338   2.835  16.710 -0.1483 -1.1842 -0.4256
  804MPD2    C411895   3.279   2.862  16.589  0.1526  1.0409  0.5607
  804MPD2    C511896   3.210   2.763  16.531  0.7966 -0.3814  0.5332
  804MPD2     H11897   3.372   2.700  16.870 -0.9202  0.2981  0.8804
  804MPD2    H111898   3.292   2.961  16.549  0.2009  1.5378  1.7970
  804MPD2    H211899   3.151   2.561  16.531  1.1389  0.4440 -1.4077
  804MPD2    H311900   3.159   2.786  16.438 -0.4301 -1.3036  0.9758
  804MPD2     N11901   3.406   2.952  16.755  0.2084 -0.1592 -0.9413
  804MPD2    H511902   3.396   3.037  16.701  0.4697 -0.0647 -0.8377
  804MPD2    N111903   3.260   2.485  16.774 -0.5743  0.0625 -0.0551
  804MPD2    H711904   3.303   2.489  16.865  0.4898  2.1419 -0.6439
  805MPD2     C11905   2.193   0.691  15.858 -0.3400  0.1249  0.1381
  805MPD2    C111906   2.286   0.621  15.794  0.1098 -0.0486 -0.0542
  805MPD2    C211907   2.413   0.643  15.826 -0.3910  0.5214 -0.2821
  805MPD2    C311908   2.458   0.736  15.917  0.2387  0.0823 -0.6504
  805MPD2    C411909   2.364   0.816  15.976  0.8239 -0.3674 -0.7916
  805MPD2    C511910   2.227   0.796  15.945  0.1800 -0.0877 -0.3554
  805MPD2     H11911   2.489   0.584  15.777  0.3691  2.1213 -1.0192
  805MPD2    H111912   2.394   0.903  16.033 -1.7377  0.7141 -1.1210
  805MPD2    H211913   2.085   0.678  15.852 -0.3229 -0.6149  1.4807
  805MPD2    H311914   2.145   0.862  15.973  0.6534  1.1313 -1.8255
  805MPD2     N11915   2.596   0.746  15.935  0.4330  0.4005 -0.4858
  805MPD2    H511916   2.648   0.684  15.873 -0.7634 -0.8866 -0.2065
  805MPD2    N111917   2.250   0.509  15.718 -0.1132 -0.5631  0.1932
  805MPD2    H711918   2.324   0.448  15.684  1.0043  1.5638 -1.2359
  806MPD2     C11919   2.868   0.567   0.668 -0.3783  0.3903 -0.0789
  806MPD2    C111920   2.983   0.640   0.664 -0.0259  0.2571 -0.4877
  806MPD2    C211921   3.050   0.644   0.543  0.0154 -0.7328 -0.2959
  806MPD2    C311922   3.013   0.558   0.437 -0.0190 -0.8709  0.5152
  806MPD2    C411923   2.911   0.468   0.458 -0.2442  0.6878 -0.1554
  806MPD2    C511924   2.829   0.491   0.566  1.1726  0.2930  0.1372
  806MPD2     H11925   3.138   0.707   0.534 -0.2716 -0.3552 -0.4793
  806MPD2    H111926   2.885   0.400   0.378  0.9283  1.0063 -0.8075
  806MPD2    H211927   2.812   0.566   0.761  0.4071  0.5331  0.3944
  806MPD2    H311928   2.732   0.452   0.595  1.2868  0.6763  1.0466
  806MPD2     N11929   3.091   0.573   0.321  0.3028 -0.8589  0.1797
  806MPD2    H511930   3.151   0.654   0.309 -0.1636 -0.8318 -1.9074
  806MPD2    N111931   3.021   0.698   0.784 -0.0682  0.5914  0.7110
  806MPD2    H711932   2.959   0.691   0.864  0.4719 -2.6620  0.8490
  807MPD2     C11933   2.790   0.903   1.459 -0.2517 -0.3429  0.2305
  807MPD2    C111934   2.806   0.811   1.353  0.0734 -0.5606 -0.5061
  807MPD2    C211935   2.711   0.714   1.336  0.6446 -0.3589 -0.0973
  807MPD2    C311936   2.624   0.684   1.440  0.0753 -0.2893 -0.4661
  807MPD2    C411937   2.620   0.771   1.553  0.2539  0.7380 -0.0155
  807MPD2    C511938   2.693   0.880   1.556  0.5138 -0.2711 -0.3508
  807MPD2     H11939   2.716   0.649   1.249  3.5510 -0.1382 -0.1000
  807MPD2    H111940   2.562   0.751   1.642 -1.7153  1.0831 -1.2061
  807MPD2    H211941   2.854   0.990   1.467 -0.6479 -0.2707  2.4500
  807MPD2    H311942   2.687   0.944   1.644 -0.1997 -0.8784  0.0474
  807MPD2     N11943   2.535   0.576   1.415 -0.1917 -0.5692 -0.1561
  807MPD2    H511944   2.563   0.519   1.336  0.0555 -0.2364 -0.3056
  807MPD2    N111945   2.909   0.826   1.253 -0.0184  0.2947 -0.7004
  807MPD2    H711946   2.904   0.754   1.182 -0.9986 -1.6328  1.3243
  808MPD2     C11947   2.307   1.732   9.345  0.5290  0.1166  0.4991
  808MPD2    C111948   2.423   1.705   9.414 -0.1263  0.1298 -0.1691
  808MPD2    C211949   2.507   1.804   9.456 -0.3432 -0.0803  0.0175
  808MPD2    C311950   2.472   1.934   9.429 -0.7322 -0.4878 -0.0661
  808MPD2    C411951   2.356   1.964   9.365  0.2003 -0.2357  0.1511
  808MPD2    C511952   2.276   1.861   9.318  1.1632  0.0245  0.4600
  808MPD2     H11953   2.595   1.775   9.513 -1.0784 -0.1535  1.1065
  808MPD2    H111954   2.327   2.065   9.338  1.4118 -0.6407 -2.7469
  808MPD2    H211955   2.239   1.651   9.320  2.0303 -0.6088 -1.2473
  808MPD2    H311956   2.189   1.886   9.258  1.3787 -1.8561 -0.6603
  808MPD2     N11957   2.553   2.040   9.470  0.1692  0.1253 -0.1171
  808MPD2    H511958   2.639   2.017   9.518  1.2930  0.5669 -1.9124
  808MPD2    N111959   2.470   1.573   9.460 -0.1959 -0.0997 -0.2466
  808MPD2    H711960   2.560   1.571   9.507 -1.4450 -0.4047  2.0985
  809MPD2     C11961   2.939   2.980   9.155 -0.0153  0.1873 -0.0920
  809MPD2    C111962   2.961   2.858   9.088  0.7671 -0.3444  0.1941
  809MPD2    C211963   2.952   2.747   9.168  0.5342 -0.2833  0.0343
  809MPD2    C311964   2.906   2.751   9.299  0.0009  0.3194 -0.0558
  809MPD2    C411965   2.883   2.869   9.362 -0.2427  0.4189  0.0647
  809MPD2    C511966   2.894   2.987   9.282 -0.5473  0.3401 -0.8604
  809MPD2     H11967   2.975   2.655   9.115 -0.6339 -0.9653  0.7104
  809MPD2    H111968   2.844   2.882   9.462  2.6325  0.2169  1.2169
  809MPD2    H211969   2.959   3.075   9.107 -1.8985  1.1080  0.9039
  809MPD2    H311970   2.893   3.087   9.325 -2.1946 -0.2658  0.4920
  809MPD2     N11971   2.892   2.629   9.375  0.2520  0.2561 -0.1931
  809MPD2    H511972   2.885   2.630   9.476  1.2587 -1.7513 -0.0910
  809MPD2    N111973   3.027   2.846   8.967 -0.1134  0.0716  0.6183
  809MPD2    H711974   3.058   2.753   8.940 -1.5907 -0.5619  1.1149
  810MPD2     C11975   2.420   1.220  10.846  0.1585 -0.0752 -0.3012
  810MPD2    C111976   2.430   1.290  10.728 -0.2889 -0.4141 -0.3422
  810MPD2    C211977   2.410   1.426  10.734 -0.2693 -0.1890 -0.2005
  810MPD2    C311978   2.380   1.490  10.853 -0.5538 -0.1594  0.3895
  810MPD2    C411979   2.383   1.413  10.972 -0.1344 -0.2969  0.2362
  810MPD2    C511980   2.410   1.284  10.967  0.0774  0.1381 -0.4545
  810MPD2     H11981   2.416   1.487  10.644  2.7551 -0.2816 -0.0690
  810MPD2    H111982   2.373   1.469  11.065 -0.7095  0.9764 -0.5896
  810MPD2    H211983   2.447   1.116  10.863 -1.1184 -0.6308 -1.6154
  810MPD2    H311984   2.426   1.229  11.059 -1.4769 -0.5113 -0.5764
  810MPD2     N11985   2.363   1.630  10.866  0.4363  0.0319  0.0390
  810MPD2    H511986   2.362   1.677  10.956  0.4127 -0.1844  0.1526
  810MPD2    N111987   2.464   1.216  10.617 -1.5202 -0.3306 -0.0921
  810MPD2    H711988   2.456   1.115  10.629 -1.1111 -0.0016  3.0245
  811MPD2     C11989   1.946   1.512  10.008  0.1371 -0.0804  0.2574
  811MPD2    C111990   2.048   1.554  10.092  0.4292  0.2309 -0.0033
  811MPD2    C211991   2.094   1.688  10.098  0.8266 -0.4211 -0.1097
  811MPD2    C311992   2.022   1.781  10.027 -0.5739  0.4782 -0.5032
  811MPD2    C411993   1.922   1.743   9.940  0.5205  0.7411 -0.1294
  811MPD2    C511994   1.889   1.607   9.929  0.0706  0.0130  0.5411
  811MPD2     H11995   2.176   1.721  10.160  0.2367 -1.9921  1.4985
  811MPD2    H111996   1.879   1.806   9.864 -1.9004  0.5129  1.0582
  811MPD2    H211997   1.906   1.412   9.992 -0.3673  0.0100  0.9751
  811MPD2    H311998   1.815   1.569   9.859  2.4768 -0.6269 -1.6784
  811MPD2     N11999   2.069   1.915  10.043 -0.1810 -0.2435  0.4860
  811MPD2    H512000   2.147   1.931  10.106 -0.4865  1.2166  0.4899
  811MPD2    N112001   2.108   1.453  10.170 -0.4035  0.1938 -0.0600
  811MPD2    H712002   2.051   1.369  10.171 -3.4991  2.3116  0.0449
  812MPD2     C12003   0.835   1.151  12.160  0.1336 -0.8503  0.0958
  812MPD2    C112004   0.949   1.223  12.152 -0.8373  0.6942  0.4249
  812MPD2    C212005   1.051   1.183  12.242  0.0594  1.3905  0.3022
  812MPD2    C312006   1.040   1.071  12.319 -1.0143 -0.0950 -0.6558
  812MPD2    C412007   0.919   0.995  12.315  0.3117 -0.5234 -0.6904
  812MPD2    C512008   0.816   1.051  12.248  0.5504  0.6595 -0.1078
  812MPD2     H12009   1.143   1.240  12.256 -0.9053  2.8207  0.8234
  812MPD2    H112010   0.901   0.908  12.378  0.7431 -1.0358 -1.2769
  812MPD2    H212011   0.745   1.167  12.102 -1.1791 -0.8501  2.1196
  812MPD2    H312012   0.721   1.000  12.262 -0.2996  1.5419 -2.6657
  812MPD2     N12013   1.149   1.044  12.407  0.2089  0.6761  0.2974
  812MPD2    H512014   1.224   1.112  12.404  1.1371 -0.4198 -1.5335
  812MPD2    N112015   0.954   1.336  12.069 -0.1662  0.3344  0.3798
  812MPD2    H712016   0.874   1.361  12.011  1.4839  0.7729 -1.7190
  813MPD2     C12017   4.656   3.407  12.400 -0.8666  0.1369 -0.4211
  813MPD2    C112018   4.714   3.402  12.525 -0.3926  0.1001 -0.0628
  813MPD2    C212019   4.630   3.375  12.631  0.3061 -0.8528  0.1013
  813MPD2    C312020   4.496   3.348  12.622  0.7161  0.0316  0.8516
  813MPD2    C412021   4.446   3.336  12.491 -0.7983 -0.0631  0.1758
  813MPD2    C512022   4.528   3.371  12.390 -0.0607  1.0128  0.2335
  813MPD2     H12023   4.666   3.376  12.734  0.7012 -1.3212 -0.0325
  813MPD2    H112024   4.345   3.302  12.473 -0.5489 -0.3560 -0.6913
  813MPD2    H212025   4.714   3.436  12.314  0.5374 -4.1582 -0.9129
  813MPD2    H312026   4.489   3.359  12.290  3.1039 -0.3854 -0.8105
  813MPD2     N12027   4.413   3.330  12.734  0.3949  0.1700  0.4298
  813MPD2    H512028   4.439   3.373  12.822 -0.1718 -2.3134  1.7951
  813MPD2    N112029   0.112   3.415  12.544  0.2068  0.3043  0.0620
  813MPD2    H712030   0.158   3.439  12.456 -0.7690  0.7604 -0.3238
  814MPD2     C12031   0.693   4.519  12.182  0.0539  0.0834 -0.1997
  814MPD2    C112032   0.768   4.546  12.071  0.3952 -0.2675  0.3159
  814MPD2    C212033   0.878   4.628  12.088 -0.0968 -0.1394  0.0302
  814MPD2    C312034   0.923   4.664  12.215 -0.6854 -0.3627 -0.4273
  814MPD2    C412035   0.848   4.631  12.325 -0.3723 -0.0438  0.0868
  814MPD2    C512036   0.736   4.555  12.306 -0.4980 -0.2987  0.5367
  814MPD2     H12037   0.927   4.669  12.000 -2.2206 -0.7248 -1.4384
  814MPD2    H112038   0.881   4.668  12.422 -1.2379  1.5332 -0.2289
  814MPD2    H212039   0.605   4.455  12.187  0.9170 -1.0517  0.3553
  814MPD2    H312040   0.684   4.523  12.396 -0.1377  0.2936  0.9524
  814MPD2     N12041   1.034   0.006  12.251 -0.7547  0.2383 -0.0187
  814MPD2    H512042   1.049   0.020  12.351  2.7357  2.5568 -0.8741
  814MPD2    N112043   0.742   4.494  11.943 -0.3780 -0.4740  0.3285
  814MPD2    H712044   0.793   4.527  11.861  0.8368  0.4036  1.4495
  815MPD2     C12045   1.399   3.211  11.652 -0.2844 -0.2308 -0.1074
  815MPD2    C112046   1.429   3.074  11.665  0.2910  0.3403  0.0381
  815MPD2    C212047   1.339   2.988  11.730  0.0214 -0.7878  0.6000
  815MPD2    C312048   1.228   3.034  11.791  0.5875 -0.2900  0.5262
  815MPD2    C412049   1.185   3.160  11.759 -0.3856 -0.1460 -0.3501
  815MPD2    C512050   1.271   3.246  11.693  0.2211  0.5332 -0.6402
  815MPD2     H12051   1.363   2.883  11.736 -2.3061 -1.4074 -1.4430
  815MPD2    H112052   1.086   3.194  11.785  0.1690 -0.2713  1.9501
  815MPD2    H212053   1.468   3.284  11.613 -0.7701  0.8524  1.0657
  815MPD2    H312054   1.240   3.349  11.685 -1.8671 -0.0093  0.2771
  815MPD2     N12055   1.139   2.936  11.851 -0.5097  0.0925  0.5728
  815MPD2    H512056   1.167   2.839  11.864  0.5755  0.2712 -0.4214
  815MPD2    N112057   1.546   3.034  11.605  1.1088  0.1912  0.5352
  815MPD2    H712058   1.592   3.103  11.547 -1.5258  0.8563 -0.7676
  816MPD2     C12059   1.532   1.539  17.428 -0.0900 -0.2425  0.1340
  816MPD2    C112060   1.604   1.650  17.394 -0.2852 -0.8943 -0.2941
  816MPD2    C212061   1.716   1.641  17.307  0.2067 -0.2217 -0.1766
  816MPD2    C312062   1.750   1.520  17.249  0.1128  0.0916 -0.3802
  816MPD2    C412063   1.682   1.408  17.287 -0.0582  0.2863 -0.9236
  816MPD2    C512064   1.579   1.417  17.376  1.0741 -0.0827 -0.6438
  816MPD2     H12065   1.762   1.735  17.278 -2.0349  0.5549 -1.2272
  816MPD2    H112066   1.699   1.310  17.243  1.3461 -0.4835  1.3466
  816MPD2    H212067   1.446   1.548  17.494 -0.9921 -1.0975 -0.9228
  816MPD2    H312068   1.532   1.323  17.401  4.7015 -1.2999  1.5329
  816MPD2     N12069   1.852   1.524  17.150  0.8490 -1.0110  0.5246
  816MPD2    H512070   1.892   1.616  17.135 -4.2231  1.2306  0.6403
  816MPD2    N112071   1.558   1.774  17.444 -0.4978 -0.3758 -0.1336
  816MPD2    H712072   1.462   1.781  17.477 -0.5700  0.7664 -0.5828
  817MPD2     C12073   0.451   3.469  10.224 -0.6252 -0.0922 -0.4491
  817MPD2    C112074   0.497   3.479  10.095 -0.7046 -0.0454 -0.0364
  817MPD2    C212075   0.453   3.592  10.025  0.0920  0.5825  0.0709
  817MPD2    C312076   0.345   3.676  10.069  0.2597  0.0326 -0.2015
  817MPD2    C412077   0.288   3.644  10.194  0.0155  0.6184  0.0308
  817MPD2    C512078   0.355   3.551  10.271  0.5023  0.7387 -0.3089
  817MPD2     H12079   0.505   3.612   9.932 -0.8654 -1.9370 -1.0027
  817MPD2    H112080   0.199   3.694  10.232  0.1757  1.0047 -0.0999
  817MPD2    H212081   0.470   3.380  10.283 -0.4211  0.6050  0.5245
  817MPD2    H312082   0.306   3.524  10.364 -0.8108  0.7160 -1.0135
  817MPD2     N12083   0.285   3.777   9.985 -0.4426  0.2225 -0.1347
  817MPD2    H512084   0.315   3.785   9.888 -2.0092  0.7328 -0.5761
  817MPD2    N112085   0.594   3.392  10.036  0.2253  0.2915  0.0123
  817MPD2    H712086   0.607   3.395   9.936  2.4857  0.7295  0.3186
  818MPD2     C12087   3.425   3.709   9.778 -0.3301 -0.1216 -0.2585
  818MPD2    C112088   3.527   3.623   9.810 -0.4059 -0.0088  0.7003
  818MPD2    C212089   3.600   3.555   9.715  0.2592  1.0234  0.2453
  818MPD2    C312090   3.562   3.571   9.583  0.3881 -1.0940 -0.3162
  818MPD2    C412091   3.460   3.652   9.550 -0.7285 -0.6290  0.7353
  818MPD2    C512092   3.387   3.718   9.646 -0.1871  0.5891  0.0959
  818MPD2     H12093   3.691   3.500   9.735  0.7184  0.7471 -2.6444
  818MPD2    H112094   3.435   3.673   9.446 -0.2570 -0.4936  0.6506
  818MPD2    H212095   3.361   3.769   9.842  0.1270  0.3172 -0.2115
  818MPD2    H312096   3.302   3.782   9.625 -0.4180  0.5556  0.9233
  818MPD2     N12097   3.659   3.543   9.486 -0.0395  0.5812  0.1074
  818MPD2    H512098   3.673   3.612   9.412 -2.0943 -0.4098 -1.1940
  818MPD2    N112099   3.573   3.603   9.942  0.3902  0.2255  0.0022
  818MPD2    H712100   3.647   3.534   9.952  0.3784  0.3425  0.9171
  819MPD2     C12101   2.996   0.273  15.767  0.3601 -0.3535 -0.5507
  819MPD2    C112102   3.110   0.240  15.699 -0.2241  0.1463  0.6332
  819MPD2    C212103   3.235   0.290  15.730 -0.9116  0.5742 -0.3320
  819MPD2    C312104   3.244   0.377  15.839 -0.1032 -0.6111  0.4132
  819MPD2    C412105   3.131   0.419  15.906 -0.6271 -0.2367  0.0713
  819MPD2    C512106   3.014   0.360  15.873  0.3655 -0.4087  0.6080
  819MPD2     H12107   3.324   0.273  15.671 -2.2469  0.3305 -2.2849
  819MPD2    H112108   3.129   0.499  15.979 -1.9147 -0.1910 -0.0190
  819MPD2    H212109   2.900   0.230  15.741 -0.2289  0.2990  0.5611
  819MPD2    H312110   2.934   0.389  15.941  1.6964 -1.1965  2.5032
  819MPD2     N12111   3.371   0.421  15.870 -0.1558  0.1519 -0.4742
  819MPD2    H512112   3.445   0.380  15.814 -0.1457 -0.6963  0.1573
  819MPD2    N112113   3.090   0.160  15.587  0.8153  0.6729 -0.5390
  819MPD2    H712114   2.993   0.144  15.559  0.9839  1.3549 -1.5012
  820MPD2     C12115   2.357   4.565  15.190  0.1275 -0.9371 -0.5844
  820MPD2    C112116   2.410   4.674  15.261 -0.1559 -0.0512  0.0626
  820MPD2    C212117   2.542   4.680  15.272 -0.0951 -0.5228 -0.4814
  820MPD2    C312118   2.628   4.591  15.216  0.5218 -0.1997  0.0012
  820MPD2    C412119   2.570   4.485  15.153  0.2679  0.1721  0.5755
  820MPD2    C512120   2.436   4.472  15.138  0.0238  0.0229  0.0235
  820MPD2     H12121   2.573   0.031  15.324 -1.9258 -1.7003  2.6655
  820MPD2    H112122   2.629   4.413  15.098  0.8647  0.3279  1.0153
  820MPD2    H212123   2.250   4.553  15.186  0.0328 -0.1787 -0.3374
  820MPD2    H312124   2.394   4.386  15.087 -1.2805  0.8625 -0.3372
  820MPD2     N12125   2.770   4.605  15.211 -0.8954  0.3999  0.4285
  820MPD2    H512126   2.823   4.522  15.185  0.7215  1.1474  1.3944
  820MPD2    N112127   2.321   0.021  15.327 -0.4012  0.6945 -0.0808
  820MPD2    H712128   2.225   4.730  15.307 -0.0571 -0.3172 -0.2461
  821MPD2     C12129   3.179   1.704  13.312 -0.6682 -0.0646 -0.4903
  821MPD2    C112130   3.310   1.662  13.308 -0.2870  0.2646  0.3420
  821MPD2    C212131   3.394   1.712  13.211  0.7022 -0.5343 -0.2408
  821MPD2    C312132   3.359   1.814  13.130 -0.1531  0.3176 -0.7303
  821MPD2    C412133   3.231   1.860  13.140  0.4747 -0.3439  0.9691
  821MPD2    C512134   3.144   1.801  13.225  0.2798 -0.4616  0.2094
  821MPD2     H12135   3.496   1.676  13.216  1.5060  1.8394  0.5680
  821MPD2    H112136   3.190   1.923  13.062 -0.4624 -1.2006  0.7780
  821MPD2    H212137   3.103   1.660  13.375  0.1151  1.5630  1.5633
  821MPD2    H312138   3.043   1.840  13.218  1.0932  1.6173  0.0440
  821MPD2     N12139   3.435   1.882  13.032  0.1487  0.3068 -0.1849
  821MPD2    H512140   3.392   1.962  12.985 -3.2207 -0.4280  1.6573
  821MPD2    N112141   3.365   1.571  13.396 -0.2011  0.5222  0.0992
  821MPD2    H712142   3.465   1.558  13.389 -0.1763 -0.6887  2.8354
  822MPD2     C12143   3.887   1.658  15.416  0.0244 -0.4818 -0.5044
  822MPD2    C112144   3.899   1.656  15.554 -0.1103  0.1437 -0.0075
  822MPD2    C212145   3.837   1.757  15.626  0.5190  0.8346  0.0439
  822MPD2    C312146   3.781   1.863  15.558  0.1587  0.3132  0.1730
  822MPD2    C412147   3.762   1.864  15.420  0.1526  0.3400  0.9560
  822MPD2    C512148   3.818   1.756  15.353  0.8327  0.6708 -0.1612
  822MPD2     H12149   3.832   1.755  15.735  0.2042 -2.9328 -0.0423
  822MPD2    H112150   3.715   1.943  15.363  1.5519  0.1682 -0.4401
  822MPD2    H212151   3.936   1.583  15.355  1.9249 -0.9537  1.5877
  822MPD2    H312152   3.808   1.754  15.245 -0.3733  2.8876 -0.0931
  822MPD2     N12153   3.739   1.963  15.644 -0.5846 -0.7108  0.3589
  822MPD2    H512154   3.754   1.950  15.744 -0.1636 -1.0708  0.2517
  822MPD2    N112155   3.977   1.562  15.625  0.1706  1.1842  0.0850
  822MPD2    H712156   3.977   1.565  15.726  0.9139 -1.4398  0.1576
  823MPD2     C12157   3.480   2.211  16.408  0.6302  0.6146 -0.1860
  823MPD2    C112158   3.543   2.132  16.316  0.4007 -0.2117  0.1263
  823MPD2    C212159   3.626   2.028  16.358 -0.9149 -0.1066  0.6007
  823MPD2    C312160   3.623   1.982  16.494  0.0069 -0.2541  0.1225
  823MPD2    C412161   3.546   2.059  16.585 -0.2006 -0.2821 -0.0780
  823MPD2    C512162   3.491   2.178  16.541 -0.9124  0.2870  0.2211
  823MPD2     H12163   3.689   1.979  16.284  0.4271  3.8906 -0.9126
  823MPD2    H112164   3.544   2.032  16.690 -2.0537  1.3262  0.3024
  823MPD2    H212165   3.433   2.307  16.388  0.2516  0.5685  0.4805
  823MPD2    H312166   3.430   2.237  16.609  1.5184  2.2245  0.7088
  823MPD2     N12167   3.696   1.869  16.539  0.1041 -0.2067  0.5916
  823MPD2    H512168   3.693   1.852  16.639  1.2206 -0.8252  0.5219
  823MPD2    N112169   3.548   2.180  16.183 -0.0498  0.0138 -0.4529
  823MPD2    H712170   3.519   2.276  16.170 -1.3570 -0.5095 -1.3490
  824MPD2     C12171   4.197   0.758  15.557  0.2648  0.1566  0.1466
  824MPD2    C112172   4.287   0.861  15.537  0.1017  1.0993  0.2551
  824MPD2    C212173   4.403   0.835  15.460 -0.0569 -0.3125 -0.7861
  824MPD2    C312174   4.439   0.706  15.428 -0.5729  0.3686 -0.0499
  824MPD2    C412175   4.343   0.606  15.442  0.2123  0.5488 -0.0457
  824MPD2    C512176   4.227   0.634  15.509  0.7405  0.3142 -0.3908
  824MPD2     H12177   4.468   0.921  15.446 -1.5345  1.0649  0.8235
  824MPD2    H112178   4.360   0.516  15.384 -2.4517 -0.8252  1.2981
  824MPD2    H212179   4.104   0.779  15.609  0.3211 -0.4128  0.4787
  824MPD2    H312180   4.160   0.550  15.520 -1.3265  1.7415 -2.2026
  824MPD2     N12181   4.557   0.689  15.354 -0.6067  0.8773  0.1000
  824MPD2    H512182   4.607   0.777  15.343  0.8014  0.1835  0.8298
  824MPD2    N112183   4.261   0.993  15.585  0.5480  0.3328 -0.1724
  824MPD2    H712184   4.322   1.068  15.556  0.6938 -0.1070 -1.0166
  825MPD2     C12185   0.241   0.941  14.688 -0.9150  0.5977 -0.1997
  825MPD2    C112186   0.195   0.975  14.810 -0.2453  0.1786 -0.7002
  825MPD2    C212187   0.158   1.105  14.837  0.4732 -0.2816  0.7979
  825MPD2    C312188   0.135   1.193  14.732 -0.3846 -0.9585 -0.3416
  825MPD2    C412189   0.167   1.143  14.607 -0.2927  0.2702 -0.1380
  825MPD2    C512190   0.228   1.025  14.584 -0.3885 -1.1921 -0.6581
  825MPD2     H12191   0.125   1.125  14.939  0.6953  0.4440  0.7337
  825MPD2    H112192   0.149   1.209  14.524 -1.5165 -0.1438 -0.2066
  825MPD2    H212193   0.275   0.841  14.662  0.5713  1.0939 -0.1564
  825MPD2    H312194   0.233   0.980  14.486  1.9000 -1.4202 -0.4475
  825MPD2     N12195   0.092   1.321  14.757 -0.4476  0.2847 -0.2202
  825MPD2    H512196   0.074   1.378  14.675  2.9680  1.1274 -0.3772
  825MPD2    N112197   0.192   0.869  14.907 -0.1677 -0.0117 -0.5597
  825MPD2    H712198   0.240   0.783  14.884 -0.8727 -0.2685 -1.0750
  826MPD2     C12199   4.215   0.916  13.565 -0.2340  0.4535  0.3085
  826MPD2    C112200   4.272   1.016  13.493 -0.3076 -0.6316  0.1395
  826MPD2    C212201   4.203   1.136  13.474  0.0854 -0.3449 -0.0770
  826MPD2    C312202   4.075   1.153  13.528 -0.4989 -0.2856 -0.5252
  826MPD2    C412203   4.022   1.053  13.598 -0.3012  1.1747  0.1685
  826MPD2    C512204   4.091   0.934  13.616  0.1342 -0.1678 -0.1799
  826MPD2     H12205   4.250   1.217  13.420 -2.5222 -0.4229 -2.4643
  826MPD2    H112206   3.934   1.063  13.659  0.5273 -0.5104  1.6220
  826MPD2    H212207   4.262   0.819  13.571 -0.0665  0.4596 -0.8555
  826MPD2    H312208   4.058   0.861  13.689 -3.1082  2.3067  0.7914
  826MPD2     N12209   4.017   1.282  13.535 -0.8861  0.3506  0.3513
  826MPD2    H512210   3.936   1.291  13.596  0.7326  1.2424  2.3914
  826MPD2    N112211   4.398   0.987  13.442  0.5722 -0.3368 -0.3295
  826MPD2    H712212   4.446   0.911  13.487 -0.5031 -0.1107  1.2002
  827MPD2     C12213   0.111   3.109  10.281  0.6019 -0.0165  0.2100
  827MPD2    C112214   0.133   2.978  10.319  0.1613  0.1111 -0.8395
  827MPD2    C212215   0.050   2.879  10.264 -0.4406 -0.4745  0.0075
  827MPD2    C312216   4.698   2.910  10.167 -0.6971 -0.0379 -0.0244
  827MPD2    C412217   4.679   3.040  10.131 -0.0495 -0.3031  0.0346
  827MPD2    C512218   0.013   3.143  10.186  0.1251 -0.7771 -0.2109
  827MPD2     H12219   0.067   2.774  10.286  2.2374 -0.2237 -0.9268
  827MPD2    H112220   4.610   3.060  10.049 -0.3093  2.2113  0.8612
  827MPD2    H212221   0.166   3.190  10.329 -1.8012  1.6657  0.0913
  827MPD2    H312222   4.727   3.245  10.160 -0.9441 -0.6976  1.1006
  827MPD2     N12223   4.628   2.796  10.107 -0.7131 -0.2625  0.4794
  827MPD2    H512224   4.660   2.704  10.136 -1.5694  0.1559  2.7657
  827MPD2    N112225   0.229   2.958  10.427  1.3073 -0.1213  0.3639
  827MPD2    H712226   0.274   3.040  10.467  1.3690 -0.5011  1.0787
  828MPD2     C12227   3.597   2.138  12.348 -0.6373  0.4337  0.5699
  828MPD2    C112228   3.489   2.217  12.313 -0.4811 -0.9278 -0.2063
  828MPD2    C212229   3.508   2.312  12.217 -0.7710  0.2262  0.1926
  828MPD2    C312230   3.622   2.307  12.137 -1.2087  0.5167 -0.7144
  828MPD2    C412231   3.728   2.242  12.177 -0.0032  0.2745 -0.1506
  828MPD2    C512232   3.719   2.161  12.290  0.3392 -1.1130 -0.0273
  828MPD2     H12233   3.421   2.360  12.174 -1.0044 -0.2552  0.1269
  828MPD2    H112234   3.821   2.241  12.121  1.4981 -1.0545  2.3619
  828MPD2    H212235   3.598   2.061  12.425  1.2031  0.4141  0.5115
  828MPD2    H312236   3.809   2.105  12.311 -0.1680 -2.6313 -1.9330
  828MPD2     N12237   3.641   2.370  12.011  0.3700  0.3080 -0.6071
  828MPD2    H512238   3.725   2.352  11.957  0.5819  0.2588 -0.2633
  828MPD2    N112239   3.362   2.210  12.378  0.5447 -0.5442  0.7013
  828MPD2    H712240   3.300   2.289  12.362 -0.7264 -1.4589  1.1428
  829MPD2     C12241   2.661   2.465  12.017  0.1076 -0.8016  0.1838
  829MPD2    C112242   2.600   2.412  12.131  0.0254 -0.0253  0.4024
  829MPD2    C212243   2.675   2.353  12.229  0.5802  0.5761  0.0581
  829MPD2    C312244   2.810   2.337  12.209  0.4241  0.5366 -0.3253
  829MPD2    C412245   2.867   2.375  12.087  0.4826  0.5248 -0.0568
  829MPD2    C512246   2.794   2.440  11.995  0.5516 -0.0503  0.6764
  829MPD2     H12247   2.633   2.314  12.321  0.7652 -1.3087 -0.6510
  829MPD2    H112248   2.966   2.336  12.066  1.0718  1.5230  0.8915
  829MPD2    H212249   2.603   2.513  11.939 -1.4604 -1.7908  0.7527
  829MPD2    H312250   2.836   2.458  11.897  1.0549 -0.9191  0.7278
  829MPD2     N12251   2.893   2.279  12.307  0.5538  0.0722  0.3894
  829MPD2    H512252   2.992   2.267  12.289  0.7534  0.8951  0.9250
  829MPD2    N112253   2.456   2.428  12.146 -0.1344 -0.0620 -0.5287
  829MPD2    H712254   2.408   2.479  12.073 -0.6255  1.2431  0.6893
  830MPD2     C12255   4.138   0.275  15.682  0.3175  0.1369 -0.0414
  830MPD2    C112256   4.010   0.317  15.640 -0.5024  0.1177  0.0650
  830MPD2    C212257   3.989   0.302  15.503  0.6689  0.0980 -0.3382
  830MPD2    C312258   4.090   0.266  15.413  0.1671  0.0304 -0.2424
  830MPD2    C412259   4.214   0.231  15.458  0.2855  0.0461 -1.1985
  830MPD2    C512260   4.238   0.239  15.595 -0.5357  0.1965  0.2114
  830MPD2     H12261   3.892   0.328  15.461  0.2808  0.0546  0.5098
  830MPD2    H112262   4.300   0.206  15.396  2.0182  2.0523  0.3626
  830MPD2    H212263   4.170   0.272  15.786  3.8197  0.6595 -1.1072
  830MPD2    H312264   4.338   0.214  15.627 -0.0753  2.0470  0.2013
  830MPD2     N12265   4.071   0.279  15.275  0.8734 -0.1748  0.6910
  830MPD2    H512266   4.153   0.270  15.215  0.6767  1.1523  0.2333
  830MPD2    N112267   3.914   0.334  15.743  0.0284  0.0109 -0.5147
  830MPD2    H712268   3.937   0.309  15.838  0.7137 -0.3909 -0.7841
  831MPD2     C12269   4.039   2.103  15.880  0.2915 -0.0290  0.3904
  831MPD2    C112270   4.057   1.975  15.823  0.1953 -0.1802 -0.6679
  831MPD2    C212271   4.001   1.861  15.880 -0.3583 -0.2151 -0.3972
  831MPD2    C312272   3.920   1.871  15.989  0.1038  0.0076  0.2968
  831MPD2    C412273   3.906   1.997  16.044 -0.4535  0.4234  0.1608
  831MPD2    C512274   3.966   2.113  16.001  0.4531  0.6141  0.1722
  831MPD2     H12275   4.030   1.764  15.843 -0.4704 -0.9110  1.3551
  831MPD2    H112276   3.849   2.004  16.135 -2.2852 -0.3122 -0.9342
  831MPD2    H212277   4.084   2.188  15.830  2.3884  0.1432  2.5303
  831MPD2    H312278   3.945   2.199  16.064 -0.0708 -0.4983  1.5021
  831MPD2     N12279   3.831   1.773  16.032 -0.0848 -0.1567  0.6516
  831MPD2    H512280   3.775   1.798  16.113 -1.2759 -0.3274 -0.1208
  831MPD2    N112281   4.125   1.956  15.699 -0.9137  0.0620 -0.2645
  831MPD2    H712282   4.135   2.038  15.639  0.4882  1.3757  1.7513
  832MPD2     C12283   2.147   2.836  17.408  0.0130 -0.2645  0.7996
  832MPD2    C112284   2.119   2.969  17.368  0.2986  0.9118  0.3754
  832MPD2    C212285   1.988   3.006  17.347 -0.2352 -0.1741 -0.7818
  832MPD2    C312286   1.882   2.920  17.378 -0.1894  0.0964  0.0682
  832MPD2    C412287   1.914   2.794  17.429  0.1085 -0.7557 -0.0848
  832MPD2    C512288   2.046   2.752  17.441 -0.4186  0.4530 -0.3004
  832MPD2     H12289   1.962   3.107  17.318 -2.5392 -1.2877 -2.5560
  832MPD2    H112290   1.834   2.731  17.466 -1.5444  0.9548 -0.7523
  832MPD2    H212291   2.251   2.809  17.423  0.0582  0.6397  2.1151
  832MPD2    H312292   2.057   2.653  17.484 -0.7166  0.7529  0.4815
  832MPD2     N12293   1.750   2.944  17.344  0.3923 -0.3626 -0.2207
  832MPD2    H512294   1.695   2.860  17.357 -1.9397  1.2798  0.5545
  832MPD2    N112295   2.233   3.057  17.344  0.1202  0.2207  0.2969
  832MPD2    H712296   2.318   3.005  17.365  0.1798  1.3628  2.8505
  833MPD2     C12297   3.999   0.359  12.473 -0.7941  0.4688 -0.2072
  833MPD2    C112298   3.925   0.324  12.363 -0.7258  0.7039 -0.1253
  833MPD2    C212299   3.980   0.300  12.239 -0.2831 -0.2145  0.4117
  833MPD2    C312300   4.117   0.324  12.222 -0.5874  0.2665 -0.2252
  833MPD2    C412301   4.193   0.364  12.332 -0.6789  0.0642 -1.2307
  833MPD2    C512302   4.136   0.380  12.458  0.0771 -0.0887 -0.0144
  833MPD2     H12303   3.918   0.303  12.150 -0.0519 -1.1677  0.2165
  833MPD2    H112304   4.299   0.379  12.315  0.1584 -2.8948  1.5308
  833MPD2    H212305   3.953   0.374  12.570 -2.7623  0.2750 -1.1038
  833MPD2    H312306   4.187   0.432  12.539  1.7010 -1.2010 -0.3177
  833MPD2     N12307   4.163   0.309  12.088 -0.5061  0.3935 -0.2962
  833MPD2    H512308   4.092   0.283  12.021 -2.2771  0.8926  1.4043
  833MPD2    N112309   3.784   0.311  12.385  0.9151  0.0991  0.2248
  833MPD2    H712310   3.739   0.351  12.467 -0.2107 -0.1286 -0.2713
  834MPD2     C12311   4.079   4.226  11.635  0.4466 -0.3373 -0.4819
  834MPD2    C112312   4.116   4.297  11.525 -0.1629  0.2967 -0.0863
  834MPD2    C212313   4.138   4.436  11.542 -0.1982  0.1855  0.7884
  834MPD2    C312314   4.140   4.495  11.670  0.2883  0.0542 -0.2423
  834MPD2    C412315   4.106   4.413  11.775 -1.2722  0.3417 -0.2732
  834MPD2    C512316   4.073   4.280  11.757  0.3943  0.2561 -0.5809
  834MPD2     H12317   4.162   4.500  11.458  2.2711 -0.1606  1.2398
  834MPD2    H112318   4.109   4.444  11.879  0.1420  0.0648 -0.2415
  834MPD2    H212319   4.054   4.121  11.626  1.1780 -0.5582  0.0939
  834MPD2    H312320   4.045   4.216  11.839  2.2041  0.3404  0.1063
  834MPD2     N12321   4.171   4.632  11.672  0.3469  0.4840  0.0703
  834MPD2    H512322   4.191   4.679  11.585  1.7188 -0.8058 -0.3205
  834MPD2    N112323   4.120   4.231  11.404 -0.8787 -1.0303  0.3451
  834MPD2    H712324   4.088   4.135  11.409 -2.5808 -0.5604 -1.1921
  835MPD2     C12325   4.236   2.892  11.017  0.1435 -0.2867  0.2880
  835MPD2    C112326   4.153   2.986  11.062 -0.6397  0.1791  0.7490
  835MPD2    C212327   4.168   3.036  11.190 -0.5460  0.2458 -0.4429
  835MPD2    C312328   4.262   2.981  11.272 -0.3464  0.0435 -0.5464
  835MPD2    C412329   4.349   2.889  11.227 -0.2599 -0.7294  0.2021
  835MPD2    C512330   4.335   2.839  11.097 -0.6334 -0.9352  0.5828
  835MPD2     H12331   4.096   3.113  11.215  0.6437  0.3119  2.7852
  835MPD2    H112332   4.429   2.852  11.290  1.3154  0.9377 -0.8224
  835MPD2    H212333   4.232   2.864  10.912 -1.6224 -0.2754  0.3456
  835MPD2    H312334   4.409   2.782  11.043 -0.7030 -1.7144  1.3174
  835MPD2     N12335   4.271   3.011  11.412 -0.1459  0.7964 -0.2755
  835MPD2    H512336   4.332   2.949  11.464 -1.4456  0.6605  1.1079
  835MPD2    N112337   4.043   3.037  10.983 -0.2683 -0.1859  0.0571
  835MPD2    H712338   3.968   3.090  11.026 -0.4736 -1.2520  0.9830
  836MPD2     C12339   3.569   2.902  11.510 -0.2798 -0.1357  0.0958
  836MPD2    C112340   3.626   2.875  11.634 -0.0460  0.0232 -0.2553
  836MPD2    C212341   3.546   2.832  11.739 -0.5901 -0.3814 -0.1787
  836MPD2    C312342   3.414   2.803  11.714  0.5817  0.3988 -0.2260
  836MPD2    C412343   3.358   2.820  11.590  0.3551 -0.3639 -0.4004
  836MPD2    C512344   3.432   2.866  11.487  0.4746  1.0424 -0.8826
  836MPD2     H12345   3.594   2.797  11.829 -0.1968 -2.7424 -1.3098
  836MPD2    H112346   3.259   2.791  11.557  0.2508 -0.2147 -0.2183
  836MPD2    H212347   3.629   2.947  11.433  1.0203 -1.2929  0.4395
  836MPD2    H312348   3.395   2.887  11.388 -1.1717 -1.7054 -0.8518
  836MPD2     N12349   3.335   2.756  11.821 -0.5263  0.2026 -1.0012
  836MPD2    H512350   3.242   2.724  11.795 -0.1386 -2.7787  1.3053
  836MPD2    N112351   3.767   2.891  11.632  0.0000  0.0825  0.1194
  836MPD2    H712352   3.815   2.916  11.546 -0.5136 -1.3828 -0.6088
  837MPD2     C12353   2.494   2.455  10.425  0.3839 -0.2031 -0.6703
  837MPD2    C112354   2.403   2.510  10.341 -0.0225  0.3894 -0.7863
  837MPD2    C212355   2.416   2.648  10.320 -0.4160  0.5191  0.0634
  837MPD2    C312356   2.513   2.724  10.381  0.1820 -0.0789 -0.0498
  837MPD2    C412357   2.596   2.675  10.481 -0.7154 -0.8333  0.4025
  837MPD2    C512358   2.584   2.537  10.491 -0.2658 -0.6801 -0.6238
  837MPD2     H12359   2.342   2.702  10.262 -0.2725 -0.0307 -0.6311
  837MPD2    H112360   2.677   2.729  10.529 -1.8467 -1.3603  2.8919
  837MPD2    H212361   2.490   2.350  10.451  0.4752 -0.6708 -2.5132
  837MPD2    H312362   2.641   2.486  10.567  1.0118  2.9741  0.8989
  837MPD2     N12363   2.503   2.863  10.356  0.1919  0.6602 -0.2701
  837MPD2    H512364   2.433   2.898  10.292 -0.2188  0.7048  0.2058
  837MPD2    N112365   2.296   2.440  10.286  0.6217  0.2017  0.6772
  837MPD2    H712366   2.231   2.502  10.240 -0.1788 -0.3167  1.1038
  838MPD2     C12367   0.638   1.021  11.861  0.1503  0.2146  0.2695
  838MPD2    C112368   0.665   0.884  11.832 -0.5051  0.0232 -0.4131
  838MPD2    C212369   0.576   0.791  11.885  0.4478 -0.2459  0.3623
  838MPD2    C312370   0.472   0.831  11.965  0.9739  0.3397  0.5347
  838MPD2    C412371   0.449   0.964  11.991 -0.4819 -0.3942  0.4436
  838MPD2    C512372   0.540   1.057  11.950  0.7394 -0.6050 -0.0753
  838MPD2     H12373   0.600   0.685  11.884 -0.9781 -0.5642  1.2160
  838MPD2    H112374   0.371   0.994  12.060 -0.1854  0.6992  0.2928
  838MPD2    H212375   0.697   1.105  11.827  1.1684 -0.7760 -0.3885
  838MPD2    H312376   0.520   1.160  11.976 -1.4496 -1.6850  2.5954
  838MPD2     N12377   0.368   0.745  12.011 -0.0669  0.0677  0.2584
  838MPD2    H512378   0.293   0.794  12.058  0.3530 -0.2156  1.2395
  838MPD2    N112379   0.767   0.838  11.748 -0.5892  0.1018 -0.1622
  838MPD2    H712380   0.782   0.738  11.749  0.0004  0.1937  0.1476
  839MPD2     C12381   0.738   0.100  11.732  0.2313  0.5978  0.5481
  839MPD2    C112382   0.778   0.134  11.606  0.3716 -0.4741 -0.1550
  839MPD2    C212383   0.872   0.233  11.580  0.0153  0.3650 -0.0793
  839MPD2    C312384   0.921   0.306  11.689 -0.1805  0.8521 -0.5415
  839MPD2    C412385   0.882   0.272  11.816 -0.2167  0.1525 -0.5819
  839MPD2    C512386   0.796   0.164  11.836  0.3102 -0.3003 -0.0134
  839MPD2     H12387   0.889   0.254  11.475 -3.5783  0.9301 -0.5252
  839MPD2    H112388   0.904   0.330  11.905 -1.9233 -0.4485  0.2325
  839MPD2    H212389   0.676   0.016  11.758  1.5365 -1.3612 -2.7333
  839MPD2    H312390   0.753   0.152  11.935 -0.3322  0.4831 -0.1926
  839MPD2     N12391   0.980   0.438  11.675 -0.1971 -0.2465  0.1692
  839MPD2    H512392   0.988   0.492  11.760  0.9440  0.3935 -0.3448
  839MPD2    N112393   0.730   0.070  11.485 -0.0493 -0.9777 -0.2344
  839MPD2    H712394   0.773   0.094  11.396  1.7476  0.4769  1.0222
  840MPD2     C12395   0.611   3.411  10.540 -0.8237  0.2751  0.2310
  840MPD2    C112396   0.658   3.308  10.616  0.4436  0.5932 -0.1844
  840MPD2    C212397   0.783   3.332  10.680  0.5953 -0.0999  0.3597
  840MPD2    C312398   0.850   3.447  10.663  0.5219  0.1557  0.1137
  840MPD2    C412399   0.792   3.550  10.602  0.3936  0.4775 -0.1838
  840MPD2    C512400   0.676   3.534  10.529  0.2299  0.3749  0.6456
  840MPD2     H12401   0.819   3.251  10.742 -0.8542 -3.3141 -2.9716
  840MPD2    H112402   0.854   3.637  10.586  0.6251  0.6159  1.5015
  840MPD2    H212403   0.513   3.406  10.495 -0.8430  2.0947  0.0617
  840MPD2    H312404   0.631   3.607  10.462  0.5195  0.1865  0.2408
  840MPD2     N12405   0.972   3.464  10.733 -0.0176  0.3099 -0.2051
  840MPD2    H512406   1.019   3.553  10.748 -0.9778  0.8364 -0.2564
  840MPD2    N112407   0.599   3.178  10.618 -0.1384 -0.0676  0.2008
  840MPD2    H712408   0.539   3.154  10.540  0.4528  0.4525 -0.4090
  841MPD2     C12409   0.528   3.017  14.360 -0.3328  0.5496 -0.7966
  841MPD2    C112410   0.518   2.880  14.330  0.0808  0.2705  0.4599
  841MPD2    C212411   0.619   2.791  14.372 -0.6749  0.0351  1.0061
  841MPD2    C312412   0.730   2.842  14.436  0.9444  0.1850 -0.3064
  841MPD2    C412413   0.736   2.982  14.468  0.6219 -0.3014  0.3922
  841MPD2    C512414   0.644   3.063  14.429 -0.0172 -0.5315 -0.8054
  841MPD2     H12415   0.623   2.685  14.349  0.6681  0.0174  1.3347
  841MPD2    H112416   0.822   3.024  14.519  1.2809 -1.5583  0.3217
  841MPD2    H212417   0.456   3.089  14.322 -1.5240 -0.1640  0.1213
  841MPD2    H312418   0.659   3.167  14.455  2.1710 -1.1845  0.5337
  841MPD2     N12419   0.842   2.757  14.445  0.1799  0.0771  0.1619
  841MPD2    H512420   0.836   2.669  14.396 -1.3347 -0.8540  2.0023
  841MPD2    N112421   0.405   2.832  14.265  0.1438 -0.4909 -0.6076
  841MPD2    H712422   0.389   2.732  14.257  0.4546 -0.6175  0.3317
  842MPD2     C12423   0.708   3.002  16.054  0.1616 -0.1780 -0.2784
  842MPD2    C112424   0.819   3.080  16.056 -0.1998  0.6430  0.3894
  842MPD2    C212425   0.900   3.094  16.167 -0.4430  0.2094 -0.2428
  842MPD2    C312426   0.869   3.026  16.277  0.0193 -0.6128 -0.1515
  842MPD2    C412427   0.747   2.952  16.278  0.3710  0.3338  0.1659
  842MPD2    C512428   0.667   2.940  16.173 -0.6216  0.4405 -0.3183
  842MPD2     H12429   0.997   3.142  16.158  0.1954 -1.0279  0.0296
  842MPD2    H112430   0.700   2.902  16.362 -0.4537  0.1008 -0.4354
  842MPD2    H212431   0.650   2.997  15.963 -1.0075 -2.0610  0.5617
  842MPD2    H312432   0.569   2.896  16.181 -0.4174 -0.0634 -0.5798
  842MPD2     N12433   0.935   3.033  16.402 -0.3599 -0.3951  0.1772
  842MPD2    H512434   0.880   2.989  16.475 -2.8360  2.2744 -0.1130
  842MPD2    N112435   0.826   3.161  15.935 -0.2581  0.3529  0.0327
  842MPD2    H712436   0.760   3.150  15.859 -1.6564  0.9782  1.1692
  843MPD2     C12437   3.702   4.456   0.087 -0.5071  0.0950 -0.3331
  843MPD2    C112438   3.784   4.394   0.175  0.1827  0.3424  0.0381
  843MPD2    C212439   3.881   4.477   0.236 -0.4308 -0.2257  0.0882
  843MPD2    C312440   3.898   4.613   0.209  0.4023  0.0608 -0.1976
  843MPD2    C412441   3.801   4.674   0.127  0.4157 -0.3064 -0.0140
  843MPD2    C512442   3.707   4.596   0.067  0.0259 -0.0212 -0.6069
  843MPD2     H12443   3.943   4.418   0.302  0.7152  0.6000 -0.2501
  843MPD2    H112444   3.790   0.043   0.116  1.9772 -0.4270 -2.8089
  843MPD2    H212445   3.629   4.399   0.031 -1.2837  1.5500 -0.7927
  843MPD2    H312446   3.635   4.645   0.002 -0.5847 -0.7783 -0.5094
  843MPD2     N12447   3.993   4.697   0.273 -0.2326 -0.2958 -0.2867
  843MPD2    H512448   3.975   0.056   0.255  1.9782  0.0470 -0.5951
  843MPD2    N112449   3.761   4.262   0.196 -0.4052 -0.1716  0.8053
  843MPD2    H712450   3.675   4.229   0.153  0.2275 -0.6799 -0.0575
  844MPD2     C12451   1.418   2.514  16.821 -0.2318  0.2600 -0.4558
  844MPD2    C112452   1.466   2.572  16.706  0.5395  0.0093 -0.5015
  844MPD2    C212453   1.547   2.682  16.716 -0.4244 -0.2100 -0.2597
  844MPD2    C312454   1.589   2.726  16.839  0.2067  0.2682  0.0665
  844MPD2    C412455   1.549   2.653  16.955 -0.6602  0.2781  0.0196
  844MPD2    C512456   1.468   2.547  16.946 -0.4064 -0.0827 -0.0106
  844MPD2     H12457   1.605   2.716  16.632 -2.2250 -0.6362 -1.6693
  844MPD2    H112458   1.600   2.673  17.048 -0.2291  3.4666 -0.9310
  844MPD2    H212459   1.356   2.425  16.817  0.2398 -0.0538 -0.8141
  844MPD2    H312460   1.428   2.484  17.024 -2.9431  1.4425 -0.0747
  844MPD2     N12461   1.691   2.823  16.835  0.2358 -0.6439  0.0392
  844MPD2    H512462   1.721   2.869  16.749  0.0249 -1.3113 -0.3976
  844MPD2    N112463   1.452   2.515  16.578 -0.1941 -0.4811  0.3255
  844MPD2    H712464   1.476   2.569  16.495 -0.2522 -1.8234 -0.5727
  845MPD2     C12465   1.749   3.785  16.933  0.2368  0.0029  0.2330
  845MPD2    C112466   1.793   3.709  17.039 -0.4878  0.4164  0.9094
  845MPD2    C212467   1.826   3.575  17.007  0.2794 -0.1021  0.8842
  845MPD2    C312468   1.805   3.518  16.882 -0.3063  0.7032  0.3736
  845MPD2    C412469   1.754   3.594  16.783 -0.2442 -0.4939 -0.7379
  845MPD2    C512470   1.730   3.732  16.808 -0.9947 -0.2128  0.4553
  845MPD2     H12471   1.886   3.521  17.080  0.0884 -1.9392 -0.3112
  845MPD2    H112472   1.736   3.551  16.686  0.1812  1.4479 -1.6836
  845MPD2    H212473   1.724   3.890  16.945  1.0292  0.0278  1.7203
  845MPD2    H312474   1.698   3.798  16.728  2.1957 -1.3148 -1.6950
  845MPD2     N12475   1.848   3.385  16.861 -0.3018  0.3327  0.9131
  845MPD2    H512476   1.885   3.343  16.946 -0.3750  0.1956  0.8786
  845MPD2    N112477   1.820   3.773  17.160 -0.2381 -0.1847  0.4168
  845MPD2    H712478   1.790   3.869  17.172 -0.4825 -0.3393  1.0777
  846MPD2     C12479   3.777   4.052  13.554  0.6972 -0.5198 -0.2949
  846MPD2    C112480   3.704   4.159  13.608 -0.5328 -0.0544 -0.4591
  846MPD2    C212481   3.688   4.170  13.743 -0.3182  0.0644  0.2763
  846MPD2    C312482   3.738   4.067  13.825 -0.0762 -0.0604 -0.0634
  846MPD2    C412483   3.821   3.969  13.775  0.6778  0.1081  0.4393
  846MPD2    C512484   3.846   3.971  13.639 -0.6179 -0.2424  0.5706
  846MPD2     H12485   3.635   4.251  13.790  1.0065  1.2838 -0.3159
  846MPD2    H112486   3.847   3.879  13.831  1.7645  1.0369  1.4088
  846MPD2    H212487   3.788   4.036  13.447  1.7416  0.4126 -0.3242
  846MPD2    H312488   3.906   3.893  13.592  0.5052  1.0959 -0.1929
  846MPD2     N12489   3.701   4.070  13.962 -0.1429 -0.3565 -0.2388
  846MPD2    H512490   3.632   4.139  13.990  1.7863  2.2280 -1.8654
  846MPD2    N112491   3.637   4.249  13.528 -0.2957  0.3057 -0.5154
  846MPD2    H712492   3.595   4.328  13.576 -0.9304  1.2806 -2.6778
  847MPD2     C12493   3.628   0.083  14.305  0.1761 -0.7709 -0.4903
  847MPD2    C112494   3.677   0.210  14.295 -0.0838  0.4603 -0.5324
  847MPD2    C212495   3.816   0.214  14.312  0.2731  0.1695 -0.0378
  847MPD2    C312496   3.898   0.104  14.319  0.2862 -0.0781  0.2804
  847MPD2    C412497   3.844   4.719  14.321  0.1732  0.4997 -0.0017
  847MPD2    C512498   3.707   4.709  14.318 -0.3306  0.0777  0.8904
  847MPD2     H12499   3.867   0.310  14.315 -1.2251  0.9519  0.8376
  847MPD2    H112500   3.886   4.620  14.334  1.1426  1.4632  4.0990
  847MPD2    H212501   3.521   0.063  14.296  0.1860 -0.7805 -0.5837
  847MPD2    H312502   3.660   4.611  14.320 -0.3335  0.0690  0.4017
  847MPD2     N12503   4.036   0.130  14.314  0.8734 -0.1357 -0.2780
  847MPD2    H512504   4.065   0.227  14.308 -2.5045  0.8937  0.4781
  847MPD2    N112505   3.593   0.322  14.288 -0.8664  0.0603  0.0892
  847MPD2    H712506   3.642   0.407  14.262  1.1742 -0.3505  2.5869
  848MPD2     C12507   1.444   3.150  16.691 -0.0603  0.3320  1.0236
  848MPD2    C112508   1.393   3.235  16.787 -0.2463  0.0969  0.2906
  848MPD2    C212509   1.369   3.364  16.761 -0.4038  0.7380 -0.0219
  848MPD2    C312510   1.395   3.411  16.631 -0.2073  0.3677 -0.5611
  848MPD2    C412511   1.444   3.332  16.532 -0.3421 -0.8189 -0.5856
  848MPD2    C512512   1.470   3.202  16.563  0.3637 -0.0057 -0.3375
  848MPD2     H12513   1.323   3.426  16.837  2.6529  2.6903  0.2286
  848MPD2    H112514   1.470   3.375  16.436  1.3274 -0.5744 -0.0285
  848MPD2    H212515   1.465   3.045  16.710  0.6754  0.8255  2.8715
  848MPD2    H312516   1.508   3.140  16.482 -1.4228  0.0867 -1.2699
  848MPD2     N12517   1.363   3.546  16.600  0.2038 -0.2936 -0.0170
  848MPD2    H512518   1.357   3.576  16.503  1.4444  0.0246  0.0034
  848MPD2    N112519   1.360   3.184  16.911 -0.7481  0.0609 -0.3046
  848MPD2    H712520   1.341   3.259  16.977  0.9273 -0.8924  1.2631
  849MPD2     C12521   1.102   2.922  14.037  0.2073 -0.1578 -0.2432
  849MPD2    C112522   1.108   2.878  13.904 -0.0577  0.3385 -0.6864
  849MPD2    C212523   1.164   2.757  13.865  0.7500 -0.8608  0.1405
  849MPD2    C312524   1.212   2.672  13.959 -0.4924  0.6782 -0.1554
  849MPD2    C412525   1.193   2.709  14.094  0.2546  0.0726  0.2735
  849MPD2    C512526   1.136   2.829  14.132  0.3056 -0.0033  0.3445
  849MPD2     H12527   1.177   2.734  13.760 -2.0796 -0.7482 -0.2516
  849MPD2    H112528   1.207   2.648  14.182 -3.1587  1.3003  1.6762
  849MPD2    H212529   1.059   3.019  14.057  0.1691 -0.6633  2.1526
  849MPD2    H312530   1.107   2.852  14.234  1.9502  1.0814  0.5705
  849MPD2     N12531   1.250   2.537  13.923  0.3407 -0.0590  0.1545
  849MPD2    H512532   1.233   2.509  13.827  0.4893  0.7276 -0.0989
  849MPD2    N112533   1.058   2.950  13.795 -0.3269 -0.1902 -0.0616
  849MPD2    H712534   1.079   2.908  13.705  1.4334 -2.2837  1.3375
  850MPD2     C12535   3.570   1.031  14.249 -0.3703 -0.8741 -0.8999
  850MPD2    C112536   3.595   1.124  14.338  0.0880 -0.6480  0.3437
  850MPD2    C212537   3.722   1.166  14.364 -0.0130  0.0903  0.1719
  850MPD2    C312538   3.831   1.115  14.288  0.0565  0.2305 -1.1985
  850MPD2    C412539   3.796   1.014  14.199 -0.0840 -0.6937  0.0992
  850MPD2    C512540   3.676   0.968  14.183  0.4285  0.5233 -0.0655
  850MPD2     H12541   3.736   1.247  14.433 -2.9245  0.3829  0.4351
  850MPD2    H112542   3.874   0.973  14.135  0.6013 -1.3591  1.3612
  850MPD2    H212543   3.470   0.989  14.238 -1.4138  1.3598  0.0268
  850MPD2    H312544   3.662   0.889  14.110 -1.1507 -0.2931  1.1332
  850MPD2     N12545   3.970   1.143  14.312  0.0011  0.3195 -0.1898
  850MPD2    H512546   4.042   1.083  14.273  1.4953  0.9439  1.5591
  850MPD2    N112547   3.480   1.167  14.415  0.1417 -0.0970 -0.2337
  850MPD2    H712548   3.391   1.148  14.369 -0.9194  0.3361  1.6572
  851MPD2     C12549   4.176   1.069  14.924  0.5360  0.5047 -0.1510
  851MPD2    C112550   4.045   1.033  14.881  0.0535 -0.6587  0.4230
  851MPD2    C212551   4.036   0.897  14.870 -0.1406  0.4295  0.3376
  851MPD2    C312552   4.138   0.804  14.894 -0.0866  0.6470 -0.5740
  851MPD2    C412553   4.252   0.843  14.958 -0.7072  0.6954 -0.6687
  851MPD2    C512554   4.268   0.979  14.968 -0.1020 -0.1534  1.0615
  851MPD2     H12555   3.956   0.855  14.809 -0.7735  0.1282  1.3696
  851MPD2    H112556   4.334   0.788  15.002 -2.5050 -1.5792 -0.1896
  851MPD2    H212557   4.214   1.169  14.942  1.2419  0.4526 -1.3087
  851MPD2    H312558   4.356   1.018  15.018 -0.0334 -2.0169  2.4322
  851MPD2     N12559   4.107   0.669  14.881 -0.1237  0.7693 -0.0965
  851MPD2    H512560   4.013   0.640  14.855  0.5692  0.2712 -2.0551
  851MPD2    N112561   3.942   1.128  14.852 -0.3304  0.1173 -0.3564
  851MPD2    H712562   3.954   1.229  14.861  0.8899 -0.2062  1.5907
  852MPD2     C12563   2.904   4.054   9.849  0.6296 -0.1391 -0.3024
  852MPD2    C112564   2.960   4.095   9.971 -0.1364 -0.3598  0.2840
  852MPD2    C212565   2.997   4.230   9.992  0.2864  0.3282  0.2425
  852MPD2    C312566   2.976   4.320   9.887  0.9327  0.4922 -0.6297
  852MPD2    C412567   2.934   4.279   9.768  0.0395  0.8797  0.0754
  852MPD2    C512568   2.895   4.148   9.745  0.1944 -0.1300  0.1748
  852MPD2     H12569   3.037   4.272  10.083  1.0815  0.3502 -0.1141
  852MPD2    H112570   2.926   4.347   9.684 -0.8390 -0.8711 -1.2462
  852MPD2    H212571   2.880   3.949   9.836  1.3512 -0.6151  2.0972
  852MPD2    H312572   2.860   4.116   9.647 -1.1129  0.7141  0.3713
  852MPD2     N12573   3.010   4.456   9.912 -0.5252 -0.4694 -0.4558
  852MPD2    H512574   3.047   4.477  10.004 -0.7564 -0.3940 -0.3802
  852MPD2    N112575   2.988   3.999  10.070  0.3623  0.3312  0.8560
  852MPD2    H712576   3.033   4.021  10.158  0.9386 -1.7147  1.0789
  853MPD2     C12577   0.525   3.709  12.296 -0.6394 -0.0517  0.3352
  853MPD2    C112578   0.408   3.762  12.259 -0.3452  0.3525 -0.5200
  853MPD2    C212579   0.364   3.741  12.136  0.3721 -0.2248  0.5238
  853MPD2    C312580   0.441   3.678  12.040  0.0789  0.4593 -0.0885
  853MPD2    C412581   0.564   3.634  12.080 -0.9656 -0.4689 -0.0700
  853MPD2    C512582   0.609   3.649  12.207  0.2835 -0.1741 -0.0914
  853MPD2     H12583   0.270   3.785  12.104 -1.3004 -2.2379  2.6807
  853MPD2    H112584   0.640   3.592  12.015 -0.7186  1.9455 -1.3597
  853MPD2    H212585   0.571   3.719  12.394  0.5197  2.0359 -0.4189
  853MPD2    H312586   0.700   3.600  12.240 -0.1133 -0.8410  0.0165
  853MPD2     N12587   0.401   3.657  11.902  0.3733 -0.4593  0.0564
  853MPD2    H512588   0.470   3.613  11.842 -1.2828  1.3913 -3.1617
  853MPD2    N112589   0.338   3.829  12.363 -0.0353  0.2936 -0.4440
  853MPD2    H712590   0.385   3.839  12.452  0.1659 -1.8515 -0.3136
  854MPD2     C12591   1.823   3.954  12.988  0.5098  0.8469  0.5591
  854MPD2    C112592   1.867   3.932  12.860  0.7048 -0.4374 -0.8280
  854MPD2    C212593   1.951   3.828  12.829 -0.6622 -0.3386  0.0014
  854MPD2    C312594   1.972   3.728  12.917  0.4733 -0.8403 -0.1321
  854MPD2    C412595   1.925   3.750  13.044 -0.5478  0.0971  0.1907
  854MPD2    C512596   1.860   3.863  13.082  0.4061  0.4217  0.5996
  854MPD2     H12597   2.003   3.827  12.734 -0.6790  1.4373 -0.0303
  854MPD2    H112598   1.944   3.686  13.129 -2.3974 -2.1109 -1.0781
  854MPD2    H212599   1.767   4.040  13.022 -0.8065  0.1464  0.1498
  854MPD2    H312600   1.831   3.875  13.186  2.3043 -0.9460  1.3031
  854MPD2     N12601   2.057   3.617  12.893 -0.0565 -0.4056  0.5577
  854MPD2    H512602   2.087   3.575  12.980 -0.1806 -0.4213  0.5929
  854MPD2    N112603   1.827   4.038  12.778 -0.2972 -0.1643 -0.6133
  854MPD2    H712604   1.772   4.115  12.814 -0.2118 -0.0217 -0.7849
  855MPD2     C12605   2.461   3.363  13.570  0.0935 -0.0676 -0.1400
  855MPD2    C112606   2.488   3.261  13.482 -0.1333  0.1621 -0.4867
  855MPD2    C212607   2.458   3.273  13.349 -0.9598 -0.7732  0.0737
  855MPD2    C312608   2.407   3.393  13.303 -0.6575  0.3922  0.1957
  855MPD2    C412609   2.370   3.485  13.396  0.0600  0.3803 -0.2232
  855MPD2    C512610   2.400   3.476  13.528  0.1020  0.7517 -0.4405
  855MPD2     H12611   2.490   3.204  13.272  2.7102  2.0420 -0.9098
  855MPD2    H112612   2.318   3.574  13.364 -1.2710 -0.7654 -1.3022
  855MPD2    H212613   2.480   3.349  13.675  0.6680  2.6132  0.1265
  855MPD2    H312614   2.388   3.559  13.596 -2.1132  0.0859 -0.0265
  855MPD2     N12615   2.369   3.420  13.171  0.5900 -0.1855  0.2718
  855MPD2    H512616   2.324   3.509  13.151  0.9972  0.2713  1.4343
  855MPD2    N112617   2.564   3.143  13.519  0.3198  0.4648  0.0105
  855MPD2    H712618   2.579   3.070  13.450  0.2460  0.9650 -0.5351
  856MPD2     C12619   0.488   3.793  13.769 -0.2372  0.7667 -0.0853
  856MPD2    C112620   0.493   3.930  13.793  0.1443  0.3699  0.7156
  856MPD2    C212621   0.374   3.997  13.779  0.0392  0.4256  0.6113
  856MPD2    C312622   0.257   3.939  13.737  0.9867 -0.0665 -0.2334
  856MPD2    C412623   0.260   3.805  13.714 -0.9916 -0.0391  0.0158
  856MPD2    C512624   0.372   3.736  13.731  0.5554 -0.2014  0.1283
  856MPD2     H12625   0.380   4.103  13.801 -2.0836  0.8517 -0.8486
  856MPD2    H112626   0.169   3.754  13.685 -0.3156 -0.7762 -0.8109
  856MPD2    H212627   0.573   3.731  13.795 -0.7670  0.2927  0.5474
  856MPD2    H312628   0.369   3.628  13.721  3.1469 -0.0916 -1.7809
  856MPD2     N12629   0.135   4.011  13.727 -0.0123 -0.1866  0.1548
  856MPD2    H512630   0.056   3.963  13.686  0.9916 -0.9408 -0.9198
  856MPD2    N112631   0.609   3.999  13.824  0.1542 -0.4251 -0.1276
  856MPD2    H712632   0.588   4.085  13.874 -2.0188 -1.4980  0.8484
  857MPD2     C12633   1.246   2.136  12.148  0.0310  0.5709  0.0095
  857MPD2    C112634   1.271   2.071  12.268 -0.2313  0.9006 -0.3720
  857MPD2    C212635   1.342   2.140  12.362  0.3877 -0.3101  0.1736
  857MPD2    C312636   1.370   2.271  12.353  0.3288  0.0447 -0.9559
  857MPD2    C412637   1.321   2.336  12.239 -0.3505 -0.5089 -0.2935
  857MPD2    C512638   1.259   2.268  12.139  0.5315 -0.4066  0.1936
  857MPD2     H12639   1.373   2.086  12.450 -2.2484 -0.0580  1.2843
  857MPD2    H112640   1.325   2.442  12.218  0.0126 -0.2287  1.1796
  857MPD2    H212641   1.192   2.088  12.067 -0.0766 -1.9750  1.5729
  857MPD2    H312642   1.224   2.324  12.053 -3.2274 -0.6310  1.5919
  857MPD2     N12643   1.436   2.330  12.460 -0.3468  0.0061  0.3115
  857MPD2    H512644   1.451   2.279  12.547  2.8147 -0.7607 -0.7005
  857MPD2    N112645   1.236   1.935  12.281 -0.2192 -0.0320 -0.1064
  857MPD2    H712646   1.210   1.894  12.192  0.1855 -0.3579 -0.0751
  858MPD2     C12647   1.800   0.638  16.724  0.7525  0.5310 -0.3237
  858MPD2    C112648   1.925   0.576  16.723 -0.3332  0.2931  0.3535
  858MPD2    C212649   2.018   0.628  16.806 -0.7088  0.0990 -0.2537
  858MPD2    C312650   2.000   0.741  16.893  0.5996  0.1835 -0.7625
  858MPD2    C412651   1.870   0.779  16.913 -0.2489  0.3195 -0.2515
  858MPD2    C512652   1.770   0.724  16.836  0.0174 -0.3817  0.4536
  858MPD2     H12653   2.118   0.586  16.806 -1.0336 -0.6652 -0.6525
  858MPD2    H112654   1.842   0.858  16.983  0.2187  0.3351 -0.0835
  858MPD2    H212655   1.728   0.622  16.644  0.9510 -0.0548 -0.3812
  858MPD2    H312656   1.671   0.765  16.825  0.5581  0.8589  0.2150
  858MPD2     N12657   2.094   0.802  16.967 -0.2172  0.2577  0.2520
  858MPD2    H512658   2.067   0.858  17.047 -1.4773 -1.6725  1.1616
  858MPD2    N112659   1.962   0.473  16.634  0.1295 -0.1103 -0.7760
  858MPD2    H712660   1.896   0.464  16.557 -0.9221 -1.3803  0.2704
  859MPD2     C12661   1.031   2.176  15.131 -0.0274 -0.6131 -0.2772
  859MPD2    C112662   1.001   2.195  14.998 -0.0572 -0.0950  0.1568
  859MPD2    C212663   1.007   2.082  14.915 -0.1321  0.3488  0.2756
  859MPD2    C312664   1.041   1.962  14.965  0.5517 -0.0859 -0.5606
  859MPD2    C412665   1.073   1.951  15.099 -1.0247 -0.6389  0.0969
  859MPD2    C512666   1.078   2.057  15.177  0.1933  0.2042  0.1734
  859MPD2     H12667   0.982   2.087  14.809 -0.9315  0.1885  0.4544
  859MPD2    H112668   1.103   1.856  15.142 -2.8031 -1.7889 -1.1992
  859MPD2    H212669   1.034   2.253  15.207  3.1304 -2.3014  1.3020
  859MPD2    H312670   1.111   2.038  15.278  0.4584  1.9918  0.4089
  859MPD2     N12671   1.042   1.842  14.893  0.3674 -0.4279  0.0377
  859MPD2    H512672   1.060   1.761  14.951 -0.8277 -0.6773  0.0476
  859MPD2    N112673   0.964   2.331  14.963 -0.1972  0.3687  0.3127
  859MPD2    H712674   0.970   2.397  15.040  3.9004  0.8527 -0.4243
  860MPD2     C12675   3.142   3.858  11.393 -0.7243  0.1910  0.3353
  860MPD2    C112676   3.129   3.887  11.531 -0.1813 -0.0117  0.8648
  860MPD2    C212677   3.009   3.861  11.592 -0.3274  0.4470 -0.0449
  860MPD2    C312678   2.915   3.788  11.529  0.5964  0.0309 -0.3073
  860MPD2    C412679   2.930   3.752  11.403 -0.5211 -0.4905 -0.9730
  860MPD2    C512680   3.041   3.786  11.332  0.7197 -0.1455  0.9953
  860MPD2     H12681   2.994   3.879  11.698  0.6925  0.1374  0.1479
  860MPD2    H112682   2.858   3.684  11.360 -1.4744 -1.4386  2.1725
  860MPD2    H212683   3.237   3.877  11.344 -0.8941 -1.3235 -0.5593
  860MPD2    H312684   3.038   3.760  11.227  0.1972  1.4034  0.6334
  860MPD2     N12685   2.796   3.772  11.599  0.1346  0.0750  0.0291
  860MPD2    H512686   2.792   3.816  11.690 -0.5738  0.7598 -0.3261
  860MPD2    N112687   3.234   3.945  11.608  0.0543  0.1299  0.6213
  860MPD2    H712688   3.201   3.965  11.702  1.2589 -0.2103  1.1048
  861MPD2     C12689   1.984   1.570  10.867 -0.0172 -0.0075  0.3855
  861MPD2    C112690   2.008   1.704  10.909  0.1709  0.3351  0.6032
  861MPD2    C212691   1.950   1.808  10.844  0.2020 -0.6530  0.4533
  861MPD2    C312692   1.856   1.785  10.746 -0.3815 -1.0373 -0.4534
  861MPD2    C412693   1.833   1.654  10.704 -1.0815 -0.2995  0.3869
  861MPD2    C512694   1.895   1.545  10.763  0.2310  0.2554 -0.9852
  861MPD2     H12695   1.960   1.908  10.886 -1.0351 -0.0270 -0.7241
  861MPD2    H112696   1.756   1.643  10.628 -1.2143 -0.6706  0.5752
  861MPD2    H212697   2.030   1.485  10.917  0.4284 -0.9033 -1.5624
  861MPD2    H312698   1.871   1.443  10.736  0.2090  0.2889 -1.0915
  861MPD2     N12699   1.792   1.889  10.672 -0.4054  0.3024  0.1862
  861MPD2    H512700   1.718   1.858  10.611 -0.7411 -0.5607  1.0321
  861MPD2    N112701   2.080   1.734  11.031 -0.2262 -0.2318  0.0380
  861MPD2    H712702   2.104   1.832  11.046 -0.5637 -0.1056 -0.2381
  862MPD2     C12703   1.298   1.946  10.168  0.6519 -0.4729 -0.2397
  862MPD2    C112704   1.330   1.878  10.286  0.6348 -0.2419 -0.7186
  862MPD2    C212705   1.300   1.743  10.299 -0.0625  0.6602 -0.5402
  862MPD2    C312706   1.230   1.669  10.201  0.3748 -0.2877  0.2627
  862MPD2    C412707   1.192   1.746  10.092  0.1614  0.6945 -0.7647
  862MPD2    C512708   1.234   1.878  10.071  0.0199 -0.7466 -0.1008
  862MPD2     H12709   1.341   1.694  10.387 -1.4686 -1.2366 -0.9483
  862MPD2    H112710   1.141   1.700  10.008  1.0886 -0.8379 -0.4794
  862MPD2    H212711   1.339   2.041  10.135 -0.8829  0.0043 -0.7910
  862MPD2    H312712   1.206   1.922   9.976 -2.4917 -0.1376  0.9327
  862MPD2     N12713   1.192   1.527  10.205  0.0670 -0.0071  0.0845
  862MPD2    H512714   1.187   1.482  10.114 -0.2130 -0.4953  0.3396
  862MPD2    N112715   1.419   1.941  10.378  0.1092  0.2159 -0.2002
  862MPD2    H712716   1.463   1.874  10.441 -1.7339 -0.2912  0.5230
  863MPD2     C12717   0.881   0.072  16.426  0.6175 -0.0329 -0.1781
  863MPD2    C112718   0.800   4.721  16.495 -0.1195  0.3165  0.8437
  863MPD2    C212719   0.843   4.660  16.609 -0.9118  0.2624  0.0411
  863MPD2    C312720   0.956   4.703  16.674 -0.5317 -0.0445 -0.2725
  863MPD2    C412721   1.045   0.049  16.601  0.4098  0.3071 -0.0269
  863MPD2    C512722   0.998   0.100  16.482  0.1846 -0.6131  0.3336
  863MPD2     H12723   0.776   4.594  16.663  1.5495 -2.4465 -0.2172
  863MPD2    H112724   1.149   0.057  16.630  0.4039  0.7128 -0.1180
  863MPD2    H212725   0.861   0.102  16.323  1.1106  0.7971 -0.0314
  863MPD2    H312726   1.070   0.160  16.426 -1.5881  0.5338 -0.7082
  863MPD2     N12727   1.006   4.657  16.788  0.5465  0.0189  0.0418
  863MPD2    H512728   1.085   4.710  16.824 -0.1913  0.7279  0.6238
  863MPD2    N112729   0.676   4.690  16.428  0.8117  0.3598 -0.3508
  863MPD2    H712730   0.653   0.000  16.343  0.3447 -0.4204 -0.6733
  864MPD2     C12731   1.239   0.670  17.095 -0.2894  0.6683  0.4412
  864MPD2    C112732   1.205   0.701  16.961 -0.3566  0.3745  0.1296
  864MPD2    C212733   1.263   0.814  16.909 -0.5881 -0.3429 -0.3303
  864MPD2    C312734   1.361   0.886  16.970  0.2458 -1.0934 -0.1514
  864MPD2    C412735   1.389   0.862  17.109 -0.3088 -0.3063  0.2717
  864MPD2    C512736   1.318   0.764  17.167 -0.0307  0.4987  0.9681
  864MPD2     H12737   1.258   0.841  16.804 -1.6047  2.3394  0.3948
  864MPD2    H112738   1.439   0.928  17.178 -0.0121 -0.7578  0.4884
  864MPD2    H212739   1.191   0.598  17.159  0.3556  0.1380  0.3315
  864MPD2    H312740   1.328   0.747  17.274 -2.4392  0.8205  1.2362
  864MPD2     N12741   1.445   0.981  16.906 -0.3944  0.8963  0.3288
  864MPD2    H512742   1.521   1.023  16.958  0.5043 -0.9092  0.4733
  864MPD2    N112743   1.103   0.623  16.901 -0.0359 -0.0819 -0.4424
  864MPD2    H712744   1.072   0.541  16.952  2.8517 -0.8495  0.0547
  865MPD2     C12745   1.390   1.587  16.104  0.7381 -0.0652  0.1636
  865MPD2    C112746   1.361   1.456  16.117 -0.1775 -0.1248  0.0182
  865MPD2    C212747   1.404   1.391  16.230 -0.3369  0.4800 -0.0442
  865MPD2    C312748   1.455   1.462  16.342 -0.3350  0.1660 -0.6408
  865MPD2    C412749   1.487   1.598  16.323  0.1053  0.2717  0.0040
  865MPD2    C512750   1.454   1.653  16.205  0.2440 -0.2055  0.3330
  865MPD2     H12751   1.393   1.284  16.243 -1.0203  0.9134  2.9937
  865MPD2    H112752   1.532   1.665  16.396 -2.3261 -0.1123  1.8381
  865MPD2    H212753   1.358   1.651  16.022  0.1302 -0.6418 -0.0585
  865MPD2    H312754   1.483   1.755  16.185  1.5129 -0.8929 -1.3776
  865MPD2     N12755   1.501   1.385  16.453 -0.0296  0.2890 -0.0009
  865MPD2    H512756   1.461   1.291  16.455  1.8305 -0.5139 -0.7813
  865MPD2    N112757   1.285   1.382  16.019  0.0454  0.0675  0.0444
  865MPD2    H712758   1.272   1.414  15.923  1.5087 -0.0558 -0.1972
  866MPD2     C12759   2.604   2.062  11.309 -0.4587 -0.1984  0.1640
  866MPD2    C112760   2.526   1.963  11.260  0.0592 -0.7797 -0.1177
  866MPD2    C212761   2.415   2.005  11.186  0.7458 -0.3080  0.1712
  866MPD2    C312762   2.388   2.139  11.157  0.4034  0.2353 -0.2008
  866MPD2    C412763   2.481   2.234  11.197  0.4952 -0.1899  0.4242
  866MPD2    C512764   2.589   2.192  11.277  1.2045 -0.8084 -0.3596
  866MPD2     H12765   2.357   1.921  11.149  0.6169 -0.3566  0.4850
  866MPD2    H112766   2.474   2.339  11.175  1.8046 -0.0285  0.7827
  866MPD2    H212767   2.693   2.028  11.360 -0.3019 -0.0412 -0.0061
  866MPD2    H312768   2.651   2.271  11.318 -0.1601  1.4981 -2.7334
  866MPD2     N12769   2.269   2.182  11.090 -0.3106  0.7247  0.0348
  866MPD2    H512770   2.244   2.280  11.083  0.9306  1.0323  0.0017
  866MPD2    N112771   2.553   1.830  11.292 -0.6038  0.5509 -0.6847
  866MPD2    H712772   2.638   1.821  11.347  0.0071 -1.1008 -1.8910
  867MPD2     C12773   4.646   1.052  16.404 -1.1721  0.0741  0.0664
  867MPD2    C112774   4.738   1.012  16.496 -0.5289  0.5490 -0.1759
  867MPD2    C212775   0.079   1.104  16.554 -0.7940 -0.2773 -0.1515
  867MPD2    C312776   0.052   1.240  16.548 -0.3862 -0.2945 -0.4101
  867MPD2    C412777   4.685   1.283  16.471 -0.4483  0.3520 -0.1850
  867MPD2    C512778   4.620   1.190  16.399 -0.8539  0.4909 -0.1990
  867MPD2     H12779   0.171   1.075  16.603 -0.4746  2.7381  1.0103
  867MPD2    H112780   4.667   1.387  16.447 -1.9656  0.3530  1.0157
  867MPD2    H212781   4.594   0.978  16.345  1.6134 -0.4452 -1.7452
  867MPD2    H312782   4.540   1.211  16.329 -0.5569 -1.3888 -1.1356
  867MPD2     N12783   0.127   1.339  16.609  0.1043  0.1258  0.5285
  867MPD2    H512784   0.097   1.436  16.601  0.7400  0.3186  0.4692
  867MPD2    N112785   0.010   0.873  16.519  0.0507 -0.1843 -0.0370
  867MPD2    H712786   4.695   0.804  16.467 -0.4146 -0.1974  0.4571
  868MPD2     C12787   1.563   0.516  12.898 -0.2564  0.9426 -0.0997
  868MPD2    C112788   1.607   0.489  13.026  0.6813  0.2990  0.6764
  868MPD2    C212789   1.544   0.545  13.136 -0.1975 -0.2614 -0.1504
  868MPD2    C312790   1.410   0.584  13.119  0.9244 -0.5068  0.0370
  868MPD2    C412791   1.362   0.600  12.987  0.3032 -0.3150  0.3183
  868MPD2    C512792   1.442   0.579  12.880  0.1096 -0.5582  0.3718
  868MPD2     H12793   1.593   0.525  13.231  0.6000 -1.2917 -0.7752
  868MPD2    H112794   1.263   0.640  12.968  0.6163  0.0675 -0.5486
  868MPD2    H212795   1.625   0.482  12.816  0.9414  3.0738 -0.0564
  868MPD2    H312796   1.412   0.616  12.783  0.3400 -0.8720  0.1808
  868MPD2     N12797   1.341   0.622  13.234  0.1066  0.1925 -0.2963
  868MPD2    H512798   1.396   0.613  13.320  1.8812  2.1002 -1.2247
  868MPD2    N112799   1.731   0.427  13.030 -0.5354 -0.1821 -0.7581
  868MPD2    H712800   1.775   0.406  12.940 -1.6305  0.8839 -1.5413
  869MPD2     C12801   2.751   3.692   1.202 -0.1982 -0.2242 -0.3496
  869MPD2    C112802   2.817   3.670   1.084 -0.2826 -0.2946 -0.4952
  869MPD2    C212803   2.923   3.584   1.074 -0.3240  0.4459 -0.1874
  869MPD2    C312804   2.972   3.518   1.183  0.6833  0.1751 -0.0999
  869MPD2    C412805   2.902   3.535   1.301  0.7721  0.4596 -0.4978
  869MPD2    C512806   2.802   3.627   1.308 -0.1684 -0.5650 -0.6271
  869MPD2     H12807   2.979   3.582   0.982  0.0407 -0.2499  0.0510
  869MPD2    H112808   2.922   3.510   1.405 -0.2807 -1.9066 -0.8630
  869MPD2    H212809   2.675   3.770   1.208 -0.4045 -0.4982  0.5237
  869MPD2    H312810   2.763   3.648   1.407  0.8862 -0.2021 -0.2928
  869MPD2     N12811   3.082   3.424   1.177  0.5675  0.1288 -0.2514
  869MPD2    H512812   3.102   3.363   1.255  1.9150  2.3808  1.1453
  869MPD2    N112813   2.775   3.728   0.962 -0.1411  0.3128  0.2622
  869MPD2    H712814   2.807   3.694   0.872 -0.6431 -0.0004  0.2003
  870MPD2     C12815   2.759   1.706   1.358 -0.6254 -0.0407 -0.0115
  870MPD2    C112816   2.889   1.732   1.314 -0.3448 -0.3835  0.3021
  870MPD2    C212817   2.934   1.860   1.317 -0.1352  0.1133 -0.4232
  870MPD2    C312818   2.853   1.957   1.374  0.4078  0.2922 -0.2709
  870MPD2    C412819   2.726   1.922   1.420 -0.0512  0.1090 -0.8358
  870MPD2    C512820   2.674   1.797   1.403  0.4055 -0.1119  0.7452
  870MPD2     H12821   3.038   1.885   1.298  0.4922 -1.1186  1.3593
  870MPD2    H112822   2.657   2.003   1.441  0.3624  0.0226  0.8582
  870MPD2    H212823   2.716   1.607   1.358  0.8066 -0.6477 -3.5572
  870MPD2    H312824   2.569   1.774   1.417  0.5576 -0.7508  0.8352
  870MPD2     N12825   2.899   2.087   1.343  0.1381  0.0464 -0.6773
  870MPD2    H512826   2.991   2.093   1.300 -0.0896  0.2202 -1.1438
  870MPD2    N112827   2.974   1.617   1.279 -0.0716  0.0006 -0.1897
  870MPD2    H712828   2.930   1.527   1.298  0.4770 -0.1486  0.3829
  871MPD2     C12829   3.898   1.253  16.128  0.0266 -0.2372 -0.2632
  871MPD2    C112830   3.917   1.225  16.258  0.8316  0.1096  0.3269
  871MPD2    C212831   3.939   1.095  16.285  0.8192  0.2399  0.1524
  871MPD2    C312832   3.946   0.992  16.188 -0.3013  0.2448 -0.6537
  871MPD2    C412833   3.928   1.029  16.055 -0.5843  0.0980 -0.2810
  871MPD2    C512834   3.914   1.162  16.030  0.1267 -0.0586  0.1838
  871MPD2     H12835   3.948   1.066  16.389  0.4273  1.4504  0.5231
  871MPD2    H112836   3.938   0.959  15.973 -0.6743 -0.2113 -0.0264
  871MPD2    H212837   3.868   1.353  16.098 -2.6624 -1.2242 -0.8303
  871MPD2    H312838   3.906   1.199  15.928  1.3406  0.2220  0.1984
  871MPD2     N12839   3.952   0.855  16.231 -0.1631  0.5755 -0.2496
  871MPD2    H512840   3.962   0.831  16.329 -1.7047 -0.1422 -0.2750
  871MPD2    N112841   3.900   1.329  16.348  0.1297 -0.0361  0.1885
  871MPD2    H712842   3.868   1.418  16.311 -2.2395 -1.1626 -0.5433
  872MPD2     C12843   4.373   3.487  13.405 -0.4260  0.1785 -0.5221
  872MPD2    C112844   4.374   3.621  13.440 -0.7041  0.4506  0.0609
  872MPD2    C212845   4.300   3.652  13.552 -0.0593  0.2108  0.3111
  872MPD2    C312846   4.225   3.562  13.630 -0.4285 -0.6520  0.4782
  872MPD2    C412847   4.231   3.435  13.586 -0.1052  0.3836 -1.1091
  872MPD2    C512848   4.298   3.392  13.471 -0.3927  0.9069 -0.4664
  872MPD2     H12849   4.306   3.756  13.579  0.5791  0.7766 -2.0431
  872MPD2    H112850   4.167   3.362  13.634  0.5969  0.7268  0.3424
  872MPD2    H212851   4.434   3.453  13.323 -0.1132 -1.5168  0.4111
  872MPD2    H312852   4.290   3.286  13.450 -2.5623  1.1747 -0.9837
  872MPD2     N12853   4.146   3.587  13.743 -0.2362 -0.0050  0.5419
  872MPD2    H512854   4.088   3.513  13.780 -0.7918 -0.1515 -0.6461
  872MPD2    N112855   4.451   3.721  13.376 -0.0644  0.5967 -0.0958
  872MPD2    H712856   4.439   3.814  13.416 -0.0966  0.8803 -0.7623
  873MPD2     C12857   1.709   3.830   0.805  0.2123  0.5638 -0.2655
  873MPD2    C112858   1.830   3.828   0.875  0.3423 -0.1316  0.3030
  873MPD2    C212859   1.918   3.716   0.849 -0.2685  0.4365 -0.4008
  873MPD2    C312860   1.888   3.621   0.753  0.0218  0.0261  0.0752
  873MPD2    C412861   1.763   3.629   0.698 -0.2231  0.1106  0.3662
  873MPD2    C512862   1.679   3.734   0.714 -0.1865 -0.3982 -0.7512
  873MPD2     H12863   2.013   3.715   0.902 -0.5014  0.0249  0.0068
  873MPD2    H112864   1.724   3.565   0.620 -2.2922  0.6188  0.9984
  873MPD2    H212865   1.639   3.909   0.825 -0.1368  0.1858  0.0077
  873MPD2    H312866   1.583   3.746   0.665  0.4294  0.2626 -1.8071
  873MPD2     N12867   1.961   3.500   0.731  0.5351  0.5117 -0.0884
  873MPD2    H512868   1.919   3.440   0.661 -1.0477  3.4917 -1.7267
  873MPD2    N112869   1.861   3.941   0.958 -1.0221  0.1028 -0.0512
  873MPD2    H712870   1.790   4.014   0.963 -1.3532 -0.1709 -0.6936
  874MPD2     C12871   1.386   3.753  15.859  0.6162  0.8277 -0.0379
  874MPD2    C112872   1.263   3.729  15.915 -0.2336 -0.4290  0.4439
  874MPD2    C212873   1.233   3.770  16.043 -0.1183  0.3564  0.5172
  874MPD2    C312874   1.320   3.848  16.116  0.3708  0.1017  0.0125
  874MPD2    C412875   1.443   3.868  16.063 -0.2171  0.0310  0.3397
  874MPD2    C512876   1.470   3.827  15.935 -0.7110 -0.0759  0.0697
  874MPD2     H12877   1.144   3.737  16.095 -1.8778  1.1413 -2.0060
  874MPD2    H112878   1.517   3.928  16.115  2.1593 -4.5670  2.2350
  874MPD2    H212879   1.421   3.726  15.760  0.6838 -0.9025  0.4679
  874MPD2    H312880   1.566   3.860  15.896 -0.3250 -1.3790 -0.0811
  874MPD2     N12881   1.300   3.877  16.251 -0.0521  0.0125 -0.1218
  874MPD2    H512882   1.210   3.846  16.287 -0.3862  1.1411  0.0262
  874MPD2    N112883   1.167   3.666  15.836  0.3621  0.5437  0.0632
  874MPD2    H712884   1.206   3.633  15.748 -0.4589 -1.4032  0.4176
  875MPD2     C12885   2.058   1.881  13.835 -1.0124 -1.0979  0.1646
  875MPD2    C112886   2.007   2.006  13.825 -0.0599 -0.5213  0.4467
  875MPD2    C212887   1.998   2.086  13.939 -0.0903 -0.5377 -0.3939
  875MPD2    C312888   2.032   2.038  14.062  0.2519 -0.7345 -0.4564
  875MPD2    C412889   2.088   1.914  14.068  0.0703 -1.2304  0.4006
  875MPD2    C512890   2.106   1.840  13.954 -0.4793 -0.0157 -0.8411
  875MPD2     H12891   1.956   2.186  13.936  0.3106 -0.3967 -1.3904
  875MPD2    H112892   2.112   1.862  14.160  1.9628 -0.6391  0.2483
  875MPD2    H212893   2.078   1.811  13.755  0.9387 -2.5181  1.8713
  875MPD2    H312894   2.128   1.734  13.964 -0.7763 -0.2298 -2.4880
  875MPD2     N12895   2.017   2.122  14.174 -0.2472  0.1241  0.3689
  875MPD2    H512896   2.023   2.223  14.164  0.8915 -0.1163 -1.3413
  875MPD2    N112897   1.979   2.052  13.690  0.2701 -0.4739 -0.2593
  875MPD2    H712898   1.982   1.975  13.623 -1.9197 -1.1155  0.3780
  876MPD2     C12899   1.735   3.622  15.494  0.2723 -0.0364 -0.4745
  876MPD2    C112900   1.702   3.493  15.450  0.6986  0.6699 -0.3198
  876MPD2    C212901   1.645   3.413  15.545 -0.0608 -0.8748 -0.4866
  876MPD2    C312902   1.622   3.453  15.672 -0.3332  0.1333 -0.1311
  876MPD2    C412903   1.666   3.577  15.715 -0.1760 -0.5201  0.0675
  876MPD2    C512904   1.722   3.660  15.624 -0.3417  0.4153 -0.2145
  876MPD2     H12905   1.617   3.311  15.521 -0.4569 -0.5084 -1.6133
  876MPD2    H112906   1.640   3.619  15.811  0.0837  0.9900 -0.5284
  876MPD2    H212907   1.774   3.696  15.425  0.7620  2.4465  2.4753
  876MPD2    H312908   1.757   3.756  15.661  0.3671 -0.2831  0.9290
  876MPD2     N12909   1.546   3.364  15.754 -0.1418  0.0600 -0.2006
  876MPD2    H512910   1.514   3.283  15.701 -0.6234  0.6180 -0.7582
  876MPD2    N112911   1.709   3.457  15.311  0.3020  0.0578  0.2431
  876MPD2    H712912   1.752   3.524  15.247  0.4615  0.5240  0.8280
  877MPD2     C12913   1.581   3.753  14.627 -0.2523 -0.2105 -0.4382
  877MPD2    C112914   1.609   3.617  14.594  0.4642 -0.2506  0.0198
  877MPD2    C212915   1.606   3.578  14.466  0.0324  0.3434  0.4475
  877MPD2    C312916   1.567   3.662  14.366  0.2316 -0.9263 -0.2330
  877MPD2    C412917   1.533   3.790  14.398 -0.2667 -0.3067 -0.8402
  877MPD2    C512918   1.549   3.841  14.524  0.5775  0.4774  0.1425
  877MPD2     H12919   1.637   3.474  14.454 -0.1961 -0.0053  2.8626
  877MPD2    H112920   1.498   3.855  14.318 -1.6649  0.8158  0.6599
  877MPD2    H212921   1.577   3.776  14.732 -2.6654 -2.1391 -0.1046
  877MPD2    H312922   1.516   3.943  14.538 -1.7460  0.0290 -2.0471
  877MPD2     N12923   1.532   3.621  14.241 -0.0743 -0.0412  0.0118
  877MPD2    H512924   1.503   3.687  14.170  0.9169  1.4263  0.9803
  877MPD2    N112925   1.651   3.521  14.691 -0.7013  0.3368  0.4819
  877MPD2    H712926   1.643   3.427  14.652 -0.9574 -0.1708  1.7248
  878MPD2     C12927   0.321   3.197  13.139 -0.7572 -0.1634  0.0822
  878MPD2    C112928   0.442   3.187  13.074  0.1130 -0.3644 -0.0404
  878MPD2    C212929   0.557   3.152  13.144  0.8118  0.2961 -0.4802
  878MPD2    C312930   0.554   3.153  13.283  0.4020  0.3907  0.1486
  878MPD2    C412931   0.432   3.177  13.352 -0.0020 -0.5675 -1.0492
  878MPD2    C512932   0.317   3.187  13.277 -0.1271 -0.4387  0.1443
  878MPD2     H12933   0.655   3.145  13.098  0.4052  2.6884 -1.7145
  878MPD2    H112934   0.418   3.166  13.459  2.5932 -1.9219 -0.8552
  878MPD2    H212935   0.229   3.225  13.091 -1.2422  0.1129  1.1652
  878MPD2    H312936   0.215   3.195  13.312 -1.3867 -0.4459 -3.5193
  878MPD2     N12937   0.682   3.128  13.347  0.4885 -0.0622  0.3614
  878MPD2    H512938   0.761   3.116  13.284  1.1184  1.6303  0.8407
  878MPD2    N112939   0.448   3.230  12.939  0.2524 -0.2563  0.6481
  878MPD2    H712940   0.367   3.260  12.885  1.0458  1.6475  0.5154
  879MPD2     C12941   1.741   4.733  16.647 -0.0244  0.7052  0.5471
  879MPD2    C112942   1.652   4.707  16.747  0.3268 -0.7762 -0.1419
  879MPD2    C212943   1.543   4.626  16.725  0.5440 -0.2159 -0.8042
  879MPD2    C312944   1.522   4.572  16.601  0.2807  0.3368 -0.1309
  879MPD2    C412945   1.616   4.580  16.506 -0.2044 -0.7714 -0.4245
  879MPD2    C512946   1.719   4.666  16.531 -0.1623 -0.3901  0.0363
  879MPD2     H12947   1.473   4.605  16.805 -0.5948  1.2906 -1.4017
  879MPD2    H112948   1.615   4.539  16.406  1.5897  2.0549 -1.6120
  879MPD2    H212949   1.831   0.054  16.660  0.4360  0.4191 -1.3541
  879MPD2    H312950   1.794   4.678  16.454  0.2680 -1.6591  0.2611
  879MPD2     N12951   1.412   4.494  16.573 -0.0487  0.2184 -0.6928
  879MPD2    H512952   1.424   4.443  16.486  1.2523 -2.0049  0.7842
  879MPD2    N112953   1.678   0.021  16.871  0.1245 -1.0040 -0.5918
  879MPD2    H712954   1.768   0.063  16.893 -0.6960 -0.8885  2.5177
  880MPD2     C12955   2.666   1.740  17.733 -0.5180  0.1394 -0.1875
  880MPD2    C112956   2.697   1.791   0.107  0.0040 -0.3387 -0.2968
  880MPD2    C212957   2.739   1.698   0.203 -0.1824 -0.3115 -0.1231
  880MPD2    C312958   2.731   1.566   0.182 -0.2695  0.3718 -0.1048
  880MPD2    C412959   2.694   1.512   0.059 -0.1017 -0.0630 -0.1595
  880MPD2    C512960   2.662   1.602  17.711  0.2210  0.1002 -0.0643
  880MPD2     H12961   2.774   1.737   0.299 -0.7802  3.2598 -1.3638
  880MPD2    H112962   2.686   1.405   0.043 -0.3204  0.1306 -1.3536
  880MPD2    H212963   2.652   1.806  17.648  4.3942 -0.3193 -1.3603
  880MPD2    H312964   2.643   1.562  17.613  0.1138  1.8785 -0.7715
  880MPD2     N12965   2.765   1.483   0.291 -0.5013  0.1866 -0.2794
  880MPD2    H512966   2.804   1.531   0.371  0.3543  0.2342 -0.7259
  880MPD2    N112967   2.728   1.928   0.119 -0.8272  0.3040  0.0389
  880MPD2    H712968   2.725   1.979   0.031 -0.5449 -0.7565 -0.5855
  881MPD2     C12969   3.287   2.531  17.368 -0.6273 -0.8948  0.6319
  881MPD2    C112970   3.232   2.402  17.362  0.3211 -0.2564 -0.3415
  881MPD2    C212971   3.188   2.348  17.486  0.0825  0.5323 -0.8529
  881MPD2    C312972   3.185   2.422  17.601  0.2287  0.6870  0.4744
  881MPD2    C412973   3.239   2.550  17.599  0.5845 -0.4579  0.0648
  881MPD2    C512974   3.272   2.608  17.480  0.6529 -0.1821 -0.3545
  881MPD2     H12975   3.130   2.256  17.479  1.0879 -0.0918 -0.9503
  881MPD2    H112976   3.247   2.605  17.691 -0.2688 -1.2760  0.6224
  881MPD2    H212977   3.296   2.576  17.270 -0.2121 -0.5167  0.8488
  881MPD2    H312978   3.294   2.715  17.475  0.6167 -0.0512  2.4396
  881MPD2     N12979   3.115   2.381  17.719  0.0839 -0.4906 -0.8329
  881MPD2    H512980   3.127   2.437   0.050 -1.3175  1.9430 -2.2598
  881MPD2    N112981   3.210   2.345  17.232 -0.8187 -0.0581 -0.5098
  881MPD2    H712982   3.233   2.407  17.155 -0.6367  0.6258  0.0970
  882MPD2     C12983   1.060   3.496  13.530  0.0222  0.3086  0.8900
  882MPD2    C112984   1.050   3.508  13.669 -0.3597  0.2705  0.3654
  882MPD2    C212985   0.931   3.504  13.733 -0.1059 -0.1357 -0.0996
  882MPD2    C312986   0.810   3.490  13.663 -0.1262 -0.2324 -0.1858
  882MPD2    C412987   0.822   3.486  13.526 -0.1268  0.1224  0.5344
  882MPD2    C512988   0.943   3.494  13.459  0.3935 -0.0586  0.3283
  882MPD2     H12989   0.939   3.503  13.841 -1.4357 -1.4597 -0.0297
  882MPD2    H112990   0.738   3.454  13.466 -0.0082 -2.5398  1.8169
  882MPD2    H212991   1.161   3.495  13.490 -0.0261  0.8349  0.7606
  882MPD2    H312992   0.945   3.494  13.351  0.8590  0.3462  0.3352
  882MPD2     N12993   0.691   3.462  13.730 -0.0210 -0.2490 -0.0593
  882MPD2    H512994   0.614   3.443  13.666  0.8512 -1.4529 -0.7387
  882MPD2    N112995   1.170   3.508  13.739  0.4318  0.6394 -0.6423
  882MPD2    H712996   1.248   3.485  13.678  1.1881 -0.8204  0.8904
  883MPD2     C12997   3.054   4.031  16.210  0.3443 -0.7143  0.6233
  883MPD2    C112998   3.142   3.986  16.110  0.5120 -0.8888 -0.1765
  883MPD2    C212999   3.280   3.992  16.135 -0.0395 -0.6939  0.5578
  883MPD2    C313000   3.332   4.049  16.246  0.5037  0.1286  0.7197
  883MPD2    C413001   3.246   4.091  16.348 -0.7342  0.0100 -0.3115
  883MPD2    C513002   3.111   4.071  16.327  0.3821  0.2857 -0.1411
  883MPD2     H13003   3.341   3.980  16.046 -1.0378 -3.6993  0.2867
  883MPD2    H113004   3.275   4.148  16.436 -0.1428 -1.3995  0.4059
  883MPD2    H213005   2.946   4.031  16.208  0.3623  1.8654 -0.8729
  883MPD2    H313006   3.034   4.104  16.396  0.4498  1.8398 -0.8318
  883MPD2     N13007   3.475   4.067  16.255 -0.4906  0.1928  0.7669
  883MPD2    H513008   3.528   4.021  16.182 -1.8341  1.6252 -1.1080
  883MPD2    N113009   3.100   3.947  15.985  0.0067  0.2454 -0.2519
  883MPD2    H713010   3.174   3.911  15.926 -0.0942  1.1290 -0.9041
  884MPD2     C13011   0.561   4.134  15.002 -0.2706  0.1552 -0.1952
  884MPD2    C113012   0.542   4.197  14.879  0.0152  0.3348  0.0237
  884MPD2    C213013   0.432   4.278  14.867  0.4137 -0.2146 -0.2679
  884MPD2    C313014   0.340   4.307  14.970  0.0277 -0.3041  0.3879
  884MPD2    C413015   0.360   4.237  15.091 -0.6080  0.0008  0.4581
  884MPD2    C513016   0.470   4.156  15.103  0.1551  0.4124 -0.2212
  884MPD2     H13017   0.420   4.312  14.764  1.4476  0.7970 -0.0425
  884MPD2    H113018   0.294   4.241  15.177 -0.2748 -0.8271  0.7506
  884MPD2    H213019   0.640   4.062  15.020 -1.4223 -1.5089 -1.7270
  884MPD2    H313020   0.490   4.127  15.205 -0.3690  0.7319 -0.0275
  884MPD2     N13021   0.221   4.377  14.942  0.5717  0.5117  0.1195
  884MPD2    H513022   0.214   4.420  14.850 -1.8293 -2.2411 -0.9807
  884MPD2    N113023   0.625   4.183  14.768  0.0344  0.4747 -0.1452
  884MPD2    H713024   0.594   4.221  14.679 -0.0421 -1.6303 -1.0079
  885MPD2     C13025   3.551   0.401   0.538 -0.1969  0.0772 -0.3845
  885MPD2    C113026   3.675   0.352   0.495  0.2627  0.1856  0.0386
  885MPD2    C213027   3.711   0.364   0.361  0.0017 -0.1479 -0.5919
  885MPD2    C313028   3.624   0.422   0.271  0.5886 -0.7368 -0.1040
  885MPD2    C413029   3.498   0.454   0.308 -0.1321 -0.5283  0.2080
  885MPD2    C513030   3.461   0.446   0.447 -0.2088  0.2391  0.9516
  885MPD2     H13031   3.810   0.341   0.322 -0.3078 -0.2617 -1.2995
  885MPD2    H113032   3.425   0.486   0.235 -0.8449  0.4730  1.3499
  885MPD2    H213033   3.523   0.394   0.643 -1.7592 -1.9725 -0.9407
  885MPD2    H313034   3.363   0.482   0.478  0.1185  0.5861  1.5646
  885MPD2     N13035   3.670   0.436   0.139 -0.4576  0.0336  0.5446
  885MPD2    H513036   3.752   0.385   0.108 -1.2647 -1.3285  0.6376
  885MPD2    N113037   3.753   0.312   0.598 -0.3321 -0.3106 -0.2082
  885MPD2    H713038   3.726   0.336   0.692 -1.2666  0.2556 -0.6242
  886MPD2     C13039   4.584   3.295  15.326  0.2854 -0.3265 -0.0661
  886MPD2    C113040   4.711   3.266  15.280 -0.1354 -0.3747 -0.8618
  886MPD2    C213041   0.014   3.329  15.163 -0.6218 -0.4850 -0.0960
  886MPD2    C313042   4.666   3.416  15.092  0.2494  0.5430  0.3431
  886MPD2    C413043   4.546   3.447  15.141  0.2021 -0.3432 -0.5783
  886MPD2    C513044   4.508   3.386  15.258  0.5341  0.2252 -0.0302
  886MPD2     H13045   0.106   3.291  15.121 -0.3889 -1.7318  1.5266
  886MPD2    H113046   4.476   3.513  15.090  1.7397  0.0866 -2.1468
  886MPD2    H213047   4.531   3.250  15.410  0.3999 -0.7108 -0.1969
  886MPD2    H313048   4.409   3.407  15.296  1.4320  1.4480  1.6638
  886MPD2     N13049   4.714   3.471  14.970 -0.3132  0.4888 -0.2484
  886MPD2    H513050   4.652   3.491  14.892  1.3839  2.6549 -1.0468
  886MPD2    N113051   0.064   3.159  15.328 -0.4678  0.3761 -0.1885
  886MPD2    H713052   0.152   3.146  15.281 -0.1822  0.0091  0.4475
  887MPD2     C13053   0.759   2.902  15.328  0.0611 -0.1935  0.3132
  887MPD2    C113054   0.666   2.999  15.361 -0.2018 -0.0797  0.1810
  887MPD2    C213055   0.695   3.134  15.362  0.0343 -0.4463  0.6139
  887MPD2    C313056   0.825   3.173  15.321 -0.0013 -0.4223 -0.3938
  887MPD2    C413057   0.912   3.075  15.275 -0.1840  0.0261 -0.0959
  887MPD2    C513058   0.886   2.941  15.274  0.4034 -0.7027 -0.4876
  887MPD2     H13059   0.629   3.212  15.397  1.6261 -0.3547  3.4096
  887MPD2    H113060   1.010   3.104  15.237 -1.1677  1.5847 -1.4646
  887MPD2    H213061   0.741   2.795  15.335  3.0384 -0.6908  0.2660
  887MPD2    H313062   0.953   2.868  15.230  1.0369 -0.6428  0.3825
  887MPD2     N13063   0.845   3.310  15.308 -0.4800  0.0858  0.1241
  887MPD2    H513064   0.762   3.368  15.319  0.0930  0.6229  1.5642
  887MPD2    N113065   0.532   2.975  15.403  0.3930 -0.4127  0.1430
  887MPD2    H713066   0.475   3.058  15.413  1.5880  0.1993  1.8453
  888MPD2     C13067   2.219   3.236  14.345  0.8241  0.2381  0.3393
  888MPD2    C113068   2.230   3.224  14.476 -0.2451  0.3671 -0.5745
  888MPD2    C213069   2.290   3.326  14.550 -0.2987 -0.2142 -0.1667
  888MPD2    C313070   2.341   3.440  14.496  0.3523 -0.2755 -0.3648
  888MPD2    C413071   2.344   3.441  14.358  0.4678  0.1484  0.1248
  888MPD2    C513072   2.286   3.341  14.285 -0.3695 -0.0723  0.1767
  888MPD2     H13073   2.286   3.329  14.659  2.1922  1.4882 -0.1219
  888MPD2    H113074   2.388   3.518  14.297  0.2354 -0.0212 -0.2609
  888MPD2    H213075   2.179   3.155  14.285 -0.3637  1.8345 -1.0523
  888MPD2    H313076   2.295   3.353  14.178 -0.1662 -0.1716  0.1828
  888MPD2     N13077   2.391   3.545  14.576 -0.1347  0.9403  0.2460
  888MPD2    H513078   2.403   3.529  14.676  0.5116 -1.6669 -0.2537
  888MPD2    N113079   2.169   3.120  14.551  0.2129  0.1538  0.3250
  888MPD2    H713080   2.194   3.126  14.649 -0.8133  0.9322  0.5452
  889MPD2     C13081   1.652   3.028  12.408 -0.1809  0.2489 -0.0321
  889MPD2    C113082   1.680   2.984  12.534 -0.2969 -0.1705 -0.2683
  889MPD2    C213083   1.648   3.055  12.647  0.4349 -0.2021  0.2140
  889MPD2    C313084   1.588   3.176  12.625  0.4881  0.0371  0.1398
  889MPD2    C413085   1.560   3.218  12.498  0.0244 -0.1995 -0.0302
  889MPD2    C513086   1.595   3.145  12.386 -0.1045  0.1702  0.5477
  889MPD2     H13087   1.660   3.026  12.750  1.8141  0.3104  0.2065
  889MPD2    H113088   1.512   3.314  12.485 -0.2784 -0.3453 -0.0012
  889MPD2    H213089   1.661   2.961  12.323  0.8200 -0.7661  0.8756
  889MPD2    H313090   1.560   3.182  12.290  0.4503 -0.9202 -0.0764
  889MPD2     N13091   1.557   3.255  12.743 -0.0080 -0.0873  0.1593
  889MPD2    H513092   1.590   3.220  12.832  0.0843 -0.0371  0.1455
  889MPD2    N113093   1.707   2.846  12.550  0.3383  0.1964  0.2568
  889MPD2    H713094   1.691   2.780  12.475 -0.6962 -1.3472  1.8367
  890MPD2     C13095   1.386   4.428  14.478  0.2130  0.0321 -0.3459
  890MPD2    C113096   1.428   4.497  14.595  0.3221 -0.1361  1.1731
  890MPD2    C213097   1.495   4.428  14.695  0.4223 -0.4677  0.3937
  890MPD2    C313098   1.547   4.305  14.677 -0.4700  0.8726  0.6051
  890MPD2    C413099   1.516   4.247  14.551  0.2014  1.0974  0.2628
  890MPD2    C513100   1.437   4.303  14.457 -0.1386  0.4913 -0.0214
  890MPD2     H13101   1.518   4.469  14.793 -1.9164  2.7501 -0.3745
  890MPD2    H113102   1.551   4.146  14.532  0.5824  1.2370  0.2255
  890MPD2    H213103   1.332   4.476  14.398  0.8036  0.0043 -0.7549
  890MPD2    H313104   1.418   4.253  14.363  0.8521  1.8039 -0.9259
  890MPD2     N13105   1.622   4.243  14.776  0.8448  0.3688  0.4678
  890MPD2    H513106   1.619   4.289  14.866 -1.1056 -0.1438  0.6665
  890MPD2    N113107   1.388   4.636  14.607  0.3022  0.2797  0.7882
  890MPD2    H713108   1.320   4.671  14.541  0.3938  0.5334  0.8276
  891MPD2     C13109   4.159   3.014  16.260 -0.0968  0.5339  0.3081
  891MPD2    C113110   4.149   3.121  16.340  0.1123 -0.0563 -0.1011
  891MPD2    C213111   4.235   3.139  16.442  0.3767  0.4418 -0.4700
  891MPD2    C313112   4.332   3.042  16.470 -0.1612  0.0836  1.4685
  891MPD2    C413113   4.339   2.924  16.397 -0.0231  0.4920 -0.5917
  891MPD2    C513114   4.243   2.911  16.298 -0.9269  0.3290  0.2258
  891MPD2     H13115   4.226   3.224  16.508 -0.7047 -1.1026  1.3889
  891MPD2    H113116   4.404   2.840  16.418 -3.1945 -1.2141  2.2805
  891MPD2    H213117   4.094   3.003  16.173 -0.8656  0.2340  0.9253
  891MPD2    H313118   4.243   2.822  16.237 -1.7290  1.2872 -1.1434
  891MPD2     N13119   4.418   3.068  16.581 -0.1313  0.2158 -0.2384
  891MPD2    H513120   4.412   3.161  16.622  3.0353  0.4909 -0.4253
  891MPD2    N113121   4.046   3.214  16.300 -0.3181 -0.8192  0.3593
  891MPD2    H713122   4.005   3.206  16.207 -0.9832  0.9841  0.4949
  892MPD2     C13123   0.464   3.756  14.634 -0.0205  0.0108  0.1994
  892MPD2    C113124   0.349   3.728  14.560 -0.2709  0.2157  0.3522
  892MPD2    C213125   0.358   3.628  14.463 -0.3525 -0.2296 -0.3910
  892MPD2    C313126   0.480   3.565  14.433  0.0690  0.1333  0.1510
  892MPD2    C413127   0.594   3.600  14.503  0.4111 -0.1374  0.3752
  892MPD2    C513128   0.579   3.690  14.599  0.4346  0.4412 -0.4042
  892MPD2     H13129   0.277   3.602  14.396 -1.6890  0.2026  1.0720
  892MPD2    H113130   0.691   3.562  14.472 -0.0195 -0.9046 -0.0477
  892MPD2    H213131   0.468   3.830  14.713  1.0586  1.1774 -0.9275
  892MPD2    H313132   0.671   3.712  14.651  0.8283  0.6825 -1.2090
  892MPD2     N13133   0.490   3.483  14.317 -0.0237  0.0941  0.0357
  892MPD2    H513134   0.582   3.452  14.287  1.3673  3.1367  1.1435
  892MPD2    N113135   0.226   3.797  14.579 -0.1006  0.6264 -0.3199
  892MPD2    H713136   0.150   3.771  14.517  1.7611 -0.5899 -2.0488
  893MPD2     C13137   2.352   2.352   1.290 -0.6022 -0.1691  0.0737
  893MPD2    C113138   2.286   2.437   1.210 -0.3172 -0.5865 -0.8311
  893MPD2    C213139   2.146   2.443   1.219 -0.6022  0.2656 -0.0509
  893MPD2    C313140   2.074   2.360   1.302  0.3743  0.0304  1.2691
  893MPD2    C413141   2.145   2.280   1.387 -0.4116  0.0589 -0.4126
  893MPD2    C513142   2.281   2.279   1.388 -0.3287 -0.5678  0.5587
  893MPD2     H13143   2.090   2.511   1.156 -3.3327 -2.0500 -0.1474
  893MPD2    H113144   2.106   2.197   1.445  0.3484  0.1543  0.2346
  893MPD2    H213145   2.459   2.347   1.302 -0.5146  1.2738 -0.2212
  893MPD2    H313146   2.335   2.203   1.443 -1.0569 -1.2637  0.3108
  893MPD2     N13147   1.931   2.350   1.297 -0.0086  0.2347  0.6068
  893MPD2    H513148   1.897   2.267   1.344  0.9365 -0.6908 -0.3647
  893MPD2    N113149   2.365   2.525   1.129 -0.1220  0.4245 -0.6067
  893MPD2    H713150   2.465   2.518   1.145 -0.3773 -1.5951  0.1329
  894MPD2     C13151   0.201   4.511   1.064  0.1498  0.6058  0.1058
  894MPD2    C113152   0.143   4.639   1.066  0.1280 -0.2096 -0.5531
  894MPD2    C213153   0.205   0.001   0.993  0.1964 -0.7066  0.0747
  894MPD2    C313154   0.326   4.729   0.929  0.0798  0.4346 -0.4388
  894MPD2    C413155   0.381   4.603   0.935 -0.2599  0.0277  0.0341
  894MPD2    C513156   0.318   4.498   0.997 -0.1310  0.1485  0.0853
  894MPD2     H13157   0.169   0.103   0.983 -0.6703 -0.5841  4.2453
  894MPD2    H113158   0.469   4.582   0.877  0.4183  2.5791  0.1511
  894MPD2    H213159   0.164   4.423   1.115  0.9795 -0.8743 -1.8542
  894MPD2    H313160   0.359   4.398   0.991 -1.0533 -0.3643  2.1383
  894MPD2     N13161   0.378   0.102   0.865  0.5578  0.3809  0.2410
  894MPD2    H513162   0.329   0.188   0.888 -0.1693  0.0241  0.0295
  894MPD2    N113163   0.021   4.674   1.123 -0.3864  1.2871  0.3417
  894MPD2    H713164   4.713   0.023   1.098  0.1704  1.6433  0.5598
  895MPD2     C13165   3.265   3.436  13.237 -0.3367  1.0064  0.1143
  895MPD2    C113166   3.233   3.324  13.305 -0.2805 -0.4289 -0.1088
  895MPD2    C213167   3.262   3.201  13.242 -0.4406 -0.4224 -0.5576
  895MPD2    C313168   3.327   3.191  13.121 -0.4651 -0.0488 -0.5501
  895MPD2    C413169   3.356   3.306  13.054 -0.6374 -0.8625  0.4449
  895MPD2    C513170   3.343   3.426  13.122  0.4008 -0.7559  0.3642
  895MPD2     H13171   3.218   3.110  13.282  1.5655 -0.5467  1.3556
  895MPD2    H113172   3.406   3.298  12.958 -1.2152  0.7678  0.0072
  895MPD2    H213173   3.245   3.539  13.263 -0.1721  0.5076  2.1787
  895MPD2    H313174   3.376   3.514  13.069 -2.4322  0.3513  0.4347
  895MPD2     N13175   3.346   3.060  13.072  0.2294  0.5292 -0.6759
  895MPD2    H513176   3.314   2.993  13.141 -2.2066  1.5969 -0.7995
  895MPD2    N113177   3.142   3.325  13.412  0.3416 -0.4899  0.0613
  895MPD2    H713178   3.069   3.255  13.414 -0.0971 -0.0003  0.8854
  896MPD2     C13179   1.855   1.357   1.043 -0.8728 -0.0289  0.0269
  896MPD2    C113180   1.879   1.249   0.955 -0.0599  0.7507 -0.5213
  896MPD2    C213181   1.789   1.141   0.947  0.3308 -0.5214  0.3602
  896MPD2    C313182   1.684   1.140   1.038  0.7212 -0.3923  0.0119
  896MPD2    C413183   1.646   1.260   1.105 -1.0327 -0.3465 -0.6466
  896MPD2    C513184   1.738   1.361   1.108  0.1324  0.2290 -0.0251
  896MPD2     H13185   1.803   1.046   0.897  2.7527 -0.4747  0.9510
  896MPD2    H113186   1.563   1.289   1.168  0.1143  1.6752 -0.0571
  896MPD2    H213187   1.930   1.433   1.057 -0.8926 -0.3287  1.7069
  896MPD2    H313188   1.721   1.447   1.171  0.3452 -0.0510  0.4224
  896MPD2     N13189   1.602   1.022   1.049 -0.3829  0.6031  0.1038
  896MPD2    H513190   1.639   0.938   1.007 -0.0249 -0.4104  2.4710
  896MPD2    N113191   2.003   1.256   0.875 -0.3710 -0.0431  0.1689
  896MPD2    H713192   2.055   1.342   0.886  1.9462 -1.1732 -1.9318
  897MPD2     C13193   2.643   2.641  10.905  0.2146 -0.0047 -0.7143
  897MPD2    C113194   2.611   2.774  10.885  0.4245 -0.1684 -0.2344
  897MPD2    C213195   2.501   2.825  10.946  0.6494 -0.2627 -0.0430
  897MPD2    C313196   2.423   2.755  11.033 -0.5931  0.5398 -0.4566
  897MPD2    C413197   2.455   2.624  11.056  0.0391  0.0457 -0.6502
  897MPD2    C513198   2.566   2.570  10.990 -0.3671  0.3153 -0.0884
  897MPD2     H13199   2.474   2.929  10.933  0.2031 -0.5408 -1.3146
  897MPD2    H113200   2.396   2.563  11.123  0.7422  0.3594  0.2601
  897MPD2    H213201   2.733   2.595  10.868 -0.2105 -1.5911  0.2419
  897MPD2    H313202   2.577   2.463  11.003 -1.9961  0.1766  0.1518
  897MPD2     N13203   2.320   2.826  11.099  0.9348  0.3368  0.1982
  897MPD2    H513204   2.294   2.911  11.051  1.2464  0.5458  0.3968
  897MPD2    N113205   2.698   2.856  10.803 -0.2188  0.4750 -0.0870
  897MPD2    H713206   2.785   2.813  10.771  0.0521  1.6700 -1.0041
  898MPD2     C13207   4.724   3.145  17.419  0.3102  0.1717 -0.9241
  898MPD2    C113208   0.084   3.225  17.371  0.2156 -0.1867 -0.3393
  898MPD2    C213209   0.058   3.345  17.313  0.2804  0.2079  0.7486
  898MPD2    C313210   4.674   3.402  17.329 -0.2307  0.5115  0.3845
  898MPD2    C413211   4.575   3.323  17.378  0.0142  0.4336 -0.1457
  898MPD2    C513212   4.599   3.198  17.422  0.0404 -0.9047 -0.5458
  898MPD2     H13213   0.139   3.402  17.268  0.2358  0.4941  1.0281
  898MPD2    H113214   4.474   3.362  17.386 -1.2426 -2.7896 -0.1392
  898MPD2    H213215   4.730   3.044  17.456  0.8425  1.1983  1.7924
  898MPD2    H313216   4.527   3.130  17.463  0.6127  0.3755  2.5633
  898MPD2     N13217   4.662   3.544  17.298  0.1650 -0.4798 -0.6836
  898MPD2    H513218   0.003   3.583  17.250 -1.0014  1.0180 -1.4088
  898MPD2    N113219   0.214   3.179  17.359  0.1469  0.3108 -0.1676
  898MPD2    H713220   0.286   3.241  17.324  2.8834 -2.4128  0.5568
  899MPD2     C13221   1.137   3.901  17.048  0.0276 -0.2789  0.0210
  899MPD2    C113222   1.121   3.990  17.154 -0.1369  0.2018 -0.0919
  899MPD2    C213223   1.133   3.941  17.286 -0.2599  0.0872 -0.3353
  899MPD2    C313224   1.152   3.813  17.309  0.0644  0.1711 -0.4749
  899MPD2    C413225   1.152   3.723  17.206 -0.3092  0.6140 -0.1059
  899MPD2    C513226   1.147   3.771  17.079 -0.3275 -0.4169  0.2314
  899MPD2     H13227   1.123   4.020  17.359  2.7866  0.1330  0.0301
  899MPD2    H113228   1.153   3.615  17.217  0.4478  0.5813 -0.5108
  899MPD2    H213229   1.125   3.927  16.944  0.1708 -1.7872 -0.3664
  899MPD2    H313230   1.132   3.694  17.004  0.8390  1.9105 -2.3923
  899MPD2     N13231   1.154   3.760  17.439 -0.0140 -0.4074  0.4671
  899MPD2    H513232   1.122   3.666  17.457 -2.0952  0.0535 -0.7966
  899MPD2    N113233   1.102   4.125  17.125 -0.2162  0.3477 -0.0831
  899MPD2    H713234   1.080   4.139  17.027 -0.4941  1.2060  0.0986
  900MPD2     C13235   0.464   1.227  12.397  0.4308  0.1133 -0.1859
  900MPD2    C113236   0.388   1.136  12.335 -0.2602  0.1182 -0.2072
  900MPD2    C213237   0.271   1.177  12.269  0.2098 -0.7156  0.2916
  900MPD2    C313238   0.233   1.310  12.265 -0.3587 -0.0754  0.1651
  900MPD2    C413239   0.308   1.398  12.340 -0.0771  0.1615 -0.0274
  900MPD2    C513240   0.420   1.357  12.406 -1.2690 -0.1134 -0.5737
  900MPD2     H13241   0.205   1.110  12.216 -0.9641 -1.1915  2.3579
  900MPD2    H113242   0.285   1.503  12.352  1.0150  0.2936  0.9433
  900MPD2    H213243   0.554   1.197  12.448 -0.3017 -0.6174  0.6698
  900MPD2    H313244   0.481   1.433  12.455  0.2936 -1.2074 -0.8257
  900MPD2     N13245   0.108   1.339  12.212  0.1592 -1.0292 -0.6977
  900MPD2    H513246   0.051   1.261  12.182  0.5183 -0.6414 -2.3655
  900MPD2    N113247   0.427   1.000  12.348  0.3875  0.7386 -0.3296
  900MPD2    H713248   0.505   0.984  12.411  0.2473 -0.6754 -0.5102
  901MPD2     C13249   0.188   0.079  12.847 -0.4923 -0.2484 -0.0764
  901MPD2    C113250   0.309   0.064  12.778  0.4625 -0.5433  0.4417
  901MPD2    C213251   0.364   0.166  12.706  0.6581  0.8105  0.2905
  901MPD2    C313252   0.287   0.280  12.678  0.1814 -0.0828 -0.6440
  901MPD2    C413253   0.156   0.285  12.728 -0.1343  0.2679  0.6587
  901MPD2    C513254   0.110   0.190  12.815  0.3495  0.2029  0.2854
  901MPD2     H13255   0.462   0.167  12.660  0.2241  1.6148 -0.6375
  901MPD2    H113256   0.085   0.366  12.713  1.1324  1.1667 -0.4471
  901MPD2    H213257   0.144   4.737  12.904 -0.6191 -1.0233 -1.2818
  901MPD2    H313258   0.008   0.197  12.852 -0.8461  1.0084 -3.1628
  901MPD2     N13259   0.353   0.373  12.595 -0.1473 -0.6201 -0.1998
  901MPD2    H513260   0.452   0.363  12.579  0.2117 -0.5793  2.0261
  901MPD2    N113261   0.370   4.676  12.782  0.1988  0.4127  0.1939
  901MPD2    H713262   0.328   4.596  12.828 -0.8667  1.9572  1.8708
  902MPD2     C13263   3.769   4.205  12.852 -0.2107 -0.3677  0.3404
  902MPD2    C113264   3.891   4.261  12.811  0.4412 -0.5545 -0.7850
  902MPD2    C213265   4.001   4.179  12.791  0.3464 -0.4555  0.3588
  902MPD2    C313266   3.984   4.046  12.781 -0.3695 -0.2452  0.0459
  902MPD2    C413267   3.864   3.993  12.823  0.2032 -0.1260 -0.5398
  902MPD2    C513268   3.757   4.069  12.855  0.4445 -0.4876  0.6654
  902MPD2     H13269   4.095   4.225  12.763  0.8883 -1.7361  0.0442
  902MPD2    H113270   3.851   3.885  12.823  1.2394 -0.2464 -0.5253
  902MPD2    H213271   3.680   4.266  12.865  0.4635  1.2568 -2.4530
  902MPD2    H313272   3.667   4.027  12.899 -0.6680  0.4770 -0.6958
  902MPD2     N13273   4.080   3.948  12.725  0.1295  0.0934 -0.1651
  902MPD2    H513274   4.062   3.848  12.727  1.8032 -0.2174 -0.4266
  902MPD2    N113275   3.900   4.401  12.781 -0.4547  0.2818 -0.2311
  902MPD2    H713276   3.810   4.440  12.754 -0.5024  0.3297 -0.0049
  903MPD2     C13277   4.281   3.797  11.892  0.3666 -0.0313 -0.9123
  903MPD2    C113278   4.226   3.867  11.997  0.3146 -0.2387  0.0339
  903MPD2    C213279   4.104   3.937  11.981  0.1313 -0.5664 -0.8484
  903MPD2    C313280   4.026   3.906  11.867 -0.4431  0.2431 -0.0476
  903MPD2    C413281   4.082   3.839  11.766 -0.0858  0.3730 -0.1592
  903MPD2    C513282   4.209   3.785  11.777 -0.3345 -0.8652 -0.1382
  903MPD2     H13283   4.059   3.990  12.064  0.2344  0.6216 -1.5483
  903MPD2    H113284   4.030   3.810  11.675  1.9161  1.0108 -1.4970
  903MPD2    H213285   4.372   3.740  11.902  0.2899 -0.0336 -0.2240
  903MPD2    H313286   4.256   3.734  11.693  1.1266  0.0236  0.1407
  903MPD2     N13287   3.889   3.945  11.861 -0.4497 -0.6870  0.4236
  903MPD2    H513288   3.850   3.992  11.942  1.6234 -0.9030  1.5593
  903MPD2    N113289   4.295   3.861  12.121  0.0179 -0.2432  0.1639
  903MPD2    H713290   4.369   3.792  12.124  1.1501  0.9379 -0.9831
  904MPD2     C13291   3.650   2.163  13.769  0.6036  0.0565  0.0262
  904MPD2    C113292   3.670   2.292  13.776 -0.3245  0.1920  0.1273
  904MPD2    C213293   3.799   2.335  13.762 -0.8416 -0.2162 -0.0134
  904MPD2    C313294   3.908   2.253  13.740 -0.8370 -0.1582 -0.1612
  904MPD2    C413295   3.891   2.121  13.732  0.0180  0.0671  0.5870
  904MPD2    C513296   3.761   2.076  13.753 -0.4011  0.1896  0.1054
  904MPD2     H13297   3.816   2.434  13.800 -1.5606 -0.6275  1.3784
  904MPD2    H113298   3.973   2.050  13.728  0.4580  0.6439 -0.6950
  904MPD2    H213299   3.553   2.116  13.783 -0.2454  1.8194  0.0257
  904MPD2    H313300   3.747   1.969  13.751 -0.5269  0.1762  1.7914
  904MPD2     N13301   4.035   2.320  13.713  0.2842 -0.3816 -0.7914
  904MPD2    H513302   4.035   2.421  13.719  0.4555 -0.4303  0.0995
  904MPD2    N113303   3.570   2.382  13.814 -0.0373  0.1521  0.0169
  904MPD2    H713304   3.611   2.475  13.821 -1.2761  0.7235 -0.4388
  905MPD2     C13305   2.913   2.744  13.515  0.1363 -0.1441 -0.5266
  905MPD2    C113306   3.024   2.664  13.505 -0.2187  0.4171 -0.5463
  905MPD2    C213307   3.081   2.639  13.388 -0.2915  0.3124  0.3739
  905MPD2    C313308   3.034   2.708  13.278 -0.0948  0.0241  1.0816
  905MPD2    C413309   2.914   2.780  13.287 -0.6244 -0.0508  0.1970
  905MPD2    C513310   2.847   2.790  13.407  0.3027  0.4605 -0.3872
  905MPD2     H13311   3.159   2.565  13.392 -0.5238 -0.0093 -1.1337
  905MPD2    H113312   2.880   2.839  13.202 -1.6227  0.1726  0.7545
  905MPD2    H213313   2.858   2.757  13.607 -0.1495 -1.5662 -0.4825
  905MPD2    H313314   2.765   2.861  13.416 -0.9633 -1.1545  0.7015
  905MPD2     N13315   3.093   2.711  13.147 -0.1183 -0.2108  0.2206
  905MPD2    H513316   3.037   2.759  13.077  0.3655 -5.4823 -3.8007
  905MPD2    N113317   3.081   2.602  13.617 -0.7993 -0.5355 -0.0050
  905MPD2    H713318   3.168   2.554  13.600 -0.5198 -0.1680  0.3743
  906MPD2     C13319   1.036   3.365  11.384  0.2656  0.1271 -0.2236
  906MPD2    C113320   1.145   3.315  11.309 -0.1486  0.0764  0.4711
  906MPD2    C213321   1.182   3.180  11.325 -0.2632  0.2211  0.4464
  906MPD2    C313322   1.119   3.096  11.414 -0.6021 -0.5115  0.1774
  906MPD2    C413323   1.016   3.153  11.496 -0.1851 -0.3023 -0.1288
  906MPD2    C513324   0.982   3.283  11.480  0.2860  0.3047 -0.0539
  906MPD2     H13325   1.256   3.144  11.254  0.6591  0.1518  1.4367
  906MPD2    H113326   0.974   3.099  11.580  2.0745 -1.9138 -0.0474
  906MPD2    H213327   1.008   3.470  11.386  0.0561  0.0735 -0.3927
  906MPD2    H313328   0.918   3.318  11.560  1.1544  0.1529  0.7057
  906MPD2     N13329   1.149   2.960  11.432 -0.0347  0.1281 -0.2236
  906MPD2    H513330   1.088   2.911  11.497 -3.0683 -0.5606 -3.5270
  906MPD2    N113331   1.217   3.391  11.217 -0.1054  0.1174  0.5223
  906MPD2    H713332   1.306   3.358  11.181 -1.2103 -2.2466 -0.0676
  907MPD2     C13333   4.600   1.875  15.375 -0.9985  0.1357  0.8231
  907MPD2    C113334   4.698   1.790  15.345  0.8138  0.3610  0.1900
  907MPD2    C213335   0.050   1.751  15.439 -0.8309  0.4077 -0.3433
  907MPD2    C313336   0.033   1.789  15.566  0.2435  0.4220 -0.4879
  907MPD2    C413337   4.674   1.883  15.600  0.1367 -0.5435 -0.1350
  907MPD2    C513338   4.594   1.934  15.502 -0.1852  0.1340 -0.2228
  907MPD2     H13339   0.138   1.694  15.414 -2.1202 -1.7558  0.0670
  907MPD2    H113340   4.668   1.923  15.700  0.4808  1.8711 -1.0868
  907MPD2    H213341   4.533   1.913  15.299 -0.2515  0.3991  0.2957
  907MPD2    H313342   4.523   2.015  15.517 -1.4423 -1.1969  1.0598
  907MPD2     N13343   0.130   1.741  15.662  0.0956 -0.5604  0.2860
  907MPD2    H513344   0.193   1.670  15.627  0.6705 -0.2019  0.5906
  907MPD2    N113345   4.707   1.731  15.213 -0.0766  0.0449 -0.0798
  907MPD2    H713346   0.043   1.665  15.191  0.4760  0.9471 -0.8932
  908MPD2     C13347   3.072   2.883   9.999 -0.1685 -0.1066 -0.3418
  908MPD2    C113348   2.941   2.878  10.043 -0.1498  0.4120 -0.6139
  908MPD2    C213349   2.914   2.900  10.177  0.2325  0.0165 -0.1096
  908MPD2    C313350   3.017   2.931  10.266 -0.2622 -0.8872 -0.9919
  908MPD2    C413351   3.143   2.926  10.218  0.5178  1.0757 -0.0998
  908MPD2    C513352   3.172   2.902  10.089  0.4284 -0.2365  0.1736
  908MPD2     H13353   2.813   2.901  10.216 -0.3784 -1.1577 -1.6949
  908MPD2    H113354   3.228   2.929  10.286 -0.5524  1.0326  1.2333
  908MPD2    H213355   3.100   2.854   9.898 -1.7969  0.1474 -0.8552
  908MPD2    H313356   3.272   2.888  10.049  1.4072  0.5140  2.3592
  908MPD2     N13357   2.982   2.960  10.400  0.3283 -0.2066 -0.2269
  908MPD2    H513358   2.882   2.967  10.419  0.2501  1.8535 -1.3957
  908MPD2    N113359   2.838   2.869   9.946  0.5474  0.2250  0.5071
  908MPD2    H713360   2.863   2.875   9.848  0.1327 -0.4003  0.3623
  909MPD2     C13361   2.916   0.887  11.527 -0.4551 -0.2672 -0.1667
  909MPD2    C113362   2.904   1.014  11.571 -0.2527 -0.3451 -0.5942
  909MPD2    C213363   2.812   1.044  11.667  0.3922 -0.4773  0.5287
  909MPD2    C313364   2.741   0.948  11.735  0.1107 -0.2876 -0.1111
  909MPD2    C413365   2.747   0.817  11.688  0.4399  0.3761 -0.2419
  909MPD2    C513366   2.833   0.794  11.585  0.0791  0.1221 -0.0476
  909MPD2     H13367   2.810   1.143  11.713 -0.1179 -0.8320  1.2655
  909MPD2    H113368   2.682   0.738  11.724  0.2154  0.7972  0.2696
  909MPD2    H213369   2.982   0.852  11.448  1.6459  1.2944  0.9328
  909MPD2    H313370   2.833   0.693  11.547  0.6003  0.1872 -0.2220
  909MPD2     N13371   2.674   0.990  11.850  0.7004 -0.2528 -0.1678
  909MPD2    H513372   2.663   1.090  11.868  0.2083 -0.3731  0.2026
  909MPD2    N113373   2.989   1.119  11.527  0.2852 -0.5421  0.2096
  909MPD2    H713374   2.970   1.205  11.577 -0.6269 -0.2969 -0.5548
  910MPD2     C13375   4.599   2.199  15.745  0.6356  0.5491 -0.8874
  910MPD2    C113376   4.472   2.143  15.754  0.2548  0.1128  0.2989
  910MPD2    C213377   4.378   2.190  15.663  0.2872 -0.3107 -0.0345
  910MPD2    C313378   4.409   2.279  15.564  0.4226 -0.4099  0.8879
  910MPD2    C413379   4.539   2.335  15.563 -0.1507  0.2380  0.0814
  910MPD2    C513380   4.637   2.287  15.647 -0.0095 -0.5035 -0.8840
  910MPD2     H13381   4.279   2.147  15.673  0.7944 -1.0998  1.5326
  910MPD2    H113382   4.572   2.391  15.476  0.4739  2.5906  1.8485
  910MPD2    H213383   4.680   2.167  15.810  2.0211  0.5670 -2.5992
  910MPD2    H313384   0.003   2.315  15.644 -0.0051 -0.6057 -1.6895
  910MPD2     N13385   4.327   2.296  15.452  0.1682 -0.2840  0.9069
  910MPD2    H513386   4.377   2.358  15.389 -2.1173 -0.4075 -1.0599
  910MPD2    N113387   4.441   2.050  15.849  0.4716 -0.0283 -0.0469
  910MPD2    H713388   4.346   2.013  15.851  0.1377  0.8118 -0.1137
  911MPD2     C13389   2.407   3.237  16.385 -0.0347  0.1167  0.3085
  911MPD2    C113390   2.424   3.237  16.252 -0.1990 -0.5871  0.1348
  911MPD2    C213391   2.312   3.266  16.174  0.0559 -0.6885 -0.2126
  911MPD2    C313392   2.183   3.292  16.226 -0.4467  0.3934 -0.2067
  911MPD2    C413393   2.171   3.287  16.362 -0.1933  0.2694  0.8544
  911MPD2    C513394   2.279   3.253  16.437 -0.0505 -0.1860 -0.2744
  911MPD2     H13395   2.325   3.254  16.067  2.2625  0.9290 -0.1251
  911MPD2    H113396   2.078   3.280  16.417 -2.0020  2.6674 -1.8554
  911MPD2    H213397   2.485   3.208  16.455 -0.6461 -2.8465 -0.2399
  911MPD2    H313398   2.268   3.243  16.544 -3.1464  0.1679 -0.5747
  911MPD2     N13399   2.069   3.304  16.147  0.3416 -0.3884 -0.2318
  911MPD2    H513400   1.980   3.317  16.195  0.7834 -1.3471  0.8654
  911MPD2    N113401   2.554   3.215  16.198  0.1100 -0.0230 -0.4158
  911MPD2    H713402   2.622   3.181  16.266 -1.8718 -0.9763  1.0986
  912MPD2     C13403   1.471   2.814  15.739  0.2183  0.8137  0.2168
  912MPD2    C113404   1.550   2.840  15.843  0.6288 -0.3885  0.4120
  912MPD2    C213405   1.542   2.752  15.953 -0.5582 -0.4482 -0.0067
  912MPD2    C313406   1.434   2.672  15.975 -0.4403 -0.6200  0.2728
  912MPD2    C413407   1.344   2.664  15.871 -0.1627 -0.4204 -0.0431
  912MPD2    C513408   1.367   2.731  15.757  0.2377 -0.4581  0.3178
  912MPD2     H13409   1.615   2.760  16.032 -0.0986  0.7632 -0.5429
  912MPD2    H113410   1.262   2.594  15.883 -0.8222  0.4232  0.3684
  912MPD2    H213411   1.494   2.866  15.647 -0.9072  0.5073 -0.2393
  912MPD2    H313412   1.298   2.719  15.674  0.2973 -1.3643  0.4029
  912MPD2     N13413   1.441   2.578  16.084 -0.3073  0.5739 -0.0120
  912MPD2    H513414   1.513   2.592  16.154  1.0628  0.5718 -1.4531
  912MPD2    N113415   1.645   2.942  15.833 -0.2939 -1.3218  1.0893
  912MPD2    H713416   1.648   2.989  15.743 -0.8390  0.1163  1.8168
  913MPD2     C13417   2.197   0.064  10.322 -0.4082 -0.2446 -0.4174
  913MPD2    C113418   2.267   0.169  10.377  0.4682 -0.1392 -0.0537
  913MPD2    C213419   2.319   0.259  10.282 -0.1208  0.7822 -0.0360
  913MPD2    C313420   2.287   0.260  10.145 -0.5948  0.1466 -0.0453
  913MPD2    C413421   2.204   0.159  10.104  0.0323  0.6408  0.0089
  913MPD2    C513422   2.169   0.061  10.192 -0.3505  0.4822 -0.0751
  913MPD2     H13423   2.382   0.339  10.320  0.3372  0.8888 -1.0138
  913MPD2    H113424   2.170   0.150  10.001 -1.1807 -1.0989  0.5718
  913MPD2    H213425   2.159   4.725  10.388 -0.9796  0.0172 -0.4330
  913MPD2    H313426   2.100   4.726  10.153 -1.1781  1.0113  0.3991
  913MPD2     N13427   2.325   0.368  10.057  0.1118  0.2802 -0.2029
  913MPD2    H513428   2.280   0.362   9.967 -1.0067 -1.5563  0.4689
  913MPD2    N113429   2.287   0.178  10.514 -0.1321  0.2355 -0.0276
  913MPD2    H713430   2.245   0.104  10.570  0.0136 -0.3893 -0.7318
  914MPD2     C13431   0.134   4.662  12.007  0.0274  0.3966  0.9683
  914MPD2    C113432   0.182   0.016  12.097  0.0206  0.1385  0.2545
  914MPD2    C213433   0.240   4.709  12.216 -0.8640  0.0914  0.5474
  914MPD2    C313434   0.256   4.577  12.235  0.4340  0.4857 -0.1826
  914MPD2    C413435   0.209   4.484  12.143  0.0576 -0.1560  0.7068
  914MPD2    C513436   0.138   4.526  12.035  0.5674  0.3000  0.0413
  914MPD2     H13437   0.274   0.041  12.290  1.2607 -0.3968  0.0403
  914MPD2    H113438   0.217   4.377  12.161  0.8865 -0.3314 -0.6832
  914MPD2    H213439   0.091   4.683  11.910 -2.5645 -2.4603  1.5143
  914MPD2    H313440   0.099   4.461  11.958  1.9538  0.1050 -0.4849
  914MPD2     N13441   0.324   4.538  12.352  0.5769  0.0167  0.5485
  914MPD2    H513442   0.356   4.609  12.418 -2.7498  1.2426  0.8056
  914MPD2    N113443   0.172   0.153  12.076  0.0049  0.1889  0.4562
  914MPD2    H713444   0.231   0.207  12.138 -1.2608  0.2401  1.6039
  915MPD2     C13445   3.835   4.355  15.649  0.0170 -0.3514 -0.5338
  915MPD2    C113446   3.725   4.432  15.609 -0.1064  0.3011  0.4286
  915MPD2    C213447   3.639   4.478  15.710  0.8705 -0.2865 -0.1149
  915MPD2    C313448   3.667   4.450  15.840 -0.5007  0.1669  0.2302
  915MPD2    C413449   3.771   4.368  15.873  0.3090 -0.3347 -0.3239
  915MPD2    C513450   3.863   4.329  15.779 -0.0479 -0.2534  0.3302
  915MPD2     H13451   3.545   4.529  15.689  0.8295  0.1575  1.1598
  915MPD2    H113452   3.778   4.326  15.972  0.5353 -0.9815 -0.6134
  915MPD2    H213453   3.908   4.315  15.579 -0.3728 -1.6334 -0.1948
  915MPD2    H313454   3.939   4.256  15.802 -1.6557 -1.8258  0.5911
  915MPD2     N13455   3.588   4.514  15.934  0.0089  0.6887 -0.1617
  915MPD2    H513456   3.515   4.579  15.905 -0.1225  0.7158  0.2316
  915MPD2    N113457   3.705   4.451  15.468 -0.2527 -0.2464 -0.7470
  915MPD2    H713458   3.771   4.411  15.402  1.7610 -2.0066  2.3355
  916MPD2     C13459   0.986   2.797  15.655  0.2091 -0.3922  0.2264
  916MPD2    C113460   1.092   2.869  15.619  0.4422 -0.0577  0.0232
  916MPD2    C213461   1.162   2.842  15.504 -0.4826  0.1357  0.7810
  916MPD2    C313462   1.117   2.740  15.414  0.2188 -0.4245  0.9253
  916MPD2    C413463   1.007   2.671  15.452 -0.2613 -0.4773  0.2301
  916MPD2    C513464   0.945   2.698  15.571 -0.0304 -0.0995  0.1102
  916MPD2     H13465   1.258   2.889  15.488 -2.4099  3.6509 -0.6370
  916MPD2    H113466   0.957   2.603  15.384  0.4396  0.2089 -0.9569
  916MPD2    H213467   0.928   2.803  15.745 -0.1387 -1.8187  0.0884
  916MPD2    H313468   0.854   2.642  15.589 -1.0658  0.7150 -2.5334
  916MPD2     N13469   1.189   2.712  15.296 -0.3994 -0.2275 -0.7312
  916MPD2    H513470   1.276   2.761  15.280 -0.2277 -0.3678 -0.2219
  916MPD2    N113471   1.142   2.956  15.718  0.1181  0.5526  0.2176
  916MPD2    H713472   1.100   2.952  15.811 -0.0369  0.4797  0.1443
  917MPD2     C13473   1.393   0.514  11.143 -0.4900  0.9904  0.8192
  917MPD2    C113474   1.457   0.559  11.256  0.3222 -0.1329 -0.2934
  917MPD2    C213475   1.523   0.684  11.268 -0.2073 -0.1098 -0.1798
  917MPD2    C313476   1.511   0.768  11.159 -0.8184 -0.5033 -0.2558
  917MPD2    C413477   1.437   0.728  11.050  0.7578  0.1817 -0.2038
  917MPD2    C513478   1.389   0.606  11.040 -0.6948  0.6451  0.4297
  917MPD2     H13479   1.585   0.701  11.356 -1.4088 -1.4973  0.9359
  917MPD2    H113480   1.426   0.793  10.963 -0.5890  1.2637  0.7754
  917MPD2    H213481   1.339   0.422  11.127 -0.7505  1.2375  0.2636
  917MPD2    H313482   1.329   0.587  10.952  0.7927  0.4879 -0.5435
  917MPD2     N13483   1.582   0.890  11.152  0.3619  0.0317  0.0652
  917MPD2    H513484   1.607   0.924  11.059  1.1857  0.8106  0.5757
  917MPD2    N113485   1.454   0.481  11.371  0.0337  0.6708 -0.4804
  917MPD2    H713486   1.430   0.384  11.357  1.5849  0.2817 -0.3526
  918MPD2     C13487   1.572   0.652  12.337 -0.2198 -0.1754 -0.2333
  918MPD2    C113488   1.662   0.625  12.236  0.5925  1.1606 -0.5261
  918MPD2    C213489   1.613   0.571  12.119  0.7209 -0.1545  0.7911
  918MPD2    C313490   1.490   0.534  12.102 -0.0677 -0.2923 -0.3486
  918MPD2    C413491   1.403   0.565  12.200 -0.8215 -0.2519 -0.1229
  918MPD2    C513492   1.440   0.621  12.317  0.4148 -0.8465  0.5600
  918MPD2     H13493   1.687   0.544  12.044  0.5715  2.0384 -0.1427
  918MPD2    H113494   1.297   0.547  12.185 -1.0434  1.6055 -0.8289
  918MPD2    H213495   1.591   0.692  12.435 -1.2275 -0.0117 -0.0991
  918MPD2    H313496   1.369   0.653  12.392 -1.4827 -1.8170 -0.8329
  918MPD2     N13497   1.460   0.470  11.987  0.3500  0.3655  0.4773
  918MPD2    H513498   1.529   0.468  11.913  0.4396 -0.9146  0.5986
  918MPD2    N113499   1.799   0.660  12.250 -0.3007  0.2284 -0.3650
  918MPD2    H713500   1.856   0.667  12.167 -1.6858  0.4886 -1.2965
  919MPD2     C13501   1.878   4.610  11.981 -0.0415 -0.1326  0.2655
  919MPD2    C113502   1.896   4.486  11.918 -0.7339 -0.4881  0.0458
  919MPD2    C213503   1.915   4.485  11.784 -0.1474 -0.2079  0.2294
  919MPD2    C313504   1.939   4.602  11.708  0.2084 -0.4678  0.3739
  919MPD2    C413505   1.930   4.723  11.779  0.1325 -0.2608  0.3784
  919MPD2    C513506   1.893   4.726  11.911 -0.2560 -0.0486  0.9429
  919MPD2     H13507   1.926   4.396  11.723 -0.1262  0.6914 -1.0942
  919MPD2    H113508   1.955   0.077  11.729  1.6604  0.2351  2.0378
  919MPD2    H213509   1.853   4.617  12.086 -2.0356 -0.5230 -0.1807
  919MPD2    H313510   1.911   0.078  11.969  0.4812 -0.1722  0.9126
  919MPD2     N13511   1.983   4.602  11.574  0.1487 -0.8790 -0.0210
  919MPD2    H513512   2.001   4.694  11.534 -2.1510 -0.9734 -1.2592
  919MPD2    N113513   1.888   4.369  11.988  0.3676 -0.0643 -0.0074
  919MPD2    H713514   1.915   4.284  11.940 -0.1207 -0.1709 -0.0898
  920MPD2     C13515   1.975   0.316  10.695 -0.5765  0.3421  0.3036
  920MPD2    C113516   1.941   0.189  10.669  0.1065  0.1250 -0.2640
  920MPD2    C213517   1.937   0.097  10.772  0.5926 -0.3223 -0.2597
  920MPD2    C313518   1.980   0.131  10.897  0.0192 -0.3960 -0.7532
  920MPD2    C413519   2.019   0.263  10.921  0.6336 -0.7868 -0.1107
  920MPD2    C513520   2.009   0.356  10.818  0.7277  0.2364 -1.0745
  920MPD2     H13521   1.909   4.732  10.765  0.3677 -0.1555 -1.8112
  920MPD2    H113522   2.058   0.310  11.010 -0.0299 -1.6838  0.6530
  920MPD2    H213523   1.977   0.394  10.620 -0.6652  1.3109  1.3247
  920MPD2    H313524   2.030   0.462  10.830  0.8689  0.1178 -0.2755
  920MPD2     N13525   1.999   0.027  10.985  0.1360  0.0510 -0.0533
  920MPD2    H513526   2.002   4.673  10.943  3.0465  1.1749 -2.3465
  920MPD2    N113527   1.891   0.150  10.546 -0.4601  0.2529  0.0284
  920MPD2    H713528   1.865   0.053  10.531  1.4336 -0.2228 -0.2969
  921MPD2     C13529   3.271   3.664  16.473 -0.4976  0.4761 -0.2756
  921MPD2    C113530   3.318   3.540  16.445 -0.9915 -0.1491 -0.3890
  921MPD2    C213531   3.229   3.443  16.400 -0.7497 -0.7653 -0.0435
  921MPD2    C313532   3.112   3.494  16.346  0.3222  0.1057  0.5719
  921MPD2    C413533   3.063   3.621  16.379 -1.1368  0.0019 -0.3539
  921MPD2    C513534   3.142   3.702  16.453 -0.3824  0.7647  0.2702
  921MPD2     H13535   3.260   3.340  16.381  1.3062  0.1698 -1.7717
  921MPD2    H113536   2.969   3.667  16.353 -0.8903 -0.7238 -2.5536
  921MPD2    H213537   3.350   3.730  16.507 -0.8249  0.3891  0.6620
  921MPD2    H313538   3.091   3.795  16.474 -3.0799 -0.8621  0.9180
  921MPD2     N13539   3.029   3.423  16.262  0.0434 -0.0796  0.1585
  921MPD2    H513540   2.951   3.472  16.219 -1.1294 -1.1930  0.9995
  921MPD2    N113541   3.450   3.513  16.457 -0.0175  0.2435 -0.2248
  921MPD2    H713542   3.517   3.588  16.456 -0.3638  0.5154 -1.9400
  922MPD2     C13543   4.489   1.262  16.761  0.2859 -0.0408 -0.4684
  922MPD2    C113544   4.460   1.301  16.892 -0.1250  0.0038  0.2034
  922MPD2    C213545   4.431   1.207  16.990  0.0106 -0.0904  0.1613
  922MPD2    C313546   4.435   1.077  16.966 -0.5276  0.7076 -0.0583
  922MPD2    C413547   4.464   1.035  16.834  0.0476  0.7113  0.3867
  922MPD2    C513548   4.491   1.126  16.735  0.5239  0.3710  0.2491
  922MPD2     H13549   4.403   1.245  17.088  0.3134 -1.8707  0.9366
  922MPD2    H113550   4.442   0.932  16.805  0.1546  1.2481 -1.5889
  922MPD2    H213551   4.516   1.335  16.685  0.0226 -0.9657 -1.4468
  922MPD2    H313552   4.504   1.086  16.635 -0.2392  0.3561  0.1552
  922MPD2     N13553   4.399   0.999  17.070 -0.0673 -0.0511  0.1904
  922MPD2    H513554   4.366   1.044  17.155 -1.6160 -0.0196 -0.4356
  922MPD2    N113555   4.464   1.431  16.939  0.7620  0.0158 -0.0130
  922MPD2    H713556   4.461   1.444  17.040  0.5552 -2.5161  0.3147
  923MPD2     C13557   4.631   2.865   8.923 -0.4332  0.0171 -0.1207
  923MPD2    C113558   4.576   2.968   8.997  0.1142  0.4364  0.9091
  923MPD2    C213559   4.647   3.014   9.100  0.0201 -0.1045 -0.0313
  923MPD2    C313560   0.038   2.971   9.121 -0.7576  0.0139  0.3675
  923MPD2    C413561   0.095   2.876   9.040  0.1586 -1.4774  0.0627
  923MPD2    C513562   0.023   2.821   8.938  0.3077 -0.3803  0.2625
  923MPD2     H13563   4.613   3.104   9.150  0.4365  1.2982 -2.2679
  923MPD2    H113564   0.193   2.837   9.064  0.5821  0.3017  1.2475
  923MPD2    H213565   4.573   2.817   8.845 -1.6614 -0.1294  0.8895
  923MPD2    H313566   0.055   2.739   8.874 -3.2038 -2.4781  1.2002
  923MPD2     N13567   0.119   3.028   9.217  0.6707 -0.2047  0.6952
  923MPD2    H513568   0.210   2.982   9.223  0.4454 -1.0307 -2.2309
  923MPD2    N113569   4.446   3.016   8.965  0.5759 -0.3879  0.7572
  923MPD2    H713570   4.405   2.992   8.875  0.0600 -2.8563  1.6314
  924MPD2     C13571   0.509   1.046  15.640 -0.1473 -0.5197 -0.1163
  924MPD2    C113572   0.508   1.081  15.774 -0.6238  0.5154  0.4119
  924MPD2    C213573   0.508   1.220  15.800  0.0491 -0.2753  0.2656
  924MPD2    C313574   0.513   1.315  15.698  0.1475  0.0198 -0.6017
  924MPD2    C413575   0.516   1.269  15.568  1.1857 -0.1646 -0.2203
  924MPD2    C513576   0.510   1.135  15.538  0.1824  0.2203  0.9351
  924MPD2     H13577   0.503   1.255  15.903  2.1438  0.2219  0.1990
  924MPD2    H113578   0.519   1.339  15.486  2.8912 -0.0203 -0.0277
  924MPD2    H213579   0.508   0.942  15.609 -3.1465 -0.2029 -1.0965
  924MPD2    H313580   0.499   1.105  15.434 -3.0008 -1.7750  1.8466
  924MPD2     N13581   0.511   1.453  15.721 -0.1156  0.4833 -0.2609
  924MPD2    H513582   0.493   1.507  15.637 -0.3299  0.6189 -0.1262
  924MPD2    N113583   0.515   0.981  15.874  0.6610  0.1998 -0.1644
  924MPD2    H713584   0.503   0.885  15.842  0.2760 -0.1035  0.8797
  925MPD2     C13585   4.327   3.697  14.553  0.3085  0.3432 -0.1072
  925MPD2    C113586   4.186   3.695  14.533 -0.4483 -0.3168 -0.0548
  925MPD2    C213587   4.107   3.682  14.643 -0.1355  0.7174 -0.4011
  925MPD2    C313588   4.164   3.667  14.767 -0.0652  0.2766  0.5326
  925MPD2    C413589   4.297   3.658  14.786  0.3728 -0.3312 -0.7623
  925MPD2    C513590   4.383   3.672  14.677  0.0539 -0.1263 -0.0842
  925MPD2     H13591   3.999   3.689  14.632 -0.4150 -1.2320  1.0108
  925MPD2    H113592   4.345   3.636  14.881 -0.4684  1.9289  0.1840
  925MPD2    H213593   4.392   3.716  14.469  0.4719  3.2146  0.6620
  925MPD2    H313594   4.492   3.668  14.685  0.0076  1.2802  1.2700
  925MPD2     N13595   4.090   3.647  14.882  0.3792  0.4083  0.1808
  925MPD2    H513596   4.143   3.623  14.965 -0.8684 -0.2245  0.7955
  925MPD2    N113597   4.128   3.701  14.402  0.4053 -0.0705  0.3659
  925MPD2    H713598   4.027   3.694  14.394  0.5842 -2.0088 -0.1436
  926MPD2     C13599   2.988   2.119  13.236  0.1573 -0.3026  0.6437
  926MPD2    C113600   2.858   2.141  13.192  0.3073  1.2792  0.1018
  926MPD2    C213601   2.836   2.227  13.082 -0.5016  1.1366  0.3623
  926MPD2    C313602   2.941   2.281  13.010  0.0721 -0.7357 -0.3963
  926MPD2    C413603   3.063   2.254  13.052  0.6034 -0.3724  0.5658
  926MPD2    C513604   3.087   2.171  13.158  0.1601  0.1504  0.3848
  926MPD2     H13605   2.735   2.247  13.047 -0.7540 -1.4841 -0.4126
  926MPD2    H113606   3.150   2.301  13.007  0.4710 -0.3601  0.3187
  926MPD2    H213607   3.022   2.050  13.313  0.6826 -0.6019  0.1409
  926MPD2    H313608   3.191   2.156  13.187  0.3961 -1.8685 -1.5335
  926MPD2     N13609   2.917   2.378  12.910  0.2152  0.1043 -0.1490
  926MPD2    H513610   2.998   2.402  12.853  0.9206  0.8068  1.1656
  926MPD2    N113611   2.740   2.102  13.267  0.0623 -0.6813 -0.3879
  926MPD2    H713612   2.654   2.142  13.232  0.9445  1.5610  0.0665
  927MPD2     C13613   3.238   3.754  17.574 -0.3397  0.9920 -0.2359
  927MPD2    C113614   3.137   3.841  17.538 -0.0097  0.0825 -0.1909
  927MPD2    C213615   3.107   3.859  17.406 -0.2078 -0.0125  0.3445
  927MPD2    C313616   3.190   3.811  17.311  0.0526 -0.1187 -0.2359
  927MPD2    C413617   3.295   3.729  17.347 -0.3625  0.2309  0.2176
  927MPD2    C513618   3.316   3.699  17.477  0.9860  1.0214  0.6648
  927MPD2     H13619   3.025   3.925  17.382  0.3727  0.6185  0.1131
  927MPD2    H113620   3.355   3.673  17.276  1.5920  1.1668  1.1478
  927MPD2    H213621   3.255   3.720  17.676  1.8354  1.7194 -0.3638
  927MPD2    H313622   3.393   3.628  17.506 -0.5059 -1.6417 -2.0055
  927MPD2     N13623   3.169   3.842  17.175 -0.0915 -0.5416 -0.2016
  927MPD2    H513624   3.241   3.827  17.105  0.1910  0.5238 -0.1392
  927MPD2    N113625   3.081   3.921  17.642 -0.0912  0.2577  0.1265
  927MPD2    H713626   3.123   3.903  17.733 -0.7707 -0.0687  0.3708
  928MPD2     C13627   1.234   2.518   0.643  0.3458 -0.0047 -0.0241
  928MPD2    C113628   1.215   2.648   0.667 -0.1856 -0.4768 -0.7066
  928MPD2    C213629   1.185   2.733   0.561  0.4206  0.4366  0.2831
  928MPD2    C313630   1.180   2.681   0.430 -0.1285 -0.3480 -0.3704
  928MPD2    C413631   1.191   2.546   0.414 -0.8505  0.4588 -0.3002
  928MPD2    C513632   1.223   2.467   0.517 -0.0850  0.9707 -0.1032
  928MPD2     H13633   1.186   2.840   0.579  0.7238  0.5314 -0.3252
  928MPD2    H113634   1.167   2.495   0.322  0.8096 -0.8264 -0.0310
  928MPD2    H213635   1.265   2.450   0.722  0.0487  0.6737  0.6728
  928MPD2    H313636   1.224   2.359   0.506 -1.3899  0.9125  0.3643
  928MPD2     N13637   1.177   2.765   0.319  0.0491 -0.0129 -0.1521
  928MPD2    H513638   1.186   2.719   0.229 -1.2571 -1.5945  0.5383
  928MPD2    N113639   1.240   2.706   0.795 -0.1899 -0.1260 -1.0850
  928MPD2    H713640   1.249   2.637   0.869  2.0077  1.6995  0.3284
  929MPD2     C13641   4.053   3.861  10.023 -0.2452 -1.2940  0.0106
  929MPD2    C113642   4.130   3.761   9.971  0.1528  0.8377  0.4588
  929MPD2    C213643   4.119   3.733   9.840  0.4930 -0.4444 -0.3848
  929MPD2    C313644   4.048   3.811   9.750  0.5557 -0.2281  0.1579
  929MPD2    C413645   3.968   3.916   9.798  0.8416  0.2940 -0.9018
  929MPD2    C513646   3.982   3.939   9.930 -0.9344 -1.0848  0.3428
  929MPD2     H13647   4.184   3.660   9.793  0.5559 -0.1334 -0.7806
  929MPD2    H113648   3.899   3.972   9.736  1.9035  1.9221 -0.6368
  929MPD2    H213649   4.043   3.879  10.130  0.2402 -0.4907 -0.0793
  929MPD2    H313650   3.925   4.022   9.970 -0.8213 -0.9358  0.1902
  929MPD2     N13651   4.049   3.790   9.613 -0.0670 -0.1205 -0.1543
  929MPD2    H513652   3.977   3.837   9.560 -0.9149 -2.4866 -1.0963
  929MPD2    N113653   4.197   3.682  10.065  0.2034 -0.2453  0.1215
  929MPD2    H713654   4.187   3.716  10.161  1.6209  0.7068 -0.0622
  930MPD2     C13655   2.079   4.414  14.091 -0.1758 -0.5573  0.6236
  930MPD2    C113656   2.208   4.464  14.076 -0.5014  0.2486  0.1572
  930MPD2    C213657   2.241   4.533  13.962  0.2815  0.1223 -0.1765
  930MPD2    C313658   2.141   4.562  13.872  0.5237 -0.2957  0.3652
  930MPD2    C413659   2.010   4.524  13.894  0.0089 -0.2752 -0.0319
  930MPD2    C513660   1.983   4.458  14.008 -0.8316  0.7693 -0.1532
  930MPD2     H13661   2.344   4.562  13.941  0.8227  1.0449  3.7121
  930MPD2    H113662   1.933   4.556  13.824  1.9233  0.1761 -1.9335
  930MPD2    H213663   2.055   4.351  14.176  1.8242 -2.1315  0.0299
  930MPD2    H313664   1.879   4.434  14.024 -0.6676 -0.1200 -0.4352
  930MPD2     N13665   2.174   4.638  13.756  0.2755  0.5348 -0.8100
  930MPD2    H513666   2.085   4.665  13.716 -0.3602  1.3104  1.1413
  930MPD2    N113667   2.309   4.458  14.172  0.0173 -0.1719  0.4917
  930MPD2    H713668   2.387   4.522  14.165 -0.7037  0.5925 -0.4813
  931MPD2     C13669   3.329   4.085   0.483  0.1545 -0.0665 -0.7473
  931MPD2    C113670   3.187   4.076   0.502 -0.1859 -0.0507  0.4093
  931MPD2    C213671   3.140   4.017   0.618 -0.0281  0.2590  0.0695
  931MPD2    C313672   3.224   3.988   0.721  0.3942 -0.0347 -0.2550
  931MPD2    C413673   3.360   3.997   0.698 -0.2916  0.2607  0.5567
  931MPD2    C513674   3.405   4.044   0.582 -0.6186  0.6578  0.0977
  931MPD2     H13675   3.032   4.029   0.627  0.0237 -0.5348  1.6814
  931MPD2    H113676   3.433   3.964   0.770 -0.5623  1.4278  1.3698
  931MPD2    H213677   3.377   4.129   0.396  0.9716 -0.1003 -0.3133
  931MPD2    H313678   3.512   4.051   0.567 -0.4645  1.1390  1.3791
  931MPD2     N13679   3.188   3.961   0.857  0.3251  0.5228 -0.0851
  931MPD2    H513680   3.262   3.958   0.926  0.1736  1.9716  0.1322
  931MPD2    N113681   3.091   4.115   0.404 -0.7248 -0.1996 -0.2431
  931MPD2    H713682   2.992   4.091   0.409 -0.5858 -0.9680 -1.1004
  932MPD2     C13683   4.384   3.609  11.300 -0.5757  0.7756  0.3932
  932MPD2    C113684   4.280   3.695  11.325 -0.1937 -0.4847  0.0079
  932MPD2    C213685   4.177   3.652  11.409  0.1994  0.7749 -0.4051
  932MPD2    C313686   4.181   3.526  11.465  0.1988 -0.1813 -0.1571
  932MPD2    C413687   4.288   3.440  11.437 -0.5024  0.7008  0.6877
  932MPD2    C513688   4.387   3.482  11.352 -0.4763  0.5447 -0.4049
  932MPD2     H13689   4.103   3.728  11.427  0.5299  0.7688  0.9807
  932MPD2    H113690   4.297   3.341  11.479  2.9405  0.1488 -1.2847
  932MPD2    H213691   4.474   3.645  11.252 -0.2664  0.3034  0.6177
  932MPD2    H313692   4.463   3.415  11.313  0.4084  1.0281  0.4973
  932MPD2     N13693   4.077   3.477  11.543 -0.3636 -0.0867 -0.3271
  932MPD2    H513694   4.096   3.385  11.581 -0.3593 -0.2777 -0.7913
  932MPD2    N113695   4.263   3.820  11.267  0.6015 -0.2870  0.2113
  932MPD2    H713696   4.192   3.887  11.294 -2.2900 -2.3017 -2.5223
  933MPD2     C13697   0.885   2.969   1.606 -0.0234 -0.0426  0.2145
  933MPD2    C113698   0.870   2.995   1.472  0.4176  0.2550  0.4613
  933MPD2    C213699   0.764   3.079   1.427 -0.0108 -0.4468 -0.3421
  933MPD2    C313700   0.681   3.134   1.523 -0.0470 -0.7121  0.3363
  933MPD2    C413701   0.699   3.116   1.659 -0.5205 -0.5312 -0.1198
  933MPD2    C513702   0.802   3.029   1.696  0.4840  0.4380 -0.8093
  933MPD2     H13703   0.753   3.099   1.321 -0.4185 -2.1220 -0.6300
  933MPD2    H113704   0.641   3.171   1.733  0.2551 -1.6827  1.3653
  933MPD2    H213705   0.970   2.907   1.629  1.2601  0.9122 -2.0080
  933MPD2    H313706   0.819   3.006   1.800 -1.1433  0.2276 -0.5997
  933MPD2     N13707   0.572   3.214   1.478  0.4387 -0.1635 -0.1988
  933MPD2    H513708   0.568   3.231   1.378  0.1694  1.7664  0.1527
  933MPD2    N113709   0.966   2.935   1.385  0.2619  0.6665  0.0021
  933MPD2    H713710   1.043   2.879   1.420 -0.7813 -1.4671 -1.1190
  934MPD2     C13711   1.686   0.891   1.394 -0.0168  0.3080 -0.4018
  934MPD2    C113712   1.772   0.849   1.290  0.2729  0.1959  0.0553
  934MPD2    C213713   1.752   0.722   1.239  0.5675 -1.2390 -0.6732
  934MPD2    C313714   1.645   0.641   1.271 -0.4318 -0.6026  0.2896
  934MPD2    C413715   1.563   0.689   1.366  0.0850 -0.5426 -0.2140
  934MPD2    C513716   1.593   0.805   1.439 -0.7602 -0.2097 -0.0634
  934MPD2     H13717   1.827   0.694   1.167 -0.5947  2.8310 -3.4355
  934MPD2    H113718   1.478   0.633   1.402 -0.6906  0.4467 -0.4876
  934MPD2    H213719   1.688   0.985   1.448  0.8845  0.3644 -0.5224
  934MPD2    H313720   1.531   0.844   1.519  0.4224  1.4610  0.0503
  934MPD2     N13721   1.617   0.517   1.211 -0.6910  0.1928 -0.0952
  934MPD2    H513722   1.532   0.470   1.240  0.7170 -2.7774 -0.7463
  934MPD2    N113723   1.876   0.926   1.246 -0.3459 -0.2773 -0.1383
  934MPD2    H713724   1.917   0.894   1.160 -0.7656 -0.5664 -0.2318
  935MPD2     C13725   2.140   4.467   0.901 -0.1909  0.1200  0.5568
  935MPD2    C113726   2.008   4.446   0.855  0.0511  0.0941 -0.9100
  935MPD2    C213727   1.910   4.534   0.892  0.3556 -0.6005  0.3232
  935MPD2    C313728   1.933   4.647   0.971  0.4510 -0.5605 -0.7199
  935MPD2    C413729   2.058   4.669   1.022  0.1297  0.3932  0.4409
  935MPD2    C513730   2.160   4.578   0.988 -0.6221 -0.0958  0.7792
  935MPD2     H13731   1.811   4.506   0.859  0.8765 -0.5025 -1.2895
  935MPD2    H113732   2.082   0.017   1.082  2.3485  0.8714 -1.1509
  935MPD2    H213733   2.224   4.399   0.893 -1.7168 -2.1838  4.2015
  935MPD2    H313734   2.260   4.592   1.027 -0.5192 -0.7017  0.7273
  935MPD2     N13735   1.837   0.006   1.011 -0.4434 -0.2434 -0.2867
  935MPD2    H513736   1.868   0.091   1.056  2.7727 -1.5053 -0.1162
  935MPD2    N113737   1.972   4.328   0.777 -0.4001 -0.3755 -0.3016
  935MPD2    H713738   1.884   4.327   0.725  0.3984 -1.5143 -1.6465
  936MPD2     C13739   4.185   2.841  12.062 -0.0317 -0.3220 -0.0153
  936MPD2    C113740   4.267   2.762  12.141 -0.0183 -0.4545  0.3768
  936MPD2    C213741   4.355   2.830  12.222 -0.5448 -0.1953 -0.6014
  936MPD2    C313742   4.350   2.967  12.241 -1.1276  0.1010  0.8270
  936MPD2    C413743   4.277   3.039  12.153 -0.0232 -0.7551 -0.6706
  936MPD2    C513744   4.189   2.976  12.068 -1.0216 -0.1593  0.3803
  936MPD2     H13745   4.428   2.779  12.284  0.9371  0.7354 -1.5831
  936MPD2    H113746   4.275   3.148  12.146  0.0869 -0.7320 -0.3535
  936MPD2    H213747   4.120   2.787  11.994  0.5278  0.0253 -0.8128
  936MPD2    H313748   4.118   3.031  12.007 -0.0724  2.2101  1.4106
  936MPD2     N13749   4.432   3.038  12.332  0.0012 -0.4818 -0.0961
  936MPD2    H513750   4.455   3.136  12.315  1.0181 -0.6946  0.0454
  936MPD2    N113751   4.288   2.622  12.132  0.1446 -0.0087  0.6760
  936MPD2    H713752   4.359   2.581  12.192 -0.4305 -0.2859  1.1626
  937MPD2     C13753   2.149   3.718  11.849  0.3415 -0.1801  0.0702
  937MPD2    C113754   2.167   3.853  11.861 -0.8710 -0.1431  1.5479
  937MPD2    C213755   2.218   3.917  11.750 -0.5192  0.0180 -0.2865
  937MPD2    C313756   2.269   3.848  11.643  0.1966  0.7107 -0.0376
  937MPD2    C413757   2.265   3.713  11.643 -0.8409  0.3735 -0.6510
  937MPD2    C513758   2.194   3.645  11.745  0.0500  0.1067  0.8740
  937MPD2     H13759   2.220   4.026  11.751 -0.8787  0.0201  0.5893
  937MPD2    H113760   2.296   3.645  11.564 -0.5077  1.3206 -1.3361
  937MPD2    H213761   2.082   3.661  11.913  1.3007 -1.3044  0.0752
  937MPD2    H313762   2.172   3.539  11.741 -2.9212  0.6859  1.9617
  937MPD2     N13763   2.329   3.924  11.540 -1.0626  0.7345  0.3331
  937MPD2    H513764   2.340   4.024  11.557  4.4062  0.4353 -1.4984
  937MPD2    N113765   2.089   3.923  11.954 -0.0487 -0.0499 -0.0867
  937MPD2    H713766   2.099   4.024  11.954  2.2186 -0.2799  0.1609
  938MPD2     C13767   0.858   4.213   0.506 -0.2572 -0.4931  0.1134
  938MPD2    C113768   0.766   4.290   0.563  0.0360  0.5260  0.1825
  938MPD2    C213769   0.679   4.232   0.652 -0.0380 -1.1040 -0.4380
  938MPD2    C313770   0.699   4.105   0.705 -0.3658 -0.1174  0.1492
  938MPD2    C413771   0.804   4.030   0.661 -0.0182  0.2578 -0.0982
  938MPD2    C513772   0.872   4.087   0.552 -0.3716 -0.1188  0.0649
  938MPD2     H13773   0.598   4.295   0.687  1.7377  0.0229  1.6199
  938MPD2    H113774   0.814   3.930   0.700 -2.3237 -0.8349 -2.2791
  938MPD2    H213775   0.913   4.246   0.418  2.1282 -2.0192  1.0368
  938MPD2    H313776   0.936   4.020   0.495  1.1667  1.9237 -0.5950
  938MPD2     N13777   0.620   4.045   0.808 -0.2203  0.0614  0.0275
  938MPD2    H513778   0.657   3.963   0.856  0.7569  1.1753  1.1770
  938MPD2    N113779   0.745   4.423   0.525 -0.1267 -0.0321  1.3368
  938MPD2    H713780   0.653   4.459   0.547 -0.5715 -1.1035  1.1999
  939MPD2     C13781   1.994   0.743   0.609 -0.5626 -0.2277  0.1873
  939MPD2    C113782   1.950   0.787   0.480  0.3279  0.1763 -0.0139
  939MPD2    C213783   1.969   0.707   0.373 -0.4321  0.5663  0.7329
  939MPD2    C313784   2.029   0.585   0.395 -0.1200  0.6831  0.6503
  939MPD2    C413785   2.074   0.538   0.517 -0.4194  0.2303 -0.3077
  939MPD2    C513786   2.053   0.623   0.626  0.2002 -0.3604  0.1161
  939MPD2     H13787   1.924   0.736   0.279  2.4608 -1.5716 -1.2976
  939MPD2    H113788   2.106   0.436   0.535 -0.1772  0.0799 -1.5945
  939MPD2    H213789   1.978   0.803   0.698 -1.5250  0.8868 -0.7529
  939MPD2    H313790   2.087   0.594   0.725  0.8765  1.4639  0.4163
  939MPD2     N13791   2.024   0.493   0.283 -0.1859 -0.0949  0.2475
  939MPD2    H513792   2.007   0.525   0.188  0.2840 -2.1226 -0.5349
  939MPD2    N113793   1.891   0.915   0.478 -0.4164  0.2622  0.3361
  939MPD2    H713794   1.895   0.968   0.564 -1.2786  0.6553  0.1373
  940MPD2     C13795   0.292   2.270  12.544 -0.4537 -0.1444  0.0800
  940MPD2    C113796   0.304   2.145  12.608 -0.1416  0.3154 -0.0010
  940MPD2    C213797   0.301   2.029  12.531 -0.2695 -0.3787 -0.2194
  940MPD2    C313798   0.291   2.036  12.392 -1.0978  0.3222 -0.3023
  940MPD2    C413799   0.274   2.165  12.338 -0.2029 -0.0300  0.2123
  940MPD2    C513800   0.271   2.278  12.414 -0.8652  0.3123 -0.2716
  940MPD2     H13801   0.303   1.934  12.584  1.7975 -0.1780  0.0323
  940MPD2    H113802   0.259   2.170  12.230 -1.7039  1.0576  0.4677
  940MPD2    H213803   0.284   2.367  12.591 -0.4441  0.5473 -1.3669
  940MPD2    H313804   0.247   2.370  12.363 -0.3488  0.2389 -0.6431
  940MPD2     N13805   0.295   1.929  12.301 -0.0237  0.5579  0.0235
  940MPD2    H513806   0.288   1.956  12.203  0.5919  0.3587 -0.0768
  940MPD2    N113807   0.309   2.138  12.747  0.4494  0.6550 -0.0451
  940MPD2    H713808   0.303   2.046  12.788 -1.0974  0.0968 -1.5146
  941MPD2     C13809   3.803   1.545  10.418 -0.5629  0.2401  0.5868
  941MPD2    C113810   3.899   1.446  10.414  0.0478 -0.1915  0.1504
  941MPD2    C213811   3.852   1.317  10.420 -0.2050 -0.4923 -0.1204
  941MPD2    C313812   3.715   1.279  10.411 -0.0552  0.3691 -0.0181
  941MPD2    C413813   3.627   1.382  10.418  0.0530 -0.2021 -0.4373
  941MPD2    C513814   3.675   1.512  10.418 -0.3320 -0.3176  0.0684
  941MPD2     H13815   3.929   1.240  10.426  0.4708  0.2090  0.1296
  941MPD2    H113816   3.519   1.382  10.412  0.0346 -1.8795 -0.0822
  941MPD2    H213817   3.825   1.648  10.394 -1.2674 -0.1046 -1.5023
  941MPD2    H313818   3.604   1.594  10.418 -2.5923 -2.2793  1.2291
  941MPD2     N13819   3.668   1.146  10.404  0.2430 -0.2827  0.0024
  941MPD2    H513820   3.736   1.072  10.398 -1.3511 -1.5873 -2.0543
  941MPD2    N113821   4.040   1.471  10.425 -0.0094  0.1856  0.3223
  941MPD2    H713822   4.104   1.392  10.428  0.6874  0.9017  4.1534
  942MPD2     C13823   3.836   2.938   8.730  0.1481 -0.2712  0.5832
  942MPD2    C113824   3.816   2.924   8.859  0.6014 -0.5535 -0.1454
  942MPD2    C213825   3.916   2.865   8.936 -0.4878  0.1774  0.3423
  942MPD2    C313826   4.036   2.825   8.867 -0.0847  0.7362 -0.6573
  942MPD2    C413827   4.043   2.830   8.733  0.2496 -0.2704 -0.0844
  942MPD2    C513828   3.943   2.893   8.664  0.0370  0.3138  0.2826
  942MPD2     H13829   3.901   2.841   9.041 -1.1649 -0.9104 -0.0024
  942MPD2    H113830   4.136   2.812   8.680 -0.9886 -1.7102 -1.7414
  942MPD2    H213831   3.754   2.967   8.665 -0.9221  0.2573  2.1532
  942MPD2    H313832   3.957   2.889   8.556 -0.4684  0.2293  0.2169
  942MPD2     N13833   4.142   2.770   8.934 -0.3853  0.1125 -0.6464
  942MPD2    H513834   4.221   2.730   8.885  0.9916  1.0617  0.7868
  942MPD2    N113835   3.699   2.974   8.924  0.3355 -0.5019  0.2034
  942MPD2    H713836   3.679   2.949   9.020  1.3074 -1.9531  0.0212
  943MPD2     C13837   3.885   1.491   9.628 -0.0832 -0.1604 -1.3274
  943MPD2    C113838   3.774   1.460   9.697 -0.9485  0.0794  0.0929
  943MPD2    C213839   3.756   1.523   9.816 -0.3511 -0.1431  0.1347
  943MPD2    C313840   3.851   1.614   9.865  0.3698 -0.5471 -0.0705
  943MPD2    C413841   3.972   1.639   9.795 -0.0411 -0.1507  0.9565
  943MPD2    C513842   3.984   1.573   9.673 -0.5534  0.6105 -0.1555
  943MPD2     H13843   3.674   1.495   9.882  1.4511  1.5825  3.0824
  943MPD2    H113844   4.054   1.702   9.828 -1.4960  1.6899  1.0562
  943MPD2    H213845   3.910   1.453   9.530  0.3723 -0.7468 -0.9801
  943MPD2    H313846   4.072   1.590   9.612 -0.6730  0.3903 -0.3876
  943MPD2     N13847   3.835   1.687   9.988 -0.3254  0.0695  0.6018
  943MPD2    H513848   3.922   1.738  10.003 -0.2385  0.7641 -2.0862
  943MPD2    N113849   3.691   1.357   9.645  0.5949 -0.1399 -0.5104
  943MPD2    H713850   3.720   1.321   9.554 -0.2974  4.5666 -2.6466
  944MPD2     C13851   2.873   0.092  11.069  0.2600  0.3215  0.4522
  944MPD2    C113852   2.921   0.210  11.019 -0.0031 -0.4552 -1.0101
  944MPD2    C213853   2.865   0.328  11.061  0.3848 -0.6479  0.1485
  944MPD2    C313854   2.771   0.321  11.160 -0.0120 -0.5125  0.3408
  944MPD2    C413855   2.719   0.204  11.209  0.0272 -0.0009 -0.2480
  944MPD2    C513856   2.776   0.087  11.165  0.4729 -0.0232 -0.6105
  944MPD2     H13857   2.910   0.419  11.022  0.9729 -2.4644 -3.3879
  944MPD2    H113858   2.646   0.198  11.288 -0.1350  0.5285 -0.3585
  944MPD2    H213859   2.920   0.006  11.022  1.0874  0.9079  0.1956
  944MPD2    H313860   2.734   4.729  11.189  0.6920 -0.3279 -1.4631
  944MPD2     N13861   2.731   0.438  11.219 -0.1327  1.1139 -0.2246
  944MPD2    H513862   2.778   0.517  11.175 -1.9682  1.1398 -2.1122
  944MPD2    N113863   3.042   0.204  10.936 -0.0301 -0.0845  0.2368
  944MPD2    H713864   3.092   0.117  10.926 -2.0490 -1.1268 -0.8858
    1TMC1    C113865   0.788   1.428  14.351  0.2246 -0.1643  1.0028
    1TMC1    C213866   0.761   1.381  14.478 -0.3831  0.3533  0.0490
    1TMC1    C313867   0.834   1.281  14.533 -0.4980  0.2230 -0.2482
    1TMC1    C413868   0.880   1.358  14.276  0.0412 -0.3980 -0.9590
    1TMC1    C513869   0.929   1.240  14.327  0.4099  0.7990 -0.0004
    1TMC1    C613870   0.914   1.204  14.457 -0.4675 -0.8973 -0.2387
    1TMC1     C13871   0.756   1.562  14.322 -0.9073 -0.6787  0.3867
    1TMC1     O13872   0.724   1.642  14.409  0.0317  0.0645  0.6580
    1TMC1     H13873   0.705   1.445  14.545 -1.3616  0.1429 -0.5572
    1TMC1    H113874   0.895   1.379  14.171  0.6012 -0.6389 -0.9253
    1TMC1    H213875   0.961   1.115  14.499  1.4683 -0.1718 -0.8358
    1TMC1    C713876   1.047   1.186  14.263 -0.5236 -0.3315  0.4970
    1TMC1    C813877   0.819   1.263  14.671 -0.1993 -0.1144 -0.6288
    1TMC1    O113878   1.155   1.162  14.319  0.3229 -0.0363 -0.0974
    1TMC1    O213879   0.714   1.297  14.728 -0.5604  0.1018 -0.3149
    1TMC1    O313880   1.001   1.118  14.155  0.2533  0.1148 -0.0998
    1TMC1    H313881   0.903   1.125  14.151  0.2956  0.0821 -1.0089
    1TMC1    O513882   0.946   1.253  14.720  0.9785  0.1461  0.4206
    1TMC1    H513883   1.012   1.249  14.648 -2.5066 -0.0276 -2.8041
    2MPD2     C13884   0.726   1.951  14.004 -0.3659 -0.1928  0.5722
    2MPD2    C113885   0.749   1.838  13.928 -0.0352  0.1079 -0.0126
    2MPD2    C213886   0.770   1.718  13.984  0.4933  0.0103  0.8035
    2MPD2    C313887   0.749   1.708  14.124  0.3397 -0.7275 -0.5401
    2MPD2    C413888   0.719   1.826  14.194 -0.4594 -0.6242 -0.3654
    2MPD2    C513889   0.711   1.948  14.134  0.5367 -0.2208 -0.9570
    2MPD2     H13890   0.785   1.627  13.926  1.9741  0.4284  0.5451
    2MPD2    H113891   0.682   1.828  14.296 -0.8286  1.8568 -0.5514
    2MPD2    H213892   0.716   2.046  13.953 -0.5941 -0.8867 -0.6811
    2MPD2    H313893   0.677   2.040  14.181  0.7191 -0.8857  0.4682
    2MPD2     N13894   0.774   1.593  14.190  0.1609  0.0601  0.1561
    2MPD2    H513895   0.788   1.517  14.124 -0.7014  0.1115 -0.0801
    2MPD2    N113896   0.761   1.857  13.792  0.0398  0.3300 -0.1122
    2MPD2    H713897   0.749   1.950  13.752  0.3076 -0.4180 -1.9494
    3TMC2    C113898   0.838   1.846  13.582 -0.2962  0.0078 -0.0447
    3TMC2    C213899   0.933   1.940  13.605  0.4396 -0.0147 -0.3780
    3TMC2    C313900   0.988   2.002  13.496 -0.0666 -0.1645  0.1835
    3TMC2    C413901   0.803   1.798  13.456 -0.5114 -0.8340  0.4066
    3TMC2    C513902   0.864   1.858  13.351 -0.8814  0.1593  0.8557
    3TMC2    C613903   0.954   1.968  13.365  0.0414  0.0352 -0.2001
    3TMC2     C13904   0.794   1.771  13.696 -0.4307  0.4307  0.7233
    3TMC2     O13905   0.794   1.650  13.694  0.4394  0.4825 -0.9234
    3TMC2     H13906   0.960   1.976  13.703 -0.1328 -2.4393  0.6457
    3TMC2    H113907   0.735   1.715  13.441 -0.0521 -1.1092 -0.1203
    3TMC2    H213908   1.010   2.016  13.285  0.8590  0.1994  0.4678
    3TMC2    C713909   0.814   1.821  13.228  0.6976 -0.1525 -0.3215
    3TMC2    C813910   1.117   2.062  13.530  0.3359 -0.2111  0.4248
    3TMC2    O113911   0.772   1.706  13.215  0.3924  0.8009  0.0472
    3TMC2    O213912   1.193   2.001  13.603 -0.6648 -0.2992 -0.3420
    3TMC2    O513913   1.151   2.135  13.424  0.9948  0.4615  0.4253
    3TMC2    H513914   1.077   2.175  13.375  1.8935  1.7860  0.1603
    4TMC2    C113915   0.559   2.610  12.657 -0.1235 -0.1579 -0.6968
    4TMC2    C213916   0.582   2.605  12.525  0.3302 -0.5399 -0.2048
    4TMC2    C313917   0.626   2.484  12.480  0.3586 -0.6976  0.1176
    4TMC2    C413918   0.593   2.511  12.746 -0.0888  0.2877  0.2735
    4TMC2    C513919   0.632   2.390  12.697 -0.0343 -0.1706  0.1679
    4TMC2    C613920   0.637   2.372  12.560 -0.1660 -0.4569  0.2090
    4TMC2     C13921   0.462   2.703  12.693 -0.6219 -0.2477 -0.1858
    4TMC2     O13922   0.497   2.816  12.665  0.1519 -0.0153  0.3103
    4TMC2     H13923   0.554   2.681  12.453 -0.9840 -2.5831 -1.8832
    4TMC2    H113924   0.583   2.517  12.854 -0.1778  1.4314  0.2088
    4TMC2    H213925   0.673   2.288  12.501 -0.2101  1.0320 -1.9523
    4TMC2    C713926   0.665   2.288  12.794  0.3143  0.3349  0.2906
    4TMC2    C813927   0.616   2.455  12.339 -0.6562 -1.0637  0.5047
    4TMC2    O113928   0.670   2.318  12.915  0.0011  0.9346 -0.1132
    4TMC2    O213929   0.581   2.344  12.300  0.1986  0.2789  0.9304
    4TMC2    O513930   0.619   2.563  12.255 -0.1781 -0.2548 -0.0240
    4TMC2    H513931   0.655   2.643  12.300  0.3995  0.0540 -1.0178
    5MPD2     C13932   0.056   2.852  12.984 -0.1016 -0.1982 -0.0656
    5MPD2    C113933   0.043   2.717  12.945  0.6648 -0.0772 -0.1590
    5MPD2    C213934   0.146   2.645  12.879 -0.4917  0.1620  0.2782
    5MPD2    C313935   0.256   2.720  12.839 -1.2746  0.7223  0.7362
    5MPD2    C413936   0.261   2.855  12.865  0.5557  0.1439 -0.5432
    5MPD2    C513937   0.164   2.924  12.937 -0.3263 -0.2736  0.6211
    5MPD2     H13938   0.146   2.542  12.846 -1.0219  0.2252  0.0900
    5MPD2    H113939   0.348   2.909  12.829  0.9438  0.2656  0.6060
    5MPD2    H213940   4.714   2.897  13.041  0.2972  1.1599 -0.5712
    5MPD2    H313941   0.188   3.025  12.967  0.6703  0.1822 -1.7414
    5MPD2     N13942   0.357   2.655  12.766  0.1224 -0.0161 -0.5345
    5MPD2    H513943   0.355   2.553  12.766 -0.6161  0.0075  0.7280
    5MPD2    N113944   4.662   2.655  12.982 -0.0707 -0.3445 -0.2415
    5MPD2    H713945   4.602   2.717  13.036 -0.6641 -0.8651 -0.2983
    6MPD1     C13946   3.569   3.872  13.082  0.5182 -0.1500 -0.1489
    6MPD1    C113947   3.613   3.795  13.186 -0.0321 -0.0673 -0.0403
    6MPD1    C213948   3.638   3.657  13.175 -0.0001 -0.0564 -0.2602
    6MPD1    C313949   3.631   3.595  13.049  0.4327  1.0236 -0.1867
    6MPD1    C413950   3.592   3.679  12.953 -0.0122 -0.2212  0.3835
    6MPD1    C513951   3.569   3.811  12.960  0.2650 -0.0958 -0.1043
    6MPD1     H13952   3.658   3.600  13.265  1.4683  2.5077  1.0279
    6MPD1    H113953   3.575   3.637  12.854 -0.7970  0.8250  0.0753
    6MPD1    H213954   3.553   3.979  13.094 -2.5427 -0.7944  1.5167
    6MPD1    H313955   3.541   3.869  12.872 -0.0143  0.3108  0.2531
    6MPD1     N13956   3.660   3.454  13.031  0.2296 -0.2480 -1.1522
    6MPD1    H513957   3.640   3.413  12.941 -2.4447  1.1472 -1.2163
    6MPD1    N113958   3.633   3.858  13.313  0.0272 -0.6263 -0.7484
    6MPD1    H613959   3.644   3.959  13.320  0.0875 -0.5597 -1.7956
    6MPD1    H713960   3.710   3.808  13.357 -1.3476  0.3576  2.7152
    7MPD2     C13961   3.803   2.677  13.427 -0.0818 -0.0731  0.0961
    7MPD2    C113962   3.886   2.734  13.336  0.6675  0.0590 -0.5171
    7MPD2    C213963   4.012   2.671  13.296  0.1997  0.1087  0.1539
    7MPD2    C313964   4.042   2.546  13.347 -0.4252  0.2326 -0.0301
    7MPD2    C413965   3.952   2.484  13.430 -0.5824 -0.7081  0.4272
    7MPD2    C513966   3.837   2.552  13.465  0.5176  0.0735  0.0358
    7MPD2     H13967   4.079   2.722  13.227 -1.1697  0.9666 -0.5505
    7MPD2    H113968   3.971   2.383  13.467  1.8204 -0.2484  0.4104
    7MPD2    H213969   3.711   2.724  13.459  1.1061  2.1900  0.1830
    7MPD2    H313970   3.767   2.497  13.527 -0.1529  0.8897  0.0082
    7MPD2     N13971   4.149   2.474  13.299 -0.2531 -0.1593  0.0974
    7MPD2    H513972   4.146   2.372  13.305  2.2760 -0.2743 -0.5453
    7MPD2    N113973   3.847   2.847  13.263  0.1448  0.6210  0.7242
    7MPD2    H713974   3.915   2.878  13.195  0.8004 -1.2999  0.4998
    8TMC3    C113975   4.322   2.461  13.146  0.5963  0.0155 -0.1252
    8TMC3    C213976   4.441   2.525  13.110 -1.0843 -0.0561 -0.4712
    8TMC3    C313977   4.474   2.516  12.976  0.5409  0.0007  0.3986
    8TMC3    C413978   4.237   2.411  13.053 -0.5175 -0.4883 -0.2376
    8TMC3    C513979   4.270   2.427  12.915 -0.7086  0.2023 -0.5022
    8TMC3    C613980   4.390   2.468  12.877 -0.1370 -0.0355  0.5854
    8TMC3     C13981   4.258   2.541  13.248 -0.5237  0.1641 -0.3751
    8TMC3     O13982   4.300   2.656  13.271 -0.0111 -0.0701  0.0497
    8TMC3     H13983   4.488   2.583  13.188 -1.4819 -0.7408  0.2712
    8TMC3    H113984   4.134   2.386  13.074 -1.4129  1.5251 -2.2258
    8TMC3    H213985   4.423   2.453  12.774 -1.2920 -0.5160  0.2859
    8TMC3    C713986   4.145   2.482  12.845  0.1593  0.3769  0.0591
    8TMC3    C813987   4.612   2.529  12.940  0.1242  0.3901  0.7126
    8TMC3    O113988   4.030   2.450  12.878  0.3034 -0.3042 -0.0518
    8TMC3    O213989   4.664   2.440  12.869  0.1844  0.2857  0.5412
    9TMC3    C113990   3.681   3.232  13.094 -0.4771 -0.2632 -0.2468
    9TMC3    C213991   3.708   3.191  12.964 -0.3994 -0.1283 -0.6138
    9TMC3    C313992   3.746   3.059  12.940 -0.4178 -0.1016  0.1311
    9TMC3    C413993   3.690   3.144  13.196  0.2652 -0.2994  0.8380
    9TMC3    C513994   3.724   3.017  13.169  0.2766 -0.4247  0.9367
    9TMC3    C613995   3.749   2.974  13.042 -0.2369  0.2482  0.4679
    9TMC3     C13996   3.697   3.373  13.130  0.0609 -0.5312  0.2861
    9TMC3     O13997   3.732   3.389  13.245 -0.5661  0.2196  0.3071
    9TMC3     H13998   3.720   3.262  12.883  0.9415 -0.5772 -0.8017
    9TMC3    H113999   3.662   3.172  13.297 -2.2089  0.9320 -0.1832
    9TMC3    H214000   3.757   2.866  13.035 -0.7617  0.0714  2.6102
    9TMC3    C714001   3.738   2.922  13.274 -0.1026  0.7258  0.0357
    9TMC3    C814002   3.813   3.027  12.815  0.3521 -0.1600 -0.0521
    9TMC3    O114003   3.653   2.918  13.361  0.1339 -0.2136 -0.4814
    9TMC3    O214004   3.859   3.120  12.754 -0.1242 -0.2016  0.2943
   10MPD2     C14005   4.154   2.734  12.575 -0.0718 -0.0234 -0.4981
   10MPD2    C114006   4.104   2.666  12.684  0.5701 -0.4595 -0.0796
   10MPD2    C214007   4.005   2.714  12.757  0.8887 -0.8682 -0.1302
   10MPD2    C314008   3.962   2.845  12.733 -0.1962  0.5697  0.4226
   10MPD2    C414009   4.005   2.910  12.615 -0.5299 -0.1952  0.1687
   10MPD2    C514010   4.104   2.856  12.537 -0.3340  0.0513  0.1118
   10MPD2     H14011   3.957   2.674  12.845  0.3279 -3.7805 -1.7708
   10MPD2    H114012   3.955   3.002  12.588 -1.3649 -0.5524  0.4728
   10MPD2    H214013   4.226   2.676  12.517  0.1260 -0.0804 -0.1950
   10MPD2    H314014   4.149   2.915  12.458  0.2656  0.3792  0.6926
   10MPD2     N14015   3.858   2.898  12.815  0.2729  0.0863  0.1150
   10MPD2    H514016   3.814   2.837  12.883  1.4120 -1.7138 -0.7730
   10MPD2    N114017   4.185   2.562  12.740 -0.0256 -0.5198 -0.0343
   10MPD2    H714018   4.279   2.553  12.701 -0.3122  1.0773 -1.0729
   11MPD2     C14019   0.765   1.796  12.936  0.2033  0.7579 -0.1390
   11MPD2    C114020   0.788   1.916  13.001  0.0117  0.1792  0.8489
   11MPD2    C214021   0.767   2.039  12.935 -0.6874 -0.4599 -0.5277
   11MPD2    C314022   0.711   2.046  12.807  0.6943 -0.0971 -0.9097
   11MPD2    C414023   0.693   1.929  12.742  0.4198  0.1114 -0.2106
   11MPD2    C514024   0.717   1.808  12.809 -0.5451 -0.5199 -0.4579
   11MPD2     H14025   0.791   2.133  12.982 -0.9553  0.3700 -2.0579
   11MPD2    H114026   0.665   1.931  12.637  0.2576 -3.2325 -0.2529
   11MPD2    H214027   0.790   1.700  12.982 -0.1517  0.0037 -1.5271
   11MPD2    H314028   0.726   1.721  12.745  4.1945 -0.6742  0.4469
   11MPD2     N14029   0.665   2.165  12.740  0.0282  0.1586 -0.0132
   11MPD2    H514030   0.624   2.166  12.647  0.8726 -1.2603 -0.3946
   11MPD2    N114031   0.829   1.922  13.131  0.7040 -0.2727 -0.0938
   11MPD2    H714032   0.877   2.007  13.158  2.2100 -0.4379 -2.2348
    1MPD1     C14033   3.592   3.576  16.739 -0.0374 -0.3636  0.1602
    1MPD1    C114034   3.651   3.698  16.728 -0.3523 -0.0706 -0.6643
    1MPD1    C214035   3.785   3.694  16.722 -0.1132  0.5184  0.2576
    1MPD1    C314036   3.867   3.579  16.754  0.5037 -0.2492  0.3986
    1MPD1    C414037   3.800   3.460  16.761  0.1506  0.5489 -0.2539
    1MPD1    C514038   3.662   3.464  16.746 -0.0242  0.5779  0.2495
    1MPD1     H14039   3.832   3.790  16.703  0.1425  0.6175  1.4027
    1MPD1    H114040   3.850   3.364  16.762 -2.5446 -0.8440  1.4529
    1MPD1    H214041   3.484   3.566  16.727 -0.0299 -0.5175  0.2289
    1MPD1    H314042   3.619   3.364  16.746  1.3330 -0.0056  0.0321
    1MPD1     N14043   4.009   3.581  16.777  0.6545  0.1317 -0.1652
    1MPD1    H514044   4.060   3.497  16.803  0.9035  0.4921  0.5280
    1MPD1    N114045   3.567   3.807  16.676 -0.2936  0.2675 -0.5553
    1MPD1    H614046   3.599   3.899  16.706  1.2861 -0.5515  0.3190
    1MPD1    H714047   3.471   3.803  16.707 -0.9197  0.7337 -2.4469
    2MPD1     C14048   0.172   4.236  16.728 -0.7814  0.9175  0.0649
    2MPD1    C114049   0.214   4.107  16.704 -0.4193  0.7460 -0.3685
    2MPD1    C214050   0.117   4.005  16.700 -0.2397 -0.2339  0.2799
    2MPD1    C314051   4.721   4.033  16.721  0.7675  0.3286  0.8912
    2MPD1    C414052   4.690   4.162  16.752  0.5318 -0.1583 -0.5167
    2MPD1    C514053   0.042   4.262  16.740  0.2109  0.2364 -0.0185
    2MPD1     H14054   0.155   3.908  16.669 -1.9616 -1.1779  1.1331
    2MPD1    H114055   4.588   4.192  16.771  0.2148 -1.3111 -0.3500
    2MPD1    H214056   0.235   4.320  16.703  0.7482 -0.0104  0.8345
    2MPD1    H314057   0.016   4.365  16.761  1.3932  0.7368 -1.0086
    2MPD1     N14058   4.632   3.923  16.711  0.5145 -0.3769  0.3262
    2MPD1    H514059   4.673   3.832  16.732 -0.3626 -1.3926 -2.2606
    2MPD1    N114060   0.345   4.090  16.656 -0.1272 -0.5485  0.5888
    2MPD1    H614061   0.383   3.998  16.675  1.5518  0.1148  0.4255
    2MPD1    H714062   0.413   4.158  16.689  1.4352 -0.5507 -2.6508
    3TMC3    C114063   4.426   3.806  16.731 -0.4506  0.8065 -0.2581
    3TMC3    C214064   4.486   3.691  16.696  0.7296 -0.7147 -0.6176
    3TMC3    C314065   4.412   3.570  16.699  0.2564  0.0874 -0.6344
    3TMC3    C414066   4.300   3.809  16.783  0.2258  0.0363  1.1338
    3TMC3    C514067   4.225   3.690  16.770 -0.5149  0.6452  1.1560
    3TMC3    C614068   4.277   3.574  16.726  0.3695  0.1950  0.1120
    3TMC3     C14069   4.494   3.931  16.714 -0.4108  0.0441  0.6411
    3TMC3     O14070   4.423   4.028  16.704 -0.4519 -0.0329  0.0528
    3TMC3     H14071   4.584   3.687  16.650 -0.2005 -0.5768 -2.5921
    3TMC3    H114072   4.261   3.902  16.821 -1.3938 -2.0378  4.5282
    3TMC3    H214073   4.221   3.481  16.724  0.9300 -0.1641  1.2162
    3TMC3    C714074   4.077   3.700  16.782 -0.1067  0.0288  0.2163
    3TMC3    C814075   4.478   3.446  16.672  0.4011 -0.8014 -0.6555
    3TMC3    O114076   4.031   3.815  16.805 -0.2092  0.3192  0.2462
    3TMC3    O214077   4.415   3.357  16.615 -0.0213  0.3650  1.0210
    4MPD1     C14078   0.196   3.216  16.622  0.6481 -0.2976  0.3200
    4MPD1    C114079   0.201   3.295  16.734  0.3518  0.5622 -0.1786
    4MPD1    C214080   0.093   3.372  16.764 -0.4022 -0.6694 -0.6588
    4MPD1    C314081   4.719   3.362  16.682 -0.1652  0.0221  0.3493
    4MPD1    C414082   4.710   3.268  16.578  0.1143  0.4782  0.2054
    4MPD1    C514083   0.082   3.194  16.549 -0.6848  0.0203 -0.1960
    4MPD1     H14084   0.107   3.438  16.848 -2.9617  0.6676 -1.2905
    4MPD1    H114085   4.623   3.244  16.517 -1.3278  1.0060  2.0622
    4MPD1    H214086   0.284   3.171  16.578 -0.7219 -1.6470 -1.0302
    4MPD1    H314087   0.075   3.126  16.465 -1.1102  1.0350 -0.9959
    4MPD1     N14088   4.613   3.453  16.706  0.0245 -0.4397  0.0247
    4MPD1    H514089   4.628   3.521  16.779  0.4397 -1.5628  0.9839
    4MPD1    N114090   0.323   3.317  16.806  0.3575 -0.0786 -0.4265
    4MPD1    H614091   0.313   3.352  16.901 -0.8411  0.8753 -0.9066
    4MPD1    H714092   0.392   3.244  16.791 -0.4540 -0.8409 -0.5226
    1TCq1    O114093   3.851   3.790  11.273  0.0438  0.0920 -0.1008
    1TCq1    C114094   3.878   3.776  11.139  0.5550 -0.0321  0.0020
    1TCq1    O214095   3.920   3.870  11.073  0.5755  0.7066  0.6062
    1TCq1    C214096   3.926   3.640  11.131 -0.5985  0.4106  0.7934
    1TCq1    C314097   3.853   3.541  11.188  0.0578 -0.4438  0.4761
    1TCq1    C414098   3.911   3.413  11.180  0.4439  0.5787 -0.2267
    1TCq1    C514099   4.021   3.396  11.102 -0.0126 -0.0189 -0.6530
    1TCq1    C614100   4.092   3.504  11.063 -0.5580  0.3626 -0.2220
    1TCq1    C714101   4.049   3.630  11.079 -0.0579 -0.1851 -0.2569
    1TCq1    C814102   4.224   3.493  11.000  0.8697 -0.2475 -0.6023
    1TCq1    O414103   4.258   3.587  10.932  0.1862  0.1950 -0.1736
    1TCq1    C914104   3.829   3.289  11.192 -0.4201  0.1925 -0.2403
    1TCq1    O514105   3.870   3.189  11.127 -0.2830  0.0054 -0.9858
    1TCq1    O614106   3.722   3.294  11.254 -0.1902  0.4105 -0.2135
    1TCq1    H114107   3.845   3.704  11.318 -1.2361  0.0157 -0.4327
    1TCq1    H214108   3.746   3.558  11.197  0.2361  2.4805 -2.6973
    1TCq1    H314109   4.053   3.293  11.087 -2.0105 -0.6957 -0.2058
    1TCq1    H414110   4.103   3.716  11.041  1.6462 -0.8733  0.6076
    2MPD1     C14111   4.665   3.241  10.941  0.1963 -0.8603 -0.1748
    2MPD1    C114112   4.639   3.377  10.916  0.9849 -0.4392 -0.2204
    2MPD1    C214113   4.513   3.420  10.949 -0.1026 -0.4182  0.1754
    2MPD1    C314114   4.411   3.334  10.987 -0.3514  0.3456 -0.4016
    2MPD1    C414115   4.438   3.204  11.002 -0.1473  0.8330  0.9687
    2MPD1    C514116   4.563   3.155  10.978  0.0997  0.1130 -0.3408
    2MPD1     H14117   4.487   3.525  10.956 -0.6857 -0.4895 -0.9708
    2MPD1    H114118   4.369   3.133  11.047  2.8743 -2.1866  0.8284
    2MPD1    H214119   0.027   3.205  10.926  0.4915  0.0908 -0.4760
    2MPD1    H314120   4.583   3.049  10.987  0.0475  0.1434  0.1124
    2MPD1     N14121   4.284   3.376  11.034  0.1937 -0.5232  0.0429
    2MPD1    H514122   4.232   3.310  11.091 -1.0472  0.1450 -0.3182
    2MPD1    N114123   4.739   3.469  10.891  0.5461  0.1925  0.3211
    2MPD1    H614124   4.700   3.545  10.834  0.5425 -0.1229 -0.0955
    2MPD1    H714125   0.077   3.428  10.838 -0.5091  0.9559 -1.8046
    1TMC1    C114126   4.533   0.533   0.755 -0.1795 -0.2452 -0.6575
    1TMC1    C214127   4.424   0.452   0.739  0.1844  0.7244 -0.1230
    1TMC1    C314128   4.443   0.325   0.786  0.3109 -0.2360  0.4061
    1TMC1    C414129   4.650   0.498   0.822 -0.1980  0.0280 -0.4215
    1TMC1    C514130   4.659   0.369   0.862  0.2256  0.2912 -0.1618
    1TMC1    C614131   4.558   0.280   0.843  0.0713  0.0724 -0.6887
    1TMC1     C14132   4.523   0.681   0.719 -0.4961  0.6410 -0.5603
    1TMC1     O14133   4.617   0.755   0.751 -0.3332  0.1178  0.1038
    1TMC1     H14134   4.335   0.484   0.687  0.9182  0.5402 -1.4892
    1TMC1    H114135   4.729   0.572   0.831  1.0456 -1.7408  2.8361
    1TMC1    H214136   4.573   0.175   0.865  3.5838  0.5203 -0.8963
    1TMC1    C714137   0.028   0.321   0.949 -0.1708  0.0805  0.2128
    1TMC1    C814138   4.343   0.229   0.752 -0.2521  0.4497 -0.4566
    1TMC1    O114139   4.738   0.239   1.034 -0.4210  0.2143 -0.5720
    1TMC1    O214140   4.368   0.110   0.736  0.2399  0.0346 -0.3025
    1TMC1    O314141   0.143   0.366   0.920 -0.5608  0.0809  0.2591
    1TMC1    H314142   0.134   0.409   0.832 -1.6294 -2.0377 -0.6584
    1TMC1    O514143   4.222   0.272   0.799 -0.1705  0.3495 -0.5823
    1TMC1    H514144   4.223   0.361   0.841  0.9883  0.5507 -1.0172
    2MPD1     C14145   4.281   1.087   0.547  0.2011 -0.2347  0.2671
    2MPD1    C114146   4.233   0.978   0.475  0.5440 -0.2422  0.1007
    2MPD1    C214147   4.275   0.854   0.508 -0.0517 -0.5174 -0.4919
    2MPD1    C314148   4.365   0.835   0.612  0.3850 -0.5820  1.5840
    2MPD1    C414149   4.412   0.946   0.678 -0.5401 -0.7218  0.3191
    2MPD1    C514150   4.365   1.064   0.646 -0.0058 -0.2884  0.2164
    2MPD1     H14151   4.251   0.771   0.442 -4.4287 -0.3870  0.9072
    2MPD1    H114152   4.491   0.956   0.752  1.5607 -0.1997 -1.9734
    2MPD1    H214153   4.247   1.187   0.522 -0.8202 -0.3035  1.3494
    2MPD1    H314154   4.402   1.150   0.700  0.0391 -0.1631 -0.0129
    2MPD1     N14155   4.408   0.709   0.649  0.4340  0.5239  0.0391
    2MPD1    H514156   4.353   0.633   0.610 -0.0480  0.3816  0.9902
    2MPD1    N114157   4.159   1.011   0.361 -0.1859 -0.1899 -0.3968
    2MPD1    H614158   4.094   1.087   0.378 -0.8501 -0.5719 -1.2425
    2MPD1    H714159   4.120   0.929   0.313  0.2514  0.8094 -2.4572
    1MPD1     C14160   1.419   2.810  12.168 -0.0924 -0.0161  0.3544
    1MPD1    C114161   1.341   2.865  12.275  0.4619  0.6688 -0.2263
    1MPD1    C214162   1.310   2.997  12.256 -0.3798  0.0964 -0.0550
    1MPD1    C314163   1.365   3.071  12.151  0.3581  0.2994  0.3524
    1MPD1    C414164   1.455   3.018  12.060 -0.2207  0.2170 -0.1793
    1MPD1    C514165   1.473   2.882  12.070  0.8093 -0.1485  0.5243
    1MPD1     H14166   1.242   3.061  12.311  0.7552  0.2851  1.1319
    1MPD1    H114167   1.491   3.066  11.970  1.2584  0.3288  0.4712
    1MPD1    H214168   1.445   2.706  12.155  0.7975  0.3708 -0.9211
    1MPD1    H314169   1.537   2.844  11.992  2.8165  2.4183  0.9380
    1MPD1     N14170   1.324   3.211  12.139  0.3188 -0.4287  0.3970
    1MPD1    H514171   1.267   3.258  12.208 -0.9632 -0.4542 -0.6521
    1MPD1    N114172   1.277   2.782  12.370 -0.1484 -0.1386  0.6720
    1MPD1    H614173   1.337   2.702  12.385  0.6331 -0.1109 -2.1908
    1MPD1    H714174   1.267   2.830  12.459  0.0263 -0.2086  0.7286
    2MPD1     C14175   0.749   3.895  10.237 -0.0497  0.8395 -0.1726
    2MPD1    C114176   0.867   3.932  10.289 -0.1053 -0.0021 -0.1197
    2MPD1    C214177   0.964   3.840  10.319 -0.3922 -0.3846 -0.1703
    2MPD1    C314178   0.946   3.708  10.277  0.3777  0.4658  0.7845
    2MPD1    C414179   0.821   3.664  10.223 -0.1376 -0.7578  0.4871
    2MPD1    C514180   0.722   3.758  10.204 -0.0338  0.1083 -0.5332
    2MPD1     H14181   1.058   3.870  10.363  0.3658  0.0231 -2.0649
    2MPD1    H114182   0.806   3.560  10.197  0.8621 -1.5365  2.9691
    2MPD1    H214183   0.667   3.966  10.235 -0.1666  0.7301  0.7615
    2MPD1    H314184   0.628   3.724  10.160 -0.4876  0.4954  0.1451
    2MPD1     N14185   1.067   3.631  10.289  0.3040  0.1325 -0.2200
    2MPD1    H514186   1.147   3.671  10.339 -2.3762  2.3194  2.3424
    2MPD1    N114187   0.885   4.061  10.339 -0.0508 -0.0550  0.7081
    2MPD1    H614188   0.981   4.093  10.342 -0.0265  0.0127 -0.5678
    2MPD1    H714189   0.837   4.127  10.278  0.1663 -0.9414 -0.4304
    3MPD1     C14190   1.796   3.067   9.722  0.0005 -0.8845  0.3634
    3MPD1    C114191   1.825   3.025   9.853 -0.0786 -0.6921  0.5285
    3MPD1    C214192   1.738   3.076   9.950  0.3303 -1.0091 -0.0459
    3MPD1    C314193   1.633   3.153   9.918  0.5413  0.2931 -0.3339
    3MPD1    C414194   1.608   3.187   9.789 -0.8811  0.0990  0.6287
    3MPD1    C514195   1.703   3.161   9.690  0.0721 -0.0505  0.5818
    3MPD1     H14196   1.749   3.055  10.056 -0.5871 -1.6290 -0.0744
    3MPD1    H114197   1.524   3.249   9.762 -0.7339 -0.1919 -0.5271
    3MPD1    H214198   1.845   3.033   9.632  0.7884 -0.6103  0.6896
    3MPD1    H314199   1.690   3.194   9.588 -0.4659 -0.0899  0.6382
    3MPD1     N14200   1.560   3.211  10.032  0.5725  0.0460  0.2629
    3MPD1    H514201   1.594   3.189  10.125 -0.5565  1.1978  0.9418
    3MPD1    N114202   1.922   2.921   9.876 -0.5016  0.1330  0.3128
    3MPD1    H614203   1.949   2.935   9.973 -1.6842 -0.2361  0.6992
    3MPD1    H714204   2.004   2.918   9.815 -1.2951 -1.2743 -0.6896
    4MPD2     C14205   0.885   3.582  11.713  0.5413  0.1013 -0.5490
    4MPD2    C114206   0.995   3.660  11.746  0.4731  0.1772 -0.6812
    4MPD2    C214207   1.052   3.732  11.645 -0.4277 -0.5219  0.0165
    4MPD2    C314208   1.012   3.729  11.513  0.0538 -0.1037  0.4708
    4MPD2    C414209   0.908   3.654  11.479 -0.6122 -0.0627  0.4825
    4MPD2    C514210   0.844   3.578  11.581  0.0155 -0.6193 -0.1494
    4MPD2     H14211   1.130   3.795  11.686 -1.5961  2.2394 -2.0561
    4MPD2    H114212   0.877   3.653  11.375  1.1606 -0.8494 -0.0364
    4MPD2    H214213   0.830   3.520  11.784  0.6312 -0.3646 -0.8876
    4MPD2    H314214   0.758   3.527  11.540 -0.2476  0.4748 -0.9509
    4MPD2     N14215   1.068   3.805  11.408 -0.3498  0.6948 -0.1158
    4MPD2    H514216   1.024   3.793  11.318 -1.0431 -1.1336  0.4552
    4MPD2    N114217   1.061   3.654  11.868 -0.6158 -0.1091  0.0959
    4MPD2    H714218   1.147   3.707  11.881 -0.4082 -0.1473 -1.2170
    5TMC3    C114219   1.136   3.572  12.070 -0.7621  0.2463  0.0692
    5TMC3    C214220   1.189   3.454  12.076 -0.4129  0.3024  0.4506
    5TMC3    C314221   1.325   3.434  12.086 -0.1005  0.6035  0.6605
    5TMC3    C414222   1.219   3.682  12.065  0.0776  0.0501  0.0482
    5TMC3    C514223   1.353   3.665  12.051 -0.4757 -0.0408 -0.6073
    5TMC3    C614224   1.409   3.538  12.067  0.3964 -0.5551  0.5327
    5TMC3     C14225   1.021   3.580  11.979  0.6376 -1.1885 -0.5553
    5TMC3     O14226   0.931   3.506  12.009  0.4967 -0.5589  0.4194
    5TMC3     H14227   1.120   3.371  12.083 -0.4243  0.3917  1.3763
    5TMC3    H114228   1.173   3.778  12.046 -0.6127 -0.5926 -1.4932
    5TMC3    H214229   1.515   3.518  12.055 -0.2776 -2.6413 -2.1296
    5TMC3    C714230   1.392   3.740  11.939 -0.4057  0.1621  1.0798
    5TMC3    C814231   1.386   3.300  12.058 -0.6154 -0.1829 -0.8837
    5TMC3    O114232   1.308   3.764  11.851 -0.1634  0.2379 -0.0076
    5TMC3    O214233   1.494   3.294  12.000 -0.1966  0.5606  0.1909
    6TMC3    C114234   1.217   3.447  10.232 -0.5803 -0.6213 -0.3607
    6TMC3    C214235   1.268   3.400  10.111 -0.0606 -0.1742 -0.3232
    6TMC3    C314236   1.397   3.350  10.122  0.3576 -0.1737 -0.2427
    6TMC3    C414237   1.285   3.467  10.344  0.3739  0.2968  0.2869
    6TMC3    C514238   1.417   3.421  10.343  0.1909  0.3818 -0.4905
    6TMC3    C614239   1.469   3.369  10.233 -0.1586 -0.3612 -0.8785
    6TMC3     C14240   1.079   3.508  10.229 -0.9295  0.0832 -0.4724
    6TMC3     O14241   1.010   3.446  10.151  0.4162 -0.2179 -0.0004
    6TMC3     H14242   1.205   3.406  10.023 -3.6248 -2.3163  2.0723
    6TMC3    H114243   1.243   3.499  10.439  0.9319  1.6453  0.0669
    6TMC3    H214244   1.576   3.351  10.230  0.1091  1.0382  0.2376
    6TMC3    C714245   1.513   3.438  10.456 -0.5774  0.3108  0.0199
    6TMC3    C814246   1.436   3.265  10.013 -0.2988 -0.0674  0.1110
    6TMC3    O114247   1.618   3.379  10.444 -0.3753  0.4261  0.0881
    6TMC3    O214248   1.364   3.268   9.915  0.3947  0.3845 -0.1716
    7MPD2     C14249   1.731   3.948  11.604 -0.0226 -0.2209 -0.1832
    7MPD2    C114250   1.596   3.939  11.607 -0.4883  0.1713 -0.5662
    7MPD2    C214251   1.529   3.887  11.715  0.3719  0.7392  0.6038
    7MPD2    C314252   1.597   3.823  11.818 -0.6251 -0.0626 -0.0814
    7MPD2    C414253   1.737   3.815  11.810 -0.2369 -1.0342 -1.1040
    7MPD2    C514254   1.800   3.870  11.699  0.5647  0.8136  0.4085
    7MPD2     H14255   1.421   3.892  11.700  0.2328  0.0041  1.4203
    7MPD2    H114256   1.798   3.757  11.878  0.1271 -2.1809 -2.4022
    7MPD2    H214257   1.786   3.974  11.514  0.4068  0.6108  0.3245
    7MPD2    H314258   1.904   3.845  11.682  1.2152  2.3217  2.2409
    7MPD2     N14259   1.532   3.760  11.931 -0.5165 -0.2563  0.0928
    7MPD2    H514260   1.592   3.712  11.997 -0.6054 -0.0052  0.3567
    7MPD2    N114261   1.512   3.984  11.502  0.0205 -0.6088 -0.6421
    7MPD2    H714262   1.414   3.960  11.512  0.0821 -0.9755 -0.9368
    8TMC3    C114263   1.441   4.041  11.282 -0.4505 -0.9949  0.3597
    8TMC3    C214264   1.468   3.971  11.163 -0.6222 -0.7068  0.0411
    8TMC3    C314265   1.368   3.894  11.115  0.4025 -0.1253  0.1157
    8TMC3    C414266   1.321   4.040  11.345  0.0475  0.5141 -0.2992
    8TMC3    C514267   1.220   3.956  11.297  0.2527  0.7074  0.5701
    8TMC3    C614268   1.248   3.882  11.185 -0.0072  0.2473  0.3214
    8TMC3     C14269   1.554   4.028  11.373 -0.2132 -0.2181  0.2768
    8TMC3     O14270   1.660   4.046  11.319 -0.2831 -0.2564 -0.4425
    8TMC3     H14271   1.559   3.993  11.108 -0.9415  1.4475  0.3759
    8TMC3    H114272   1.302   4.109  11.427  2.8189 -0.0762  0.8170
    8TMC3    H214273   1.167   3.827  11.140 -2.3314  1.9679  2.4099
    8TMC3    C714274   1.178   3.885  11.417  0.4544 -0.2803  0.2425
    8TMC3    C814275   1.387   3.838  10.986 -0.2173  0.2420 -1.1322
    8TMC3    O114276   1.254   3.899  11.507  0.6777 -0.2330 -0.1879
    8TMC3    O214277   1.286   3.802  10.928  0.0775  0.7930  0.6652
    9MPD2     C14278   1.700   3.677  10.854  0.1254  0.4007 -0.0470
    9MPD2    C114279   1.564   3.713  10.855 -0.0949 -0.8569 -0.4468
    9MPD2    C214280   1.488   3.662  10.749  0.0133  0.3967  0.3630
    9MPD2    C314281   1.546   3.581  10.653 -0.5191  0.7349 -0.0709
    9MPD2    C414282   1.683   3.554  10.655  0.7856 -0.0486  0.0538
    9MPD2    C514283   1.763   3.617  10.747 -0.4165  1.1185 -0.0588
    9MPD2     H14284   1.383   3.686  10.742 -0.7370 -2.9646 -0.1201
    9MPD2    H114285   1.731   3.502  10.573  2.5408  0.3854  0.8241
    9MPD2    H214286   1.763   3.693  10.940  1.5112 -0.8687 -0.8336
    9MPD2    H314287   1.869   3.597  10.752 -0.6033  0.4677  1.5675
    9MPD2     N14288   1.466   3.517  10.554 -0.7888 -0.3085 -0.1820
    9MPD2    H514289   1.374   3.554  10.534 -1.5453 -1.5363  0.9869
    9MPD2    N114290   1.516   3.792  10.964 -0.6486 -0.3708  0.1378
    9MPD2    H714291   1.591   3.804  11.031  0.1407  1.0689 -1.0240
    1MPD1     C14292   0.328   1.347  14.277 -0.1364 -0.2811  0.3070
    1MPD1    C114293   0.288   1.455  14.353 -0.1415  0.0196 -0.0182
    1MPD1    C214294   0.323   1.457  14.487  0.9321  0.4684 -0.4688
    1MPD1    C314295   0.398   1.364  14.549  0.1548  0.1274  0.3802
    1MPD1    C414296   0.442   1.260  14.471 -0.2799  0.5532 -0.9271
    1MPD1    C514297   0.396   1.246  14.343  0.0167  0.0563 -0.0164
    1MPD1     H14298   0.284   1.538  14.547 -0.2581 -0.0481 -0.5440
    1MPD1    H114299   0.512   1.185  14.508 -0.6819  0.9635  0.6596
    1MPD1    H214300   0.310   1.331  14.171 -1.4819  0.2540  0.4525
    1MPD1    H314301   0.423   1.162  14.281  0.4864  0.6701 -0.6465
    1MPD1     N14302   0.448   1.373  14.681  0.7589  0.2175 -0.2825
    1MPD1    H514303   0.527   1.318  14.713  1.3455  1.0004 -0.3727
    1MPD1    N114304   0.200   1.551  14.300 -0.0650  0.1198 -0.3750
    1MPD1    H614305   0.221   1.644  14.337 -0.6728  1.2334 -2.8478
    1MPD1    H714306   0.216   1.565  14.201  3.1001  0.9548  0.2689
    2TMC2    C114307   0.439   1.255  15.058  0.0664 -0.8054 -0.3024
    2TMC2    C214308   0.395   1.343  15.156 -0.3633  0.0546 -0.2553
    2TMC2    C314309   0.372   1.469  15.123 -0.9734  0.1660  0.2406
    2TMC2    C414310   0.462   1.300  14.928 -0.0604 -0.0675 -0.1313
    2TMC2    C514311   0.445   1.435  14.902  1.1407  0.0621  0.5656
    2TMC2    C614312   0.406   1.523  14.999 -0.1287 -0.2226  0.1067
    2TMC2     C14313   0.448   1.109  15.069 -0.3199 -0.2043  0.1705
    2TMC2     O14314   0.509   1.042  14.982 -0.1790  0.0134 -0.1621
    2TMC2     H14315   0.366   1.312  15.256  0.7142 -0.7189 -0.1808
    2TMC2    H114316   0.489   1.229  14.851  0.8926  0.2894 -0.1167
    2TMC2    H214317   0.400   1.627  14.971 -0.3753 -0.3906 -0.4786
    2TMC2    C714318   0.421   1.480  14.766  0.6258 -0.0074 -0.2557
    2TMC2    C814319   0.283   1.557  15.194 -0.7483 -0.0194 -0.4736
    2TMC2    O114320   0.347   1.578  14.758  0.1352 -0.3152 -0.5651
    2TMC2    O214321   0.278   1.672  15.161  0.2686  0.5504 -0.0401
    2TMC2    O514322   0.183   1.480  15.237  0.0021 -0.1921 -0.3909
    2TMC2    H514323   0.197   1.384  15.225  0.2330 -0.2043 -0.0262
    3MPD1     C14324   0.420   0.689  15.379 -0.0211 -0.0791 -0.8219
    3MPD1    C114325   0.327   0.781  15.418  0.7061  0.5665  0.0418
    3MPD1    C214326   0.326   0.905  15.352  0.3580 -0.2048  0.7715
    3MPD1    C314327   0.415   0.936  15.248 -0.5363 -0.0944  0.4744
    3MPD1    C414328   0.498   0.839  15.200  0.2377  0.4824  0.3741
    3MPD1    C514329   0.495   0.715  15.262  0.5998 -0.0629  0.5198
    3MPD1     H14330   0.254   0.976  15.391 -1.3627 -1.1343 -0.7263
    3MPD1    H114331   0.563   0.845  15.113  1.2320  1.6236  1.1847
    3MPD1    H214332   0.431   0.596  15.434  0.8994 -0.0964 -1.0295
    3MPD1    H314333   0.571   0.648  15.223  0.8540  1.2471 -1.2422
    3MPD1     N14334   0.407   1.067  15.194  0.3549 -0.2713  0.1518
    3MPD1    H514335   0.344   1.131  15.242  2.9927  1.5920  1.1418
    3MPD1    N114336   0.258   0.761  15.540  0.1093  0.4021 -0.5753
    3MPD1    H614337   0.229   0.665  15.558  4.2060 -0.7624 -0.2715
    3MPD1    H714338   0.175   0.818  15.553 -1.8244 -2.5319 -0.1555
    1TMC1    C114339   4.326   1.561  13.086  0.6983 -0.4294  0.1052
    1TMC1    C214340   4.207   1.587  13.026 -0.8128  0.0262  0.0960
    1TMC1    C314341   4.180   1.539  12.903 -0.4770  0.2863  0.0470
    1TMC1    C414342   4.424   1.478  13.030 -0.2182  0.2611 -0.1192
    1TMC1    C514343   4.383   1.430  12.913 -0.2487  0.5640 -0.2561
    1TMC1    C614344   4.274   1.471  12.831  0.2446  0.1871  0.6292
    1TMC1     C14345   4.321   1.567  13.231  0.9051  0.3886  0.0985
    1TMC1     O14346   4.265   1.671  13.264 -0.4523  0.1726  0.1281
    1TMC1     H14347   4.125   1.635  13.078  0.4685 -0.2390  2.3754
    1TMC1    H114348   4.505   1.438  13.089 -0.7539  0.0601  0.4860
    1TMC1    H214349   4.248   1.437  12.731 -0.2807  2.4547 -0.0071
    1TMC1    C714350   4.464   1.333  12.861 -0.2200  0.0709  0.6887
    1TMC1    C814351   4.041   1.552  12.850 -0.0609  0.5724 -0.2933
    1TMC1    O114352   4.574   1.303  12.904 -0.2389  0.1697  0.1034
    1TMC1    O214353   3.954   1.631  12.881  0.0218  0.2458 -0.2795
    1TMC1    O314354   4.389   1.246  12.795  0.0328  0.4348 -0.0752
    1TMC1    H314355   4.291   1.254  12.807 -0.0225  3.6538 -2.6135
    1TMC1    O514356   4.011   1.440  12.781  0.6865  0.5662  0.1058
    1TMC1    H514357   4.065   1.362  12.810 -1.3584  0.6134  4.1335
    2MPD2     C14358   4.335   1.529  13.527  0.3568  0.6972  0.1279
    2MPD2    C114359   4.419   1.469  13.434  0.0888 -0.2342 -0.1775
    2MPD2    C214360   4.516   1.379  13.467 -0.7546 -0.1493 -0.6114
    2MPD2    C314361   4.526   1.349  13.604  0.7418 -0.1895 -0.1175
    2MPD2    C414362   4.442   1.399  13.692 -1.7753  0.0193 -0.0233
    2MPD2    C514363   4.354   1.496  13.659  0.4341 -0.1460 -0.2451
    2MPD2     H14364   4.580   1.339  13.389  1.0850  1.8472 -0.0859
    2MPD2    H114365   4.466   1.397  13.798  0.6871  1.2585 -0.5583
    2MPD2    H214366   4.250   1.596  13.510  1.4970  1.9056 -0.8373
    2MPD2    H314367   4.299   1.549  13.737  0.1435 -0.7982 -0.0083
    2MPD2     N14368   4.630   1.267  13.655  0.6411  0.4441  0.0414
    2MPD2    H514369   4.628   1.234  13.751  0.3081 -2.7600 -1.0562
    2MPD2    N114370   4.395   1.477  13.294  0.3677 -0.7494 -0.1221
    2MPD2    H714371   4.442   1.408  13.235  1.0843 -1.7633  1.6311
    3TCq1    O114372   0.458   0.950  13.504  0.2503 -0.2036  0.1686
    3TCq1    C114373   0.451   1.053  13.588 -0.5108  0.0785  0.5655
    3TCq1    O214374   0.514   1.155  13.586 -0.1242 -0.4004  0.3783
    3TCq1    C214375   0.319   1.044  13.644 -0.2525 -0.4908  0.4607
    3TCq1    C314376   0.273   0.938  13.724  0.9022  0.2274  0.1155
    3TCq1    C414377   0.142   0.939  13.766 -0.0529 -0.3130  0.3708
    3TCq1    C514378   0.061   1.042  13.739 -0.6269 -0.7397 -0.7837
    3TCq1    C614379   0.105   1.147  13.657  0.2767  0.6778 -0.4211
    3TCq1    C714380   0.235   1.145  13.601  0.0714  0.7809  0.3864
    3TCq1    C814381   0.013   1.244  13.593 -0.8058  0.0088 -0.4016
    3TCq1    O414382   0.057   1.287  13.487 -0.4344 -0.4986 -0.4263
    3TCq1    C914383   0.100   0.840  13.858 -0.2115 -0.0743 -0.8678
    3TCq1    O514384   0.188   0.757  13.885  0.1732  0.3744  0.6485
    3TCq1    O614385   4.713   0.820  13.866 -0.1216 -0.1791  0.4252
    3TCq1    H114386   0.391   0.879  13.513  1.1814 -0.7205  3.2513
    3TCq1    H214387   0.336   0.854  13.751  2.2428  1.2129  0.0303
    3TCq1    H314388   4.706   1.048  13.793  0.4856  0.8384  0.9708
    3TCq1    H414389   0.279   1.225  13.542  0.3473 -1.1869 -2.0575
    1MPD2     C14390   4.294   2.386  14.422 -0.0876 -0.0353  0.3456
    1MPD2    C114391   4.159   2.352  14.458  0.2722  0.3501  0.3424
    1MPD2    C214392   4.104   2.234  14.406 -0.3249 -0.4341  0.4874
    1MPD2    C314393   4.189   2.148  14.338  0.0097 -0.1576 -0.2746
    1MPD2    C414394   4.322   2.176  14.320 -0.0293  0.1437 -1.1459
    1MPD2    C514395   4.375   2.304  14.349  0.2342  0.4685  0.4346
    1MPD2     H14396   3.999   2.210  14.412 -0.2353 -0.8334  0.4497
    1MPD2    H114397   4.390   2.110  14.267 -1.2135 -0.0332 -2.4447
    1MPD2    H214398   4.340   2.473  14.467  1.4902 -0.6034 -0.1744
    1MPD2    H314399   4.476   2.337  14.328  1.2852 -3.0131 -0.0559
    1MPD2     N14400   4.144   2.022  14.290 -0.4843  0.8186 -0.0038
    1MPD2    H514401   4.220   1.958  14.266 -2.2132 -1.4387  0.5119
    1MPD2    N114402   4.083   2.447  14.532  0.8574  0.0062  0.6289
    1MPD2    H714403   4.123   2.537  14.557 -0.0913  0.7433 -0.4664
    2TMC3    C114404   3.913   2.517  14.684 -0.5992  0.2288 -0.3895
    2TMC3    C214405   3.817   2.461  14.759 -0.6541 -0.0962  0.3076
    2TMC3    C314406   3.693   2.518  14.757 -0.5634  0.5563  0.4883
    2TMC3    C414407   3.893   2.641  14.622 -0.4155 -0.1404 -0.3427
    2TMC3    C514408   3.777   2.708  14.656  0.0449  0.2494 -0.0424
    2TMC3    C614409   3.672   2.650  14.716  0.1395 -0.4720  0.0601
    2TMC3     C14410   3.969   2.416  14.596  0.6099 -0.5385 -0.1555
    2TMC3     O14411   3.909   2.311  14.593  0.4276  0.5884  0.3211
    2TMC3     H14412   3.830   2.365  14.809 -0.7218  0.0451  0.5937
    2TMC3    H114413   3.954   2.672  14.538 -2.8169  0.3501 -1.9174
    2TMC3    H214414   3.577   2.700  14.727  1.2059  1.4665  0.4827
    2TMC3    C714415   3.752   2.837  14.596 -0.4555 -0.3783 -0.1965
    2TMC3    C814416   3.584   2.427  14.744 -0.1853  0.1425  0.4533
    2TMC3    O114417   3.638   2.871  14.585 -0.4392  0.5391 -0.1440
    2TMC3    O214418   3.463   2.455  14.752 -0.3095 -0.1903 -0.8249
    3TCq1    O114419   4.702   3.364  14.088 -0.1986  0.0791 -0.1084
    3TCq1    C114420   4.587   3.436  14.106 -0.6605  0.3148 -0.2761
    3TCq1    O214421   4.546   3.511  14.015 -0.1879  0.1976 -0.6147
    3TCq1    C214422   4.516   3.389  14.225 -0.1380  0.2676  0.7419
    3TCq1    C314423   4.583   3.315  14.318 -0.2825  0.6955 -0.4723
    3TCq1    C414424   4.513   3.282  14.431  0.2334  0.1094  1.0045
    3TCq1    C514425   4.380   3.310  14.448  0.2103 -0.1442 -0.2296
    3TCq1    C614426   4.312   3.378  14.346  0.4302 -0.2895 -0.3964
    3TCq1    C714427   4.384   3.423  14.235  0.4814 -0.1440  0.5011
    3TCq1    C814428   4.176   3.349  14.326  0.5742  0.0364 -0.3530
    3TCq1    O414429   4.123   3.381  14.224 -0.8205  0.6244 -0.8038
    3TCq1    C914430   4.592   3.206  14.531  0.8656  0.1617  0.3075
    3TCq1    O514431   4.710   3.161  14.499 -0.7263 -0.4843 -0.0398
    3TCq1    O614432   4.541   3.189  14.643  0.1677  0.1049 -0.3693
    3TCq1    H114433   4.707   3.288  14.150 -2.2344  0.6738  0.7799
    3TCq1    H214434   4.691   3.304  14.318 -0.3961 -0.3509 -0.7779
    3TCq1    H314435   4.333   3.287  14.543 -3.0899  1.3175 -1.5196
    3TCq1    H414436   4.332   3.478  14.157  0.5440  0.4005  0.8459
    4MPD2     C14437   3.897   3.246  14.352 -0.2387 -0.0624  0.7469
    4MPD2    C114438   4.007   3.191  14.410 -0.0829  0.3789  0.7351
    4MPD2    C214439   3.999   3.076  14.483  0.3667  0.3286  0.9074
    4MPD2    C314440   3.880   3.011  14.499 -0.3389 -0.1804 -0.0066
    4MPD2    C414441   3.768   3.071  14.435 -0.0544 -0.8847 -0.5140
    4MPD2    C514442   3.775   3.189  14.365 -0.0835 -0.1519  0.1479
    4MPD2     H14443   4.091   3.039  14.527  1.0192 -1.1343 -1.7071
    4MPD2    H114444   3.668   3.032  14.427 -1.0521  1.7416 -0.7481
    4MPD2    H214445   3.906   3.338  14.296  3.6694 -0.3284  0.9359
    4MPD2    H314446   3.694   3.240  14.315  1.0928  0.7399 -0.8499
    4MPD2     N14447   3.869   2.887  14.563 -0.1778 -0.0173 -0.1795
    4MPD2    H514448   3.949   2.840  14.604 -0.3179  1.1269  1.4222
    4MPD2    N114449   4.143   3.244  14.401 -0.1138 -0.5234 -0.2851
    4MPD2    H714450   4.210   3.192  14.456  0.0540  0.7111  0.6742
    5TMC2    C114451   3.790   1.716  14.373  0.0705  0.0394  0.2361
    5TMC2    C214452   3.872   1.628  14.439 -0.0510  0.2781  0.3843
    5TMC2    C314453   4.001   1.660  14.436 -0.1813  0.3447 -0.9769
    5TMC2    C414454   3.837   1.822  14.306 -0.5768  0.5078 -0.2325
    5TMC2    C514455   3.970   1.844  14.290  0.6826 -0.1504  0.2432
    5TMC2    C614456   4.056   1.760  14.356 -0.0100 -0.0685 -1.2033
    5TMC2     C14457   3.686   1.754  14.464 -0.2209 -0.2206 -0.7081
    5TMC2     O14458   3.625   1.670  14.531 -0.1489 -0.5794 -0.1742
    5TMC2     H14459   3.829   1.543  14.492  1.2436 -1.0458 -0.6971
    5TMC2    H114460   3.761   1.882  14.256  1.2339  1.9178 -1.3348
    5TMC2    H214461   4.160   1.788  14.371 -0.1777  1.8016 -3.4674
    5TMC2    C714462   4.011   1.988  14.289  0.3376 -0.2300 -0.1134
    5TMC2    C814463   4.092   1.580  14.511  0.2627  0.8443  0.7394
    5TMC2    O114464   3.911   2.055  14.269 -0.6356  0.1254 -0.4955
    5TMC2    O214465   4.207   1.567  14.477  0.4104 -0.6926 -0.0913
    5TMC2    O514466   4.055   1.579  14.641  0.5401  0.1555 -0.3277
    5TMC2    H514467   3.996   1.656  14.658  0.1827 -0.0453 -0.6425
    6MPD2     C14468   3.464   2.160  14.703  0.5303 -0.0421 -0.2376
    6MPD2    C114469   3.589   2.191  14.655 -0.0986 -0.0890  0.4144
    6MPD2    C214470   3.658   2.099  14.582 -0.7006 -0.1623  0.1501
    6MPD2    C314471   3.618   1.969  14.566  0.0156 -0.8227  0.7392
    6MPD2    C414472   3.491   1.942  14.618  0.0545 -0.2988 -0.6633
    6MPD2    C514473   3.416   2.033  14.686 -0.2144  0.3585 -0.5078
    6MPD2     H14474   3.756   2.125  14.543 -0.2377  0.2656  1.6060
    6MPD2    H114475   3.456   1.840  14.603  0.1461 -0.9006  3.3182
    6MPD2    H214476   3.394   2.228  14.752 -0.1369 -0.0467 -1.1712
    6MPD2    H314477   3.317   2.002  14.718  0.0352  0.2333  0.1466
    6MPD2     N14478   3.693   1.892  14.477 -0.1087  0.1481 -0.0167
    6MPD2    H514479   3.780   1.931  14.440  0.5920 -2.0924 -0.7514
    6MPD2    N114480   3.644   2.319  14.679  0.4456  0.2018  0.2689
    6MPD2    H714481   3.744   2.320  14.658  0.3241 -0.4965 -0.3581
  945NH3     N114482   1.566   2.550  11.224 -0.5134 -0.9982 -0.0291
  945NH3     H214483   1.503   2.495  11.165  0.0525 -1.2787 -0.3706
  945NH3     H314484   1.504   2.619  11.264  0.8821  0.1856  0.0981
  945NH3     H414485   1.595   2.487  11.297 -0.1275  1.4667  1.9354
  946SOD     NA14486   0.834   4.121  16.157  0.7373 -0.2577  0.4738
  947SOD     NA14487   2.885   0.709  15.506 -0.1452  0.7004  0.1287
  948SOD     NA14488   4.486   3.165   9.369  0.2838  0.0426  0.4097
  949SOD     NA14489   3.522   0.092  15.492 -0.0436 -0.1279  0.5018
  950SOD     NA14490   0.366   4.678   3.296  0.0412 -0.4687 -0.3114
  951SOD     NA14491   2.794   3.102  11.576  0.6745 -0.0306  0.2288
  952SOD     NA14492   2.231   2.008   0.316 -0.4282 -0.3209 -1.1099
  953SOD     NA14493   1.681   4.732  14.089  0.1093  0.6477 -0.1855
  954SOL     OW14494   4.129   1.811   6.762  0.0492  0.1926 -0.1820
  954SOL    HW114495   4.044   1.797   6.719 -1.8431  3.1915  2.5052
  954SOL    HW214496   4.099   1.824   6.853 -0.5975 -1.7143 -0.1169
  955SOL     OW14497   1.998   2.011  12.288 -0.4283 -0.1355  0.3917
  955SOL    HW114498   2.007   1.970  12.374  1.8497  0.2967  0.3604
  955SOL    HW214499   1.964   1.937  12.239  0.7287 -2.8700  3.7232
  956SOL     OW14500   2.625   3.819   5.393 -0.3033  0.2438 -0.1133
  956SOL    HW114501   2.538   3.809   5.431 -1.0876  0.9072 -1.7318
  956SOL    HW214502   2.625   3.913   5.374  1.9716  0.4212  0.7221
  957SOL     OW14503   3.309   1.250   8.977 -0.1391 -0.8597 -0.0043
  957SOL    HW114504   3.365   1.211   9.045  0.4095  0.5392  0.3421
  957SOL    HW214505   3.299   1.175   8.918 -1.9180  0.1929 -1.0486
  958SOL     OW14506   2.088   1.046   4.015 -0.0065 -0.1377  0.0107
  958SOL    HW114507   2.070   0.996   3.936  1.9913 -0.7049 -0.0966
  958SOL    HW214508   2.126   1.123   3.973 -1.0859  0.9651  1.0594
  959SOL     OW14509   1.294   3.528   1.722 -0.2113  0.0445 -0.2732
  959SOL    HW114510   1.288   3.586   1.646 -0.6713  0.8633  0.3866
  959SOL    HW214511   1.370   3.475   1.701 -0.2627  0.4730 -1.5581
  960SOL     OW14512   2.312   4.360   3.985 -0.1484  0.5420 -0.5776
  960SOL    HW114513   2.256   4.295   4.027  0.5151  0.1379 -0.3220
  960SOL    HW214514   2.366   4.391   4.058 -0.5902  0.0800 -0.0603
  961SOL     OW14515   2.651   3.840   2.822 -0.1165  0.1252  0.6879
  961SOL    HW114516   2.678   3.865   2.911 -0.3617  1.3755  0.4088
  961SOL    HW214517   2.658   3.920   2.770  1.3944 -0.7593 -0.4449
  962SOL     OW14518   0.492   2.727   4.532 -0.3871 -0.4042  0.1187
  962SOL    HW114519   0.549   2.755   4.604 -1.1022  0.0237  0.5181
  962SOL    HW214520   0.414   2.774   4.562  0.8630  1.5955  0.2202
  963SOL     OW14521   2.941   1.691  16.093 -0.2976 -0.5837  0.3781
  963SOL    HW114522   2.958   1.642  16.013  0.2708 -3.0295  1.9900
  963SOL    HW214523   2.876   1.758  16.071 -0.2579 -0.6452  0.0773
  964SOL     OW14524   3.799   3.600  12.359 -0.1937  0.1741 -0.3247
  964SOL    HW114525   3.845   3.518  12.373 -0.4524 -0.0509 -0.8095
  964SOL    HW214526   3.716   3.557  12.338  1.3469 -1.4029 -3.1853
  965SOL     OW14527   2.465   2.647   6.985 -0.2009 -0.6211  0.1182
  965SOL    HW114528   2.514   2.705   7.043  2.6403 -0.6414 -2.3079
  965SOL    HW214529   2.524   2.572   6.993 -0.0982 -0.4894  0.5899
  966SOL     OW14530   1.354   3.454   6.686  0.9996  0.0018  0.2664
  966SOL    HW114531   1.381   3.527   6.630  3.2558 -2.0710 -1.3218
  966SOL    HW214532   1.371   3.372   6.639  0.5469  0.2507 -0.3464
  967SOL     OW14533   1.995   4.524   0.472 -0.3931 -0.3940  0.0881
  967SOL    HW114534   1.977   4.597   0.413  2.1315  0.4443  0.3381
  967SOL    HW214535   1.976   4.445   0.421  0.2071 -1.0462  0.8706
  968SOL     OW14536   2.693   2.796   5.157  0.9097 -0.3531  0.2522
  968SOL    HW114537   2.691   2.701   5.169  0.8484 -0.2409  1.1827
  968SOL    HW214538   2.764   2.828   5.213  1.6633  1.6356 -1.8318
  969SOL     OW14539   1.996   0.752   0.975  0.0906 -0.0256 -0.1904
  969SOL    HW114540   1.901   0.745   0.970  0.1399  0.4885 -1.7976
  969SOL    HW214541   2.023   0.662   0.995  1.2734  0.2731 -0.4302
  970SOL     OW14542   2.666   4.297   7.536 -0.6032 -0.1028  0.2517
  970SOL    HW114543   2.612   4.354   7.590  0.7453  0.6204  0.8385
  970SOL    HW214544   2.706   4.355   7.471 -2.1921  0.5641 -0.1230
  971SOL     OW14545   0.703   0.729  14.853  0.7691  0.1995  0.2750
  971SOL    HW114546   0.726   0.795  14.919  0.1762  0.6773  0.0004
  971SOL    HW214547   0.654   0.662  14.900  0.2777  1.3183  1.3722
  972SOL     OW14548   3.313   4.370   4.286  0.5858  0.1713 -0.2380
  972SOL    HW114549   3.393   4.349   4.335 -1.1697 -1.8080  1.7667
  972SOL    HW214550   3.255   4.304   4.323  0.4601  1.4171  1.7897
  973SOL     OW14551   1.806   2.418  17.430  0.2964  0.4098  0.0653
  973SOL    HW114552   1.750   2.356  17.383 -0.2438  0.9161  0.0393
  973SOL    HW214553   1.886   2.413  17.378 -0.9700 -3.1639 -1.5410
  974SOL     OW14554   2.430   2.514   4.545  0.5138  0.4200  0.3517
  974SOL    HW114555   2.514   2.541   4.508 -1.0939  1.5922 -2.4641
  974SOL    HW214556   2.455   2.423   4.559  0.5670  0.1287 -1.6852
  975SOL     OW14557   1.622   3.406  11.774  0.1510  1.0579 -0.0760
  975SOL    HW114558   1.557   3.472  11.753 -0.2868  1.1836  1.6806
  975SOL    HW214559   1.577   3.353  11.839 -0.0146  3.6650  1.8993
  976SOL     OW14560   3.166   2.718   8.288 -0.0142 -0.1681  0.1325
  976SOL    HW114561   3.086   2.719   8.235  0.2006  2.2065 -0.1390
  976SOL    HW214562   3.162   2.798   8.340 -0.9994 -1.5455  2.1732
  977SOL     OW14563   3.893   4.610   5.191 -0.5807  0.1348 -0.4017
  977SOL    HW114564   3.933   4.538   5.143  0.1011  1.6933 -2.1907
  977SOL    HW214565   3.814   4.573   5.228 -1.3041  1.3179 -0.7600
  978SOL     OW14566   3.720   3.891   6.193  0.2248  0.2940  0.0034
  978SOL    HW114567   3.749   3.980   6.213 -0.9062  0.0391  2.8572
  978SOL    HW214568   3.673   3.868   6.273 -2.1475 -0.0380 -1.4904
  979SOL     OW14569   0.231   3.716  15.297 -0.0811  0.1928 -0.7244
  979SOL    HW114570   0.255   3.769  15.373 -1.3902 -1.4821  0.8574
  979SOL    HW214571   0.283   3.761  15.231  1.1657  1.8270  1.3699
  980SOL     OW14572   2.614   3.429   0.920  0.1766  0.5167 -0.1792
  980SOL    HW114573   2.659   3.467   0.996 -2.3616  1.0257  1.0807
  980SOL    HW214574   2.570   3.353   0.960 -0.0569  0.6147 -0.2514
  981SOL     OW14575   3.277   3.674   3.323 -0.3625  0.3611  0.0542
  981SOL    HW114576   3.184   3.669   3.345 -0.2846 -0.8263  0.1130
  981SOL    HW214577   3.314   3.732   3.389 -0.5641  0.4033  0.1294
  982SOL     OW14578   4.471   1.145  13.939 -0.1699  0.5982 -0.6630
  982SOL    HW114579   4.454   1.183  14.026 -2.7336 -0.1150 -0.8436
  982SOL    HW214580   4.389   1.156  13.891  1.0045 -1.1351 -3.0646
  983SOL     OW14581   0.993   4.367   6.423 -0.3668 -0.4964  0.0597
  983SOL    HW114582   1.061   4.302   6.406  1.3123  0.5577  2.7041
  983SOL    HW214583   1.022   4.444   6.374 -0.1115  0.6743  2.0817
  984SOL     OW14584   1.783   2.408   2.376  0.1980 -0.8134  0.2433
  984SOL    HW114585   1.871   2.434   2.403  0.5435 -0.7796 -0.9101
  984SOL    HW214586   1.735   2.490   2.385 -0.9698 -1.6395  1.5703
  985SOL     OW14587   3.445   4.392  13.675  0.2825 -0.0842  0.3842
  985SOL    HW114588   3.432   4.322  13.740  0.3784 -1.4273 -1.0285
  985SOL    HW214589   3.383   4.378  13.603 -0.3121 -2.6421  1.3764
  986SOL     OW14590   1.788   0.375  16.943 -0.4067 -0.1287 -0.0501
  986SOL    HW114591   1.694   0.392  16.938 -0.1916  1.1067  0.1477
  986SOL    HW214592   1.827   0.439  16.883  0.6127 -1.8451 -1.2317
  987SOL     OW14593   1.036   1.423   0.779 -0.3810  0.6214  0.6873
  987SOL    HW114594   1.101   1.360   0.809  2.1506  2.3233 -1.2174
  987SOL    HW214595   1.094   1.491   0.744 -0.5026  1.5756  2.3143
  988SOL     OW14596   1.246   1.805   7.859 -0.1333  0.2015  0.3637
  988SOL    HW114597   1.253   1.771   7.948 -1.2445 -0.4617  0.2035
  988SOL    HW214598   1.153   1.787   7.844  0.2219  0.7201 -2.4586
  989SOL     OW14599   2.268   0.168   9.228 -0.1069  0.6440 -0.2553
  989SOL    HW114600   2.218   0.250   9.236  0.8848  1.2865 -0.7333
  989SOL    HW214601   2.288   0.157   9.135 -1.1238 -0.4089 -0.3525
  990SOL     OW14602   1.514   4.182   7.572 -0.3041  0.0416  0.2070
  990SOL    HW114603   1.552   4.094   7.571  2.9106  1.4162 -0.5141
  990SOL    HW214604   1.581   4.221   7.628 -1.2142  0.1689  1.1944
  991SOL     OW14605   0.478   1.560  10.945 -0.1853  0.1270 -0.1430
  991SOL    HW114606   0.558   1.518  10.976  1.2207  4.3563  1.9250
  991SOL    HW214607   0.438   1.592  11.026  1.4101 -0.2354  0.7688
  992SOL     OW14608   4.201   0.845  16.790  0.4063 -0.2827 -0.1322
  992SOL    HW114609   4.178   0.936  16.769 -2.5981 -0.9891  0.1793
  992SOL    HW214610   4.135   0.816  16.854 -1.5290 -0.7983 -2.3890
  993SOL     OW14611   3.933   2.555   3.954  0.0149 -0.4571  0.1097
  993SOL    HW114612   3.999   2.607   4.000 -0.7574  0.1280  0.5481
  993SOL    HW214613   3.874   2.538   4.028  0.5005 -0.7360  0.4334
  994SOL     OW14614   1.792   3.010   1.021  0.8624  0.7941 -0.0705
  994SOL    HW114615   1.729   2.947   0.985  1.7818 -0.6818  0.9018
  994SOL    HW214616   1.867   2.951   1.027  1.0351  1.3549  3.4769
  995SOL     OW14617   4.682   1.681   7.218 -0.4324 -0.2410 -0.0564
  995SOL    HW114618   4.637   1.603   7.249 -0.6198  0.5998  1.8228
  995SOL    HW214619   0.008   1.701   7.286 -1.1430 -0.8460  0.7852
  996SOL     OW14620   0.098   0.523  15.572  0.2211  0.3504 -0.1899
  996SOL    HW114621   0.043   0.589  15.612  1.0305  1.3555 -0.7329
  996SOL    HW214622   0.029   0.465  15.540  1.1680 -2.3652  2.7065
  997SOL     OW14623   1.041   1.557   6.820  0.3026  0.4357  0.2775
  997SOL    HW114624   1.045   1.648   6.850  1.6471  1.3170 -2.5765
  997SOL    HW214625   1.019   1.504   6.896  1.1920 -0.5713 -0.1785
  998SOL     OW14626   3.166   2.090  15.252 -0.1223  0.0212 -0.2129
  998SOL    HW114627   3.134   2.009  15.290  0.3697 -0.3688 -0.6388
  998SOL    HW214628   3.099   2.149  15.286  0.2318 -0.1616  0.7890
  999SOL     OW14629   2.171   1.685   7.693 -0.3238 -0.2642  0.4234
  999SOL    HW114630   2.145   1.626   7.764 -1.2674 -0.4698 -0.1011
  999SOL    HW214631   2.091   1.720   7.655 -1.8735 -3.8149  0.4289
 1000SOL     OW14632   0.999   3.373   9.111 -0.0982  0.1054  0.8312
 1000SOL    HW114633   1.040   3.291   9.139  0.0069  0.5366  1.9411
 1000SOL    HW214634   0.982   3.355   9.018  0.3881 -0.7412  0.8958
 1001SOL     OW14635   1.660   1.684   8.692 -0.3052  0.5693  0.3182
 1001SOL    HW114636   1.603   1.616   8.728  1.3923 -0.1648  1.6376
 1001SOL    HW214637   1.641   1.758   8.750 -2.2129  0.1893  0.1821
 1002SOL     OW14638   0.124   1.063   8.360 -0.1320 -0.3387  0.2791
 1002SOL    HW114639   0.159   1.107   8.438  1.0330  0.0178 -0.4420
 1002SOL    HW214640   0.125   1.137   8.300  1.6614 -0.8155 -0.2731
 1003SOL     OW14641   2.359   3.001   1.949  0.3396  0.3565  0.2792
 1003SOL    HW114642   2.335   3.088   1.982  1.1612  0.4371  0.6824
 1003SOL    HW214643   2.319   2.946   2.015 -0.2610 -0.7489 -1.0075
 1004SOL     OW14644   1.966   2.639   6.804 -0.5584 -0.3489 -0.2953
 1004SOL    HW114645   2.041   2.662   6.859 -0.0292  0.7063 -1.4644
 1004SOL    HW214646   1.919   2.587   6.870 -1.7932 -0.0572 -0.9444
 1005SOL     OW14647   2.287   0.326   2.753 -0.5929 -0.1755 -0.1185
 1005SOL    HW114648   2.371   0.282   2.764 -0.6502 -0.2195  0.1305
 1005SOL    HW214649   2.259   0.309   2.663 -0.5027  0.8085 -0.3336
 1006SOL     OW14650   0.662   4.387   6.239 -0.2464  0.4116 -0.3380
 1006SOL    HW114651   0.679   4.426   6.154 -0.3769  0.7885 -0.1905
 1006SOL    HW214652   0.618   4.305   6.214  1.9955 -1.4283  1.7713
 1007SOL     OW14653   1.904   1.477   1.588 -0.5235 -0.5437 -0.0586
 1007SOL    HW114654   1.853   1.396   1.588  1.7417 -1.9670  1.1061
 1007SOL    HW214655   1.837   1.544   1.597 -0.6242 -0.3306 -2.5012
 1008SOL     OW14656   1.299   1.812   6.668  0.3314  0.2664 -0.0189
 1008SOL    HW114657   1.251   1.817   6.586 -0.2740 -0.3528  0.3025
 1008SOL    HW214658   1.232   1.820   6.736  1.4116 -1.9515  1.3104
 1009SOL     OW14659   0.618   3.470   2.346  0.1695  0.4379 -0.2400
 1009SOL    HW114660   0.663   3.550   2.374 -1.7230  0.8999  1.5167
 1009SOL    HW214661   0.532   3.506   2.325 -0.3740  0.2875  1.7336
 1010SOL     OW14662   4.579   4.689  17.715  0.4875 -0.1235 -0.4505
 1010SOL    HW114663   4.549   4.656  17.631  0.8419 -1.4931 -0.0388
 1010SOL    HW214664   4.578   4.603   0.004 -3.6241 -0.2827 -0.8294
 1011SOL     OW14665   3.965   1.314   5.960  0.2355  0.1309 -0.1945
 1011SOL    HW114666   3.903   1.372   6.004  2.2881  1.8804  0.4280
 1011SOL    HW214667   3.939   1.225   5.982  2.0466 -0.0380  1.3035
 1012SOL     OW14668   3.185   1.242   4.697  0.2427  0.0503  0.0099
 1012SOL    HW114669   3.138   1.278   4.773  1.7920  0.5941  0.7064
 1012SOL    HW214670   3.170   1.317   4.640  3.3629 -0.7924 -1.8983
 1013SOL     OW14671   0.704   3.906   7.023  0.4408 -0.1152  0.9229
 1013SOL    HW114672   0.690   3.929   7.115 -0.5707 -0.3116  0.8152
 1013SOL    HW214673   0.732   3.815   7.033 -0.7436 -0.7168 -1.1842
 1014SOL     OW14674   2.840   0.989   7.550  0.0698  0.2622  0.4076
 1014SOL    HW114675   2.913   0.936   7.581  1.2803  1.7640  0.1134
 1014SOL    HW214676   2.837   0.948   7.464  1.6927 -0.2139  0.5846
 1015SOL     OW14677   1.098   1.608  13.701  0.2488 -0.0546 -0.1916
 1015SOL    HW114678   1.015   1.566  13.680  0.1823 -0.6240  1.2481
 1015SOL    HW214679   1.059   1.671  13.761  2.0755  0.8072  0.0828
 1016SOL     OW14680   0.754   4.329   9.553  0.5687 -0.1294 -0.1496
 1016SOL    HW114681   0.786   4.270   9.485  0.3477 -0.6229  0.1714
 1016SOL    HW214682   0.790   4.282   9.628 -0.4619 -2.1128 -0.8840
 1017SOL     OW14683   1.416   0.602   4.586 -0.0924 -0.0386 -0.3886
 1017SOL    HW114684   1.340   0.544   4.580 -0.3866  0.1704  1.3006
 1017SOL    HW214685   1.454   0.601   4.498 -1.0406 -1.9035 -0.7818
 1018SOL     OW14686   3.264   2.316   1.905  0.0123  0.2835  0.0127
 1018SOL    HW114687   3.303   2.238   1.865 -0.8287 -0.2178  0.1729
 1018SOL    HW214688   3.180   2.314   1.859  0.1140 -0.5674 -0.1377
 1019SOL     OW14689   2.888   1.759  13.971  0.2225 -0.0703 -0.6546
 1019SOL    HW114690   2.833   1.681  13.956  1.5867 -1.1039 -0.2543
 1019SOL    HW214691   2.826   1.832  13.978  2.4640  1.9480 -2.0087
 1020SOL     OW14692   3.811   3.427   6.971  0.3246 -0.0300  0.1425
 1020SOL    HW114693   3.817   3.499   7.033  1.4479  1.3278 -1.5513
 1020SOL    HW214694   3.805   3.460   6.882  1.0040 -1.8836 -0.6029
 1021SOL     OW14695   3.662   0.184   2.116 -0.1035  0.4984  0.0933
 1021SOL    HW114696   3.703   0.162   2.200 -1.9129 -2.6353  0.1628
 1021SOL    HW214697   3.654   0.093   2.088  2.3296 -0.3983  2.2794
 1022SOL     OW14698   4.256   2.870   3.595 -0.3876  0.3256 -0.2761
 1022SOL    HW114699   4.320   2.931   3.559  1.2882 -0.7050  0.9604
 1022SOL    HW214700   4.226   2.926   3.667 -0.5675  0.9381 -0.8346
 1023SOL     OW14701   4.738   3.607  11.184 -0.3031  0.2038 -0.1614
 1023SOL    HW114702   4.736   3.701  11.166 -0.5516  0.4050  0.9417
 1023SOL    HW214703   4.712   3.573  11.098  0.6187  2.0256 -1.1609
 1024SOL     OW14704   2.736   4.599   2.524  0.4757 -0.3285  0.0326
 1024SOL    HW114705   2.704   4.672   2.471 -0.7822 -0.3192  0.8231
 1024SOL    HW214706   2.730   4.534   2.454 -1.4723 -0.5237  0.3922
 1025SOL     OW14707   2.438   3.588   6.485  0.0863 -0.2620 -0.6299
 1025SOL    HW114708   2.408   3.656   6.546 -1.8087 -1.0243 -0.7331
 1025SOL    HW214709   2.453   3.514   6.545 -0.7558 -1.1438 -1.5251
 1026SOL     OW14710   3.784   1.768   1.630  0.2345 -0.3178 -0.3002
 1026SOL    HW114711   3.731   1.701   1.587  1.3643 -0.8877 -0.8038
 1026SOL    HW214712   3.843   1.717   1.686 -1.7112 -0.9512  1.1739
 1027SOL     OW14713   0.211   1.811   2.147 -0.0449 -0.1984  0.1575
 1027SOL    HW114714   0.132   1.862   2.128  0.8455  0.3775 -2.0086
 1027SOL    HW214715   0.279   1.879   2.156  1.0510 -1.4695  1.3715
 1028SOL     OW14716   3.288   3.972   9.064 -0.2603 -0.0685 -0.3860
 1028SOL    HW114717   3.319   4.013   8.983  0.5803  0.5168  0.2272
 1028SOL    HW214718   3.195   3.962   9.043 -0.0487 -1.4559 -0.6388
 1029SOL     OW14719   1.105   2.308   3.016 -0.3849  0.2364  0.2471
 1029SOL    HW114720   1.130   2.294   3.107  1.5567 -0.3688 -0.3736
 1029SOL    HW214721   1.184   2.286   2.967  0.0690 -0.4378  1.2932
 1030SOL     OW14722   1.305   1.987   7.349 -0.5538  0.1241  0.4330
 1030SOL    HW114723   1.374   2.038   7.309 -0.7398  0.6893  0.8260
 1030SOL    HW214724   1.331   1.987   7.441 -0.6135  2.4067  0.4543
 1031SOL     OW14725   0.950   2.280  11.465 -0.3035 -0.2827 -0.0881
 1031SOL    HW114726   0.920   2.205  11.516 -1.5635  0.4316  0.2317
 1031SOL    HW214727   0.884   2.346  11.485 -1.5725 -1.8172  0.7527
 1032SOL     OW14728   4.028   3.651  17.529 -0.0895  0.0261  0.2476
 1032SOL    HW114729   4.005   3.711  17.459  3.8964 -0.9850 -1.9126
 1032SOL    HW214730   4.099   3.703  17.568  2.6855 -2.5357 -1.4762
 1033SOL     OW14731   3.047   0.508   8.877  0.5904  0.3084  0.3319
 1033SOL    HW114732   3.000   0.561   8.813  0.6899  1.6956  1.4034
 1033SOL    HW214733   3.052   0.423   8.833 -0.9726 -1.1532  3.0614
 1034SOL     OW14734   2.109   2.474  16.709 -0.2553  0.1200  0.2541
 1034SOL    HW114735   2.063   2.518  16.638 -2.0708  0.6615  1.7558
 1034SOL    HW214736   2.191   2.443  16.670 -0.4918 -1.7194  1.2335
 1035SOL     OW14737   4.221   0.693   3.828  1.0380  0.2231 -0.2239
 1035SOL    HW114738   4.171   0.688   3.910 -0.2864  0.2442 -1.0278
 1035SOL    HW214739   4.190   0.614   3.783  1.5018  0.4328 -0.9061
 1036SOL     OW14740   3.210   4.713   4.143 -0.2367  0.1125  0.3594
 1036SOL    HW114741   3.140   0.038   4.158 -0.7090 -0.2070 -0.5010
 1036SOL    HW214742   3.168   4.659   4.076 -0.5831  1.2113 -0.3190
 1037SOL     OW14743   4.150   2.791  17.410 -0.5095 -0.2268 -0.0570
 1037SOL    HW114744   4.212   2.720  17.428 -1.1731 -1.4549 -2.5950
 1037SOL    HW214745   4.134   2.782  17.316 -1.5851 -1.5508  0.2495
 1038SOL     OW14746   0.349   2.156  15.071  0.0885 -0.2431 -0.4826
 1038SOL    HW114747   0.441   2.177  15.088 -0.5041  1.5146  0.5801
 1038SOL    HW214748   0.335   2.081  15.129 -1.0901  0.5629  0.2880
 1039SOL     OW14749   0.589   1.981   6.921 -0.5436  0.3474  0.3481
 1039SOL    HW114750   0.523   2.024   6.975 -0.4288  0.2222  0.5884
 1039SOL    HW214751   0.534   1.910   6.888 -1.5057  1.3329 -0.1580
 1040SOL     OW14752   4.586   3.015   8.536 -0.2798 -0.9775  0.0956
 1040SOL    HW114753   4.546   3.045   8.455 -2.7237  0.4294  1.7975
 1040SOL    HW214754   4.668   3.062   8.522 -1.0625 -0.3430 -2.3481
 1041SOL     OW14755   3.312   2.743  11.232 -0.0555 -0.2468 -0.1254
 1041SOL    HW114756   3.387   2.795  11.205  0.1897  0.5148  2.0547
 1041SOL    HW214757   3.347   2.663  11.271  0.0964  0.5900  1.4650
 1042SOL     OW14758   2.603   4.533   5.947  0.6981  0.1650  0.0056
 1042SOL    HW114759   2.514   4.496   5.938  0.4232  0.7891  0.1850
 1042SOL    HW214760   2.583   4.612   5.997  2.5347 -0.7626  2.1505
 1043SOL     OW14761   0.931   2.691   0.802  0.6341  0.2124  0.5634
 1043SOL    HW114762   1.021   2.667   0.781 -0.2502 -0.1761 -2.8691
 1043SOL    HW214763   0.890   2.679   0.716  0.5890 -3.1343  1.0847
 1044SOL     OW14764   3.790   0.902   3.287 -0.0764 -0.5003 -0.5005
 1044SOL    HW114765   3.837   0.819   3.301  1.3039  0.6323  1.5769
 1044SOL    HW214766   3.866   0.954   3.261 -1.3894  2.1118  0.9351
 1045SOL     OW14767   4.513   3.364   9.233  0.4204  0.2652  0.1807
 1045SOL    HW114768   4.420   3.370   9.215  0.1063 -0.4263  1.5870
 1045SOL    HW214769   4.520   3.429   9.303  1.2248 -0.5578  0.8703
 1046SOL     OW14770   2.062   4.083   6.300 -0.2123  0.4587 -0.4742
 1046SOL    HW114771   2.064   4.152   6.367 -2.6752  2.5730 -2.5951
 1046SOL    HW214772   1.970   4.059   6.289 -0.0803  0.2986 -1.2078
 1047SOL     OW14773   3.676   2.322   8.151  0.6903 -0.3332  0.4127
 1047SOL    HW114774   3.645   2.242   8.194  0.7741 -0.2149  0.6918
 1047SOL    HW214775   3.596   2.357   8.112 -0.5571 -1.8735  1.5544
 1048SOL     OW14776   2.795   0.244  16.887 -0.5572 -0.0971  0.4596
 1048SOL    HW114777   2.819   0.335  16.898  2.9131 -0.9948  0.2150
 1048SOL    HW214778   2.706   0.247  16.922 -0.4912 -0.4466  0.6613
 1049SOL     OW14779   0.252   0.229   9.053 -0.7353  0.5298  0.5085
 1049SOL    HW114780   0.302   0.309   9.071  0.7582 -0.6433  1.5385
 1049SOL    HW214781   0.201   0.263   8.979 -1.1024  2.8452  1.8248
 1050SOL     OW14782   3.622   4.327   6.715  0.5142 -0.1903  0.3344
 1050SOL    HW114783   3.544   4.380   6.704  0.9265  0.3370 -0.0285
 1050SOL    HW214784   3.632   4.336   6.810 -2.6923  3.1169  0.3569
 1051SOL     OW14785   4.130   3.912   6.267 -0.4725 -0.0005 -0.4155
 1051SOL    HW114786   4.096   3.915   6.357 -3.7557 -0.3561 -1.6175
 1051SOL    HW214787   4.113   3.996   6.223  1.1818  0.0776 -0.8873
 1052SOL     OW14788   4.485   4.544  15.814  0.2352  0.0412 -0.2307
 1052SOL    HW114789   4.439   4.601  15.875 -0.8858 -0.7735 -0.3112
 1052SOL    HW214790   4.565   4.597  15.809 -0.0375  0.5999  1.4429
 1053SOL     OW14791   3.757   0.477   3.155  0.1441  0.5332  0.1844
 1053SOL    HW114792   3.723   0.398   3.198 -2.0351  0.3990 -1.7561
 1053SOL    HW214793   3.686   0.540   3.172 -0.3721  0.5797 -2.1790
 1054SOL     OW14794   0.589   0.066  12.164  0.4374  0.0078  0.1660
 1054SOL    HW114795   0.554   0.025  12.085 -0.4955  1.2363 -0.0765
 1054SOL    HW214796   0.668   0.012  12.168  0.4959  0.2200  2.0192
 1055SOL     OW14797   1.657   3.212   5.507  0.3275 -0.1281  0.2273
 1055SOL    HW114798   1.686   3.218   5.417 -2.3063 -4.1509 -0.9346
 1055SOL    HW214799   1.706   3.283   5.547 -0.6324 -0.5920  2.2514
 1056SOL     OW14800   1.520   0.037   6.030 -0.3650 -0.7094 -0.2527
 1056SOL    HW114801   1.527   4.686   5.999  2.6092 -1.0810  1.4693
 1056SOL    HW214802   1.493   0.092   5.956 -1.7331 -0.3049  0.5468
 1057SOL     OW14803   0.851   3.570   9.640 -0.1385  0.5307  0.1545
 1057SOL    HW114804   0.864   3.663   9.659  2.0290  0.2308  0.1953
 1057SOL    HW214805   0.881   3.530   9.721  2.2668 -0.7153 -1.3344
 1058SOL     OW14806   2.400   0.466   6.517 -0.0865  0.3973  0.3056
 1058SOL    HW114807   2.361   0.498   6.598  0.1180  1.9768 -0.2162
 1058SOL    HW214808   2.340   0.394   6.501 -1.1591  0.9475  1.8818
 1059SOL     OW14809   2.532   1.259   8.505 -0.5462 -0.0801 -0.0105
 1059SOL    HW114810   2.508   1.280   8.596  0.7149  1.1750  0.0340
 1059SOL    HW214811   2.577   1.175   8.497  1.8462  1.2345 -0.4438
 1060SOL     OW14812   3.670   0.436   5.236  0.9338 -0.6430 -0.3552
 1060SOL    HW114813   3.754   0.476   5.260  1.3628 -1.7552  0.0383
 1060SOL    HW214814   3.661   0.463   5.144 -0.2548 -2.1966 -0.7066
 1061SOL     OW14815   0.436   2.720   7.624  0.0153 -0.2747 -0.4725
 1061SOL    HW114816   0.441   2.764   7.709  2.3399  1.3981 -1.4930
 1061SOL    HW214817   0.506   2.655   7.637 -0.2721 -0.1742  1.5831
 1062SOL     OW14818   3.366   0.474   8.458 -0.3727 -0.5920  0.4019
 1062SOL    HW114819   3.331   0.563   8.466  1.5951  0.1007  1.3288
 1062SOL    HW214820   3.446   0.495   8.409 -1.0629  0.4875 -0.2606
 1063SOL     OW14821   0.384   1.257   6.752 -0.0135  0.3089 -0.3205
 1063SOL    HW114822   0.360   1.263   6.660 -1.3814  1.4000  0.0975
 1063SOL    HW214823   0.390   1.162   6.764  1.3601  0.1938 -2.0669
 1064SOL     OW14824   1.065   2.828   6.804  0.1508 -0.3349 -0.2554
 1064SOL    HW114825   1.038   2.917   6.826  1.4694  0.6723 -2.6782
 1064SOL    HW214826   0.993   2.770   6.827 -0.8224  0.9671 -0.0212
 1065SOL     OW14827   3.567   4.568   7.700  0.1322  0.0131 -0.7905
 1065SOL    HW114828   3.658   4.553   7.725  0.1828  0.9438 -0.4164
 1065SOL    HW214829   3.547   4.477   7.677  1.3862 -0.0368 -1.6758
 1066SOL     OW14830   3.641   3.937   7.028 -0.0499 -0.7366  0.0582
 1066SOL    HW114831   3.551   3.968   7.021 -0.4544 -2.2613 -1.4786
 1066SOL    HW214832   3.672   3.929   6.937  0.7854  0.6639  0.2172
 1067SOL     OW14833   1.612   1.261   7.704  0.3393 -0.5242  0.4072
 1067SOL    HW114834   1.654   1.299   7.627 -1.9186  0.2521 -0.4474
 1067SOL    HW214835   1.534   1.221   7.667 -0.8793 -0.4301  2.8648
 1068SOL     OW14836   3.668   4.357  14.755 -0.4514 -0.2420 -0.0860
 1068SOL    HW114837   3.712   4.304  14.688 -0.8490 -2.2021  1.2010
 1068SOL    HW214838   3.577   4.335  14.738  0.0654 -0.3787 -2.7660
 1069SOL     OW14839   2.171   1.850   0.486  0.0965 -0.4027 -0.6247
 1069SOL    HW114840   2.138   1.843   0.576 -2.3896  3.7325 -1.1985
 1069SOL    HW214841   2.218   1.768   0.470  2.2893  0.7744 -0.2204
 1070SOL     OW14842   0.488   3.267  12.260  0.1876 -0.4584  0.0882
 1070SOL    HW114843   0.469   3.184  12.303  1.0838 -0.8661 -0.3108
 1070SOL    HW214844   0.525   3.244  12.175 -0.6913 -1.8855  0.0897
 1071SOL     OW14845   1.061   0.414  16.389 -0.2590  0.1781 -0.1067
 1071SOL    HW114846   1.121   0.418  16.463 -0.2791 -2.2218  0.0649
 1071SOL    HW214847   1.123   0.416  16.315 -1.1553 -0.4233 -0.8831
 1072SOL     OW14848   4.692   3.217   7.621  0.3497 -0.1172 -0.2881
 1072SOL    HW114849   4.598   3.199   7.617  0.3854 -0.3554  0.0035
 1072SOL    HW214850   4.698   3.281   7.550 -0.2794 -1.6590 -1.7464
 1073SOL     OW14851   2.446   1.598   8.957 -0.0970 -0.1686 -0.1088
 1073SOL    HW114852   2.354   1.575   8.943 -0.9230  2.2947  1.1853
 1073SOL    HW214853   2.482   1.609   8.870 -0.3261  1.0153 -0.0634
 1074SOL     OW14854   0.935   1.014   8.596 -0.3453 -0.4400 -0.1961
 1074SOL    HW114855   0.876   1.083   8.627  1.8535  1.1444  0.4616
 1074SOL    HW214856   0.865   0.952   8.580 -1.2476  0.2407  1.0986
 1075SOL     OW14857   2.240   1.671  16.997 -0.2508 -0.5918 -0.0022
 1075SOL    HW114858   2.277   1.611  16.932  3.1179  0.6140  0.8136
 1075SOL    HW214859   2.303   1.651  17.065 -0.7956 -0.7969  0.4378
 1076SOL     OW14860   0.476   3.694   8.228 -0.1293  0.2183 -0.3740
 1076SOL    HW114861   0.488   3.750   8.305  1.2967  0.7753 -0.9949
 1076SOL    HW214862   0.399   3.728   8.183  0.1708  1.5282  0.0833
 1077SOL     OW14863   0.721   2.393   7.511 -0.5258 -0.1920 -0.0578
 1077SOL    HW114864   0.672   2.432   7.584  0.3560  1.2985 -0.2666
 1077SOL    HW214865   0.723   2.457   7.440 -0.7434 -0.7090 -0.5349
 1078SOL     OW14866   3.262   1.860   8.748 -0.0037  0.1229 -0.2442
 1078SOL    HW114867   3.302   1.921   8.687 -0.2423  0.4361 -0.0876
 1078SOL    HW214868   3.342   1.836   8.795  1.2485  2.0939 -1.3942
 1079SOL     OW14869   0.796   0.324  12.234  0.2592 -0.2481  0.0094
 1079SOL    HW114870   0.752   0.317  12.149 -0.6020  0.2461  0.4140
 1079SOL    HW214871   0.886   0.351  12.220 -0.0133 -0.2287 -1.6765
 1080SOL     OW14872   4.577   0.881   9.085 -0.4396 -0.2827  0.6258
 1080SOL    HW114873   4.531   0.897   9.002  0.5878 -1.7073 -0.2199
 1080SOL    HW214874   4.560   0.959   9.137 -4.5427 -1.3721  0.9027
 1081SOL     OW14875   3.016   1.583   7.482 -0.2636  0.0369  0.3502
 1081SOL    HW114876   3.002   1.655   7.421 -0.7646 -1.0395 -0.7974
 1081SOL    HW214877   2.926   1.552   7.486 -0.3715  0.2119 -0.8742
 1082SOL     OW14878   0.067   2.957   3.128  0.7062 -0.2790  0.0723
 1082SOL    HW114879   0.080   2.940   3.035 -0.2380  0.0802 -0.1233
 1082SOL    HW214880   0.036   2.872   3.158  1.0394 -0.2445  0.5128
 1083SOL     OW14881   1.777   1.011   4.145 -0.4049 -0.2026  0.5487
 1083SOL    HW114882   1.709   0.979   4.086 -0.8993  0.3416  0.8194
 1083SOL    HW214883   1.856   1.020   4.092 -1.0193 -2.4473 -0.7638
 1084SOL     OW14884   2.497   2.690  16.608  0.1961  0.1074 -0.1721
 1084SOL    HW114885   2.529   2.638  16.681  2.7271  0.0810 -1.2801
 1084SOL    HW214886   2.405   2.705  16.629 -0.3062 -0.9559 -1.5638
 1085SOL     OW14887   4.427   3.911   3.181  0.6749 -0.1926 -0.1795
 1085SOL    HW114888   4.471   3.995   3.169 -2.0838  1.4964  1.4924
 1085SOL    HW214889   4.440   3.883   3.090  0.1545  0.1618 -0.3579
 1086SOL     OW14890   2.648   4.111  10.299 -0.0306 -0.2967 -0.5018
 1086SOL    HW114891   2.717   4.176  10.287 -2.2553  2.6671  2.7428
 1086SOL    HW214892   2.624   4.142  10.386  0.2405 -0.9149 -0.2039
 1087SOL     OW14893   3.814   2.155   4.388  0.2349 -0.3276 -0.1085
 1087SOL    HW114894   3.729   2.190   4.361  1.6687  2.1968 -1.3473
 1087SOL    HW214895   3.811   2.121   4.477 -0.1033 -1.4703 -0.5535
 1088SOL     OW14896   1.621   2.609  17.329 -0.0568  0.1500  0.4789
 1088SOL    HW114897   1.586   2.523  17.305 -0.3387  0.9436 -1.9332
 1088SOL    HW214898   1.701   2.607  17.278  0.9415  2.3108  1.9369
 1089SOL     OW14899   3.125   3.566   4.627 -0.2682  0.2023  0.0775
 1089SOL    HW114900   3.208   3.563   4.675 -0.3220 -0.7556  0.1141
 1089SOL    HW214901   3.070   3.525   4.694 -1.8710 -0.7778 -1.8358
 1090SOL     OW14902   1.767   0.603  15.708  0.7826 -0.6513  0.1537
 1090SOL    HW114903   1.776   0.675  15.645  1.8928  0.4354  1.5577
 1090SOL    HW214904   1.859   0.598  15.733  1.2041  0.2684 -1.1806
 1091SOL     OW14905   3.850   0.906   3.821  0.2130  0.1321  0.0958
 1091SOL    HW114906   3.795   0.831   3.801  1.8199 -0.6236 -1.4747
 1091SOL    HW214907   3.922   0.907   3.758  1.0088  0.3022  1.0077
 1092SOL     OW14908   2.202   1.053  17.603  0.5613  0.1485  0.0901
 1092SOL    HW114909   2.239   1.024  17.687  0.6953  1.6008  0.5213
 1092SOL    HW214910   2.249   1.136  17.606  1.6562 -0.4186 -0.9394
 1093SOL     OW14911   3.392   4.441   5.246  0.1958  0.1341  0.1494
 1093SOL    HW114912   3.477   4.427   5.204 -0.4866 -2.0897 -0.4999
 1093SOL    HW214913   3.407   4.416   5.337  1.3547  1.0651  0.2054
 1094SOL     OW14914   3.440   3.131  10.397 -0.2392  0.7158 -0.0459
 1094SOL    HW114915   3.464   3.061  10.458  0.5757  0.6273 -0.4677
 1094SOL    HW214916   3.345   3.134  10.398 -0.2077  1.3167  0.7260
 1095SOL     OW14917   1.131   4.488  11.942  0.2135  0.1107  0.1014
 1095SOL    HW114918   1.151   4.568  11.990 -0.3821  0.9072 -0.9755
 1095SOL    HW214919   1.082   4.437  12.006  0.4079  0.5995  0.6343
 1096SOL     OW14920   0.177   4.648   7.607  0.0196  1.2548 -0.3724
 1096SOL    HW114921   0.098   4.596   7.592 -0.0356  0.9568  0.9142
 1096SOL    HW214922   0.249   4.586   7.594 -1.2051 -0.0951 -0.6834
 1097SOL     OW14923   3.963   1.436  11.610  0.1026  0.0505  0.4762
 1097SOL    HW114924   3.905   1.512  11.602 -2.2049 -1.7174  0.2371
 1097SOL    HW214925   3.931   1.407  11.696  1.6135 -0.2964  0.9139
 1098SOL     OW14926   1.736   1.250   1.588  0.4389 -0.0175  0.4929
 1098SOL    HW114927   1.644   1.233   1.568  0.8690 -2.8370  0.9063
 1098SOL    HW214928   1.773   1.202   1.514 -0.0038  2.3253 -1.2630
 1099SOL     OW14929   3.927   1.127   1.428 -0.0347  0.7141  0.6150
 1099SOL    HW114930   3.837   1.105   1.404  0.6874 -0.5949 -0.7993
 1099SOL    HW214931   3.938   1.055   1.490  0.4291 -0.5609 -0.9731
 1100SOL     OW14932   3.418   1.256   1.480  0.7092  0.0759  0.1184
 1100SOL    HW114933   3.406   1.346   1.509  0.1720  0.3677 -1.0076
 1100SOL    HW214934   3.330   1.242   1.447 -0.0409  3.0919  0.8801
 1101SOL     OW14935   0.357   4.687   5.709  0.6345  0.9580 -0.7425
 1101SOL    HW114936   0.358   4.651   5.620 -1.6421  0.1560 -0.4683
 1101SOL    HW214937   0.410   4.625   5.759  0.1355  2.3780  1.5198
 1102SOL     OW14938   1.886   3.997   6.948 -0.2411  0.3320  0.1011
 1102SOL    HW114939   1.935   4.058   6.893 -0.2637  1.2247  1.0946
 1102SOL    HW214940   1.929   3.997   7.033 -1.5460  0.6710  0.7554
 1103SOL     OW14941   3.121   2.268   3.431 -0.1206  0.4515 -0.0547
 1103SOL    HW114942   3.077   2.236   3.352  0.1044  1.9360 -0.7698
 1103SOL    HW214943   3.076   2.204   3.487  1.2441 -2.2494 -2.0405
 1104SOL     OW14944   1.987   0.033   9.568 -0.0373  0.1696 -0.7359
 1104SOL    HW114945   2.004   0.101   9.634 -1.3965 -0.1060 -0.0933
 1104SOL    HW214946   1.893   0.017   9.574  0.4360 -2.7690 -0.9632
 1105SOL     OW14947   4.590   1.151   4.280  0.8825 -0.5665 -0.2090
 1105SOL    HW114948   4.636   1.227   4.316 -1.9369  0.2745  1.6699
 1105SOL    HW214949   4.614   1.085   4.346  1.3020  0.6926  0.9055
 1106SOL     OW14950   1.570   0.072   2.364  0.3192  0.4472 -0.1285
 1106SOL    HW114951   1.577   0.139   2.295 -0.3195 -2.2248 -2.7787
 1106SOL    HW214952   1.593   4.725   2.328 -2.6382 -2.0307  3.9244
 1107SOL     OW14953   4.337   1.777   7.439 -0.2437 -0.2337 -0.3905
 1107SOL    HW114954   4.300   1.812   7.521  1.5657  1.0514 -0.1180
 1107SOL    HW214955   4.388   1.852   7.408  1.9144 -1.7328 -0.4249
 1108SOL     OW14956   2.299   1.036  15.024  0.1757  0.2132 -0.1593
 1108SOL    HW114957   2.260   1.053  14.939 -1.5790 -3.5602 -0.1030
 1108SOL    HW214958   2.305   1.124  15.061  2.4880  0.3971 -0.9444
 1109SOL     OW14959   4.027   3.840   5.190 -0.3818 -0.0831 -0.1004
 1109SOL    HW114960   4.039   3.786   5.268  2.3878 -0.0643 -0.5098
 1109SOL    HW214961   4.113   3.882   5.197  0.8077 -2.5715  0.4536
 1110SOL     OW14962   3.950   1.729   2.310 -0.3037 -0.9627 -0.1553
 1110SOL    HW114963   3.940   1.645   2.265  0.5649 -0.2223 -1.7485
 1110SOL    HW214964   3.877   1.728   2.372  1.0968 -1.1877  1.4827
 1111SOL     OW14965   1.336   0.167   9.912 -0.0232 -0.2387 -0.7741
 1111SOL    HW114966   1.299   0.164  10.000 -1.8502 -0.9026 -1.5614
 1111SOL    HW214967   1.421   0.127   9.930 -0.4091 -1.2134 -1.0869
 1112SOL     OW14968   2.433   1.027   0.410 -0.0105  0.3306  0.3834
 1112SOL    HW114969   2.389   1.046   0.328  0.2807  0.4945  0.2652
 1112SOL    HW214970   2.369   0.969   0.451  1.0832  0.4676  2.3226
 1113SOL     OW14971   2.263   2.038   2.559  0.2632  0.1198  0.2141
 1113SOL    HW114972   2.174   2.014   2.534  0.5282  2.2935 -2.7320
 1113SOL    HW214973   2.311   2.037   2.477  1.7607  0.5889  1.0908
 1114SOL     OW14974   3.717   1.262   2.153 -0.0686 -0.0762  0.3095
 1114SOL    HW114975   3.801   1.240   2.113 -0.0495  0.7073 -0.0853
 1114SOL    HW214976   3.699   1.177   2.194  0.5034 -0.8912 -1.1621
 1115SOL     OW14977   1.570   2.863  12.934 -0.2447  0.0088 -0.0405
 1115SOL    HW114978   1.653   2.879  12.888 -0.5223 -2.0871 -1.2730
 1115SOL    HW214979   1.595   2.846  13.025  1.6701  0.9214 -0.3813
 1116SOL     OW14980   2.380   1.611   1.325 -0.0436  0.3060 -0.1787
 1116SOL    HW114981   2.378   1.558   1.405 -1.4182 -0.8260 -0.9623
 1116SOL    HW214982   2.443   1.561   1.273 -1.0697 -1.1175 -0.0550
 1117SOL     OW14983   1.299   1.030   1.666  0.3523 -0.3192 -0.0604
 1117SOL    HW114984   1.308   0.975   1.744  0.3280  0.4405  0.4764
 1117SOL    HW214985   1.211   1.010   1.632 -0.2268 -0.7637  1.6766
 1118SOL     OW14986   0.356   3.443   6.392 -0.5587  0.1067  0.7444
 1118SOL    HW114987   0.421   3.420   6.459 -0.4879 -1.3666  0.1686
 1118SOL    HW214988   0.405   3.509   6.341  2.2358 -0.2134  2.9902
 1119SOL     OW14989   2.280   4.447  15.998  0.2305 -0.3303 -0.0736
 1119SOL    HW114990   2.253   4.412  16.083 -3.7635 -3.0149 -2.4333
 1119SOL    HW214991   2.358   4.497  16.021  0.5455 -0.4191 -0.9366
 1120SOL     OW14992   1.215   3.631   5.076 -0.3577 -0.4387  0.9499
 1120SOL    HW114993   1.276   3.679   5.131  2.0086 -1.3707 -0.8861
 1120SOL    HW214994   1.190   3.558   5.134  1.9343 -3.6250 -2.0855
 1121SOL     OW14995   4.521   4.067  16.158 -0.4417 -0.3202  0.1445
 1121SOL    HW114996   4.532   4.158  16.132  2.1196 -0.8162 -0.4894
 1121SOL    HW214997   4.575   4.024  16.091 -3.6372 -1.7048 -1.5506
 1122SOL     OW14998   4.471   0.221   4.185 -0.3350  0.2308 -0.2338
 1122SOL    HW114999   4.418   0.180   4.253 -2.5781 -0.5030 -2.4562
 1122SOL    HW215000   4.534   0.153   4.162 -1.2605 -0.7752  0.2279
 1123SOL     OW15001   2.837   0.060   2.796  0.3277  0.3975 -0.0080
 1123SOL    HW115002   2.928   0.071   2.771  0.4692  0.7262  0.6597
 1123SOL    HW215003   2.834   0.109   2.878 -1.6776 -0.6436  0.5507
 1124SOL     OW15004   3.804   0.269   2.618  0.1774  0.6517 -0.0901
 1124SOL    HW115005   3.786   0.224   2.700  0.9180  0.6990  0.0973
 1124SOL    HW215006   3.790   0.363   2.631  1.9226  1.0682 -1.2190
 1125SOL     OW15007   2.756   1.350   7.828 -0.0246  0.3203  0.2727
 1125SOL    HW115008   2.800   1.411   7.888  1.5770 -0.7403  0.2026
 1125SOL    HW215009   2.833   1.295   7.810 -1.0656 -0.5138 -1.5999
 1126SOL     OW15010   3.407   3.803   8.676 -0.2156  0.3583 -0.0513
 1126SOL    HW115011   3.313   3.813   8.693 -0.2488  0.5783 -0.3612
 1126SOL    HW215012   3.408   3.709   8.656 -0.1214  0.6159 -1.2155
 1127SOL     OW15013   0.693   2.426   6.105  0.2131  0.3275  0.5608
 1127SOL    HW115014   0.614   2.479   6.110  0.2047  0.4086 -0.3287
 1127SOL    HW215015   0.664   2.337   6.122 -2.0782  0.7512 -1.1692
 1128SOL     OW15016   4.141   4.079   3.683 -0.2016 -0.6261 -0.0685
 1128SOL    HW115017   4.140   4.143   3.754  1.1048  1.8271 -2.2076
 1128SOL    HW215018   4.220   4.029   3.702 -0.0602 -0.4466 -0.1831
 1129SOL     OW15019   0.582   3.891  10.994 -0.1034  0.1768 -0.2978
 1129SOL    HW115020   0.568   3.968  10.938 -0.3705 -1.4898 -2.5447
 1129SOL    HW215021   0.542   3.925  11.074 -0.5036 -1.8665  0.3862
 1130SOL     OW15022   3.873   3.038   3.770  0.6214 -0.0564  0.0654
 1130SOL    HW115023   3.849   2.949   3.744  1.5763 -0.3022  0.0140
 1130SOL    HW215024   3.829   3.081   3.697  1.1667 -0.5213 -0.5408
 1131SOL     OW15025   1.008   4.301   0.995 -0.0980 -0.1685 -0.2076
 1131SOL    HW115026   1.098   4.314   1.025 -0.5394  0.7768  0.7312
 1131SOL    HW215027   1.001   4.352   0.914 -1.9276 -1.7052 -1.0364
 1132SOL     OW15028   1.633   0.090   6.596 -0.5192  0.2459  0.1377
 1132SOL    HW115029   1.653   0.024   6.530 -1.2350 -0.9274  1.0940
 1132SOL    HW215030   1.546   0.073   6.633 -0.6176  2.1947  0.7961
 1133SOL     OW15031   3.101   2.069   1.733 -0.2057 -0.4689 -0.4913
 1133SOL    HW115032   3.011   2.091   1.708  0.3824  1.6121 -0.7533
 1133SOL    HW215033   3.081   1.999   1.794  0.6696 -0.5172 -0.2572
 1134SOL     OW15034   3.987   3.935   8.515  0.6254 -0.2178  0.1605
 1134SOL    HW115035   3.966   3.905   8.603  1.3858  0.0585  0.4355
 1134SOL    HW215036   3.986   3.850   8.470  1.2410 -0.8296  1.3149
 1135SOL     OW15037   0.937   3.140   3.483 -0.0638  0.6500  0.0406
 1135SOL    HW115038   0.923   3.123   3.576 -0.7458  1.9844  0.1915
 1135SOL    HW215039   0.966   3.231   3.479 -0.7753  0.9874  2.7188
 1136SOL     OW15040   3.338   4.635   4.947 -0.4824 -0.1347  0.6978
 1136SOL    HW115041   3.251   4.612   4.913 -0.5172  0.0791  0.6458
 1136SOL    HW215042   3.384   4.644   4.864  0.6510  1.7552  1.5249
 1137SOL     OW15043   1.406   0.865   5.902  0.1949 -0.0741 -0.2535
 1137SOL    HW115044   1.420   0.922   5.978 -2.6258 -1.0549  0.9816
 1137SOL    HW215045   1.419   0.775   5.930  0.4587 -0.3008 -1.0947
 1138SOL     OW15046   0.385   3.247   3.136 -0.3359 -0.6821  0.6127
 1138SOL    HW115047   0.341   3.332   3.143 -0.9592 -1.2753  4.1783
 1138SOL    HW215048   0.424   3.256   3.050 -0.0277 -1.2427  0.7023
 1139SOL     OW15049   0.099   3.089  16.209  0.5041 -0.1652 -0.5027
 1139SOL    HW115050   0.138   3.085  16.122  2.2646 -1.9824  0.3721
 1139SOL    HW215051   0.030   3.153  16.192 -0.0732 -0.9565 -1.1394
 1140SOL     OW15052   3.110   2.688   2.215 -0.2809  0.2441  0.0685
 1140SOL    HW115053   3.094   2.710   2.307  2.9529 -0.6066  0.8499
 1140SOL    HW215054   3.205   2.684   2.221 -0.2831 -0.1052 -0.1683
 1141SOL     OW15055   4.247   1.144   4.300  0.4009 -0.1948  0.2182
 1141SOL    HW115056   4.294   1.071   4.338 -0.3742 -0.9994 -0.3692
 1141SOL    HW215057   4.155   1.116   4.302  0.9141 -1.7766  1.3433
 1142SOL     OW15058   0.730   3.574   0.099 -0.0456 -0.4301 -0.4102
 1142SOL    HW115059   0.811   3.525   0.108 -0.2425 -0.4628  1.1631
 1142SOL    HW215060   0.741   3.662   0.136  0.9700  0.0313 -1.8265
 1143SOL     OW15061   3.291   0.400   7.381  0.1680 -0.3929 -0.0075
 1143SOL    HW115062   3.292   0.383   7.287 -1.3279 -0.4105 -0.0090
 1143SOL    HW215063   3.319   0.311   7.403  0.3306 -0.3323  0.0307
 1144SOL     OW15064   1.691   3.826  12.620 -0.0978 -0.1937  0.8200
 1144SOL    HW115065   1.712   3.791  12.534  2.5415  1.6947  0.7069
 1144SOL    HW215066   1.777   3.841  12.659  0.5376 -0.3815 -0.5193
 1145SOL     OW15067   4.477   2.069   2.998 -0.1689  0.2340 -0.7801
 1145SOL    HW115068   4.566   2.033   3.000 -0.5947 -0.6373  2.4299
 1145SOL    HW215069   4.491   2.143   3.058  0.3503 -0.5270  0.0368
 1146SOL     OW15070   1.542   3.703   2.064 -0.1195 -0.2042  0.8897
 1146SOL    HW115071   1.562   3.658   1.982 -1.1689 -0.1135  0.5795
 1146SOL    HW215072   1.452   3.672   2.076 -0.1884  0.3645  1.8848
 1147SOL     OW15073   2.269   3.481  13.965  0.0120  0.1889 -0.8175
 1147SOL    HW115074   2.206   3.413  13.938 -1.2926  0.0035  2.6240
 1147SOL    HW215075   2.351   3.431  13.970  0.8022  1.4025 -1.8177
 1148SOL     OW15076   4.669   1.060   3.777  0.3542  0.5044  0.0678
 1148SOL    HW115077   4.729   0.997   3.735  0.0427 -0.3505  0.8950
 1148SOL    HW215078   4.583   1.035   3.743  0.7087 -2.8103  1.5757
 1149SOL     OW15079   0.806   0.862   6.875 -0.2262  0.0145  0.1101
 1149SOL    HW115080   0.771   0.913   6.948 -0.1878 -0.3380  0.3738
 1149SOL    HW215081   0.764   0.896   6.796  1.0678  3.6951  0.9547
 1150SOL     OW15082   3.054   2.709   3.599 -0.0202 -0.2137 -0.2127
 1150SOL    HW115083   2.980   2.751   3.643  0.3967  2.7337 -2.2510
 1150SOL    HW215084   3.011   2.686   3.517  0.3500  3.0404 -1.3519
 1151SOL     OW15085   0.950   4.400  10.131  0.5268  0.2624 -0.4356
 1151SOL    HW115086   1.045   4.396  10.131  0.5362  0.6560 -3.2222
 1151SOL    HW215087   0.936   4.457  10.056  2.1632  1.7977  0.4168
 1152SOL     OW15088   2.678   3.315   6.255  0.2369  0.3623 -0.2216
 1152SOL    HW115089   2.641   3.228   6.242 -1.9806  0.9933  1.8326
 1152SOL    HW215090   2.674   3.351   6.167  0.4336  0.9790  0.0154
 1153SOL     OW15091   2.922   3.286   6.033  0.2867  0.1313 -0.0626
 1153SOL    HW115092   2.831   3.308   6.012  0.5981  0.2829 -1.2182
 1153SOL    HW215093   2.969   3.302   5.951 -1.0380  0.2890 -0.7903
 1154SOL     OW15094   3.239   2.679   4.360 -0.4689 -0.1503 -0.6156
 1154SOL    HW115095   3.177   2.675   4.287 -0.7551 -0.9480 -0.3362
 1154SOL    HW215096   3.276   2.590   4.361 -2.2525 -0.8890 -1.1542
 1155SOL     OW15097   2.455   2.186   8.400 -0.2136 -0.2104  0.0376
 1155SOL    HW115098   2.396   2.258   8.375 -2.0327 -1.1465  1.5819
 1155SOL    HW215099   2.393   2.136   8.455 -0.7240  0.9067  0.4875
 1156SOL     OW15100   2.703   1.126  15.159  0.2547  0.2538 -0.7206
 1156SOL    HW115101   2.685   1.124  15.065 -3.5247 -1.1144  0.0054
 1156SOL    HW215102   2.725   1.218  15.174  3.7297 -0.5670 -0.9121
 1157SOL     OW15103   1.864   3.329   8.026  0.6323  0.3448 -0.2304
 1157SOL    HW115104   1.871   3.357   7.934  2.6478  2.2695  0.5057
 1157SOL    HW215105   1.932   3.386   8.061  0.8980  0.8998 -1.6294
 1158SOL     OW15106   4.443   0.347  15.078 -0.6517  0.0573  0.0103
 1158SOL    HW115107   4.418   0.433  15.045  0.7965  0.3412 -0.3466
 1158SOL    HW215108   4.430   0.297  14.997 -0.1497  1.5716 -1.0083
 1159SOL     OW15109   3.522   0.522   1.605 -0.9892 -0.0946  0.4901
 1159SOL    HW115110   3.469   0.569   1.540 -2.6565 -1.7254  0.6658
 1159SOL    HW215111   3.475   0.526   1.689 -1.1684 -2.2908  0.5042
 1160SOL     OW15112   3.999   1.291   1.751  0.3405 -0.2374 -0.3156
 1160SOL    HW115113   4.063   1.244   1.805  2.5456 -1.0468 -3.6295
 1160SOL    HW215114   3.914   1.272   1.790  0.3680  2.5158  1.0971
 1161SOL     OW15115   1.788   0.377   0.569 -0.0683 -0.1355 -0.2429
 1161SOL    HW115116   1.811   0.330   0.649 -0.6562 -1.6788 -0.9870
 1161SOL    HW215117   1.786   0.468   0.600  0.6950 -0.3991  0.5776
 1162SOL     OW15118   1.024   4.355   2.489 -0.2757 -0.0259  0.3689
 1162SOL    HW115119   1.027   4.270   2.446  1.0773  0.2246 -0.0306
 1162SOL    HW215120   0.989   4.404   2.415  2.4713 -0.1929 -1.0281
 1163SOL     OW15121   3.799   3.940   2.842 -0.3384 -0.0316 -0.7226
 1163SOL    HW115122   3.865   3.887   2.886 -1.0950 -0.1037  0.3174
 1163SOL    HW215123   3.717   3.910   2.882  0.1866  0.8740  1.0211
 1164SOL     OW15124   2.639   4.046   4.038 -0.5141  0.4362 -0.1385
 1164SOL    HW115125   2.697   4.011   4.106  1.2874  0.9314 -1.4109
 1164SOL    HW215126   2.560   4.001   4.066 -0.3669 -0.4547 -1.1632
 1165SOL     OW15127   2.121   3.611   8.592 -0.1482 -0.5177  0.2943
 1165SOL    HW115128   2.128   3.550   8.666  1.4258  3.1109  3.1253
 1165SOL    HW215129   2.112   3.696   8.635  1.2521 -0.8907  1.3307
 1166SOL     OW15130   0.949   3.004   0.619 -0.0998 -0.0687  0.1925
 1166SOL    HW115131   1.022   2.999   0.681 -0.1537  1.0355  0.3370
 1166SOL    HW215132   0.993   2.957   0.548  1.6927  0.8404  0.7012
 1167SOL     OW15133   4.205   2.251   0.161 -0.0078  0.1991 -0.0899
 1167SOL    HW115134   4.140   2.292   0.103  1.8703  0.9530 -1.6530
 1167SOL    HW215135   4.238   2.331   0.202  0.8710 -0.2977  0.1764
 1168SOL     OW15136   1.546   3.047  13.208  0.3165  0.0500 -0.1238
 1168SOL    HW115137   1.610   3.059  13.278 -0.7438  0.6342  0.7321
 1168SOL    HW215138   1.601   3.070  13.133  1.1357 -1.2919  0.0532
 1169SOL     OW15139   1.261   4.471   2.629  0.3200  0.5940 -0.1151
 1169SOL    HW115140   1.227   4.545   2.579 -1.1325  1.5424  2.2414
 1169SOL    HW215141   1.195   4.408   2.600  2.1880 -0.4598 -2.0338
 1170SOL     OW15142   3.373   0.698   6.301 -0.1606  0.6170 -0.2438
 1170SOL    HW115143   3.431   0.725   6.372 -0.2037  2.6422 -0.9851
 1170SOL    HW215144   3.318   0.627   6.335  0.1709  0.1790 -0.6111
 1171SOL     OW15145   1.475   2.334   5.292 -0.1978  0.4215  0.0285
 1171SOL    HW115146   1.385   2.342   5.324 -0.2609  0.2113 -0.0986
 1171SOL    HW215147   1.519   2.402   5.342 -0.7812  1.1777 -0.4975
 1172SOL     OW15148   1.098   3.367   1.531  0.0277  0.0459 -0.4600
 1172SOL    HW115149   1.139   3.421   1.600 -0.2274  1.2735 -1.2712
 1172SOL    HW215150   1.144   3.285   1.550 -0.5665 -0.4300 -1.0847
 1173SOL     OW15151   1.855   2.836  13.678  0.5560 -0.2634  0.6267
 1173SOL    HW115152   1.875   2.743  13.681 -3.0819 -1.0425  0.6102
 1173SOL    HW215153   1.760   2.831  13.689  0.5465 -1.0825  0.1359
 1174SOL     OW15154   3.280   4.303   6.736  0.0743 -0.5866  0.3783
 1174SOL    HW115155   3.204   4.354   6.765 -0.0555 -0.9467  0.6714
 1174SOL    HW215156   3.302   4.343   6.651  2.0121  0.3321  1.3171
 1175SOL     OW15157   1.500   1.051  16.238 -0.0875  0.2014 -0.6931
 1175SOL    HW115158   1.416   1.075  16.275  0.5779  2.3024 -0.5382
 1175SOL    HW215159   1.469   1.007  16.159  0.2485  1.7927 -1.7317
 1176SOL     OW15160   0.096   1.273   6.896  0.7238  0.0519  0.2616
 1176SOL    HW115161   0.054   1.336   6.838 -0.7645 -1.0815  0.1151
 1176SOL    HW215162   0.045   1.287   6.976 -0.9789  1.4081 -1.0673
 1177SOL     OW15163   4.348   1.515   8.417  0.0849 -0.6899 -0.2844
 1177SOL    HW115164   4.294   1.495   8.493  1.5592 -1.9392  0.4373
 1177SOL    HW215165   4.391   1.598   8.437 -1.8916 -0.1643  1.7504
 1178SOL     OW15166   2.765   3.759   6.074 -0.0535  0.1779  0.2439
 1178SOL    HW115167   2.717   3.724   6.149  0.3568 -0.6523  0.1267
 1178SOL    HW215168   2.797   3.844   6.101 -1.0387  1.0379 -1.3109
 1179SOL     OW15169   1.056   2.533   2.776  0.4084 -0.8085  0.2936
 1179SOL    HW115170   1.023   2.462   2.722  0.0308 -1.5160  1.4676
 1179SOL    HW215171   1.077   2.481   2.853 -0.2368 -1.0032  0.3316
 1180SOL     OW15172   0.484   0.804   5.726  0.4015  0.1338  0.7861
 1180SOL    HW115173   0.497   0.749   5.803 -0.2118 -2.0700 -0.6966
 1180SOL    HW215174   0.551   0.872   5.730 -2.0505  2.6661 -0.5089
 1181SOL     OW15175   0.004   2.049   8.350 -0.0416  0.2314 -0.3406
 1181SOL    HW115176   4.654   2.049   8.386  0.9315 -2.9632  2.0339
 1181SOL    HW215177   0.031   1.957   8.347  0.3097  0.3113  0.2960
 1182SOL     OW15178   4.543   2.670   4.079  0.4489 -0.3671  0.3868
 1182SOL    HW115179   4.568   2.734   4.013 -0.0659  1.1802  1.6953
 1182SOL    HW215180   4.452   2.661   4.050  0.5753 -1.5037  0.3173
 1183SOL     OW15181   1.136   1.679   5.983  0.6432  0.1045 -0.2702
 1183SOL    HW115182   1.177   1.716   5.905  0.7136  2.8009  1.0127
 1183SOL    HW215183   1.046   1.713   5.980  1.0516  1.2691  0.4888
 1184SOL     OW15184   2.609   2.503   2.689 -0.0313  0.3830 -0.1275
 1184SOL    HW115185   2.621   2.598   2.684  2.2252  0.0913  0.0686
 1184SOL    HW215186   2.557   2.478   2.612  0.5139 -1.3045  0.0437
 1185SOL     OW15187   0.397   3.495   4.101  0.0901 -0.1565  0.0509
 1185SOL    HW115188   0.331   3.431   4.126  0.1446 -0.1734  0.1534
 1185SOL    HW215189   0.445   3.503   4.184 -0.6013  1.7793  0.2730
 1186SOL     OW15190   0.976   3.808   9.360  0.1839 -0.4429 -0.0934
 1186SOL    HW115191   0.934   3.722   9.353  0.3798 -0.8359  3.5063
 1186SOL    HW215192   0.955   3.840   9.272  2.0656  4.1984  1.1351
 1187SOL     OW15193   3.455   0.471   7.955  0.0399 -0.9180  0.3498
 1187SOL    HW115194   3.535   0.488   7.906 -0.4587 -2.2564 -0.9271
 1187SOL    HW215195   3.401   0.431   7.887 -1.3055  0.8463  0.3985
 1188SOL     OW15196   3.794   1.227  12.890  0.2540  0.0898 -0.2126
 1188SOL    HW115197   3.806   1.318  12.864  3.0940 -1.5754 -4.6334
 1188SOL    HW215198   3.777   1.238  12.984 -0.6392 -2.0019 -0.1203
 1189SOL     OW15199   2.039   1.305   9.298 -0.0597 -0.1773  0.5161
 1189SOL    HW115200   2.127   1.325   9.332  0.3246  0.7177 -0.9696
 1189SOL    HW215201   2.054   1.251   9.220 -0.7681 -2.1629  1.7753
 1190SOL     OW15202   1.586   0.323   1.599  0.1880  0.5383 -0.5947
 1190SOL    HW115203   1.585   0.382   1.674  0.3896  1.8574 -1.6242
 1190SOL    HW215204   1.573   0.237   1.640  0.7923  0.5863 -0.2946
 1191SOL     OW15205   0.389   4.531  14.505  0.0766  0.2040  0.0523
 1191SOL    HW115206   0.346   4.575  14.432 -0.4087 -0.8196 -0.2757
 1191SOL    HW215207   0.470   4.581  14.502  0.3223 -0.1558  0.5612
 1192SOL     OW15208   2.116   0.872  15.591 -0.1588  0.0184  0.6174
 1192SOL    HW115209   2.041   0.899  15.537  0.8329 -0.4361 -0.9693
 1192SOL    HW215210   2.081   0.800  15.643  0.4918 -0.3808  0.4910
 1193SOL     OW15211   4.243   2.439   2.577  0.0395  0.4326  0.5062
 1193SOL    HW115212   4.250   2.397   2.492 -2.4326  0.3766  0.3466
 1193SOL    HW215213   4.277   2.371   2.635 -0.6764 -1.5798 -1.4420
 1194SOL     OW15214   2.785   1.626   2.402 -0.2039 -0.4008  0.3411
 1194SOL    HW115215   2.832   1.603   2.482  1.2426  0.0711 -0.3598
 1194SOL    HW215216   2.851   1.689   2.370 -0.1749 -0.2771  0.6469
 1195SOL     OW15217   2.337   4.698   1.932  0.4071  0.1506  0.2085
 1195SOL    HW115218   2.273   4.629   1.918  1.6452 -1.1959  1.1886
 1195SOL    HW215219   2.407   4.682   1.867  0.7883  1.0609  0.3967
 1196SOL     OW15220   3.477   1.459   7.537 -0.0541  0.0210 -0.3452
 1196SOL    HW115221   3.462   1.510   7.617 -1.0670 -0.8459  0.0060
 1196SOL    HW215222   3.385   1.460   7.512 -0.1489 -0.5749 -0.0184
 1197SOL     OW15223   2.615   3.763   8.604 -0.7505  0.2527  0.2956
 1197SOL    HW115224   2.575   3.841   8.565 -3.3889 -0.4084  1.7233
 1197SOL    HW215225   2.544   3.699   8.607 -1.3241  0.9098  0.8418
 1198SOL     OW15226   0.456   1.987   1.378 -0.0861  0.0240  0.4127
 1198SOL    HW115227   0.513   2.020   1.448  1.3288 -0.1495 -0.6594
 1198SOL    HW215228   0.473   2.058   1.316 -0.0652 -1.3629 -1.1589
 1199SOL     OW15229   3.588   0.894   3.522 -0.1439  0.4537 -0.3782
 1199SOL    HW115230   3.519   0.895   3.456  0.6510  1.1142 -1.2050
 1199SOL    HW215231   3.663   0.880   3.464  0.8303  1.5224  0.6056
 1200SOL     OW15232   0.187   1.857   4.287 -0.1816 -0.2078 -0.3167
 1200SOL    HW115233   0.103   1.900   4.268 -2.1489 -3.2572  1.5042
 1200SOL    HW215234   0.171   1.763   4.287  1.6075 -0.5038  1.4597
 1201SOL     OW15235   2.822   1.877   2.606  0.1684  0.1073 -0.7922
 1201SOL    HW115236   2.857   1.808   2.663  1.3071  1.7182  0.4350
 1201SOL    HW215237   2.805   1.941   2.675 -1.1004 -0.8822 -0.1843
 1202SOL     OW15238   1.039   1.756   0.285 -0.0709 -0.2189 -0.4156
 1202SOL    HW115239   0.969   1.710   0.239 -0.9091 -0.1659  0.8002
 1202SOL    HW215240   1.051   1.699   0.361  1.7197 -0.0794 -0.5813
 1203SOL     OW15241   0.161   1.675   1.554  0.1186 -0.5850  0.3738
 1203SOL    HW115242   0.245   1.715   1.530  0.8226 -1.9047  0.6649
 1203SOL    HW215243   0.105   1.702   1.482  0.0037 -1.0762  0.2795
 1204SOL     OW15244   4.085   3.118   2.136  0.3116 -0.3220 -0.0491
 1204SOL    HW115245   4.095   3.161   2.220 -0.6529  1.5715 -0.8823
 1204SOL    HW215246   4.017   3.054   2.156  0.4613 -1.1042 -1.9833
 1205SOL     OW15247   2.958   3.163   4.687 -0.1491  0.1082 -0.4252
 1205SOL    HW115248   3.022   3.098   4.717 -1.7925 -1.2093  0.2194
 1205SOL    HW215249   2.990   3.246   4.723  1.6503 -1.2301  1.0914
 1206SOL     OW15250   3.670   0.799   2.165  0.4398  0.5841 -0.0445
 1206SOL    HW115251   3.657   0.859   2.092 -2.1918 -0.8311 -0.7417
 1206SOL    HW215252   3.696   0.866   2.227  1.1380  0.2599  0.0071
 1207SOL     OW15253   1.277   2.819   5.605  0.2290  0.2091 -0.2252
 1207SOL    HW115254   1.333   2.796   5.531 -0.3296 -1.7088 -0.0442
 1207SOL    HW215255   1.337   2.793   5.675 -0.5859  0.4212  0.5599
 1208SOL     OW15256   3.616   1.571  17.552 -0.0495  0.1722 -0.2859
 1208SOL    HW115257   3.560   1.556  17.476 -1.4990  1.0735  0.5962
 1208SOL    HW215258   3.672   1.636  17.510  0.7103 -0.0803  0.3504
 1209SOL     OW15259   2.005   2.396  11.752 -0.5892  0.4341  0.7127
 1209SOL    HW115260   2.061   2.359  11.684 -1.2918 -0.2038  0.4878
 1209SOL    HW215261   2.025   2.489  11.741 -1.0509  0.5190  0.5942
 1210SOL     OW15262   0.819   3.273  12.031 -0.1798 -0.3802 -0.1495
 1210SOL    HW115263   0.864   3.218  11.967 -0.9338  0.6665 -1.5602
 1210SOL    HW215264   0.860   3.359  12.019  0.2608 -0.5939 -0.1627
 1211SOL     OW15265   0.470   4.461   5.870  0.3089 -0.4740  0.1940
 1211SOL    HW115266   0.446   4.373   5.839 -0.4167 -0.3241  0.3286
 1211SOL    HW215267   0.384   4.482   5.906  1.3245  0.2074  2.2184
 1212SOL     OW15268   2.082   0.858   2.406  0.2232 -0.3655  0.1955
 1212SOL    HW115269   2.008   0.800   2.393 -0.7960  0.8687  0.4357
 1212SOL    HW215270   2.156   0.797   2.408  0.4729 -0.1348 -1.8674
 1213SOL     OW15271   2.738   4.080   1.963 -0.1241  0.0070 -0.0970
 1213SOL    HW115272   2.808   4.077   1.898 -0.7767 -3.8245 -0.6797
 1213SOL    HW215273   2.687   4.004   1.933  2.3221 -1.7365  0.1632
 1214SOL     OW15274   1.511   0.898  11.595  0.3803 -0.1792 -0.0517
 1214SOL    HW115275   1.552   0.899  11.509  0.2199 -0.5556 -0.1330
 1214SOL    HW215276   1.486   0.806  11.587  0.5849 -0.2366 -0.0324
 1215SOL     OW15277   2.094   3.828   3.060  0.7619 -0.3431 -0.0623
 1215SOL    HW115278   2.079   3.894   3.128  0.3522 -0.7841  0.2762
 1215SOL    HW215279   2.031   3.840   2.988 -2.0546 -2.5012  2.0603
 1216SOL     OW15280   4.705   2.171   3.191  0.2952 -0.1260 -0.3419
 1216SOL    HW115281   0.003   2.090   3.227 -1.3790 -0.7170  0.0178
 1216SOL    HW215282   4.689   2.225   3.268 -0.9368  1.6179 -1.8158
 1217SOL     OW15283   4.148   0.553   0.549 -0.0856  0.1705  0.2264
 1217SOL    HW115284   4.172   0.483   0.489 -1.5514 -0.5718  0.4940
 1217SOL    HW215285   4.056   0.560   0.523  0.1165 -1.3220 -0.8604
 1218SOL     OW15286   4.512   3.374   4.672 -0.5891 -0.6540 -0.1548
 1218SOL    HW115287   4.460   3.362   4.752  0.8174 -0.7915  0.7330
 1218SOL    HW215288   4.527   3.284   4.642  1.2147  0.7529 -3.3601
 1219SOL     OW15289   2.679   2.810   6.172  0.0096 -0.0402 -0.6922
 1219SOL    HW115290   2.661   2.716   6.159 -2.7583  0.4010 -0.1748
 1219SOL    HW215291   2.763   2.799   6.216 -0.4222 -0.6881 -0.0130
 1220SOL     OW15292   2.847   3.071  11.336 -0.4938  0.1799  0.0241
 1220SOL    HW115293   2.941   3.053  11.330 -0.4625  1.1659 -2.7504
 1220SOL    HW215294   2.814   3.046  11.249 -1.1483  0.7913  0.0930
 1221SOL     OW15295   4.605   1.497   6.233 -0.1023 -0.2794  0.0699
 1221SOL    HW115296   4.633   1.585   6.258 -1.7154 -0.3133  1.9900
 1221SOL    HW215297   4.517   1.488   6.268 -0.2881 -0.4955 -0.4551
 1222SOL     OW15298   0.690   4.582   6.019 -0.0757  0.1861  0.2114
 1222SOL    HW115299   0.627   4.653   6.010 -0.2393  0.0188  0.0143
 1222SOL    HW215300   0.634   4.512   5.986 -1.4405  1.3304  0.1262
 1223SOL     OW15301   2.932   2.807   5.609  0.0497  0.1008  0.4076
 1223SOL    HW115302   2.937   2.713   5.593  0.6809 -0.0546  1.4725
 1223SOL    HW215303   2.873   2.853   5.550  1.4758  0.2483 -0.9007
 1224SOL     OW15304   2.276   0.218   5.061  0.1149 -0.4857 -0.1133
 1224SOL    HW115305   2.340   0.163   5.015 -1.2817 -0.6472 -1.8471
 1224SOL    HW215306   2.252   0.280   4.992  0.8393 -0.5838 -0.4627
 1225SOL     OW15307   3.561   3.030  13.605 -0.1520  0.6011  0.0338
 1225SOL    HW115308   3.616   3.096  13.647 -0.9839  1.0522  0.4229
 1225SOL    HW215309   3.615   3.006  13.529 -1.3069  1.8993 -1.2129
 1226SOL     OW15310   4.225   2.235   3.602 -0.0413  0.2815  0.1859
 1226SOL    HW115311   4.317   2.229   3.629  0.3790 -0.2532 -1.3273
 1226SOL    HW215312   4.173   2.258   3.679 -0.4307 -1.8436  0.5336
 1227SOL     OW15313   0.012   0.722   3.465 -0.4493 -0.5802  0.5830
 1227SOL    HW115314   4.729   0.807   3.426  1.2286 -0.0043  0.8970
 1227SOL    HW215315   4.660   0.693   3.475 -0.7724  0.3163  0.2579
 1228SOL     OW15316   3.019   4.288   1.635 -0.1397 -0.1083 -0.7284
 1228SOL    HW115317   2.982   4.259   1.552 -2.2745 -0.2253  0.2544
 1228SOL    HW215318   2.961   4.359   1.665 -0.4008 -0.7903  0.3726
 1229SOL     OW15319   3.172   1.097   8.014 -0.6095  0.1994 -0.5309
 1229SOL    HW115320   3.199   1.079   8.104  3.0065 -0.6305 -1.7743
 1229SOL    HW215321   3.205   1.185   7.997  1.0653 -0.2923  0.1113
 1230SOL     OW15322   3.569   0.327   1.244  0.1085 -0.5058  0.1968
 1230SOL    HW115323   3.596   0.292   1.329 -1.3669 -1.1121  0.4115
 1230SOL    HW215324   3.648   0.341   1.192  0.2899  0.3584  0.7002
 1231SOL     OW15325   3.567   1.388   5.485  0.4003 -0.2276  0.2962
 1231SOL    HW115326   3.548   1.471   5.529  1.8215  0.0703  0.3670
 1231SOL    HW215327   3.612   1.346   5.559  1.1689  0.6825  0.3513
 1232SOL     OW15328   4.113   3.341   0.898 -0.1639 -0.1890 -0.1684
 1232SOL    HW115329   4.090   3.287   0.974  2.6005 -0.7998  0.2703
 1232SOL    HW215330   4.145   3.285   0.828 -1.7284 -0.8465 -0.3293
 1233SOL     OW15331   3.591   4.322   7.578 -0.0246 -0.4227  0.0830
 1233SOL    HW115332   3.675   4.338   7.535 -1.2518  3.2893 -0.8926
 1233SOL    HW215333   3.547   4.272   7.510 -2.4422  0.4669  0.9953
 1234SOL     OW15334   1.387   1.739   4.123 -0.5570 -0.5525  0.2576
 1234SOL    HW115335   1.339   1.661   4.094 -1.2778 -0.0263  0.0417
 1234SOL    HW215336   1.445   1.709   4.193 -0.5897  1.6109  1.2104
 1235SOL     OW15337   0.609   4.046   3.043  0.4358  0.6855 -0.7410
 1235SOL    HW115338   0.677   3.989   3.077  1.9587  2.4259 -0.8277
 1235SOL    HW215339   0.541   4.055   3.110  0.7554 -1.2327 -0.1728
 1236SOL     OW15340   0.159   1.008  10.082  0.3114 -0.3836 -0.0822
 1236SOL    HW115341   0.160   0.948  10.008 -0.4906  0.4873 -0.8060
 1236SOL    HW215342   0.240   1.054  10.062  1.5359 -1.7362  1.7854
 1237SOL     OW15343   2.055   2.994   7.913 -0.0789  0.3495 -0.1977
 1237SOL    HW115344   2.105   2.984   7.832 -1.3311  2.3444 -1.2118
 1237SOL    HW215345   2.118   2.948   7.968 -0.0769  0.1528 -0.3678
 1238SOL     OW15346   0.648   0.936   4.393 -0.4594  0.1163 -0.0381
 1238SOL    HW115347   0.586   1.008   4.381  0.4188  0.8261 -0.3279
 1238SOL    HW215348   0.701   0.956   4.471 -3.7926  2.9653  1.4727
 1239SOL     OW15349   1.293   2.879   7.582  0.3454 -1.0874  0.1493
 1239SOL    HW115350   1.324   2.904   7.669 -1.9110 -1.8073  1.1525
 1239SOL    HW215351   1.240   2.802   7.602 -0.5453 -0.9843 -1.8484
 1240SOL     OW15352   2.540   2.815  16.340  0.2725 -0.0156 -0.1844
 1240SOL    HW115353   2.553   2.796  16.433 -1.7116 -1.0983 -0.1220
 1240SOL    HW215354   2.454   2.778  16.323  0.5423 -0.7585  0.0739
 1241SOL     OW15355   4.669   2.592  16.481  0.2641  0.4620  0.1008
 1241SOL    HW115356   4.666   2.687  16.467 -0.4418  0.4982  0.5279
 1241SOL    HW215357   4.647   2.554  16.396  2.4509  0.7085 -0.5665
 1242SOL     OW15358   1.080   2.047   3.806  0.7073 -0.0143 -0.4072
 1242SOL    HW115359   1.157   2.003   3.769  0.1115 -2.9302  1.8191
 1242SOL    HW215360   1.092   2.026   3.898  2.2437  2.1053 -0.1297
 1243SOL     OW15361   2.491   4.184   1.855  0.2993 -0.5040  0.2589
 1243SOL    HW115362   2.466   4.123   1.786 -1.1371  0.8838 -0.4372
 1243SOL    HW215363   2.570   4.143   1.889  1.2503  2.9888  2.2624
 1244SOL     OW15364   1.944   3.302   3.312  0.0655 -0.3975 -0.8066
 1244SOL    HW115365   2.016   3.365   3.305 -0.1468  0.0377  1.0657
 1244SOL    HW215366   1.992   3.226   3.343  2.8073  0.8384 -1.9723
 1245SOL     OW15367   0.519   0.442   2.070  0.5582 -0.0882 -0.0908
 1245SOL    HW115368   0.547   0.354   2.097  2.0049  0.6650  0.8255
 1245SOL    HW215369   0.493   0.429   1.979 -2.1194  0.1270  0.6304
 1246SOL     OW15370   1.109   3.525  14.246 -0.3393 -0.0901  0.1311
 1246SOL    HW115371   1.092   3.433  14.229  0.3318 -0.7040  2.6685
 1246SOL    HW215372   1.100   3.562  14.159  0.4876 -2.6424 -1.0522
 1247SOL     OW15373   3.180   1.283   6.682 -0.9718 -0.0954 -0.7185
 1247SOL    HW115374   3.203   1.346   6.614  0.2189 -0.0666 -0.2789
 1247SOL    HW215375   3.245   1.215   6.664 -0.1522  1.1476 -2.4841
 1248SOL     OW15376   0.887   1.956   7.163  0.2010  0.1780 -0.0117
 1248SOL    HW115377   0.848   1.868   7.166  0.3941  0.0744 -0.5625
 1248SOL    HW215378   0.977   1.926   7.179 -0.9190 -0.5877  4.8598
 1249SOL     OW15379   0.113   1.157  10.458  0.1435  0.0408  0.2521
 1249SOL    HW115380   0.060   1.168  10.537 -0.0260 -1.5333  0.3544
 1249SOL    HW215381   0.065   1.079  10.429  0.7560 -0.7925  1.4995
 1250SOL     OW15382   0.150   0.783   3.030  0.4476 -0.8847  0.1863
 1250SOL    HW115383   0.163   0.759   2.938 -2.6182 -1.8534  0.0040
 1250SOL    HW215384   0.131   0.697   3.068 -0.2866  0.3228  2.5479
 1251SOL     OW15385   3.813   0.121   1.298 -0.0989  0.4017  0.0962
 1251SOL    HW115386   3.778   0.094   1.213 -0.4240  0.5662  0.1798
 1251SOL    HW215387   3.850   0.206   1.276  1.1314 -0.4137 -1.0400
 1252SOL     OW15388   2.094   4.352   8.703 -0.2258  0.1135  0.1524
 1252SOL    HW115389   2.149   4.327   8.629  0.1791 -2.6295  1.4002
 1252SOL    HW215390   2.111   4.281   8.765  0.6869 -0.2718 -0.5460
 1253SOL     OW15391   2.367   3.277   2.853  0.1315 -0.2589  0.5081
 1253SOL    HW115392   2.422   3.352   2.831  1.7349 -1.7255 -0.5355
 1253SOL    HW215393   2.281   3.313   2.833  1.2050  1.5147 -0.8455
 1254SOL     OW15394   1.273   0.916   9.545 -0.0893  0.4091  0.3562
 1254SOL    HW115395   1.280   1.009   9.567  0.2774  0.6519 -0.7373
 1254SOL    HW215396   1.276   0.918   9.449  1.0902  1.7999  0.4123
 1255SOL     OW15397   1.647   2.279   3.649 -0.0018  0.2007 -0.7085
 1255SOL    HW115398   1.655   2.275   3.745 -1.9936  1.2351 -0.5072
 1255SOL    HW215399   1.658   2.373   3.638  1.2202  0.2132  0.5266
 1256SOL     OW15400   4.638   1.835   0.626  0.4312 -0.2535  0.4778
 1256SOL    HW115401   4.712   1.790   0.666  0.6301  0.3749  0.8154
 1256SOL    HW215402   4.596   1.886   0.696  1.6801 -0.8507  1.6531
 1257SOL     OW15403   1.921   2.098  15.746  0.1835  0.2845  0.0466
 1257SOL    HW115404   1.939   2.004  15.753  0.0173  0.3166  0.9279
 1257SOL    HW215405   1.835   2.101  15.704  1.5779  2.6290 -2.6225
 1258SOL     OW15406   4.505   4.233   4.659 -0.8327  0.0558 -0.2362
 1258SOL    HW115407   4.596   4.212   4.681 -0.3589  1.7737 -0.5318
 1258SOL    HW215408   4.510   4.321   4.696 -2.7367  0.4261 -0.8642
 1259SOL     OW15409   1.982   2.524   5.061 -0.2687  0.2756 -0.1896
 1259SOL    HW115410   1.930   2.573   4.997 -1.9910 -1.3763 -0.0705
 1259SOL    HW215411   1.913   2.512   5.126  0.5673  0.5408  0.7479
 1260SOL     OW15412   0.681   4.090   6.657 -0.0483  0.2812  0.0252
 1260SOL    HW115413   0.707   4.132   6.740 -2.3552  3.4600 -0.8296
 1260SOL    HW215414   0.681   4.165   6.598 -1.2268 -0.2841 -0.6903
 1261SOL     OW15415   1.491   2.491   7.953  0.4898  0.3778 -0.4896
 1261SOL    HW115416   1.529   2.577   7.968  1.7857  0.0336 -1.8116
 1261SOL    HW215417   1.478   2.486   7.859  1.1730 -2.0012 -0.4673
 1262SOL     OW15418   3.594   4.587   9.318 -0.5959  0.3838 -0.0664
 1262SOL    HW115419   3.532   4.629   9.378 -1.4336 -0.8810 -0.0603
 1262SOL    HW215420   3.680   4.616   9.350 -1.4241 -1.0851  3.5212
 1263SOL     OW15421   0.753   4.006  13.358  0.1676  0.3382 -0.6599
 1263SOL    HW115422   0.782   3.942  13.423 -4.6325 -0.6136  0.5641
 1263SOL    HW215423   0.773   4.087  13.404 -0.4749 -0.8352  1.6489
 1264SOL     OW15424   2.258   1.077  16.292 -0.0070  0.3807 -0.2364
 1264SOL    HW115425   2.327   1.016  16.318  0.2647  0.8258  0.0855
 1264SOL    HW215426   2.272   1.139  16.363 -1.6656 -2.0436  2.1896
 1265SOL     OW15427   3.359   1.884  12.242 -0.2388 -0.1186  0.0563
 1265SOL    HW115428   3.444   1.909  12.204  0.3140  1.0565  2.0650
 1265SOL    HW215429   3.388   1.910  12.330  0.3516 -0.4001 -0.0508
 1266SOL     OW15430   0.366   2.200  14.038 -0.1525  0.5688 -0.1139
 1266SOL    HW115431   0.406   2.239  13.960  2.3057 -1.0515  0.3303
 1266SOL    HW215432   0.436   2.182  14.101  0.7625  1.4090 -0.8926
 1267SOL     OW15433   0.925   0.350   5.323 -0.1284  1.0815  0.6233
 1267SOL    HW115434   0.875   0.428   5.348 -1.3791 -0.7809  3.8449
 1267SOL    HW215435   1.015   0.382   5.330  0.3687 -0.3242  0.6522
 1268SOL     OW15436   0.118   3.428  11.846  0.7112 -0.1780 -0.9887
 1268SOL    HW115437   0.189   3.431  11.911  0.7858  2.1209 -1.2021
 1268SOL    HW215438   0.126   3.337  11.817 -0.3195 -0.6835  0.2982
 1269SOL     OW15439   3.983   3.915   6.513 -0.3965 -0.0279  0.7208
 1269SOL    HW115440   3.965   4.009   6.503 -1.1339 -0.2373  0.1027
 1269SOL    HW215441   4.049   3.933   6.580 -1.1668 -1.3398  1.8020
 1270SOL     OW15442   0.832   0.015  12.767 -0.6493  0.4094  0.1443
 1270SOL    HW115443   0.881   4.676  12.740  0.7350  1.0083  0.9291
 1270SOL    HW215444   0.744   0.002  12.732 -0.2208 -0.9964 -0.4499
 1271SOL     OW15445   4.026   3.127   1.113 -0.3501 -0.3085  0.2484
 1271SOL    HW115446   3.980   3.196   1.160 -0.8502 -0.4437 -0.0354
 1271SOL    HW215447   4.053   3.065   1.181 -1.6201 -0.2978  0.7731
 1272SOL     OW15448   0.809   2.785   7.551 -0.2307 -0.1787  0.2874
 1272SOL    HW115449   0.767   2.768   7.636  1.5869 -0.4391  1.1400
 1272SOL    HW215450   0.746   2.839   7.503 -1.7917 -2.6112 -0.3872
 1273SOL     OW15451   2.944   1.841   2.372  0.0425  0.7457  0.3497
 1273SOL    HW115452   2.908   1.837   2.461 -0.3764  0.9264  0.1884
 1273SOL    HW215453   2.902   1.916   2.331 -1.4192  0.1812  0.8313
 1274SOL     OW15454   2.841   3.797  16.592  0.0272 -0.3099 -0.0841
 1274SOL    HW115455   2.786   3.803  16.670 -0.0146  0.3925 -0.1739
 1274SOL    HW215456   2.922   3.841  16.615 -0.4339  0.6817 -0.3568
 1275SOL     OW15457   0.899   3.834   9.619 -0.0072  0.2040 -0.2096
 1275SOL    HW115458   0.909   3.924   9.650 -0.1188 -0.1750  0.9064
 1275SOL    HW215459   0.942   3.836   9.533  1.9601 -1.3473  0.7535
 1276SOL     OW15460   2.348   2.141   1.062 -0.1307 -0.8809  0.4540
 1276SOL    HW115461   2.330   2.219   1.009 -3.0338 -0.8896  1.4039
 1276SOL    HW215462   2.257   2.133   1.091 -0.5185  0.1513 -0.4659
 1277SOL     OW15463   0.203   2.609   0.129 -0.5092  0.0180  0.1651
 1277SOL    HW115464   0.121   2.657   0.127 -1.1157 -1.0361 -0.3538
 1277SOL    HW215465   0.221   2.601   0.035 -2.1472 -0.4349 -0.1159
 1278SOL     OW15466   1.014   2.612   9.047 -0.1356 -1.1822  0.2759
 1278SOL    HW115467   1.006   2.677   8.977  0.8168 -1.7572 -0.3683
 1278SOL    HW215468   1.109   2.606   9.055 -0.0278 -0.6425 -0.5629
 1279SOL     OW15469   2.683   0.422   1.189 -0.4026 -0.1635  0.0233
 1279SOL    HW115470   2.768   0.427   1.146 -0.4805  1.6426  0.0565
 1279SOL    HW215471   2.692   0.344   1.243 -1.7058 -0.5029 -0.2440
 1280SOL     OW15472   1.379   3.072   5.412  0.7461 -1.1135  0.3179
 1280SOL    HW115473   1.458   3.122   5.433 -1.6101  2.3384  1.0604
 1280SOL    HW215474   1.375   3.015   5.489  1.2132 -3.0145 -1.0716
 1281SOL     OW15475   1.265   2.206   5.560  0.1422 -0.0439  0.2284
 1281SOL    HW115476   1.353   2.199   5.596 -0.1818  2.3196  1.5122
 1281SOL    HW215477   1.242   2.114   5.570  1.7058 -0.2844  1.5868
 1282SOL     OW15478   1.267   0.719   2.677  0.0731 -0.2530 -0.0429
 1282SOL    HW115479   1.315   0.790   2.720  1.1223 -0.8930 -0.1453
 1282SOL    HW215480   1.304   0.640   2.716  0.7522  1.3934  2.6916
 1283SOL     OW15481   1.225   1.428   0.458 -0.4960 -0.8009  0.1829
 1283SOL    HW115482   1.199   1.409   0.367  2.5447 -3.4116 -0.1477
 1283SOL    HW215483   1.157   1.488   0.488  0.7017  1.2661 -1.2141
 1284SOL     OW15484   1.729   0.343   6.658  0.0972  0.4405 -0.1756
 1284SOL    HW115485   1.774   0.305   6.734  0.9599  2.1064  0.1521
 1284SOL    HW215486   1.689   0.261   6.629 -0.6549  0.8178 -0.2041
 1285SOL     OW15487   1.936   2.665   2.285 -0.2125 -0.2776 -0.3008
 1285SOL    HW115488   1.907   2.722   2.213  0.7615  1.3602  0.6145
 1285SOL    HW215489   1.966   2.726   2.351 -0.6390 -0.7529  0.3298
 1286SOL     OW15490   2.016   1.632  12.659 -0.1755  0.0754 -0.2831
 1286SOL    HW115491   2.057   1.591  12.735  0.2474  0.5068 -0.2838
 1286SOL    HW215492   1.933   1.665  12.695  1.7968  2.6680  1.8599
 1287SOL     OW15493   3.739   1.940   8.028  0.0211 -0.1607  0.4425
 1287SOL    HW115494   3.647   1.914   8.038 -0.0912  0.2207  0.3905
 1287SOL    HW215495   3.730   2.017   7.972 -1.6850 -0.5107  0.2467
 1288SOL     OW15496   3.334   1.126  15.593  0.5149 -0.0041  0.4839
 1288SOL    HW115497   3.375   1.082  15.519 -0.4945  1.1366 -0.7586
 1288SOL    HW215498   3.411   1.146  15.646 -0.0752 -1.1068  1.7689
 1289SOL     OW15499   2.096   1.939   0.154  0.2992  0.0257 -0.5786
 1289SOL    HW115500   2.039   1.998   0.104 -0.1217  0.3892  0.3265
 1289SOL    HW215501   2.152   1.907   0.083  0.3916 -0.2767 -0.3686
 1290SOL     OW15502   2.066   3.137   6.024 -0.0377  0.1623 -0.1162
 1290SOL    HW115503   1.983   3.090   6.031 -0.0707  0.4348  1.3716
 1290SOL    HW215504   2.069   3.193   6.102  0.3938  1.1973 -0.8682
 1291SOL     OW15505   1.948   0.979  17.504 -0.2256 -0.0041 -0.0267
 1291SOL    HW115506   1.936   1.058  17.451  2.1510 -0.7129 -1.5755
 1291SOL    HW215507   2.021   1.003  17.561  1.7917 -0.6007 -2.4109
 1292SOL     OW15508   3.102   2.964   8.400  0.2729 -0.2889 -0.4018
 1292SOL    HW115509   3.060   3.009   8.327 -0.9420 -1.3070 -0.3359
 1292SOL    HW215510   3.030   2.964   8.463 -0.6037  1.0058 -1.4049
 1293SOL     OW15511   3.840   4.708  15.859 -0.3834  0.5810  0.1763
 1293SOL    HW115512   3.787   4.738  15.933 -0.0467  1.1733  0.1765
 1293SOL    HW215513   3.837   4.613  15.867 -0.9093  0.6570  0.9332
 1294SOL     OW15514   3.286   3.640  16.068  0.1144 -0.3658  0.1510
 1294SOL    HW115515   3.346   3.702  16.109 -0.7091  0.1490  0.5924
 1294SOL    HW215516   3.223   3.628  16.140 -1.1746 -1.8711 -1.2549
 1295SOL     OW15517   4.459   1.752   5.255  0.2863  0.1451 -0.0705
 1295SOL    HW115518   4.376   1.709   5.277  0.0671  0.6908  0.1602
 1295SOL    HW215519   4.482   1.794   5.337 -2.3597 -1.7549  1.6390
 1296SOL     OW15520   3.922   2.746   5.966 -0.1231  0.0526  0.1323
 1296SOL    HW115521   3.837   2.778   5.936 -0.0537  1.6045  1.6187
 1296SOL    HW215522   3.919   2.796   6.047 -1.8351 -0.1901  0.2196
 1297SOL     OW15523   4.542   0.101   5.663 -0.1178 -0.1807 -0.2426
 1297SOL    HW115524   4.573   0.192   5.667 -0.2148 -0.1626  0.0360
 1297SOL    HW215525   4.522   0.095   5.756  0.0091 -1.5037 -0.3077
 1298SOL     OW15526   4.397   1.752   8.093  0.6454  0.5220 -0.6852
 1298SOL    HW115527   4.418   1.743   8.000  2.0809  1.3429 -0.4363
 1298SOL    HW215528   4.407   1.845   8.113 -0.5000  0.2997  0.9050
 1299SOL     OW15529   2.349   3.608  10.852 -0.2096  0.2325 -0.8304
 1299SOL    HW115530   2.272   3.563  10.887 -0.0517  0.7012  0.0919
 1299SOL    HW215531   2.403   3.636  10.925 -1.8531  0.7675  0.1921
 1300SOL     OW15532   3.272   1.611   3.420  0.5527  0.3887 -0.0387
 1300SOL    HW115533   3.359   1.582   3.395  0.0736  0.6535 -1.9876
 1300SOL    HW215534   3.266   1.677   3.351  1.8256 -0.3477 -0.8404
 1301SOL     OW15535   2.913   1.694   2.993 -0.5381  0.4673 -0.5470
 1301SOL    HW115536   2.821   1.697   3.021 -1.1877 -0.4060 -2.6332
 1301SOL    HW215537   2.943   1.755   3.061  0.0086 -0.0400 -0.3373
 1302SOL     OW15538   3.769   0.570   2.072  0.3753  0.2441  0.5103
 1302SOL    HW115539   3.855   0.574   2.113  1.1455 -2.5443 -0.8346
 1302SOL    HW215540   3.730   0.652   2.103  0.4074  1.0835 -1.6650
 1303SOL     OW15541   0.937   4.093   7.384  0.6114 -1.0705  0.3799
 1303SOL    HW115542   0.977   4.076   7.469  2.2659  2.4935  0.3366
 1303SOL    HW215543   0.997   4.033   7.341  0.1752 -0.4632 -1.0887
 1304SOL     OW15544   2.326   4.570   8.702 -0.3402 -0.1582  0.6819
 1304SOL    HW115545   2.249   4.514   8.700 -0.6306  0.3835 -2.4218
 1304SOL    HW215546   2.294   4.651   8.663 -1.3212 -1.4012 -1.1147
 1305SOL     OW15547   2.251   2.564   8.813 -0.0376  0.3550 -0.7252
 1305SOL    HW115548   2.165   2.552   8.852  0.1089 -0.4795 -0.6670
 1305SOL    HW215549   2.305   2.601   8.883  0.5414  0.5453 -1.2701
 1306SOL     OW15550   1.432   3.430   3.694  0.3541  0.2104 -0.6526
 1306SOL    HW115551   1.456   3.455   3.604  2.2452 -0.5304 -0.3413
 1306SOL    HW215552   1.339   3.450   3.688  0.3566  0.4766  0.3349
 1307SOL     OW15553   0.748   4.309   2.973 -0.4123 -0.0995 -0.2383
 1307SOL    HW115554   0.696   4.235   3.003  1.7373 -0.8504  1.6207
 1307SOL    HW215555   0.699   4.318   2.891  1.2098  0.8846 -1.1311
 1308SOL     OW15556   4.539   3.108   4.608  0.0103  0.1178 -0.0094
 1308SOL    HW115557   4.459   3.091   4.557  0.4016  0.5856 -0.7905
 1308SOL    HW215558   4.610   3.069   4.557  0.1090  0.7524 -0.3700
 1309SOL     OW15559   2.132   4.567   2.268 -0.2413 -0.0644  0.0360
 1309SOL    HW115560   2.063   4.558   2.334 -0.4406 -0.8410 -0.2764
 1309SOL    HW215561   2.170   4.480   2.272  2.0594  1.0027  1.2878
 1310SOL     OW15562   0.900   1.537   4.483  0.5932  0.1036  0.3714
 1310SOL    HW115563   0.878   1.566   4.394  0.3657  0.5411  0.5714
 1310SOL    HW215564   0.891   1.620   4.530 -0.7100 -0.4601  1.1181
 1311SOL     OW15565   0.101   4.030   0.749  0.2680  0.6909 -0.5089
 1311SOL    HW115566   0.026   4.090   0.749  0.2652  0.6924  0.2107
 1311SOL    HW215567   0.116   4.015   0.656 -0.7135 -1.3153 -0.3333
 1312SOL     OW15568   3.725   4.383  11.423 -0.0763 -0.7663 -0.8623
 1312SOL    HW115569   3.650   4.416  11.473 -0.8526  0.6663 -2.9548
 1312SOL    HW215570   3.737   4.297  11.463 -0.0567  0.1050  1.0143
 1313SOL     OW15571   1.240   2.576   7.292  0.4484  0.1890 -0.0482
 1313SOL    HW115572   1.168   2.521   7.262  0.4180 -0.2268  0.7819
 1313SOL    HW215573   1.307   2.508   7.292 -1.1850 -1.4225 -0.3218
 1314SOL     OW15574   4.121   1.330   2.204  0.1300 -0.0687  0.1445
 1314SOL    HW115575   4.163   1.293   2.281  1.2429  0.4096 -0.2359
 1314SOL    HW215576   4.173   1.290   2.134  1.3049  2.0897 -0.1870
 1315SOL     OW15577   0.213   2.264   1.276  0.5162 -0.7865  0.5772
 1315SOL    HW115578   0.121   2.242   1.267 -0.2474  2.2469  0.9184
 1315SOL    HW215579   0.200   2.344   1.328 -0.5728 -0.4158 -0.2687
 1316SOL     OW15580   0.325   3.309   2.557  0.1257  0.1782  0.2520
 1316SOL    HW115581   0.239   3.313   2.515 -0.2367  0.9630  1.0706
 1316SOL    HW215582   0.385   3.317   2.483 -1.3592 -1.1950 -1.0951
 1317SOL     OW15583   0.370   3.435   8.989  0.3971  1.1284 -0.6083
 1317SOL    HW115584   0.349   3.495   9.060  1.8020  1.5371 -0.5347
 1317SOL    HW215585   0.309   3.364   9.010  2.5425 -0.6653 -0.4436
 1318SOL     OW15586   3.279   3.971   4.084  0.8314  0.0867  0.3010
 1318SOL    HW115587   3.243   3.927   4.162  4.8092 -2.1560  0.8908
 1318SOL    HW215588   3.371   3.975   4.110  0.9368  0.6171 -0.1563
 1319SOL     OW15589   0.459   2.253   9.064 -0.6643  0.2004  0.2530
 1319SOL    HW115590   0.539   2.239   9.014 -0.4283  0.6506  0.5039
 1319SOL    HW215591   0.414   2.171   9.043  0.4329 -0.4360  0.3953
 1320SOL     OW15592   3.995   2.310   6.248 -0.0628 -0.5743  0.0786
 1320SOL    HW115593   3.952   2.384   6.291  0.5069 -0.5358  0.5707
 1320SOL    HW215594   4.057   2.286   6.316  0.5745 -0.0448 -0.3159
 1321SOL     OW15595   3.424   2.690   7.795 -0.2913 -0.6354  0.0756
 1321SOL    HW115596   3.470   2.613   7.828 -0.0242  0.2087  1.6981
 1321SOL    HW215597   3.389   2.721   7.879 -0.7876  0.2767 -0.4690
 1322SOL     OW15598   3.069   0.365  15.269 -0.6290  0.3449 -0.4427
 1322SOL    HW115599   3.076   0.446  15.219  2.0588 -1.6384 -3.2398
 1322SOL    HW215600   3.126   0.302  15.226  1.4228  1.7369  0.2110
 1323SOL     OW15601   0.748   1.138  14.099 -0.1156 -0.6341  0.5481
 1323SOL    HW115602   0.727   1.199  14.029  1.1606 -2.0189 -1.0505
 1323SOL    HW215603   0.666   1.090  14.114 -0.0855 -0.8934 -0.1218
 1324SOL     OW15604   2.459   0.486   7.448  0.6261  0.9537 -0.0479
 1324SOL    HW115605   2.470   0.549   7.377  3.7957 -1.6047 -1.8265
 1324SOL    HW215606   2.385   0.519   7.498  0.7128  5.0509 -2.6072
 1325SOL     OW15607   0.097   1.681   3.408  0.0024 -0.0621  0.3674
 1325SOL    HW115608   0.126   1.659   3.496  0.9179 -0.7767 -0.1181
 1325SOL    HW215609   0.001   1.673   3.405 -0.0659  1.7360 -2.9850
 1326SOL     OW15610   3.932   3.470   4.091 -0.3602 -0.0984  0.1542
 1326SOL    HW115611   3.853   3.436   4.133 -1.1735  0.1295 -1.1928
 1326SOL    HW215612   3.929   3.555   4.136 -1.1346  0.9769 -1.9405
 1327SOL     OW15613   0.013   3.464   5.826 -0.5291 -0.0641 -0.2754
 1327SOL    HW115614   0.043   3.553   5.808 -1.5693  0.6507  1.5296
 1327SOL    HW215615   4.699   3.434   5.752 -1.8548 -1.0060  1.0257
 1328SOL     OW15616   2.160   2.173   6.126  0.2387  0.6022 -0.0057
 1328SOL    HW115617   2.129   2.104   6.184  1.6850  0.9905  1.2232
 1328SOL    HW215618   2.206   2.119   6.062  0.7374 -1.6337  2.2274
 1329SOL     OW15619   0.703   4.592   1.094  0.3170 -0.3683 -0.8627
 1329SOL    HW115620   0.707   4.499   1.116 -1.4906 -0.4303 -0.8246
 1329SOL    HW215621   0.730   4.588   1.003 -0.7362 -3.5502 -1.0335
 1330SOL     OW15622   1.508   4.419   2.435 -0.4424 -0.5566 -0.2679
 1330SOL    HW115623   1.437   4.358   2.415 -1.3533  0.4213 -0.0475
 1330SOL    HW215624   1.457   4.487   2.480 -0.0223  0.0405 -0.6778
 1331SOL     OW15625   3.010   1.468  16.394 -0.0481 -0.2995 -0.3601
 1331SOL    HW115626   3.043   1.380  16.375 -0.5182 -0.3994 -0.7076
 1331SOL    HW215627   3.070   1.501  16.461  0.8966 -2.1341 -0.3233
 1332SOL     OW15628   1.234   1.818   3.363 -0.5898  0.1044  0.2555
 1332SOL    HW115629   1.299   1.881   3.393 -1.3389  0.4710  1.1103
 1332SOL    HW215630   1.177   1.808   3.439 -0.5116 -0.7344  0.1956
 1333SOL     OW15631   1.738   4.666  12.311 -0.2979 -0.5704  0.5850
 1333SOL    HW115632   1.680   4.670  12.234  0.8515 -0.1976 -0.2550
 1333SOL    HW215633   1.765   4.576  12.294  0.9325 -0.4153  1.7504
 1334SOL     OW15634   1.785   1.333  12.275 -0.0639 -0.5363 -0.0897
 1334SOL    HW115635   1.858   1.385  12.308 -0.7391  0.4148 -0.0974
 1334SOL    HW215636   1.727   1.399  12.237  0.3405  0.9627  1.9318
 1335SOL     OW15637   1.557   1.371   4.493 -0.3104 -0.3881  0.3903
 1335SOL    HW115638   1.520   1.347   4.408  1.4717  2.5784 -1.2123
 1335SOL    HW215639   1.482   1.383   4.551  0.6250 -0.0520  1.5349
 1336SOL     OW15640   1.242   4.379   6.060  0.0018 -0.7301  0.1874
 1336SOL    HW115641   1.151   4.406   6.051 -0.2483 -1.9387 -1.0846
 1336SOL    HW215642   1.250   4.383   6.155  3.8749 -0.0140 -0.1805
 1337SOL     OW15643   4.091   0.061   2.711  0.0014  0.4530  0.0748
 1337SOL    HW115644   4.058   0.066   2.621 -0.5590 -0.1247  0.2499
 1337SOL    HW215645   4.014   0.018   2.748  0.0797 -0.4120 -0.7468
 1338SOL     OW15646   2.013   3.310  17.530 -0.1937  0.4724  0.6056
 1338SOL    HW115647   2.002   3.221  17.563  3.3363 -0.4947 -0.9154
 1338SOL    HW215648   2.077   3.299  17.461 -0.0686 -0.1523  0.8235
 1339SOL     OW15649   0.299   3.830   7.255 -0.2315 -0.0090 -0.5355
 1339SOL    HW115650   0.231   3.817   7.321  0.1032 -0.3639 -0.2641
 1339SOL    HW215651   0.356   3.754   7.266 -1.8332 -0.7796  2.3326
 1340SOL     OW15652   3.163   4.400   5.758  0.0351  0.6681 -0.0047
 1340SOL    HW115653   3.111   4.459   5.703 -0.2013 -0.4888 -1.0219
 1340SOL    HW215654   3.104   4.385   5.831 -0.0004 -1.7961 -0.5534
 1341SOL     OW15655   1.445   0.375   6.627  0.2364 -0.7823  0.2359
 1341SOL    HW115656   1.429   0.382   6.533  3.0690 -0.5969 -0.2169
 1341SOL    HW215657   1.517   0.312   6.633  1.3365  0.2960 -1.5462
 1342SOL     OW15658   2.094   2.000   2.908  0.5409  0.2424  0.2306
 1342SOL    HW115659   2.089   1.907   2.931  2.2276 -0.4825 -2.3668
 1342SOL    HW215660   2.174   2.025   2.954  0.6278 -0.1533  0.3002
 1343SOL     OW15661   3.643   4.616   4.447  0.0863 -0.2155  0.5993
 1343SOL    HW115662   3.633   4.600   4.353  1.1013  0.1117  0.4405
 1343SOL    HW215663   3.724   4.568   4.464  1.6825  2.7165  1.1978
 1344SOL     OW15664   0.734   3.291   3.684 -0.3303  1.0178  0.3871
 1344SOL    HW115665   0.715   3.353   3.754 -3.4917  2.7174 -2.0097
 1344SOL    HW215666   0.682   3.315   3.608 -1.3087  0.8132  0.9973
 1345SOL     OW15667   1.518   3.542  11.360 -0.3145  0.2356  0.0716
 1345SOL    HW115668   1.515   3.453  11.323  2.3545  0.4366 -0.5744
 1345SOL    HW215669   1.449   3.546  11.427  0.3681  0.8784  0.7365
 1346SOL     OW15670   3.134   2.252   6.836 -0.2419  0.0520  0.7217
 1346SOL    HW115671   3.203   2.232   6.772 -0.7646 -1.2122  0.5552
 1346SOL    HW215672   3.059   2.263   6.777 -1.7664 -1.1225  2.4506
 1347SOL     OW15673   2.269   2.722   3.043  0.3006 -0.6023  0.4156
 1347SOL    HW115674   2.350   2.698   2.996  0.3003 -0.7050  0.4690
 1347SOL    HW215675   2.237   2.787   2.980  1.9817  0.2174  0.4083
 1348SOL     OW15676   2.258   0.807  15.171 -0.1214  0.5006 -0.0166
 1348SOL    HW115677   2.278   0.878  15.110  0.3092 -0.5729 -1.1097
 1348SOL    HW215678   2.224   0.736  15.116 -1.0014 -0.2138  1.4675
 1349SOL     OW15679   4.168   1.224   8.331  0.2264 -0.3913  0.4536
 1349SOL    HW115680   4.235   1.164   8.362 -0.3097 -0.8183  0.7783
 1349SOL    HW215681   4.149   1.198   8.241  0.7279 -0.1367  0.2726
 1350SOL     OW15682   2.189   4.454   3.779 -0.4435 -0.0730  0.3722
 1350SOL    HW115683   2.241   4.428   3.855 -0.1354  0.2705  0.2790
 1350SOL    HW215684   2.104   4.420   3.807 -0.7827  0.6361  0.1810
 1351SOL     OW15685   1.045   2.322   3.758  0.0584 -0.3799 -0.0101
 1351SOL    HW115686   1.069   2.231   3.775  3.8972  0.7382  0.5744
 1351SOL    HW215687   1.015   2.354   3.843 -0.7096  1.1763 -0.8769
 1352SOL     OW15688   4.276   3.108   5.269 -0.6573 -0.3498 -0.1239
 1352SOL    HW115689   4.273   3.039   5.335  0.1361 -0.6825 -0.4370
 1352SOL    HW215690   4.216   3.171   5.309  0.5823  0.5926  0.2489
 1353SOL     OW15691   2.031   0.068   4.301  0.4353  0.1147  0.2952
 1353SOL    HW115692   2.054   4.724   4.343 -0.0182 -0.1652 -0.0080
 1353SOL    HW215693   2.068   0.065   4.213  2.2806  1.7051  1.0089
 1354SOL     OW15694   2.151   4.032   4.224  0.6216 -0.4706 -0.0555
 1354SOL    HW115695   2.197   4.104   4.266 -1.3359  1.5718 -1.4540
 1354SOL    HW215696   2.144   4.065   4.135  1.1977 -1.2947 -0.4083
 1355SOL     OW15697   4.697   3.577   0.791  0.7482 -0.1065 -0.1368
 1355SOL    HW115698   4.609   3.600   0.822  0.0519  0.7082 -2.7188
 1355SOL    HW215699   4.712   3.655   0.738 -0.9463 -0.5002 -1.1924
 1356SOL     OW15700   1.534   1.926   9.286 -0.0020  0.2609 -1.1021
 1356SOL    HW115701   1.608   1.894   9.339 -0.4900 -1.1000 -1.2339
 1356SOL    HW215702   1.461   1.919   9.348  0.6381  0.1530 -0.3638
 1357SOL     OW15703   1.400   3.391   9.148  0.1156 -0.0361  0.3132
 1357SOL    HW115704   1.472   3.453   9.154  0.6434 -0.7921  1.6701
 1357SOL    HW215705   1.420   3.343   9.067 -2.7848  1.9694 -1.6220
 1358SOL     OW15706   2.250   2.587   5.158  0.0607  0.3531  1.2142
 1358SOL    HW115707   2.216   2.646   5.226  3.0692  2.0620  1.2583
 1358SOL    HW215708   2.168   2.561   5.115 -0.2390  0.1327  1.9311
 1359SOL     OW15709   2.969   1.078   8.990 -0.7028 -0.2557  0.4602
 1359SOL    HW115710   2.964   1.008   9.055  0.8148 -0.6441  0.1353
 1359SOL    HW215711   3.046   1.121   9.028 -0.3292 -0.7349  0.2256
 1360SOL     OW15712   1.016   4.005   7.699  0.1807  0.0041  0.1653
 1360SOL    HW115713   1.073   3.989   7.775 -1.8573  1.1273  1.9279
 1360SOL    HW215714   1.057   4.089   7.678 -0.5134 -0.1350 -1.6888
 1361SOL     OW15715   0.873   0.618   6.990  0.3064  0.5644 -0.3587
 1361SOL    HW115716   0.824   0.626   7.073  1.0639 -0.2076  0.1567
 1361SOL    HW215717   0.834   0.697   6.953 -0.8718 -0.0286 -0.3846
 1362SOL     OW15718   3.052   0.928   2.894 -0.9473 -0.0985 -0.1032
 1362SOL    HW115719   3.032   1.021   2.902  0.2713  0.0788  0.9116
 1362SOL    HW215720   3.068   0.934   2.800 -2.9330 -1.1387 -0.5176
 1363SOL     OW15721   0.472   1.959   6.550  0.0024 -0.2450  0.6055
 1363SOL    HW115722   0.482   1.895   6.621 -2.0451 -0.1174  1.0056
 1363SOL    HW215723   0.377   1.965   6.547  0.0788  0.2070 -0.9324
 1364SOL     OW15724   2.063   1.472   3.212 -0.0316  0.1754 -0.0464
 1364SOL    HW115725   2.002   1.544   3.224 -0.0258  0.2104 -0.2393
 1364SOL    HW215726   2.024   1.417   3.145  0.3003 -1.0568  0.7764
 1365SOL     OW15727   0.931   4.296   4.039 -0.2401  0.3887 -0.0802
 1365SOL    HW115728   0.940   4.268   3.948  0.2200 -3.2299  1.0780
 1365SOL    HW215729   0.837   4.312   4.049 -0.0591  0.9336  0.7922
 1366SOL     OW15730   4.685   0.409   4.597 -0.5509 -0.2276 -0.1463
 1366SOL    HW115731   4.680   0.468   4.521  0.7932 -0.1178 -0.1577
 1366SOL    HW215732   4.666   0.329   4.548 -1.8541 -0.8553  1.4088
 1367SOL     OW15733   4.332   2.466   7.599  0.6367 -0.3847  0.5185
 1367SOL    HW115734   4.268   2.519   7.646  1.1685 -0.4986  1.3638
 1367SOL    HW215735   4.403   2.527   7.580 -1.5784  2.3958  1.2713
 1368SOL     OW15736   1.765   1.014  11.988 -1.0317 -0.1168  0.3135
 1368SOL    HW115737   1.826   1.035  12.059  0.3653 -1.6800 -0.4214
 1368SOL    HW215738   1.709   1.091  11.982  0.9655  1.2975 -0.2633
 1369SOL     OW15739   3.585   1.010  11.248 -0.4529  0.1848  0.0681
 1369SOL    HW115740   3.573   1.076  11.180 -0.3884 -0.2844 -0.4070
 1369SOL    HW215741   3.588   1.063  11.327  0.0530 -1.4070  1.1354
 1370SOL     OW15742   0.704   0.084   3.747  0.2147  0.1327 -0.8991
 1370SOL    HW115743   0.635   0.134   3.705 -0.3699 -0.0137 -0.1151
 1370SOL    HW215744   0.760   0.057   3.674  0.8076 -0.2939 -0.2974
 1371SOL     OW15745   1.613   0.407   6.131 -0.0998  0.4504 -0.1154
 1371SOL    HW115746   1.601   0.410   6.036  2.4840  3.0980 -0.3652
 1371SOL    HW215747   1.707   0.409   6.149  0.1673 -1.3197 -1.2802
 1372SOL     OW15748   0.176   0.655  10.331 -0.3836 -0.0838 -0.6464
 1372SOL    HW115749   0.239   0.727  10.326  2.2762 -2.1611  2.8781
 1372SOL    HW215750   0.126   0.671  10.411  0.4046  1.0152 -0.3602
 1373SOL     OW15751   4.291   0.280   1.618  0.2360 -0.0664 -0.2791
 1373SOL    HW115752   4.305   0.302   1.526 -0.5697 -0.5002 -0.5067
 1373SOL    HW215753   4.232   0.207   1.602 -0.0085 -0.4763  2.4814
 1374SOL     OW15754   2.770   1.255   8.892  0.7577  0.5439  0.1164
 1374SOL    HW115755   2.817   1.324   8.940  0.7985 -0.1572  1.0813
 1374SOL    HW215756   2.804   1.178   8.937 -1.9471 -1.6025 -1.5879
 1375SOL     OW15757   1.738   2.685  12.284 -0.0856  0.8523  0.0511
 1375SOL    HW115758   1.647   2.652  12.288  0.2420  0.0864  1.5363
 1375SOL    HW215759   1.783   2.609  12.247  0.7421  2.3100 -1.8909
 1376SOL     OW15760   0.088   4.115   1.840  0.0696 -0.0649 -0.7524
 1376SOL    HW115761   0.154   4.167   1.794  1.5696 -1.3902 -0.1121
 1376SOL    HW215762   0.126   4.031   1.814  0.4786 -0.5089  1.2174
 1377SOL     OW15763   3.032   1.864   6.462  0.1250  0.0488 -0.4627
 1377SOL    HW115764   2.970   1.930   6.495 -0.2118 -0.0109 -0.9849
 1377SOL    HW215765   3.020   1.804   6.536  0.9962  1.5358  0.8806
 1378SOL     OW15766   2.316   1.536  15.607 -0.2622 -0.3092 -0.1971
 1378SOL    HW115767   2.340   1.556  15.697  2.4122  0.5205 -1.0949
 1378SOL    HW215768   2.229   1.499  15.621  0.4760 -2.3621 -0.9420
 1379SOL     OW15769   0.436   2.480   4.674 -0.1865 -0.3908  0.0370
 1379SOL    HW115770   0.354   2.442   4.643  2.9543 -2.7617 -5.2574
 1379SOL    HW215771   0.439   2.556   4.615  0.2417 -2.9624 -3.2373
 1380SOL     OW15772   0.354   1.314  13.245  0.0133 -0.7490  0.5083
 1380SOL    HW115773   0.437   1.341  13.205 -1.2255 -1.3607 -2.4878
 1380SOL    HW215774   0.350   1.378  13.316 -0.7562  0.2020 -0.3970
 1381SOL     OW15775   2.493   3.054   2.937  0.0122 -0.1142 -0.3800
 1381SOL    HW115776   2.452   3.131   2.898  2.3612  0.5982 -1.4337
 1381SOL    HW215777   2.540   3.101   3.005 -1.7472  0.7747  0.2178
 1382SOL     OW15778   1.855   2.780   9.652  0.0984 -0.2197  0.3487
 1382SOL    HW115779   1.854   2.826   9.736 -2.0898 -0.9208  0.7073
 1382SOL    HW215780   1.770   2.735   9.654  1.8554 -3.5562 -1.1927
 1383SOL     OW15781   3.537   0.357   3.520  0.1184 -0.4804  0.4049
 1383SOL    HW115782   3.541   0.328   3.611 -0.8802  0.0402  0.6251
 1383SOL    HW215783   3.474   0.293   3.487 -0.3607 -0.8080  1.9703
 1384SOL     OW15784   3.382   4.475   0.309 -0.5355  0.2599  0.2765
 1384SOL    HW115785   3.317   4.466   0.379  0.6931 -0.0945  1.3780
 1384SOL    HW215786   3.419   4.388   0.292 -2.3354 -0.7502  1.4582
 1385SOL     OW15787   1.513   1.534   8.414  0.1760 -0.1445  0.1723
 1385SOL    HW115788   1.573   1.550   8.487  0.4764 -1.8035  0.2810
 1385SOL    HW215789   1.552   1.461   8.367  1.8834  0.4191  0.7109
 1386SOL     OW15790   1.072   2.113   6.555  0.3801 -0.1842  0.5398
 1386SOL    HW115791   1.077   2.179   6.486  1.8869 -1.3459 -0.4732
 1386SOL    HW215792   0.995   2.068   6.521 -0.2815  0.8576  0.6580
 1387SOL     OW15793   4.404   0.906   6.656  0.0286  0.1671  0.4308
 1387SOL    HW115794   4.392   0.893   6.562  0.9431  0.0710  0.3251
 1387SOL    HW215795   4.498   0.922   6.661  0.2205 -0.8624 -0.0326
 1388SOL     OW15796   1.296   2.551   5.158 -0.2564  0.0113 -0.2285
 1388SOL    HW115797   1.295   2.513   5.246  2.2642 -0.3526 -0.3533
 1388SOL    HW215798   1.205   2.567   5.135 -0.5408  0.2338  1.0495
 1389SOL     OW15799   0.546   3.657   3.671 -0.1287  0.1406 -0.3347
 1389SOL    HW115800   0.639   3.658   3.693  0.5270  0.8162 -3.0648
 1389SOL    HW215801   0.552   3.684   3.579 -0.2620 -3.2663 -1.3177
 1390SOL     OW15802   3.488   4.476   6.072  0.2018 -0.1915  0.5053
 1390SOL    HW115803   3.460   4.484   6.163 -0.8139  0.5799  0.1255
 1390SOL    HW215804   3.580   4.502   6.072  0.0530  0.2029 -4.1117
 1391SOL     OW15805   2.815   3.065   3.002 -0.2537  0.3753 -0.3786
 1391SOL    HW115806   2.789   3.028   2.918 -0.6940 -0.4676  0.1340
 1391SOL    HW215807   2.909   3.047   3.005 -0.0634  0.7307 -4.7169
 1392SOL     OW15808   2.544   2.446   8.882 -0.1000 -0.1036  0.9691
 1392SOL    HW115809   2.483   2.518   8.896  0.5343  0.1647  2.3836
 1392SOL    HW215810   2.486   2.383   8.926  2.9162 -2.7106  1.2514
 1393SOL     OW15811   3.759   1.324   8.592 -0.6810 -0.1171  0.0777
 1393SOL    HW115812   3.830   1.333   8.655 -0.4496 -1.0143 -0.0603
 1393SOL    HW215813   3.772   1.233   8.568 -1.6213 -0.5572  1.2700
 1394SOL     OW15814   4.644   2.138  15.181 -0.4168  0.1313 -0.2769
 1394SOL    HW115815   4.559   2.119  15.142 -0.2141  1.1159 -1.2115
 1394SOL    HW215816   4.683   2.053  15.159 -0.5612  0.2304 -0.9291
 1395SOL     OW15817   4.612   2.929  11.653 -0.2302  0.2058  0.7449
 1395SOL    HW115818   4.547   2.893  11.714 -0.1783 -3.7879 -1.5428
 1395SOL    HW215819   4.662   2.863  11.606 -0.0949 -0.9639  2.5443
 1396SOL     OW15820   4.199   2.613   6.301 -0.1854 -0.1558  0.1767
 1396SOL    HW115821   4.271   2.618   6.364  0.5763  0.8977 -0.7754
 1396SOL    HW215822   4.140   2.674   6.344 -0.5758 -0.3590 -0.0728
 1397SOL     OW15823   4.006   4.520   3.359 -0.4734  0.2663 -0.0336
 1397SOL    HW115824   4.089   4.487   3.391 -1.5899 -2.4522  0.0977
 1397SOL    HW215825   4.032   4.539   3.269  1.2985  1.4038  0.7255
 1398SOL     OW15826   3.565   4.497   8.238  0.2341  0.2501 -0.3456
 1398SOL    HW115827   3.475   4.485   8.209  0.4552 -1.3492 -0.4029
 1398SOL    HW215828   3.570   4.427   8.304  0.7638  1.5421  0.9771
 1399SOL     OW15829   1.691   1.785  13.620  0.4767  0.6768 -0.0061
 1399SOL    HW115830   1.607   1.740  13.624  0.0501  1.7121  2.2353
 1399SOL    HW215831   1.743   1.714  13.580 -1.0310 -0.5362  0.1728
 1400SOL     OW15832   0.764   2.368   8.994  0.0969 -0.3037 -0.2250
 1400SOL    HW115833   0.719   2.434   9.046  3.2980  1.3234  0.4798
 1400SOL    HW215834   0.740   2.398   8.906  2.5691 -0.2744 -0.8889
 1401SOL     OW15835   1.807   4.141   9.267  0.2448  0.0821  0.3662
 1401SOL    HW115836   1.718   4.160   9.238  0.4194  0.3578  0.0068
 1401SOL    HW215837   1.787   4.113   9.356  1.8852  1.9213  1.3328
 1402SOL     OW15838   1.724   4.544  10.281 -0.0939  0.1629 -0.5751
 1402SOL    HW115839   1.818   4.531  10.295 -0.0551 -0.0567 -1.0206
 1402SOL    HW215840   1.689   4.482  10.217  0.2393 -0.1766 -0.4271
 1403SOL     OW15841   2.006   1.693  13.002  0.2791  0.1713 -0.7377
 1403SOL    HW115842   2.091   1.734  13.012 -0.9043  2.2725  0.6329
 1403SOL    HW215843   2.016   1.604  13.037 -0.3237  0.4278  0.1006
 1404SOL     OW15844   1.266   4.514   1.688  0.7729  0.5848  0.2078
 1404SOL    HW115845   1.194   4.452   1.697  1.7542 -0.6071 -0.0613
 1404SOL    HW215846   1.347   4.463   1.695  1.8972  2.3272 -0.0808
 1405SOL     OW15847   1.746   1.339   7.470 -0.2122 -0.7285 -0.9531
 1405SOL    HW115848   1.832   1.301   7.484 -1.0051 -0.9945  3.1607
 1405SOL    HW215849   1.748   1.350   7.375 -0.3266  1.8067 -0.6728
 1406SOL     OW15850   4.164   0.535   6.523 -0.1682  0.0568 -0.0229
 1406SOL    HW115851   4.125   0.621   6.542  0.0128 -0.0241  0.7117
 1406SOL    HW215852   4.167   0.497   6.611 -1.3949 -1.4788 -0.6558
 1407SOL     OW15853   4.133   1.091  11.159  0.0446 -0.1399  0.1138
 1407SOL    HW115854   4.175   1.018  11.204  0.0190 -0.3093 -0.1334
 1407SOL    HW215855   4.043   1.058  11.168  0.7238 -0.9382  3.8441
 1408SOL     OW15856   2.394   3.596   5.357  0.0075 -0.4439 -0.3861
 1408SOL    HW115857   2.399   3.592   5.453 -0.0087  2.0949 -0.2766
 1408SOL    HW215858   2.479   3.560   5.332  0.3861  0.3569 -0.2732
 1409SOL     OW15859   3.043   0.263   6.297 -0.2358  0.3586 -0.2505
 1409SOL    HW115860   3.062   0.214   6.217  0.4273  0.8056 -0.3654
 1409SOL    HW215861   2.949   0.282   6.294  0.0831  1.4580 -3.3743
 1410SOL     OW15862   4.541   0.932   8.202 -0.1839  0.0764  0.2811
 1410SOL    HW115863   4.491   0.998   8.154 -0.2711  0.4877  0.9414
 1410SOL    HW215864   4.545   0.858   8.142  0.6902 -1.3163  2.0333
 1411SOL     OW15865   1.520   2.084  15.434  0.2335  0.2296  0.3302
 1411SOL    HW115866   1.476   2.046  15.510  0.8604 -3.0941 -0.9313
 1411SOL    HW215867   1.465   2.039  15.370 -0.5808 -1.4980  2.2518
 1412SOL     OW15868   0.831   4.271  13.449  0.1193  0.0367 -0.5660
 1412SOL    HW115869   0.744   4.303  13.476 -0.0795 -1.3637  0.4544
 1412SOL    HW215870   0.853   4.333  13.380  0.5758 -0.5579 -0.9507
 1413SOL     OW15871   3.693   4.363   6.444  0.2920 -0.3991 -0.1231
 1413SOL    HW115872   3.689   4.347   6.538 -0.2792  1.8126  0.2317
 1413SOL    HW215873   3.683   4.458   6.451  0.0777 -0.5534  1.5314
 1414SOL     OW15874   4.524   2.752   8.197 -0.3195 -0.5445 -0.1840
 1414SOL    HW115875   4.574   2.833   8.207 -3.1495  1.0945  0.7159
 1414SOL    HW215876   4.448   2.790   8.152  0.0988  0.9652  0.3910
 1415SOL     OW15877   0.271   2.476   6.964  0.5265  1.0684  0.5718
 1415SOL    HW115878   0.201   2.425   6.924 -0.4229  0.9229  2.3799
 1415SOL    HW215879   0.303   2.406   7.021  0.0495 -0.0983 -0.5807
 1416SOL     OW15880   1.442   3.642   2.397  0.2874 -0.1347  0.1069
 1416SOL    HW115881   1.493   3.723   2.387  0.7093 -0.1679  2.1108
 1416SOL    HW215882   1.482   3.582   2.334  0.5665  0.9866 -0.7794
 1417SOL     OW15883   0.032   4.352  15.813  0.1595 -0.1790 -0.7481
 1417SOL    HW115884   0.106   4.322  15.865 -0.3628 -0.2803 -0.0534
 1417SOL    HW215885   4.724   4.268  15.808 -0.3296  0.0888 -0.7094
 1418SOL     OW15886   2.917   4.356   9.435  0.6691  0.0512 -0.5284
 1418SOL    HW115887   2.994   4.300   9.443  1.1300  1.0248  1.9860
 1418SOL    HW215888   2.857   4.289   9.401  2.9497 -2.0393 -0.4461
 1419SOL     OW15889   2.591   4.705   1.237 -0.1368  0.8054  0.6612
 1419SOL    HW115890   2.556   4.665   1.157 -1.9168  0.3379  1.6692
 1419SOL    HW215891   2.668   4.648   1.243 -0.7852 -0.3961 -1.9932
 1420SOL     OW15892   3.175   2.431   3.020 -0.4485  0.0765 -0.1119
 1420SOL    HW115893   3.240   2.379   3.067 -1.3683  0.2284  1.3304
 1420SOL    HW215894   3.116   2.357   3.010  0.7895 -1.0947  1.1052
 1421SOL     OW15895   2.486   1.324   2.766  0.0805  0.2087 -0.0261
 1421SOL    HW115896   2.465   1.299   2.676 -2.3240  0.9388  0.3319
 1421SOL    HW215897   2.467   1.418   2.769 -0.3696  0.0927  0.7025
 1422SOL     OW15898   4.433   2.284   4.909 -0.0355 -0.1509 -0.2936
 1422SOL    HW115899   4.446   2.321   4.821  0.1997 -0.8573 -0.5536
 1422SOL    HW215900   4.339   2.266   4.905 -0.3960  1.5219  0.5984
 1423SOL     OW15901   4.561   3.386   3.170 -0.3974  0.4434  0.0050
 1423SOL    HW115902   4.589   3.475   3.146 -0.7564  0.0491 -1.9003
 1423SOL    HW215903   4.643   3.342   3.152 -1.8355 -1.0537 -2.9483
 1424SOL     OW15904   0.981   2.276   4.625 -0.6517  0.0467  0.2817
 1424SOL    HW115905   0.997   2.344   4.560 -0.7969 -1.3473 -1.2036
 1424SOL    HW215906   0.886   2.268   4.616 -0.6160  1.1495 -1.1453
 1425SOL     OW15907   2.722   4.162   3.672 -0.3154 -0.5446 -0.2872
 1425SOL    HW115908   2.786   4.155   3.743 -0.4888 -2.5847 -0.3155
 1425SOL    HW215909   2.640   4.188   3.715 -0.0064  0.8285 -0.5327
 1426SOL     OW15910   1.926   3.742   9.550 -0.0760  0.2306 -0.1535
 1426SOL    HW115911   1.998   3.685   9.524 -0.5256  0.2478 -1.4160
 1426SOL    HW215912   1.869   3.741   9.473  0.3762 -1.7959 -0.4719
 1427SOL     OW15913   4.397   2.320   8.714  0.1102 -0.3028 -0.0708
 1427SOL    HW115914   4.309   2.352   8.733  0.6756  0.9727  0.4115
 1427SOL    HW215915   4.445   2.318   8.797  0.1428 -0.3609 -0.0909
 1428SOL     OW15916   4.408   0.177  17.638 -0.2476  0.3443 -0.3348
 1428SOL    HW115917   4.452   0.093  17.650  2.7254  1.9068 -0.2896
 1428SOL    HW215918   4.480   0.221  17.592 -0.2245  1.6538  0.9546
 1429SOL     OW15919   1.325   3.853  14.128 -0.5051  0.8029  0.2474
 1429SOL    HW115920   1.369   3.887  14.050 -1.1381 -0.9384 -0.8827
 1429SOL    HW215921   1.310   3.924  14.189 -0.5524 -2.8885  4.5441
 1430SOL     OW15922   2.091   1.322   2.159  0.2691 -0.2875  0.4789
 1430SOL    HW115923   2.179   1.289   2.139  0.5595  1.0506 -0.4786
 1430SOL    HW215924   2.048   1.243   2.190  1.2780 -1.1349 -0.2708
 1431SOL     OW15925   1.429   3.987   4.592 -0.2845  0.1827 -0.3351
 1431SOL    HW115926   1.515   3.966   4.628 -0.3783  1.1952  0.4978
 1431SOL    HW215927   1.386   3.904   4.575 -0.1363  0.3801 -1.6334
 1432SOL     OW15928   3.367   0.759   8.122  0.5197  0.2522  0.0295
 1432SOL    HW115929   3.422   0.812   8.180  0.2646 -0.2684  0.7375
 1432SOL    HW215930   3.408   0.674   8.131  0.3931  0.0487 -1.3079
 1433SOL     OW15931   1.818   2.442  12.166 -0.0922 -0.3805 -0.1394
 1433SOL    HW115932   1.809   2.380  12.238 -0.6224 -1.2556 -0.9463
 1433SOL    HW215933   1.828   2.389  12.087 -0.2489 -1.4584  0.5623
 1434SOL     OW15934   1.676   3.976  13.430  0.1871  0.3571  0.1159
 1434SOL    HW115935   1.705   4.039  13.363  0.6972 -0.3864 -0.3694
 1434SOL    HW215936   1.599   3.925  13.406  0.6050 -1.6800  3.2563
 1435SOL     OW15937   0.708   3.726   7.908 -0.4172 -0.6457 -0.6181
 1435SOL    HW115938   0.673   3.637   7.918 -1.7947  0.2546  2.6762
 1435SOL    HW215939   0.627   3.774   7.889  0.9962  0.9021 -2.6721
 1436SOL     OW15940   4.605   3.824   6.363  0.4389 -0.0593  0.6076
 1436SOL    HW115941   4.631   3.898   6.418  1.1233 -0.1563  0.4174
 1436SOL    HW215942   4.688   3.776   6.355  0.6495  0.6491 -1.4933
 1437SOL     OW15943   3.948   3.476   7.903  0.5053  0.3565 -0.2345
 1437SOL    HW115944   3.857   3.470   7.873 -0.4698 -0.2841  2.8469
 1437SOL    HW215945   3.967   3.569   7.916  0.7471  0.3357 -0.4507
 1438SOL     OW15946   0.462   3.390   3.629  0.0990 -0.4188  0.1288
 1438SOL    HW115947   0.473   3.482   3.652 -0.2981 -0.8938  2.2129
 1438SOL    HW215948   0.418   3.349   3.703  0.2824  0.5327  0.7681
 1439SOL     OW15949   4.679   0.467  16.111  0.0377 -0.8396  0.2444
 1439SOL    HW115950   0.026   0.507  16.126 -1.0485  0.9938  1.6981
 1439SOL    HW215951   4.633   0.547  16.086 -1.7510 -1.3763  1.8248
 1440SOL     OW15952   4.098   0.980  13.962  0.3776  0.4243  1.0565
 1440SOL    HW115953   4.109   0.939  14.048  1.1611 -0.5243  0.5049
 1440SOL    HW215954   4.005   1.002  13.959  0.2544 -0.1459  0.8886
 1441SOL     OW15955   2.788   1.120  14.092 -0.0513  0.5957  0.0094
 1441SOL    HW115956   2.841   1.086  14.164 -1.1483 -0.9952  0.0929
 1441SOL    HW215957   2.703   1.138  14.134 -0.7156 -0.3320 -0.9255
 1442SOL     OW15958   1.499   0.644   6.195  0.6248  0.2107 -0.0894
 1442SOL    HW115959   1.545   0.563   6.172  0.5277 -0.2548  1.3886
 1442SOL    HW215960   1.410   0.610   6.190 -0.0121  1.5604  2.2077
 1443SOL     OW15961   3.748   0.599   5.517  0.0263  0.1141  0.0132
 1443SOL    HW115962   3.793   0.516   5.507  0.2242  0.2328 -0.0658
 1443SOL    HW215963   3.760   0.636   5.430  1.2654 -0.3885 -0.0147
 1444SOL     OW15964   4.266   1.915   4.292 -0.0495 -0.2087  0.3312
 1444SOL    HW115965   4.274   1.991   4.350  3.2568 -0.5043  0.2742
 1444SOL    HW215966   4.171   1.915   4.278 -0.0547  0.4909  0.3581
 1445SOL     OW15967   2.958   2.421   4.646 -0.3735  0.4218  0.4947
 1445SOL    HW115968   2.919   2.357   4.705  0.7366  0.7514  1.5821
 1445SOL    HW215969   2.975   2.370   4.566 -2.9962  1.1688 -0.5166
 1446SOL     OW15970   1.611   2.473   8.556 -0.0780 -0.6576 -0.0148
 1446SOL    HW115971   1.612   2.569   8.560  1.6492 -0.7067  0.6552
 1446SOL    HW215972   1.639   2.458   8.466 -1.3897  0.8580 -0.6815
 1447SOL     OW15973   3.446   3.875   9.299  0.1780 -0.2984  0.7232
 1447SOL    HW115974   3.378   3.920   9.348 -0.9896 -1.8001  0.4686
 1447SOL    HW215975   3.393   3.839   9.228  2.3211 -0.4970 -0.7977
 1448SOL     OW15976   4.212   2.152   9.668  0.5916  0.0172 -0.0585
 1448SOL    HW115977   4.200   2.060   9.644 -0.5729 -0.1705  1.2443
 1448SOL    HW215978   4.175   2.165   9.755 -2.2040 -3.9063 -0.6502
 1449SOL     OW15979   4.327   2.934   5.524  0.1875  0.1194 -0.2017
 1449SOL    HW115980   4.258   2.876   5.494  1.7609 -1.3176 -1.0693
 1449SOL    HW215981   4.309   2.939   5.618  0.6101 -1.3985 -0.0372
 1450SOL     OW15982   1.950   4.066   8.624  0.1768 -0.0553  0.2766
 1450SOL    HW115983   1.991   4.076   8.710 -0.6434 -1.5178  0.8419
 1450SOL    HW215984   1.909   3.980   8.632  0.1910 -0.0278  0.6342
 1451SOL     OW15985   1.706   2.055   2.241  0.1796  0.1343 -0.1658
 1451SOL    HW115986   1.709   2.111   2.318 -4.3865 -0.6372  0.5921
 1451SOL    HW215987   1.742   2.112   2.174 -0.1629  1.1174  0.4893
 1452SOL     OW15988   0.078   2.858  15.892 -0.8432 -0.0012 -0.3523
 1452SOL    HW115989   0.022   2.881  15.966  0.4106  3.2341 -0.4190
 1452SOL    HW215990   0.031   2.791  15.843  0.6858 -2.6600  1.8011
 1453SOL     OW15991   3.562   1.385   5.087  0.3630  0.0157  0.2417
 1453SOL    HW115992   3.618   1.456   5.119  0.0422 -0.3934  1.7102
 1453SOL    HW215993   3.493   1.382   5.154 -0.3362 -1.0438 -0.5231
 1454SOL     OW15994   2.884   1.179  15.419 -0.3316  0.4849 -0.0513
 1454SOL    HW115995   2.840   1.187  15.335 -2.4070 -0.2396  0.9757
 1454SOL    HW215996   2.974   1.201  15.394  0.1188 -1.9991 -0.5405
 1455SOL     OW15997   4.100   0.335   4.770 -0.1226 -0.5525 -0.2953
 1455SOL    HW115998   4.036   0.407   4.766 -0.1207 -0.6127 -1.5808
 1455SOL    HW215999   4.070   0.293   4.850 -0.3891 -0.3480 -0.2845
 1456SOL     OW16000   1.639   0.880   1.991  0.6793  0.0072 -0.5986
 1456SOL    HW116001   1.635   0.947   2.059 -0.3638  0.1203 -0.7737
 1456SOL    HW216002   1.550   0.846   1.994  0.0855  1.4961 -1.0159
 1457SOL     OW16003   1.642   1.300   8.326  0.0091 -0.3850  0.0091
 1457SOL    HW116004   1.632   1.222   8.273  2.2387 -0.3972 -0.3939
 1457SOL    HW216005   1.736   1.291   8.339  0.5429  3.0240 -1.3721
 1458SOL     OW16006   3.230   4.654   7.661 -0.5268 -0.0376 -0.5308
 1458SOL    HW116007   3.230   4.564   7.695  3.6759  0.7343  1.5448
 1458SOL    HW216008   3.258   4.703   7.738 -0.9349 -0.9860  0.2139
 1459SOL     OW16009   4.598   4.137  11.840 -0.3203  0.6739  0.2657
 1459SOL    HW116010   4.522   4.105  11.790  1.5088 -0.5662 -1.7020
 1459SOL    HW216011   4.644   4.053  11.846 -1.6060  0.0159  1.0830
 1460SOL     OW16012   1.944   3.625   3.186  0.4118  0.2396  0.1994
 1460SOL    HW116013   2.002   3.682   3.136 -1.5766  1.2609 -0.9615
 1460SOL    HW216014   1.894   3.568   3.128  1.1373  0.6701 -0.8440
 1461SOL     OW16015   3.421   2.034   8.585 -0.5398 -0.6001  0.6674
 1461SOL    HW116016   3.467   1.950   8.579 -0.4158 -0.3319 -2.4457
 1461SOL    HW216017   3.375   2.028   8.501 -0.3544  1.6969  0.4086
 1462SOL     OW16018   3.952   2.407   5.764 -0.4122 -0.4120 -0.4593
 1462SOL    HW116019   3.861   2.385   5.743 -0.2488  1.1333 -2.8081
 1462SOL    HW216020   3.964   2.481   5.704 -0.7692  0.1497  0.1646
 1463SOL     OW16021   2.030   4.172   9.114 -0.4083  0.1528  0.2055
 1463SOL    HW116022   1.956   4.183   9.173 -0.9047  0.5721 -0.5044
 1463SOL    HW216023   2.102   4.174   9.178  0.5459  0.0235 -0.8766
 1464SOL     OW16024   2.292   0.750   9.125 -0.3514 -0.1389 -0.1676
 1464SOL    HW116025   2.202   0.743   9.092 -0.6032  0.2976  0.4432
 1464SOL    HW216026   2.307   0.843   9.108  0.4088 -0.2032  0.1649
 1465SOL     OW16027   2.932   0.725  16.707 -0.9934 -0.0409 -0.0523
 1465SOL    HW116028   2.863   0.714  16.772 -1.0590 -1.7185 -0.4165
 1465SOL    HW216029   2.898   0.781  16.637  0.0530  0.1753 -0.4015
 1466SOL     OW16030   0.030   0.021  12.502 -0.3782 -0.3392  0.0166
 1466SOL    HW116031   4.679   0.013  12.470  0.6379 -1.1256 -2.6101
 1466SOL    HW216032   0.046   0.114  12.517  2.8271 -1.0979  1.2582
 1467SOL     OW16033   0.572   3.180   3.373 -0.5356  0.3281  0.4076
 1467SOL    HW116034   0.582   3.273   3.392  2.5090 -0.1187  1.0540
 1467SOL    HW216035   0.506   3.187   3.304  1.0452  1.8315 -0.9251
 1468SOL     OW16036   2.102   3.582  17.182  0.1619 -0.6960 -0.3645
 1468SOL    HW116037   2.113   3.630  17.265  0.7090  0.3987 -1.0683
 1468SOL    HW216038   2.008   3.574  17.198  0.0111  1.1459 -0.2162
 1469SOL     OW16039   0.700   4.296   7.853  0.1907  0.3107  0.0679
 1469SOL    HW116040   0.766   4.356   7.817 -0.0375  1.0252  0.8340
 1469SOL    HW216041   0.637   4.361   7.883  1.4501  1.3701  0.4357
 1470SOL     OW16042   3.993   2.658   5.686  0.0795 -0.4044  0.2525
 1470SOL    HW116043   4.003   2.658   5.781 -1.2943  1.8258  0.3988
 1470SOL    HW216044   3.990   2.753   5.673 -2.0705 -0.4864  0.2886
 1471SOL     OW16045   3.181   2.989   1.505 -1.0462 -0.1437 -0.3020
 1471SOL    HW116046   3.094   2.992   1.545 -0.9501  0.5541 -0.1440
 1471SOL    HW216047   3.183   2.903   1.463 -1.7252  0.5212 -1.6932
 1472SOL     OW16048   0.408   4.235   6.373 -0.0580 -0.1416  0.0445
 1472SOL    HW116049   0.394   4.328   6.352 -3.0412 -0.4647  0.6031
 1472SOL    HW216050   0.473   4.212   6.306 -0.4557 -0.9858 -0.0445
 1473SOL     OW16051   2.700   4.495   5.694 -0.1834  0.6457 -0.2528
 1473SOL    HW116052   2.672   4.498   5.786 -1.4767  0.6482 -0.6545
 1473SOL    HW216053   2.616   4.495   5.650  0.1533  2.8872 -0.9043
 1474SOL     OW16054   4.269   1.967   9.403  0.4828 -0.5557 -0.0690
 1474SOL    HW116055   4.230   1.949   9.318 -0.9108  1.2626  0.1821
 1474SOL    HW216056   4.354   2.007   9.384  0.5342  0.9590  3.3803
 1475SOL     OW16057   4.281   1.463  17.210  0.3468  0.1051 -0.3862
 1475SOL    HW116058   4.263   1.410  17.287  0.7747  0.8637  0.2360
 1475SOL    HW216059   4.218   1.427  17.147 -1.6225  0.7471  1.1914
 1476SOL     OW16060   1.644   4.614   3.782  0.2627 -0.3113 -0.3380
 1476SOL    HW116061   1.611   4.703   3.793 -2.1366 -1.1910 -0.2185
 1476SOL    HW216062   1.637   4.587   3.874  2.2708  0.7947  0.1303
 1477SOL     OW16063   1.796   3.441   9.970  0.0162  0.5239 -0.7436
 1477SOL    HW116064   1.785   3.513   9.907 -0.8919 -0.0206 -1.2054
 1477SOL    HW216065   1.761   3.364   9.926  0.7835  0.1496 -0.7035
 1478SOL     OW16066   0.070   0.236   4.794  0.3705 -0.3590 -0.3994
 1478SOL    HW116067   0.135   0.287   4.747  0.8116 -0.5466  0.0022
 1478SOL    HW216068   4.729   0.287   4.783  0.2978  0.2612  2.9172
 1479SOL     OW16069   0.786   3.185   9.047 -0.2862  0.2534  0.5704
 1479SOL    HW116070   0.739   3.262   9.078  2.2537  0.9102  2.7454
 1479SOL    HW216071   0.760   3.111   9.103  0.2749 -0.0581  0.4200
 1480SOL     OW16072   2.997   1.913  17.175  0.2743 -0.1010 -0.2366
 1480SOL    HW116073   2.926   1.950  17.228 -0.5853  0.3819 -1.7109
 1480SOL    HW216074   3.064   1.972  17.209  0.4336 -1.7234  2.3243
 1481SOL     OW16075   3.137   2.618   8.602 -0.5582 -0.1818 -0.6428
 1481SOL    HW116076   3.171   2.643   8.516 -0.7806 -1.4799 -1.1029
 1481SOL    HW216077   3.162   2.527   8.615  1.3086 -0.0684 -3.4682
 1482SOL     OW16078   0.599   3.346   0.020  0.3927 -0.6594 -0.2453
 1482SOL    HW116079   0.661   3.300  17.717  1.3333  1.9836 -1.3751
 1482SOL    HW216080   0.655   3.409   0.065 -0.5088 -0.6216  0.8272
 1483SOL     OW16081   0.937   1.994   7.624 -0.5457 -0.7255 -0.2413
 1483SOL    HW116082   0.876   2.046   7.571 -0.8765 -1.8389 -0.9606
 1483SOL    HW216083   1.022   2.037   7.609 -0.7746 -0.4614 -0.7860
 1484SOL     OW16084   2.449   0.826   3.167  0.4901 -0.1294  0.4437
 1484SOL    HW116085   2.494   0.888   3.109  1.6872 -0.8853  0.5794
 1484SOL    HW216086   2.466   0.743   3.122  1.2455 -1.2182  2.7332
 1485SOL     OW16087   0.658   2.611   2.542  1.0679  0.3544  0.4688
 1485SOL    HW116088   0.629   2.687   2.591 -0.6000 -0.3761  0.6115
 1485SOL    HW216089   0.660   2.548   2.614  1.6741  0.2943  0.3986
 1486SOL     OW16090   0.720   3.027   2.490  0.7452 -0.6649  0.6444
 1486SOL    HW116091   0.762   3.016   2.575  3.5324  0.0786 -0.6193
 1486SOL    HW216092   0.774   2.962   2.446 -1.6317 -1.1000 -1.6420
 1487SOL     OW16093   0.071   4.298   8.681 -0.0671  0.1666  0.1446
 1487SOL    HW116094   0.098   4.245   8.606 -2.3718  1.9058 -1.8797
 1487SOL    HW216095   0.047   4.380   8.638  2.7192  0.8988 -0.0418
 1488SOL     OW16096   2.674   0.544   7.851  0.3894  0.2165 -0.2692
 1488SOL    HW116097   2.653   0.504   7.767  1.1484 -0.6743 -0.0385
 1488SOL    HW216098   2.766   0.571   7.846  0.8170 -1.2534 -0.2139
 1489SOL     OW16099   0.028   0.674   9.640 -0.5370 -0.1266  0.3590
 1489SOL    HW116100   0.058   0.604   9.582  0.4119  0.5242  0.0754
 1489SOL    HW216101   0.015   0.629   9.724 -0.0731 -0.1275  0.4297
 1490SOL     OW16102   4.636   3.522   6.717 -0.5549 -0.4655  0.2436
 1490SOL    HW116103   4.659   3.531   6.624 -3.4652  1.9308 -0.2363
 1490SOL    HW216104   4.722   3.518   6.760  0.8194  2.3925 -2.2025
 1491SOL     OW16105   2.598   2.091  15.602 -0.0925  0.3792  0.1194
 1491SOL    HW116106   2.642   2.174  15.585  0.5964 -0.3286 -1.5469
 1491SOL    HW216107   2.508   2.106  15.571  0.5321  0.4169 -1.6556
 1492SOL     OW16108   3.960   1.012  12.808  0.4005 -0.6473  0.0236
 1492SOL    HW116109   3.888   1.045  12.753  0.4486 -0.7160 -0.0798
 1492SOL    HW216110   3.965   0.920  12.783 -1.2361 -0.6046 -0.5035
 1493SOL     OW16111   3.255   3.981   4.675 -0.7406 -0.1407  0.6435
 1493SOL    HW116112   3.182   3.943   4.625  0.2444 -0.4560 -0.5792
 1493SOL    HW216113   3.326   3.925   4.641 -2.1618 -2.1058  0.9139
 1494SOL     OW16114   0.397   0.319   9.705 -0.0515  0.2600 -0.1411
 1494SOL    HW116115   0.401   0.407   9.742 -0.1550  0.0706  0.3125
 1494SOL    HW216116   0.442   0.337   9.622 -2.1884 -0.3021 -1.4318
 1495SOL     OW16117   1.254   1.876   9.077  0.4744  0.2484 -0.1450
 1495SOL    HW116118   1.292   1.813   9.139  0.5809  0.5932  0.1372
 1495SOL    HW216119   1.238   1.958   9.125 -0.8069  0.7245 -1.4006
 1496SOL     OW16120   3.824   3.717   3.082 -0.3501 -0.1461 -0.1885
 1496SOL    HW116121   3.753   3.696   3.021 -1.2677 -0.8097  1.1260
 1496SOL    HW216122   3.838   3.634   3.127 -0.4425 -0.3558 -0.5459
 1497SOL     OW16123   4.136   3.055   3.754 -0.4054  0.3894  0.3481
 1497SOL    HW116124   4.168   3.055   3.844  0.4984 -0.7411  0.0299
 1497SOL    HW216125   4.045   3.028   3.757 -0.4422  0.5418  0.5597
 1498SOL     OW16126   0.970   1.935   8.156  0.4173 -0.3196  0.1907
 1498SOL    HW116127   0.941   1.892   8.237  1.7203 -2.1403 -0.2970
 1498SOL    HW216128   1.063   1.914   8.158 -0.0164 -2.0917  1.7205
 1499SOL     OW16129   3.658   4.658   1.144 -0.0871 -0.6105 -0.0974
 1499SOL    HW116130   3.655   4.631   1.236 -1.0364  0.8478  0.2945
 1499SOL    HW216131   3.708   4.588   1.101 -0.8231 -1.8125  1.0131
 1500SOL     OW16132   0.252   4.205   2.099  0.0243 -0.4196  0.3900
 1500SOL    HW116133   0.191   4.237   2.032 -1.1983  2.1119  2.7327
 1500SOL    HW216134   0.308   4.281   2.109 -0.7120  0.2488 -0.5141
 1501SOL     OW16135   3.163   3.974   2.507  0.9227 -0.4536 -0.3401
 1501SOL    HW116136   3.159   3.909   2.437  2.6882 -1.2265  0.2763
 1501SOL    HW216137   3.172   3.919   2.585  1.1447  0.3057  0.1690
 1502SOL     OW16138   0.242   4.684   9.121 -0.5486  0.2909 -0.1230
 1502SOL    HW116139   0.205   4.648   9.041  0.2459  1.7742 -1.1634
 1502SOL    HW216140   0.228   0.037   9.095 -0.4160  1.0193  2.3016
 1503SOL     OW16141   0.191   0.360   1.591 -0.2897  0.3451 -0.3482
 1503SOL    HW116142   0.123   0.427   1.602 -0.6606 -0.1729  0.5781
 1503SOL    HW216143   0.167   0.297   1.660 -1.8755 -0.5953 -1.7393
 1504SOL     OW16144   3.613   3.832   6.436  0.1633 -0.2003 -0.1107
 1504SOL    HW116145   3.535   3.784   6.407  0.1370 -0.6473  0.7214
 1504SOL    HW216146   3.574   3.890   6.502  2.0668  2.7149 -1.5173
 1505SOL     OW16147   2.239   2.720   5.729  0.1664 -0.0735  0.2059
 1505SOL    HW116148   2.317   2.670   5.756 -0.0412 -1.5802 -1.9676
 1505SOL    HW216149   2.263   2.794   5.675  2.2308 -1.0023 -0.1698
 1506SOL     OW16150   4.543   3.670  15.392 -0.5542 -0.1941 -0.3508
 1506SOL    HW116151   4.588   3.683  15.309 -2.1174 -1.6486 -1.3993
 1506SOL    HW216152   4.510   3.759  15.406 -1.9350 -0.9133  0.9713
 1507SOL     OW16153   0.598   1.338   2.154 -0.3557 -0.0195  0.1745
 1507SOL    HW116154   0.620   1.409   2.094  0.4776  1.3364  2.0943
 1507SOL    HW216155   0.515   1.316   2.111  0.5130 -2.9808  0.0318
 1508SOL     OW16156   1.069   4.666   6.360  0.2740 -0.0317 -0.1046
 1508SOL    HW116157   1.156   4.707   6.365  0.0101  0.4089  0.8224
 1508SOL    HW216158   1.006   4.726   6.399  0.9683  0.9934 -0.5676
 1509SOL     OW16159   0.298   1.614   3.711  0.0827 -0.3591 -0.0776
 1509SOL    HW116160   0.302   1.705   3.737 -0.2438 -0.7461  1.3121
 1509SOL    HW216161   0.280   1.588   3.801  3.0367  0.3825  0.7212
 1510SOL     OW16162   2.756   2.599   8.395 -0.1534 -0.4793 -0.8801
 1510SOL    HW116163   2.747   2.601   8.490  0.0796 -0.6717 -0.8552
 1510SOL    HW216164   2.811   2.521   8.388 -0.9361 -1.2763  1.7247
 1511SOL     OW16165   0.461   0.767  10.927 -0.6799 -0.0794  0.1376
 1511SOL    HW116166   0.395   0.835  10.936 -0.1782  0.2885  1.0177
 1511SOL    HW216167   0.476   0.769  10.833 -0.2267 -2.3801  0.1543
 1512SOL     OW16168   1.666   2.087  13.863  0.4829 -0.3748  0.2799
 1512SOL    HW116169   1.687   2.028  13.935 -2.9755 -1.2585  0.5664
 1512SOL    HW216170   1.725   2.161  13.881 -0.8493  0.8653 -0.4317
 1513SOL     OW16171   3.640   3.883   5.941  0.4321 -0.1796 -0.0804
 1513SOL    HW116172   3.680   3.859   6.024  1.4018  2.5830  0.2630
 1513SOL    HW216173   3.659   3.977   5.937  1.0642 -0.3083 -0.1734
 1514SOL     OW16174   0.497   4.049   2.587 -0.4361  0.3366 -0.2551
 1514SOL    HW116175   0.472   4.138   2.610 -1.8225  0.0717 -0.7316
 1514SOL    HW216176   0.444   3.991   2.643  0.3395 -0.9952 -0.8918
 1515SOL     OW16177   0.120   0.047  17.638 -0.2538  0.6388 -0.0067
 1515SOL    HW116178   0.168   0.022  17.718  0.3470  1.2761 -0.1671
 1515SOL    HW216179   0.035   0.003  17.648  0.5966 -1.6997 -3.3527
 1516SOL     OW16180   1.291   2.730   4.169  0.0881  0.7682 -0.2117
 1516SOL    HW116181   1.386   2.725   4.184 -0.0115 -0.9611 -0.0770
 1516SOL    HW216182   1.293   2.743   4.074 -0.1949 -1.5208 -0.5546
 1517SOL     OW16183   2.278   1.766   4.299 -0.4354 -0.2448  0.7690
 1517SOL    HW116184   2.214   1.815   4.351 -0.1321  1.1001 -0.1180
 1517SOL    HW216185   2.266   1.807   4.214  3.4984 -1.5310 -0.4011
 1518SOL     OW16186   0.528   4.271  14.511  0.1042 -0.5545  0.2689
 1518SOL    HW116187   0.539   4.189  14.463 -0.5326 -0.9988  0.8863
 1518SOL    HW216188   0.559   4.332  14.444 -0.4306 -0.9833 -0.3730
 1519SOL     OW16189   4.375   3.430   6.790 -0.0428  0.1861  0.0913
 1519SOL    HW116190   4.364   3.398   6.700  0.5863  0.9358 -0.2523
 1519SOL    HW216191   4.460   3.473   6.779  1.1023 -1.7254  1.3757
 1520SOL     OW16192   0.679   4.582   4.835  0.1592  0.2766 -0.4861
 1520SOL    HW116193   0.609   4.647   4.835 -1.4296 -1.4166  1.3822
 1520SOL    HW216194   0.762   4.623   4.812 -1.7059  3.3981 -1.6708
 1521SOL     OW16195   1.965   2.779   9.351  0.5137  0.1441 -0.0411
 1521SOL    HW116196   1.911   2.819   9.419 -1.9045 -1.3234 -1.0656
 1521SOL    HW216197   2.027   2.846   9.324 -0.6214  0.2888 -2.2822
 1522SOL     OW16198   2.370   1.115  15.413  0.1083  0.4716  0.4211
 1522SOL    HW116199   2.417   1.192  15.381 -1.0818  1.5252  1.1892
 1522SOL    HW216200   2.297   1.110  15.351  0.4917 -2.1481  0.1700
 1523SOL     OW16201   2.911   1.171   5.706  0.1571 -0.6459  0.8369
 1523SOL    HW116202   2.821   1.203   5.711  0.2241 -0.5469  1.4604
 1523SOL    HW216203   2.893   1.088   5.664 -2.8766  0.8565 -0.7654
 1524SOL     OW16204   0.499   3.970   6.859 -0.1403 -0.1272 -0.1950
 1524SOL    HW116205   0.560   3.969   6.784 -0.5264 -0.2182 -0.5049
 1524SOL    HW216206   0.565   3.951   6.926 -1.8306  0.0711  1.4910
 1525SOL     OW16207   1.796   0.138  13.962  0.0687  0.2465  0.1290
 1525SOL    HW116208   1.796   0.147  13.867  2.3288 -0.2771  0.0980
 1525SOL    HW216209   1.887   0.159  13.980 -0.3606  0.4084  2.1814
 1526SOL     OW16210   2.891   1.253   3.750 -0.5139 -0.1394  0.1456
 1526SOL    HW116211   2.875   1.197   3.826  1.7082  2.5113  2.5738
 1526SOL    HW216212   2.839   1.207   3.684  0.6140  0.3862 -1.0916
 1527SOL     OW16213   0.758   3.826   0.938  0.4604  0.2731 -0.0131
 1527SOL    HW116214   0.848   3.856   0.950 -0.3279  2.8330 -0.5978
 1527SOL    HW216215   0.767   3.751   0.878  0.2255  0.8735 -0.7975
 1528SOL     OW16216   1.073   2.653   8.591 -0.1859 -0.4127  0.0135
 1528SOL    HW116217   1.075   2.649   8.495 -0.1578 -1.5421  0.0667
 1528SOL    HW216218   1.093   2.561   8.609  1.4291  0.4422  2.6219
 1529SOL     OW16219   0.849   4.134   1.296  0.0284  0.0057  0.5253
 1529SOL    HW116220   0.823   4.044   1.274 -2.0156  1.1502 -1.7611
 1529SOL    HW216221   0.830   4.147   1.389 -0.9485 -2.0203  0.6068
 1530SOL     OW16222   3.006   1.134   4.486 -0.2883 -0.2561  0.0490
 1530SOL    HW116223   2.980   1.051   4.527 -2.0769 -0.2519 -1.0583
 1530SOL    HW216224   3.101   1.125   4.479 -0.2257 -0.4297  1.1179
 1531SOL     OW16225   2.232   0.147   7.524  0.0360 -0.1028 -0.1203
 1531SOL    HW116226   2.307   0.169   7.580 -0.9520 -2.2499  2.0506
 1531SOL    HW216227   2.178   0.221   7.551  0.6639  0.5601 -0.6787
 1532SOL     OW16228   1.048   2.908   7.161 -0.3683  0.2119  0.4134
 1532SOL    HW116229   1.060   2.904   7.256  0.7156 -1.6962  0.1806
 1532SOL    HW216230   1.121   2.967   7.141  0.6676 -0.7425  1.4044
 1533SOL     OW16231   0.780   3.413   7.064 -0.0987  0.1445  0.1435
 1533SOL    HW116232   0.736   3.461   7.133 -2.1589 -0.1986 -0.9201
 1533SOL    HW216233   0.854   3.377   7.112  0.5318  1.0969 -0.1225
 1534SOL     OW16234   1.245   4.186   6.338 -0.0011 -0.1147  0.5603
 1534SOL    HW116235   1.248   4.100   6.380 -2.0147 -0.1526  0.6346
 1534SOL    HW216236   1.251   4.153   6.248  2.9041  0.6660  0.4852
 1535SOL     OW16237   0.672   0.964   1.453  0.0885  0.1523 -0.2898
 1535SOL    HW116238   0.652   1.004   1.537 -2.6768 -2.8489  0.4738
 1535SOL    HW216239   0.641   0.877   1.476  0.8754  0.7795  3.1583
 1536SOL     OW16240   0.369   4.558   8.758 -0.4708  0.7430 -0.0510
 1536SOL    HW116241   0.368   4.492   8.689 -1.0990  1.1794 -0.4665
 1536SOL    HW216242   0.455   4.595   8.739 -0.5972  0.2333 -1.6404
 1537SOL     OW16243   1.877   0.552   4.086 -0.3187 -0.0733 -0.7821
 1537SOL    HW116244   1.944   0.496   4.124  0.0572 -0.6167 -2.2495
 1537SOL    HW216245   1.930   0.621   4.045 -0.3965  1.0791  1.0661
 1538SOL     OW16246   1.744   4.343   7.460 -0.0080 -0.0773 -0.2529
 1538SOL    HW116247   1.665   4.295   7.486 -2.1120  1.6097 -3.6159
 1538SOL    HW216248   1.727   4.428   7.500 -0.7181 -0.5330  0.4065
 1539SOL     OW16249   3.573   4.015   4.512  0.3033  0.2896  0.1082
 1539SOL    HW116250   3.532   3.929   4.525 -0.4035  0.7898  1.1899
 1539SOL    HW216251   3.506   4.052   4.455 -0.1904  1.0606  1.1982
 1540SOL     OW16252   3.931   3.791   4.515 -0.2928  0.3367 -0.2141
 1540SOL    HW116253   4.006   3.769   4.570  0.6455  1.1167 -1.1656
 1540SOL    HW216254   3.956   3.883   4.508 -1.8380  0.6003 -2.1993
 1541SOL     OW16255   1.959   0.779   5.478 -0.7545  0.4937  0.0714
 1541SOL    HW116256   1.989   0.726   5.404  0.3587 -0.2308  1.0392
 1541SOL    HW216257   2.027   0.845   5.479  0.2654 -0.5633  0.6973
 1542SOL     OW16258   2.814   1.851   4.415  0.1181  0.7189  0.3193
 1542SOL    HW116259   2.764   1.927   4.444  1.0333  1.4088  0.0842
 1542SOL    HW216260   2.845   1.811   4.497 -1.2487 -0.9661  0.0235
 1543SOL     OW16261   0.242   1.512   8.607  0.3448 -0.0540  0.3298
 1543SOL    HW116262   0.189   1.490   8.531 -1.6643 -0.6473  1.8917
 1543SOL    HW216263   0.191   1.585   8.641  0.8190  0.6907 -0.5688
 1544SOL     OW16264   0.167   3.748  13.410  0.7649 -0.4226 -0.1536
 1544SOL    HW116265   0.107   3.788  13.473 -0.2384 -1.2328 -0.6039
 1544SOL    HW216266   0.147   3.662  13.444 -0.6807 -0.2835 -0.6664
 1545SOL     OW16267   3.421   0.562   0.841  0.0906 -0.2174  0.1406
 1545SOL    HW116268   3.370   0.618   0.783  1.0520 -1.2142 -1.6666
 1545SOL    HW216269   3.356   0.495   0.861  1.4754 -1.6821 -0.2290
 1546SOL     OW16270   3.254   2.095   6.327 -0.5399 -0.2357  0.0015
 1546SOL    HW116271   3.350   2.102   6.333 -0.4135 -0.9405 -1.1652
 1546SOL    HW216272   3.226   2.103   6.418 -0.7654  1.7283 -0.2314
 1547SOL     OW16273   0.511   0.520   6.759  0.6459 -0.0678 -0.0886
 1547SOL    HW116274   0.563   0.534   6.839  1.6803  0.1852 -0.8132
 1547SOL    HW216275   0.494   0.427   6.767 -3.5493  0.6518 -0.5364
 1548SOL     OW16276   3.525   2.008   8.974  0.1636 -0.4217  0.3100
 1548SOL    HW116277   3.555   1.990   9.063 -0.2878 -0.4195  0.4604
 1548SOL    HW216278   3.521   1.918   8.941  0.9341  0.8338 -3.1915
 1549SOL     OW16279   4.108   1.045  10.257 -0.4454 -0.4075  0.1301
 1549SOL    HW116280   4.043   0.996  10.308 -0.4753  0.3130  0.7816
 1549SOL    HW216281   4.083   1.016  10.170  0.2914  1.0954 -0.5854
 1550SOL     OW16282   0.933   3.421  17.141  0.7697  0.7099  0.3607
 1550SOL    HW116283   0.848   3.376  17.140  0.8368  0.5731  1.7524
 1550SOL    HW216284   0.906   3.483  17.209  2.3686 -0.6360  2.2072
 1551SOL     OW16285   4.283   2.255   7.773  0.3480  0.0904 -0.0425
 1551SOL    HW116286   4.368   2.233   7.812  0.1891 -2.4431 -1.1419
 1551SOL    HW216287   4.313   2.336   7.732  0.7810  0.1936  0.4831
 1552SOL     OW16288   1.752   1.663   1.908 -0.5623  0.1905  1.1741
 1552SOL    HW116289   1.773   1.581   1.954  0.2262  1.5966  3.3563
 1552SOL    HW216290   1.825   1.716   1.940 -0.3085 -0.2217  1.2808
 1553SOL     OW16291   1.807   2.904  16.545 -0.1240 -0.6047 -0.0796
 1553SOL    HW116292   1.792   2.956  16.466  0.4237  0.1776  0.3309
 1553SOL    HW216293   1.893   2.868  16.523 -0.2286  0.1361 -1.7491
 1554SOL     OW16294   3.960   2.916   5.255  0.3851 -0.2709 -0.1990
 1554SOL    HW116295   3.929   2.850   5.193 -0.5444 -0.4348  0.4343
 1554SOL    HW216296   3.951   2.991   5.196  0.5589 -1.0514 -1.2327
 1555SOL     OW16297   3.162   3.641   8.939 -0.6815 -0.1920 -0.4855
 1555SOL    HW116298   3.153   3.563   8.885 -1.7763  0.3212 -1.0492
 1555SOL    HW216299   3.165   3.711   8.873  0.5623 -0.1474 -0.3770
 1556SOL     OW16300   3.956   3.543   6.694  0.5747 -0.6202  0.2948
 1556SOL    HW116301   4.038   3.556   6.647  0.2151  2.4497  0.4898
 1556SOL    HW216302   3.894   3.543   6.621 -0.1311 -0.9482  0.8930
 1557SOL     OW16303   2.452   3.223   7.855  0.0088  0.3972  0.0155
 1557SOL    HW116304   2.458   3.143   7.907  1.1708 -0.4072 -1.3689
 1557SOL    HW216305   2.475   3.287   7.922 -1.3858  0.1328  0.7493
 1558SOL     OW16306   4.409   3.494   9.679  0.2269  0.3406 -0.5468
 1558SOL    HW116307   4.341   3.559   9.660 -0.1125 -0.0576 -0.7018
 1558SOL    HW216308   4.420   3.512   9.773 -0.2965 -0.4592 -0.3255
 1559SOL     OW16309   1.884   3.608   5.571  0.3260  0.0557 -0.0409
 1559SOL    HW116310   1.939   3.684   5.586  0.4035 -0.0379  0.1468
 1559SOL    HW216311   1.944   3.537   5.596 -1.6083 -1.3245  0.7092
 1560SOL     OW16312   1.188   1.601   1.889  0.4869  0.0045 -0.6618
 1560SOL    HW116313   1.215   1.516   1.856  1.3320  0.8963 -2.2284
 1560SOL    HW216314   1.222   1.600   1.979 -0.0956  2.7130 -0.3843
 1561SOL     OW16315   3.817   0.293   5.503  0.1012  0.2162 -0.0003
 1561SOL    HW116316   3.867   0.215   5.479  0.8618  0.6679  0.1090
 1561SOL    HW216317   3.763   0.283   5.424  1.0475  0.1016 -0.6352
 1562SOL     OW16318   1.502   3.478   8.494 -0.4860  0.0811  0.4710
 1562SOL    HW116319   1.565   3.406   8.504 -0.7466 -0.1889  0.1746
 1562SOL    HW216320   1.423   3.426   8.479 -0.4699 -0.0778  0.9333
 1563SOL     OW16321   0.332   2.813  16.303 -1.1357  0.2952 -0.4408
 1563SOL    HW116322   0.344   2.818  16.208  1.0570  0.4993 -0.1388
 1563SOL    HW216323   0.279   2.733  16.300  1.2048 -1.2403 -0.5595
 1564SOL     OW16324   2.345   1.427   6.689 -0.5936 -0.4505  0.8764
 1564SOL    HW116325   2.309   1.403   6.604 -1.6303  0.1748  1.1316
 1564SOL    HW216326   2.363   1.345   6.734 -0.6831 -1.1802 -0.4126
 1565SOL     OW16327   0.064   1.130   5.657  0.2735 -0.1249  0.2586
 1565SOL    HW116328   0.108   1.105   5.576 -0.5936  0.8699 -0.5159
 1565SOL    HW216329   0.124   1.081   5.713  2.6109  0.2039 -2.0068
 1566SOL     OW16330   3.364   4.512   8.872 -0.0551  0.1600 -1.0795
 1566SOL    HW116331   3.450   4.482   8.901 -0.6475  0.7938  1.3444
 1566SOL    HW216332   3.331   4.541   8.957  1.7189  0.7679 -0.6037
 1567SOL     OW16333   2.140   2.250   8.965  0.1214  0.2212 -0.1397
 1567SOL    HW116334   2.223   2.271   9.007 -0.2650  1.0069  0.2355
 1567SOL    HW216335   2.084   2.327   8.979 -0.3666 -0.4328  1.4767
 1568SOL     OW16336   2.614   3.418  10.470  0.1036  0.3270  0.2991
 1568SOL    HW116337   2.623   3.489  10.408  2.3541 -0.1563  0.0860
 1568SOL    HW216338   2.702   3.381  10.461 -0.5109 -1.1376  0.2763
 1569SOL     OW16339   4.193   0.409  13.493  0.2776  0.1036  0.4841
 1569SOL    HW116340   4.162   0.321  13.471 -0.4756 -0.4086  3.5950
 1569SOL    HW216341   4.276   0.406  13.447  0.0973  1.2900  0.0843
 1570SOL     OW16342   0.538   0.277  15.494 -0.5039  0.1574  0.1082
 1570SOL    HW116343   0.447   0.299  15.474 -0.7324  0.1251  1.0879
 1570SOL    HW216344   0.567   0.356  15.539 -0.4025 -0.2885  0.8292
 1571SOL     OW16345   1.603   0.909   4.355  1.0762  0.6165  0.8022
 1571SOL    HW116346   1.696   0.928   4.341  1.0008  0.0168 -0.5094
 1571SOL    HW216347   1.598   0.843   4.285 -1.1428  2.5481 -0.8474
 1572SOL     OW16348   1.947   1.118  12.454 -0.4749 -0.2295  0.0061
 1572SOL    HW116349   2.025   1.095  12.504 -0.3710  1.2305  0.5311
 1572SOL    HW216350   1.904   1.192  12.498  0.4209 -0.1242  0.7099
 1573SOL     OW16351   1.243   3.057  10.808  0.4532  0.2067  0.0578
 1573SOL    HW116352   1.177   3.112  10.849  1.4754  1.8868 -0.5150
 1573SOL    HW216353   1.304   3.050  10.882 -1.4016 -1.5669  1.4000
 1574SOL     OW16354   3.024   3.862   4.517 -0.7499 -0.0076  0.9251
 1574SOL    HW116355   2.929   3.874   4.523 -0.6701  0.2863  1.5912
 1574SOL    HW216356   3.037   3.768   4.533 -0.6714 -0.2004 -0.2716
 1575SOL     OW16357   2.370   0.856   5.195 -0.0151  0.5850 -0.4219
 1575SOL    HW116358   2.355   0.885   5.105  1.7437 -0.5960 -1.1001
 1575SOL    HW216359   2.412   0.769   5.195  0.3597  0.7651 -0.6009
 1576SOL     OW16360   0.143   0.741   7.527  0.1831  0.1745  0.6237
 1576SOL    HW116361   0.099   0.750   7.612 -0.0017 -0.5280  0.6046
 1576SOL    HW216362   0.152   0.646   7.519  1.1361  0.3297 -0.0945
 1577SOL     OW16363   2.251   3.728   6.992  0.7373 -0.4099  0.2196
 1577SOL    HW116364   2.239   3.668   6.918 -0.1881  0.7572 -0.5806
 1577SOL    HW216365   2.343   3.754   6.991  0.8619 -0.8801 -0.9197
 1578SOL     OW16366   4.368   1.020   8.414 -0.3472 -0.1990  0.5957
 1578SOL    HW116367   4.440   1.014   8.351 -1.3316 -0.5841 -0.4819
 1578SOL    HW216368   4.358   0.927   8.435 -1.4108 -0.6635 -2.0401
 1579SOL     OW16369   2.982   0.424  12.782  0.3257  0.1718 -0.2634
 1579SOL    HW116370   2.991   0.381  12.696 -0.4163  0.8239 -0.6666
 1579SOL    HW216371   2.979   0.517  12.760 -1.7904 -0.1459 -1.3463
 1580SOL     OW16372   2.205   1.071   5.287  0.4640  0.0658 -0.3162
 1580SOL    HW116373   2.267   1.010   5.247  2.8511  1.9558  0.4925
 1580SOL    HW216374   2.226   1.154   5.242  0.0174  0.5321  0.3410
 1581SOL     OW16375   1.024   2.326   9.053 -0.0945  0.3062 -0.0891
 1581SOL    HW116376   0.930   2.312   9.053 -0.3531  1.9670 -2.9564
 1581SOL    HW216377   1.025   2.421   9.043 -1.0174  0.3491  0.3118
 1582SOL     OW16378   2.215   0.538  11.680 -0.3957 -0.3545  0.3608
 1582SOL    HW116379   2.136   0.593  11.684 -1.2403 -1.6302  1.3153
 1582SOL    HW216380   2.284   0.604  11.688  0.2395 -1.2420  2.1902
 1583SOL     OW16381   0.327   1.114  17.267  0.7007  0.0642  0.6114
 1583SOL    HW116382   0.317   1.136  17.174  0.9688 -0.1885  0.5216
 1583SOL    HW216383   0.247   1.064  17.283  2.6526 -2.3526  2.8533
 1584SOL     OW16384   2.003   3.710   6.074  0.1717  0.2180 -0.2604
 1584SOL    HW116385   2.017   3.635   6.132  2.1609  1.5123  0.9553
 1584SOL    HW216386   2.078   3.700   6.014  0.7262  1.2447  0.2616
 1585SOL     OW16387   1.550   0.421   7.001  0.1998 -0.0773  0.4206
 1585SOL    HW116388   1.475   0.376   7.041 -0.0767  0.8141  0.9140
 1585SOL    HW216389   1.509   0.480   6.937 -1.7805 -0.0005  1.7511
 1586SOL     OW16390   1.252   4.570   2.354 -0.0719 -0.3294  0.2186
 1586SOL    HW116391   1.303   4.611   2.284 -1.0815  1.4246  0.5339
 1586SOL    HW216392   1.183   4.634   2.372 -1.1825 -0.9308 -1.8388
 1587SOL     OW16393   4.674   1.305  17.237 -0.5093 -0.1445  0.0214
 1587SOL    HW116394   4.679   1.398  17.261 -0.7901 -0.1251  0.0048
 1587SOL    HW216395   4.620   1.276  17.311 -2.0828 -0.1399 -1.1196
 1588SOL     OW16396   3.763   2.941   7.112  0.0228 -0.0200 -0.2955
 1588SOL    HW116397   3.720   3.026   7.127 -1.8604 -1.1048  0.5168
 1588SOL    HW216398   3.824   2.958   7.041  1.2848 -1.8411  0.3658
 1589SOL     OW16399   2.403   1.851   2.736  0.3116  0.0894  0.0814
 1589SOL    HW116400   2.442   1.926   2.781  0.5516  0.6727 -1.0750
 1589SOL    HW216401   2.327   1.889   2.691  0.9940 -0.8298 -1.8640
 1590SOL     OW16402   4.209   2.996   7.593 -0.1638 -0.2334 -0.1235
 1590SOL    HW116403   4.165   3.043   7.523  0.3561 -0.0449 -0.3242
 1590SOL    HW216404   4.271   2.943   7.544 -0.9263 -0.3026 -1.0082
 1591SOL     OW16405   4.226   0.879   5.793 -0.4846 -0.0026  0.2747
 1591SOL    HW116406   4.238   0.947   5.727 -0.6251  0.2849  0.5470
 1591SOL    HW216407   4.304   0.883   5.848 -0.0410  0.7323 -0.4225
 1592SOL     OW16408   2.330   3.641   7.774  0.5648  0.1494  0.3894
 1592SOL    HW116409   2.316   3.639   7.869  1.0605  2.4088  0.4912
 1592SOL    HW216410   2.408   3.695   7.767  0.9544 -0.6414 -1.5585
 1593SOL     OW16411   1.138   2.242   6.099 -0.1164  0.7133 -0.1010
 1593SOL    HW116412   1.091   2.260   6.018  0.3657 -0.8578 -0.7300
 1593SOL    HW216413   1.180   2.160   6.075  0.7974  0.2838  2.8563
 1594SOL     OW16414   2.886   0.534   7.475  0.1719  0.1363 -0.7687
 1594SOL    HW116415   2.821   0.487   7.528  1.9326 -1.5962 -0.1686
 1594SOL    HW216416   2.832   0.551   7.397 -0.3160 -0.4906 -0.5732
 1595SOL     OW16417   3.860   0.011   1.873 -0.0811 -0.5292 -0.1111
 1595SOL    HW116418   3.884   0.002   1.966 -0.8358  3.1200  0.4249
 1595SOL    HW216419   3.873   4.661   1.840  0.0303 -1.5741  2.6956
 1596SOL     OW16420   1.728   2.646   9.341  0.0917 -0.4366 -0.4330
 1596SOL    HW116421   1.800   2.709   9.335  0.5126 -0.9347 -0.5399
 1596SOL    HW216422   1.757   2.583   9.407 -0.2034  0.2799  0.3843
 1597SOL     OW16423   0.658   0.840  12.822 -0.0070 -0.1663 -0.4685
 1597SOL    HW116424   0.701   0.817  12.904  0.4386  2.5866  0.0567
 1597SOL    HW216425   0.575   0.870  12.860  0.0403  1.0620 -1.3555
 1598SOL     OW16426   1.774   1.545  11.460  0.3670  0.6640 -0.1084
 1598SOL    HW116427   1.803   1.631  11.493  0.1953  0.8473 -0.4393
 1598SOL    HW216428   1.679   1.553  11.463  0.1731 -1.4595 -1.0460
 1599SOL     OW16429   0.435   4.354  17.109  0.0541 -0.9047 -0.4446
 1599SOL    HW116430   0.361   4.390  17.060 -0.2624 -0.3706  0.4312
 1599SOL    HW216431   0.495   4.393  17.046 -2.1606 -0.2393 -2.1477
 1600SOL     OW16432   4.329   1.689   2.966  0.2679 -0.2335  0.0246
 1600SOL    HW116433   4.316   1.625   3.036  1.2671 -2.3923 -1.7412
 1600SOL    HW216434   4.419   1.671   2.938  0.0452  0.0951 -0.9100
 1601SOL     OW16435   1.269   4.634   8.667 -0.4662  0.3863  0.0433
 1601SOL    HW116436   1.204   4.703   8.650  0.1620  0.4172 -2.1636
 1601SOL    HW216437   1.282   4.640   8.762  1.0787  1.0891 -0.2174
 1602SOL     OW16438   1.378   2.961   6.414 -0.4319  0.1776 -0.3843
 1602SOL    HW116439   1.454   2.918   6.454 -0.7511  0.0979  0.1309
 1602SOL    HW216440   1.319   2.887   6.405 -0.0227 -0.2060  0.0772
 1603SOL     OW16441   3.221   3.063   4.561  0.0299  0.1632 -0.1313
 1603SOL    HW116442   3.244   3.142   4.609  0.6016 -1.2422  1.8994
 1603SOL    HW216443   3.275   2.997   4.604 -1.1185 -0.6891  0.0301
 1604SOL     OW16444   0.839   4.661   2.851 -0.3206  0.4674 -0.2153
 1604SOL    HW116445   0.927   4.670   2.887  0.3712 -0.1875 -1.7177
 1604SOL    HW216446   0.854   4.587   2.792  1.2114  2.5383 -2.4146
 1605SOL     OW16447   1.674   0.034  15.467  0.0603  0.2891  0.2432
 1605SOL    HW116448   1.707   4.708  15.405 -1.0183 -0.6207  0.6080
 1605SOL    HW216449   1.628   0.090  15.404 -2.1709 -1.6091  0.1961
 1606SOL     OW16450   4.474   2.104  17.450  0.2500  0.1648 -0.1086
 1606SOL    HW116451   4.504   2.070  17.365  0.5218 -0.0288  0.0635
 1606SOL    HW216452   4.539   2.174  17.459  0.8952 -0.5834  1.0872
 1607SOL     OW16453   2.613   2.416   3.972  0.0501 -0.9055 -0.0060
 1607SOL    HW116454   2.601   2.469   4.051 -2.7506 -0.5788 -0.6398
 1607SOL    HW216455   2.588   2.326   3.993 -0.8975 -0.3894  1.0558
 1608SOL     OW16456   0.003   2.245   8.039  0.1001 -0.1045  0.0773
 1608SOL    HW116457   0.057   2.293   7.975 -0.6082  0.5263 -0.0517
 1608SOL    HW216458   4.713   2.322   8.089  1.4995  1.3537 -1.3522
 1609SOL     OW16459   1.390   0.979   8.379 -0.5007 -0.0547 -0.2578
 1609SOL    HW116460   1.310   0.944   8.417  0.5141 -1.8079  0.2429
 1609SOL    HW216461   1.415   1.051   8.438  0.0543 -0.7270  0.3236
 1610SOL     OW16462   0.328   0.709  14.278  0.1863  0.3317  0.0386
 1610SOL    HW116463   0.234   0.712  14.300  0.2783 -0.9859  0.6156
 1610SOL    HW216464   0.363   0.760  14.351 -0.3070 -1.1351  1.3075
 1611SOL     OW16465   4.166   0.055  15.987 -0.1660 -0.2308  0.2834
 1611SOL    HW116466   4.124   0.138  15.964  0.2608 -0.3087 -0.7649
 1611SOL    HW216467   4.143   0.046  16.080 -0.0349  0.0172  0.3381
 1612SOL     OW16468   0.808   1.834  12.362 -0.1021 -0.8868 -0.3882
 1612SOL    HW116469   0.880   1.830  12.426  1.2143  0.1358 -1.7946
 1612SOL    HW216470   0.747   1.901  12.393  1.2984  0.4584 -0.5141
 1613SOL     OW16471   4.234   3.471   7.020  0.3194  0.0722  0.3639
 1613SOL    HW116472   4.306   3.493   7.079 -0.5403 -0.0844  1.4772
 1613SOL    HW216473   4.273   3.456   6.934  1.6270  1.3601  0.7245
 1614SOL     OW16474   3.275   2.172   2.172 -0.2181 -0.0725  0.7488
 1614SOL    HW116475   3.180   2.170   2.156  0.0827  0.9434 -1.1180
 1614SOL    HW216476   3.294   2.217   2.090  0.3737 -1.6804 -0.0017
 1615SOL     OW16477   2.330   3.663   8.062 -0.7026 -0.0585  0.0160
 1615SOL    HW116478   2.304   3.571   8.070 -0.2792 -0.2442 -0.6966
 1615SOL    HW216479   2.399   3.687   8.124  0.3855 -0.0003 -1.2111
 1616SOL     OW16480   4.691   1.283   7.544  0.0489 -0.1094  0.4761
 1616SOL    HW116481   4.645   1.317   7.621  0.0647  2.8116 -0.7863
 1616SOL    HW216482   4.644   1.202   7.524  0.8529 -0.3167 -0.6154
 1617SOL     OW16483   0.230   2.580   1.654  0.6065  0.1299 -0.4654
 1617SOL    HW116484   0.302   2.610   1.710  0.3952  1.4111 -0.8794
 1617SOL    HW216485   0.180   2.653   1.617  0.3846  1.1393  1.8078
 1618SOL     OW16486   3.198   0.535   5.518  0.6061 -0.2065  0.9569
 1618SOL    HW116487   3.153   0.505   5.439  2.9966  0.8063 -0.7855
 1618SOL    HW216488   3.289   0.516   5.496  0.4047  1.1301 -1.0139
 1619SOL     OW16489   0.934   2.369   5.830  0.4317  0.7872  0.5283
 1619SOL    HW116490   1.004   2.430   5.808  0.3945  1.2406  1.6580
 1619SOL    HW216491   0.873   2.404   5.765  0.3060 -1.6796 -0.6766
 1620SOL     OW16492   0.246   0.536   2.878 -0.5066  0.7212  0.4001
 1620SOL    HW116493   0.209   0.519   2.965  1.8784  0.7300  1.3988
 1620SOL    HW216494   0.160   0.547   2.836  0.8822  0.8904 -2.3993
 1621SOL     OW16495   2.550   0.315   6.126 -0.6875  0.5111  0.3971
 1621SOL    HW116496   2.580   0.294   6.038  1.0328  1.2077  0.8223
 1621SOL    HW216497   2.462   0.279   6.116 -0.8251  0.9820 -0.1562
 1622SOL     OW16498   2.238   1.473   4.909  0.4181  0.0158  0.3330
 1622SOL    HW116499   2.201   1.519   4.834 -0.7565  0.8386  1.4329
 1622SOL    HW216500   2.242   1.388   4.865  0.4452 -0.6746  1.6825
 1623SOL     OW16501   2.526   2.728   8.333 -0.6357  0.2182  0.0353
 1623SOL    HW116502   2.521   2.701   8.241 -0.6067  0.1159  0.0639
 1623SOL    HW216503   2.594   2.665   8.357  0.2338  1.4158  0.7057
 1624SOL     OW16504   1.156   4.162  10.258 -0.0185 -0.1357 -0.4745
 1624SOL    HW116505   1.159   4.257  10.269 -0.1338 -0.2151  0.2364
 1624SOL    HW216506   1.205   4.121  10.330 -0.3068  0.5818  0.1314
 1625SOL     OW16507   4.249   1.253   4.917 -0.2219  0.5790 -0.2224
 1625SOL    HW116508   4.324   1.309   4.898 -1.1395  2.1073  0.6552
 1625SOL    HW216509   4.191   1.272   4.843  0.9689  0.2030 -1.2601
 1626SOL     OW16510   0.196   1.653   2.986  0.2766  0.4151 -0.3835
 1626SOL    HW116511   0.111   1.663   3.029  1.0111  1.0124  0.9602
 1626SOL    HW216512   0.251   1.625   3.059 -2.8123 -1.0722  1.3936
 1627SOL     OW16513   1.828   3.344   0.525 -0.6009 -0.2160 -0.1172
 1627SOL    HW116514   1.740   3.310   0.511 -0.6836  0.1209 -0.4330
 1627SOL    HW216515   1.865   3.343   0.436 -0.6018  0.2777 -0.1246
 1628SOL     OW16516   2.499   4.326   8.233 -0.9199  0.1082  0.2679
 1628SOL    HW116517   2.437   4.255   8.250 -2.2511  1.3669  0.6432
 1628SOL    HW216518   2.586   4.286   8.236  0.0862  2.2011 -0.7346
 1629SOL     OW16519   2.144   1.115   2.809  0.5136 -0.1480  0.4833
 1629SOL    HW116520   2.221   1.110   2.865 -1.2985  3.7866  3.2878
 1629SOL    HW216521   2.158   1.055   2.736 -2.7544 -0.0665 -0.2237
 1630SOL     OW16522   3.084   0.925   2.630 -0.2017  0.4048 -0.7407
 1630SOL    HW116523   3.053   0.860   2.566  1.2680 -1.9444  0.9108
 1630SOL    HW216524   3.139   0.977   2.571  0.7168 -0.3855 -0.5873
 1631SOL     OW16525   4.151   2.181  13.301 -0.4817 -0.5939  0.0766
 1631SOL    HW116526   4.133   2.098  13.256 -0.8650 -0.0900 -0.6933
 1631SOL    HW216527   4.201   2.143  13.374 -0.0550  0.8243  0.5213
 1632SOL     OW16528   0.182   1.475   9.210 -0.2621 -0.1671 -0.2806
 1632SOL    HW116529   0.252   1.434   9.158  0.1712  0.9080 -0.5517
 1632SOL    HW216530   0.213   1.566   9.221  0.6916 -0.8838  2.8724
 1633SOL     OW16531   0.381   1.965  17.620  0.0567 -0.9975  0.4246
 1633SOL    HW116532   0.401   1.910  17.544  5.1308  2.8502 -1.0678
 1633SOL    HW216533   0.286   1.960  17.626 -0.0707  0.6116 -0.2494
 1634SOL     OW16534   1.828   3.428   8.524 -0.5865 -0.1407  0.3931
 1634SOL    HW116535   1.891   3.379   8.577  0.4847 -2.0696 -2.7187
 1634SOL    HW216536   1.785   3.355   8.479  2.6236 -1.5720 -0.3740
 1635SOL     OW16537   1.041   0.845   5.255  0.4181  0.4104 -0.0597
 1635SOL    HW116538   1.025   0.751   5.254 -1.1651  0.6900  0.1298
 1635SOL    HW216539   1.073   0.861   5.167  1.8621  1.2124  0.6007
 1636SOL     OW16540   1.411   4.264  10.747 -0.2320  0.2224  0.0396
 1636SOL    HW116541   1.490   4.211  10.755  1.3641  2.1029 -3.4816
 1636SOL    HW216542   1.448   4.351  10.760  1.7655 -0.4976 -0.9298
 1637SOL     OW16543   1.627   4.249  10.202 -0.5676 -0.0218 -0.2192
 1637SOL    HW116544   1.676   4.171  10.176 -0.5918 -0.0110 -0.2985
 1637SOL    HW216545   1.571   4.216  10.271 -1.1740  0.2672 -0.5694
 1638SOL     OW16546   1.651   0.796   0.174 -0.1593 -0.1658 -0.1266
 1638SOL    HW116547   1.591   0.835   0.110  0.2501  1.2091  0.3406
 1638SOL    HW216548   1.719   0.861   0.186 -1.1293  1.3412 -2.8923
 1639SOL     OW16549   3.510   1.561   3.773 -0.4518 -0.3028  0.1852
 1639SOL    HW116550   3.557   1.580   3.692 -1.3132  1.1670  0.0414
 1639SOL    HW216551   3.498   1.470   3.746  0.3958 -0.5294  0.5571
 1640SOL     OW16552   0.104   3.819   2.429 -0.0100 -0.0046 -0.2420
 1640SOL    HW116553   0.196   3.807   2.455  0.6523 -0.6900 -2.9002
 1640SOL    HW216554   0.113   3.906   2.389 -1.0342  1.1071  1.9289
 1641SOL     OW16555   0.761   2.891   8.455 -0.0643 -0.2394 -0.2209
 1641SOL    HW116556   0.699   2.819   8.465 -1.0336  0.2804 -2.4394
 1641SOL    HW216557   0.708   2.954   8.406  0.9058 -0.1304 -1.1246
 1642SOL     OW16558   2.236   0.612   8.167 -0.2202  0.3388  0.0727
 1642SOL    HW116559   2.279   0.595   8.083  0.1110 -0.8707  0.4834
 1642SOL    HW216560   2.212   0.522   8.189  1.3989 -0.4665 -1.4552
 1643SOL     OW16561   4.137   4.112   6.007  0.4610 -0.0234  0.0177
 1643SOL    HW116562   4.193   4.131   5.932 -1.0172  1.7456 -0.6478
 1643SOL    HW216563   4.094   4.027   5.993 -0.8979  0.7915 -0.7976
 1644SOL     OW16564   0.020   0.607   2.743  0.3205 -0.7479  0.6898
 1644SOL    HW116565   4.716   0.688   2.715 -0.2569 -0.5943  2.0068
 1644SOL    HW216566   0.029   0.566   2.657 -1.1257 -1.8261  1.0511
 1645SOL     OW16567   0.724   4.348   3.606  0.2316  0.0916 -0.4033
 1645SOL    HW116568   0.720   4.374   3.513 -4.0499  1.2997  0.1084
 1645SOL    HW216569   0.635   4.314   3.614  0.5648 -0.3656  1.2372
 1646SOL     OW16570   2.544   2.285  15.970 -0.2042 -0.5193  0.0186
 1646SOL    HW116571   2.557   2.356  15.908 -0.8623 -0.3145  0.1118
 1646SOL    HW216572   2.464   2.239  15.945  0.0452  0.5307 -2.7229
 1647SOL     OW16573   1.442   3.791   9.816  0.3535  0.1243 -0.3551
 1647SOL    HW116574   1.390   3.765   9.739 -2.9210  0.4892  1.7371
 1647SOL    HW216575   1.374   3.813   9.879  1.4459 -1.7194  1.4583
 1648SOL     OW16576   2.239   0.381   8.818  0.4458 -0.7261 -0.1896
 1648SOL    HW116577   2.251   0.295   8.860 -2.0968 -0.4464  1.0990
 1648SOL    HW216578   2.272   0.439   8.887 -1.2148  1.5927 -1.3592
 1649SOL     OW16579   4.407   3.374   1.927  0.7611  0.6232  0.1497
 1649SOL    HW116580   4.351   3.364   1.851 -1.0772  1.0990  1.4499
 1649SOL    HW216581   4.410   3.289   1.970 -4.2337  0.9810  1.1530
 1650SOL     OW16582   0.676   0.266   3.357  0.2957 -0.0499  0.1556
 1650SOL    HW116583   0.768   0.259   3.382  0.2108  0.0018  0.4897
 1650SOL    HW216584   0.673   0.358   3.330  0.0250 -0.8834 -2.5963
 1651SOL     OW16585   2.627   2.437   5.557 -0.3023  0.2901 -0.2710
 1651SOL    HW116586   2.551   2.459   5.503  1.2535  1.9767 -1.7594
 1651SOL    HW216587   2.587   2.451   5.642  1.3820  1.7641  0.2758
 1652SOL     OW16588   4.084   2.719  17.029 -0.1024 -0.2378  0.2264
 1652SOL    HW116589   4.069   2.628  17.001 -0.0957  0.1228 -0.9496
 1652SOL    HW216590   4.170   2.740  16.993 -1.0318  2.0103 -0.6340
 1653SOL     OW16591   2.960   4.288   5.890  0.0693 -0.1428 -0.3992
 1653SOL    HW116592   2.879   4.277   5.939  0.9432 -1.3705  0.7450
 1653SOL    HW216593   2.943   4.246   5.805 -1.0451 -0.7603  0.1366
 1654SOL     OW16594   2.886   3.395   3.400  0.2864  0.5033 -0.6597
 1654SOL    HW116595   2.917   3.362   3.316 -0.2637  0.1557 -0.7287
 1654SOL    HW216596   2.792   3.408   3.389 -0.0043 -0.8125  0.1988
 1655SOL     OW16597   4.642   4.313   8.342 -0.0306 -0.0289  0.2900
 1655SOL    HW116598   4.587   4.259   8.399 -3.1871  3.0693  0.1438
 1655SOL    HW216599   4.588   4.337   8.267 -0.5642 -2.1907 -0.0032
 1656SOL     OW16600   3.918   1.805  17.095 -0.0119  0.3827 -0.0319
 1656SOL    HW116601   3.938   1.866  17.024 -0.5717  0.2516 -0.3037
 1656SOL    HW216602   3.857   1.747  17.049 -0.3900  0.3923  0.4635
 1657SOL     OW16603   3.924   1.869   5.329 -0.5197  0.3961  0.0576
 1657SOL    HW116604   3.885   1.784   5.351  1.4908 -0.3149  0.8905
 1657SOL    HW216605   3.875   1.921   5.392 -0.7193  1.6481 -1.1362
 1658SOL     OW16606   1.339   1.553   3.422  0.3485  0.9954  0.0879
 1658SOL    HW116607   1.285   1.610   3.476 -1.5369 -1.9225  1.3090
 1658SOL    HW216608   1.373   1.611   3.354 -1.6318  0.5873 -1.2426
 1659SOL     OW16609   4.007   4.569   6.282  0.0147 -0.3295 -0.2648
 1659SOL    HW116610   4.039   4.639   6.225  2.0074 -1.6608 -0.7842
 1659SOL    HW216611   4.025   4.610   6.366 -0.2112  0.4998 -0.6272
 1660SOL     OW16612   1.415   3.950   3.591 -0.9558  0.3166 -0.7411
 1660SOL    HW116613   1.483   3.904   3.641 -0.5944  0.2850 -1.2652
 1660SOL    HW216614   1.334   3.911   3.624 -0.3849 -1.4626 -1.4892
 1661SOL     OW16615   4.540   2.498   8.541  0.0261 -0.1376 -0.8665
 1661SOL    HW116616   4.514   2.431   8.604 -2.2863  3.3555  1.9088
 1661SOL    HW216617   4.449   2.521   8.522 -0.6198 -1.1677  0.9934
 1662SOL     OW16618   3.175   1.598   7.707 -0.1645  0.1193  0.1187
 1662SOL    HW116619   3.114   1.581   7.635  1.7377 -2.1929 -0.9738
 1662SOL    HW216620   3.123   1.586   7.786  1.2886  0.4922  1.1388
 1663SOL     OW16621   2.642   1.830   7.492  0.4842  0.4540 -0.3237
 1663SOL    HW116622   2.672   1.920   7.501 -0.9394  0.6945  2.0599
 1663SOL    HW216623   2.552   1.839   7.524 -0.5142  1.7479 -3.4806
 1664SOL     OW16624   1.225   0.502   6.206 -0.0133  0.1753 -0.3129
 1664SOL    HW116625   1.218   0.550   6.288 -1.0453 -3.2666  1.5811
 1664SOL    HW216626   1.131   0.484   6.207 -0.1856  1.1526  0.8294
 1665SOL     OW16627   1.887   2.180   3.485 -0.0511  0.1874  0.3445
 1665SOL    HW116628   1.860   2.119   3.417  0.3086  0.1260  0.2553
 1665SOL    HW216629   1.807   2.192   3.537  0.6985 -1.4494  1.8562
 1666SOL     OW16630   1.977   4.388  16.422 -0.3648  0.4463  0.5596
 1666SOL    HW116631   1.985   4.303  16.466  0.6156  0.5178  0.5115
 1666SOL    HW216632   2.019   4.445  16.487 -0.7991  4.3868 -2.6723
 1667SOL     OW16633   2.375   1.000   9.046  0.0941  0.1008  0.3520
 1667SOL    HW116634   2.466   0.992   9.015  0.0964 -3.2984  1.3038
 1667SOL    HW216635   2.384   1.024   9.138 -2.1943  0.3513  0.5089
 1668SOL     OW16636   1.837   0.370   7.768  0.1745  0.2394  0.4744
 1668SOL    HW116637   1.846   0.457   7.731 -0.6370  1.0994  2.2915
 1668SOL    HW216638   1.745   0.347   7.756  0.0799  1.1443 -0.4716
 1669SOL     OW16639   2.595   1.461   6.142  0.4961  0.2994 -0.1370
 1669SOL    HW116640   2.614   1.545   6.101 -2.1138  1.2160  0.5326
 1669SOL    HW216641   2.681   1.420   6.129  0.2604  0.0397 -0.8989
 1670SOL     OW16642   4.221   4.446   5.655  0.1975 -0.1752  0.6033
 1670SOL    HW116643   4.283   4.409   5.718 -0.3258 -1.3082  0.4461
 1670SOL    HW216644   4.142   4.393   5.665  0.0098  0.0736  0.4408
 1671SOL     OW16645   1.823   1.253  10.153 -0.4359 -0.2676 -0.4214
 1671SOL    HW116646   1.794   1.170  10.189  0.5245  0.0070  1.0015
 1671SOL    HW216647   1.758   1.272  10.085  0.2182  1.2903 -0.6332
 1672SOL     OW16648   4.614   4.134   1.559 -0.4411 -0.2356  0.0704
 1672SOL    HW116649   4.596   4.095   1.473 -1.3265  0.4475 -0.0534
 1672SOL    HW216650   4.700   4.094   1.572 -1.8096 -3.4486 -0.7400
 1673SOL     OW16651   0.761   0.697   7.284 -0.0829 -0.3630  0.0797
 1673SOL    HW116652   0.785   0.620   7.336 -2.1639 -1.7483 -0.9864
 1673SOL    HW216653   0.668   0.687   7.265 -0.0425  0.4109 -0.4977
 1674SOL     OW16654   4.062   4.020   6.805 -0.0306  0.3291 -0.3811
 1674SOL    HW116655   4.122   4.072   6.752  1.3174 -1.1470 -0.3031
 1674SOL    HW216656   3.975   4.056   6.787  0.4907  0.3373 -2.8682
 1675SOL     OW16657   0.221   0.494   2.329 -0.0034  0.3871 -0.1151
 1675SOL    HW116658   0.167   0.516   2.253 -1.1159 -1.7233  0.0410
 1675SOL    HW216659   0.304   0.537   2.309 -0.6510  1.7484  0.1296
 1676SOL     OW16660   2.392   2.249   7.635 -0.2141  0.1766  0.3003
 1676SOL    HW116661   2.351   2.206   7.711 -1.4912 -0.6413 -0.8337
 1676SOL    HW216662   2.357   2.337   7.649 -1.1153 -0.0828 -0.2578
 1677SOL     OW16663   0.813   2.179   1.258  0.1348  0.1264 -0.1017
 1677SOL    HW116664   0.720   2.199   1.246  0.6699  1.3625 -2.2255
 1677SOL    HW216665   0.807   2.134   1.342  0.3767 -2.0927 -1.2536
 1678SOL     OW16666   3.166   0.572   7.541 -0.0722  0.1590  0.1876
 1678SOL    HW116667   3.080   0.559   7.501 -0.1302 -0.1991  0.4295
 1678SOL    HW216668   3.227   0.528   7.483 -0.9382 -0.1000 -0.5279
 1679SOL     OW16669   1.760   0.156  13.657 -0.2927  0.1303  0.1226
 1679SOL    HW116670   1.712   0.078  13.631 -0.5727  0.8220 -1.4552
 1679SOL    HW216671   1.715   0.219  13.600  1.3970  1.7294  0.5585
 1680SOL     OW16672   1.661   2.425   8.274 -0.1431 -0.6652 -0.0012
 1680SOL    HW116673   1.580   2.401   8.229  0.2891 -1.4720 -0.3478
 1680SOL    HW216674   1.690   2.498   8.220 -1.7741 -0.0856 -0.1046
 1681SOL     OW16675   3.547   1.845   4.458 -0.2509  0.0674 -0.6321
 1681SOL    HW116676   3.457   1.824   4.481 -0.8346  2.5847 -0.6541
 1681SOL    HW216677   3.548   1.835   4.362  0.9137  0.5967 -0.6865
 1682SOL     OW16678   0.237   3.906   7.861 -0.5054  0.2253 -0.1112
 1682SOL    HW116679   0.205   3.817   7.875  0.6324 -0.2864 -0.7117
 1682SOL    HW216680   0.331   3.890   7.869 -0.0937  2.6198 -0.1708
 1683SOL     OW16681   0.207   1.921   3.514 -0.6012 -0.1980  0.0580
 1683SOL    HW116682   0.213   1.831   3.480  1.9938 -0.4752  1.2649
 1683SOL    HW216683   0.120   1.946   3.482 -0.0178 -0.3919 -1.6701
 1684SOL     OW16684   0.096   3.003   4.058  0.7956  0.9852  0.0233
 1684SOL    HW116685   0.075   3.093   4.083  0.7772  0.0256  3.5103
 1684SOL    HW216686   0.120   3.000   3.965 -0.4444  0.9638 -0.3086
 1685SOL     OW16687   2.000   2.647   0.516 -0.7401  0.1330  0.2401
 1685SOL    HW116688   2.093   2.637   0.500 -1.2201 -0.5442 -2.1224
 1685SOL    HW216689   2.006   2.676   0.607  0.3496  0.3427  0.1001
 1686SOL     OW16690   2.372   2.014   8.886  0.2704 -0.2035  0.1372
 1686SOL    HW116691   2.294   2.026   8.832 -0.6435 -0.6263  1.3650
 1686SOL    HW216692   2.365   2.091   8.944 -2.2153 -0.2621 -0.0996
 1687SOL     OW16693   0.438   3.781   9.224  0.2012  0.0864  0.4055
 1687SOL    HW116694   0.477   3.836   9.292  0.9448  0.4247 -0.3055
 1687SOL    HW216695   0.343   3.777   9.234  0.3933 -0.2748  2.0690
 1688SOL     OW16696   1.542   3.685   5.179 -0.9883 -0.3461 -0.6060
 1688SOL    HW116697   1.594   3.724   5.109 -0.5449 -1.7527 -1.0565
 1688SOL    HW216698   1.608   3.640   5.231 -1.0163  0.6660  0.3016
 1689SOL     OW16699   4.077   1.580   3.217  0.0459  0.1749  0.2043
 1689SOL    HW116700   4.059   1.487   3.205  1.0218  0.0650 -0.4033
 1689SOL    HW216701   4.172   1.570   3.222  0.1654 -0.2755 -2.9902
 1690SOL     OW16702   3.597   3.028   9.432  0.4438 -0.6235 -0.2641
 1690SOL    HW116703   3.669   3.050   9.491  0.2939 -1.1240  0.1030
 1690SOL    HW216704   3.644   2.994   9.356  1.1908 -1.5218  0.5948
 1691SOL     OW16705   3.129   0.759   8.224  0.7502 -0.7643  0.2152
 1691SOL    HW116706   3.215   0.780   8.189  0.7332 -0.5456  0.3008
 1691SOL    HW216707   3.134   0.770   8.319 -2.2294  2.3230  0.0602
 1692SOL     OW16708   1.984   1.810   5.933 -0.2405  0.0470  0.4041
 1692SOL    HW116709   1.934   1.888   5.957 -0.0411  0.2057  0.2939
 1692SOL    HW216710   1.927   1.740   5.966 -0.0846 -1.5302 -2.6673
 1693SOL     OW16711   4.307   4.378   2.670  0.7468  0.4587  0.1313
 1693SOL    HW116712   4.299   4.460   2.621  0.1737  0.4737  0.2566
 1693SOL    HW216713   4.369   4.334   2.612  1.8102  1.4143  0.5501
 1694SOL     OW16714   0.825   1.575   2.366 -0.3614 -0.3279 -0.1045
 1694SOL    HW116715   0.906   1.597   2.412 -0.3131 -2.2480  0.7024
 1694SOL    HW216716   0.810   1.490   2.408 -1.0595 -0.6709 -1.0410
 1695SOL     OW16717   0.864   1.636   3.590  0.5296  0.3543 -0.3286
 1695SOL    HW116718   0.960   1.637   3.590  0.5463 -2.3347 -1.1349
 1695SOL    HW216719   0.852   1.601   3.502  0.0761  0.0812 -0.1553
 1696SOL     OW16720   1.798   3.337   7.153  0.3208 -0.1090 -0.2302
 1696SOL    HW116721   1.863   3.390   7.199 -2.8018  1.9230  1.7753
 1696SOL    HW216722   1.826   3.248   7.172  0.6826  0.1373  0.3875
 1697SOL     OW16723   2.061   2.740   6.175 -0.9667  0.2238 -0.1440
 1697SOL    HW116724   2.077   2.715   6.084  1.9978  0.2137  0.3996
 1697SOL    HW216725   2.004   2.669   6.208  2.4485 -2.5576 -0.2585
 1698SOL     OW16726   2.716   1.525   2.694  0.0558  0.3609 -0.2010
 1698SOL    HW116727   2.743   1.458   2.757 -0.2895 -0.7312 -1.2174
 1698SOL    HW216728   2.636   1.562   2.731 -1.1210 -0.9640 -1.4456
 1699SOL     OW16729   1.466   2.371   9.144 -0.7541  0.0227  0.0829
 1699SOL    HW116730   1.437   2.280   9.151 -1.0164  0.0668 -0.4176
 1699SOL    HW216731   1.549   2.350   9.101 -0.4775 -0.6412  0.9361
 1700SOL     OW16732   4.601   2.727   6.317 -0.0355 -0.3395  0.1679
 1700SOL    HW116733   4.655   2.789   6.367 -0.0226  0.4832 -0.8628
 1700SOL    HW216734   4.567   2.787   6.251 -2.1560 -2.2344 -0.4375
 1701SOL     OW16735   3.044   0.173   4.995 -0.2235 -0.1981 -0.4011
 1701SOL    HW116736   2.959   0.200   4.960  1.0815  0.8813 -2.7185
 1701SOL    HW216737   3.023   0.165   5.088 -2.0465 -0.7779 -0.8685
 1702SOL     OW16738   0.990   3.568   6.625 -0.3625  0.3046 -0.3050
 1702SOL    HW116739   1.041   3.573   6.544  1.1252 -1.0920  0.5537
 1702SOL    HW216740   1.035   3.633   6.679  2.2757 -2.2547  0.5561
 1703SOL     OW16741   2.148   4.229   7.818  0.1358 -0.2192  0.7526
 1703SOL    HW116742   2.224   4.173   7.832 -0.0165 -0.2480  1.4796
 1703SOL    HW216743   2.181   4.297   7.760  1.1653 -0.3378  1.2124
 1704SOL     OW16744   3.992   3.791   8.753  0.0711 -0.3546  0.0100
 1704SOL    HW116745   3.947   3.793   8.838 -1.5340 -0.1667 -0.8411
 1704SOL    HW216746   4.068   3.844   8.776 -2.0916  2.1717  1.3753
 1705SOL     OW16747   2.708   0.637   4.643  0.1140  0.1684 -0.4387
 1705SOL    HW116748   2.699   0.719   4.691  1.0592  0.0180 -0.0083
 1705SOL    HW216749   2.772   0.655   4.573  0.0871 -0.4393 -0.6276
 1706SOL     OW16750   0.713   2.235   0.936  0.0456 -0.0718 -0.0330
 1706SOL    HW116751   0.630   2.282   0.949  0.1335 -0.2860  1.2776
 1706SOL    HW216752   0.750   2.287   0.865  0.8805 -1.6517 -0.7435
 1707SOL     OW16753   1.464   2.064   6.189 -0.2261  0.2315  0.0628
 1707SOL    HW116754   1.394   2.002   6.169  1.1086 -1.9648  2.1481
 1707SOL    HW216755   1.501   2.023   6.267 -0.4717  2.6068  1.4412
 1708SOL     OW16756   1.731   1.830   6.160 -0.7621 -0.1795 -0.0572
 1708SOL    HW116757   1.667   1.862   6.098 -1.5706 -1.7500 -0.0459
 1708SOL    HW216758   1.772   1.755   6.117 -1.1293 -0.6281  0.3639
 1709SOL     OW16759   0.252   1.071   5.460  0.2146 -0.0768  0.2951
 1709SOL    HW116760   0.244   0.976   5.467  1.8298 -0.1675  0.8222
 1709SOL    HW216761   0.345   1.083   5.475  0.3389 -0.5037 -0.1734
 1710SOL     OW16762   2.553   3.382   6.931  0.1615  0.5900  0.3262
 1710SOL    HW116763   2.559   3.470   6.970  2.3795  1.2449 -1.5256
 1710SOL    HW216764   2.644   3.374   6.903 -0.0494  0.9940 -0.4574
 1711SOL     OW16765   1.356   3.833  10.294 -0.5200  0.1734 -0.0403
 1711SOL    HW116766   1.347   3.922  10.329 -0.4558  0.2332 -0.1767
 1711SOL    HW216767   1.449   3.836  10.275 -0.7897  0.7831 -1.2438
 1712SOL     OW16768   4.728   3.337   8.470 -0.1142 -0.2216  0.0580
 1712SOL    HW116769   0.041   3.261   8.497  2.1361  1.4757  0.5125
 1712SOL    HW216770   4.642   3.314   8.505  0.2662  0.1774  1.2832
 1713SOL     OW16771   3.392   3.574   7.579  0.3793 -0.1000 -0.0784
 1713SOL    HW116772   3.458   3.626   7.624 -1.1798 -0.2372  2.3690
 1713SOL    HW216773   3.451   3.515   7.532 -0.7596 -0.9415 -0.4699
 1714SOL     OW16774   4.040   1.997   7.288 -0.4266  0.3063  0.1501
 1714SOL    HW116775   4.123   2.031   7.323 -0.2607  0.5165 -0.4431
 1714SOL    HW216776   3.981   2.036   7.352 -1.1605  1.1931 -1.0756
 1715SOL     OW16777   1.524   3.828   6.543  0.2325  0.4109  0.4255
 1715SOL    HW116778   1.569   3.786   6.616 -0.0270 -0.5973  0.0011
 1715SOL    HW216779   1.596   3.872   6.497  0.9476 -0.8415  0.3579
 1716SOL     OW16780   3.753   1.183   1.144  0.6586 -0.1156  0.0805
 1716SOL    HW116781   3.702   1.250   1.099  1.9528  0.7489 -0.0940
 1716SOL    HW216782   3.714   1.186   1.232 -0.6786 -0.1944 -0.5220
 1717SOL     OW16783   1.342   2.512   4.531 -0.5049 -0.0010 -0.3469
 1717SOL    HW116784   1.294   2.553   4.603 -2.9642 -2.0034 -0.8544
 1717SOL    HW216785   1.293   2.539   4.453 -0.7281  0.2286 -0.1280
 1718SOL     OW16786   3.595   4.323  10.235 -0.1327  1.0086  0.0274
 1718SOL    HW116787   3.685   4.291  10.232 -0.1952  0.7509  0.9653
 1718SOL    HW216788   3.546   4.256  10.284  1.0548  0.1945  0.0984
 1719SOL     OW16789   1.352   3.522   2.619  0.2990  0.0217  0.0552
 1719SOL    HW116790   1.380   3.564   2.538  1.0174  0.3358  0.4669
 1719SOL    HW216791   1.396   3.439   2.599  0.0783  0.2177 -1.2905
 1720SOL     OW16792   3.303   4.450   1.878 -0.4631  0.2027 -0.1589
 1720SOL    HW116793   3.328   4.538   1.848 -0.7041 -0.1219 -1.3003
 1720SOL    HW216794   3.313   4.449   1.974  3.3468  0.3159 -0.5378
 1721SOL     OW16795   2.391   1.168   7.264 -0.0094  0.0047 -0.1855
 1721SOL    HW116796   2.455   1.238   7.276  1.0295 -0.7287 -1.3997
 1721SOL    HW216797   2.402   1.117   7.345  2.0499 -0.3187 -0.6500
 1722SOL     OW16798   1.047   2.768   3.407  0.1918  0.8782 -0.4463
 1722SOL    HW116799   0.957   2.780   3.376  0.2257  2.1113 -0.0821
 1722SOL    HW216800   1.094   2.821   3.344 -0.5372 -0.0560 -1.7846
 1723SOL     OW16801   4.632   0.966  12.546 -0.1172 -0.5529  0.2661
 1723SOL    HW116802   4.727   0.954  12.545 -0.0721  0.0149 -1.4017
 1723SOL    HW216803   4.612   0.985  12.638 -0.1218  0.7351 -0.0060
 1724SOL     OW16804   4.418   3.156   2.563 -0.2950 -0.4029 -0.2336
 1724SOL    HW116805   4.463   3.148   2.647  0.3161 -0.7874 -0.5955
 1724SOL    HW216806   4.331   3.184   2.590 -0.3006  0.7286 -1.4281
 1725SOL     OW16807   2.351   2.501  12.752  0.7586  0.2140  0.1419
 1725SOL    HW116808   2.404   2.542  12.684  0.5576 -0.0454 -0.1731
 1725SOL    HW216809   2.370   2.407  12.742 -0.0566  0.1177 -0.5105
 1726SOL     OW16810   2.622   3.548   0.253 -0.1067  0.4150  0.1039
 1726SOL    HW116811   2.564   3.571   0.325  0.3017 -2.1197  1.2576
 1726SOL    HW216812   2.590   3.613   0.190  1.1264  0.6136 -0.3039
 1727SOL     OW16813   1.637   2.215  15.665  0.4825 -0.1628 -1.0021
 1727SOL    HW116814   1.544   2.226  15.687  0.5773 -2.7990  0.8302
 1727SOL    HW216815   1.651   2.279  15.596 -0.7032  0.4864 -0.6366
 1728SOL     OW16816   4.172   2.168   6.470  0.3166 -0.4030 -0.2568
 1728SOL    HW116817   4.160   2.074   6.478  1.7346 -0.3854  2.2242
 1728SOL    HW216818   4.265   2.172   6.445  0.8179 -3.0448  1.1222
 1729SOL     OW16819   3.262   2.700   7.579  0.5916 -0.5397  0.5892
 1729SOL    HW116820   3.318   2.692   7.657 -2.5717 -2.3991  2.6838
 1729SOL    HW216821   3.205   2.624   7.591  1.8343 -1.4072  0.9670
 1730SOL     OW16822   2.442   4.060   5.692  0.1735  0.1639  0.0297
 1730SOL    HW116823   2.482   4.009   5.763  1.3527  2.1517  0.7886
 1730SOL    HW216824   2.510   4.124   5.671  1.1970 -0.4073  1.5632
 1731SOL     OW16825   1.414   1.083   4.268  0.7283 -0.4006 -0.2885
 1731SOL    HW116826   1.343   1.020   4.278  0.0740  0.2911 -0.4900
 1731SOL    HW216827   1.485   1.019   4.272  1.1568  0.0402 -0.7931
 1732SOL     OW16828   1.468   4.341  14.050 -0.3114  0.6387 -0.4388
 1732SOL    HW116829   1.522   4.262  14.059 -1.0637  0.1201 -0.4966
 1732SOL    HW216830   1.386   4.299  14.026 -0.0539 -1.3975  2.2071
 1733SOL     OW16831   1.983   4.634   8.797 -0.3079  0.4531 -0.3060
 1733SOL    HW116832   1.998   4.557   8.851 -0.7815  0.8898  0.4413
 1733SOL    HW216833   1.944   4.605   8.714  2.4177  2.7186 -2.3861
 1734SOL     OW16834   2.145   2.088   5.359 -0.0994  0.1357 -0.1951
 1734SOL    HW116835   2.216   2.037   5.397 -2.1995 -2.3104  0.4482
 1734SOL    HW216836   2.093   2.027   5.307 -0.7126  0.2503  0.2828
 1735SOL     OW16837   2.802   2.187   7.070 -0.3603 -0.2136  0.2555
 1735SOL    HW116838   2.801   2.112   7.011 -1.7351  1.2366 -1.5821
 1735SOL    HW216839   2.727   2.172   7.127 -0.0394 -0.5253  0.5911
 1736SOL     OW16840   4.188   1.933   9.143  0.2380  0.1281 -0.0214
 1736SOL    HW116841   4.124   1.912   9.074  0.5294 -0.0443 -0.2417
 1736SOL    HW216842   4.232   2.004   9.096 -1.6204  1.5226  0.3724
 1737SOL     OW16843   0.007   0.293  11.055  0.1170  1.0969  0.1376
 1737SOL    HW116844   0.071   0.357  11.086 -0.5065  0.1992  3.2768
 1737SOL    HW216845   0.005   0.233  11.129  2.4499  0.2442 -0.5153
 1738SOL     OW16846   0.910   1.013   7.973 -0.4722 -0.4703  0.0608
 1738SOL    HW116847   0.948   0.931   8.003  3.3338  0.5062 -2.0176
 1738SOL    HW216848   0.929   1.074   8.044 -0.3989  0.7104 -0.9641
 1739SOL     OW16849   4.496   1.212  17.430 -0.8888  0.7841  0.1965
 1739SOL    HW116850   4.516   1.239  17.520  0.0492 -0.8550  0.4857
 1739SOL    HW216851   4.401   1.224  17.425 -0.5973  2.1534 -2.0466
 1740SOL     OW16852   3.965   0.094  14.630  0.0403  0.1470 -0.2839
 1740SOL    HW116853   3.963   0.068  14.538  1.4976  2.0446 -0.8550
 1740SOL    HW216854   3.876   0.077  14.662  1.1719 -3.5346  0.8771
 1741SOL     OW16855   1.733   3.668   7.027 -0.4414  0.1745 -0.0089
 1741SOL    HW116856   1.660   3.716   6.987 -0.2850  1.5908  1.4272
 1741SOL    HW216857   1.738   3.733   7.097 -1.1130  0.4876 -0.2572
 1742SOL     OW16858   0.585   3.476   7.897 -0.6817 -0.6547 -0.4615
 1742SOL    HW116859   0.491   3.475   7.913 -0.3334 -1.5096  1.4413
 1742SOL    HW216860   0.619   3.459   7.984 -0.8269 -2.6043 -0.7902
 1743SOL     OW16861   1.480   1.632  17.114  0.0979 -0.1343 -0.1994
 1743SOL    HW116862   1.562   1.612  17.160 -0.4780 -0.4411  0.6892
 1743SOL    HW216863   1.418   1.574  17.157  0.6636 -1.0264 -0.5898
 1744SOL     OW16864   2.681   3.743  10.034  0.4213 -0.8608  0.0008
 1744SOL    HW116865   2.763   3.747   9.985  0.4140 -0.0344  0.0583
 1744SOL    HW216866   2.610   3.760   9.973  1.0883 -0.4430 -0.6583
 1745SOL     OW16867   1.531   4.111  10.447 -0.2019  0.5252 -0.1915
 1745SOL    HW116868   1.563   4.186  10.498  0.3438 -0.2917  0.6745
 1745SOL    HW216869   1.590   4.044  10.482  0.1560  0.5997 -0.6502
 1746SOL     OW16870   1.278   0.863   3.755 -0.3192  0.2475 -0.0667
 1746SOL    HW116871   1.294   0.955   3.736 -3.9334  0.8516 -0.1632
 1746SOL    HW216872   1.260   0.867   3.849  0.7295 -2.0242  0.2216
 1747SOL     OW16873   1.043   0.382  13.090 -0.7336 -0.2118 -0.2514
 1747SOL    HW116874   1.119   0.371  13.033  0.6673 -1.1328  1.8198
 1747SOL    HW216875   1.063   0.471  13.116  0.8581 -0.3653 -0.9916
 1748SOL     OW16876   3.297   4.106   5.131 -0.2191  0.3743 -0.7368
 1748SOL    HW116877   3.278   4.046   5.203  1.0772  0.4872 -0.3107
 1748SOL    HW216878   3.392   4.105   5.139 -0.2201  1.5321 -0.6763
 1749SOL     OW16879   3.841   4.350   3.254  0.0967  0.1725 -0.6414
 1749SOL    HW116880   3.890   4.418   3.300  0.0635 -0.2465  0.0236
 1749SOL    HW216881   3.870   4.355   3.163  1.3734  3.1723 -0.0637
 1750SOL     OW16882   3.350   0.115   0.662  0.3517  0.1347  0.3031
 1750SOL    HW116883   3.380   0.092   0.573  2.0136 -0.3296  0.9812
 1750SOL    HW216884   3.425   0.163   0.697 -0.6592  1.5399  0.4919
 1751SOL     OW16885   1.230   0.210   7.944  0.2391  0.1060 -0.0101
 1751SOL    HW116886   1.192   0.281   7.996 -0.0929 -0.2903  0.2909
 1751SOL    HW216887   1.160   0.153   7.914  1.2770 -1.6553  0.8961
 1752SOL     OW16888   4.715   2.882  16.341  0.3844  0.2508  0.0301
 1752SOL    HW116889   0.015   2.817  16.283 -0.2129  1.1241 -1.3663
 1752SOL    HW216890   4.717   2.962  16.287  0.0588  0.6734  0.6498
 1753SOL     OW16891   0.407   3.463  17.383 -0.0135 -0.6111  0.4972
 1753SOL    HW116892   0.436   3.438  17.471  0.1032 -1.3921  0.2306
 1753SOL    HW216893   0.467   3.538  17.383 -0.5815 -0.2122 -4.1012
 1754SOL     OW16894   0.777   4.666   9.718 -0.2107 -0.7135 -0.0273
 1754SOL    HW116895   0.750   0.018   9.732  1.0807 -0.2801 -0.3548
 1754SOL    HW216896   0.727   4.638   9.642 -0.5418 -0.1764 -0.0067
 1755SOL     OW16897   3.878   1.276   0.034  0.2899 -0.0332  0.0847
 1755SOL    HW116898   3.873   1.221   0.111 -1.0077  0.1441  0.1283
 1755SOL    HW216899   3.919   1.358   0.063 -1.5413  0.6460  0.7604
 1756SOL     OW16900   1.716   1.981   6.908 -0.1308 -0.3826 -0.2980
 1756SOL    HW116901   1.731   2.054   6.968  0.6146 -0.2313 -0.6648
 1756SOL    HW216902   1.656   1.929   6.961 -1.5061  1.1182 -0.3981
 1757SOL     OW16903   3.370   0.527   2.898  0.1610  0.8903  0.3404
 1757SOL    HW116904   3.452   0.479   2.886 -0.1258  0.2554  0.9351
 1757SOL    HW216905   3.354   0.572   2.815  2.0314 -1.6369 -1.3646
 1758SOL     OW16906   1.354   3.533   3.150  0.3843  0.3217  0.1508
 1758SOL    HW116907   1.364   3.479   3.071 -0.0739 -0.9553  0.9715
 1758SOL    HW216908   1.404   3.611   3.123  3.0340 -1.3986  0.1358
 1759SOL     OW16909   2.141   2.204   9.585  0.2633 -0.2322 -0.1430
 1759SOL    HW116910   2.113   2.213   9.494  0.2886  0.0550 -0.1219
 1759SOL    HW216911   2.138   2.292   9.622  0.3227 -0.1454 -0.3439
 1760SOL     OW16912   2.593   3.815   0.059  0.7697 -0.0533 -0.0886
 1760SOL    HW116913   2.595   3.910   0.052 -2.2160  0.0087 -0.3967
 1760SOL    HW216914   2.507   3.804   0.101  1.0346 -0.8069  0.2663
 1761SOL     OW16915   4.178   1.199  13.133  0.0443  0.0400  0.3158
 1761SOL    HW116916   4.260   1.187  13.182  0.0678  1.8097  0.7174
 1761SOL    HW216917   4.133   1.256  13.196 -1.3573 -0.6994 -0.0378
 1762SOL     OW16918   2.925   2.909   6.430  0.3022 -0.2069  0.0812
 1762SOL    HW116919   2.922   3.004   6.433  1.5799 -0.1686  0.4942
 1762SOL    HW216920   2.944   2.894   6.338  0.5919  0.1028  0.0911
 1763SOL     OW16921   0.438   4.734  11.954  0.2233  0.1659 -0.4332
 1763SOL    HW116922   0.425   4.700  11.865 -0.2335  1.8580 -1.0157
 1763SOL    HW216923   0.364   4.692  11.997  0.8481  0.2132  0.6685
 1764SOL     OW16924   0.161   3.822   7.521  0.3133 -0.0965 -0.6696
 1764SOL    HW116925   0.203   3.892   7.572 -0.3604 -0.6936  0.6805
 1764SOL    HW216926   0.201   3.745   7.562  0.3473  0.7831  0.9334
 1765SOL     OW16927   1.839   0.052   7.467  0.1676  0.3939 -0.5182
 1765SOL    HW116928   1.764   0.110   7.449 -0.3414 -0.4436 -1.0793
 1765SOL    HW216929   1.806   4.711   7.426 -1.1281  0.1363  0.9922
 1766SOL     OW16930   2.059   3.540  10.347 -0.3083 -0.0168  0.2348
 1766SOL    HW116931   2.127   3.474  10.359  0.3591  0.9542  1.6990
 1766SOL    HW216932   2.062   3.593  10.427  0.4752  2.1915 -1.2559
 1767SOL     OW16933   3.795   1.396   7.264 -0.0636 -0.0146  0.1961
 1767SOL    HW116934   3.850   1.399   7.185  1.3882 -1.5365  1.1493
 1767SOL    HW216935   3.759   1.307   7.265 -2.4503  1.0158  3.6224
 1768SOL     OW16936   3.612   1.322  17.710  0.7589  0.0118  0.1450
 1768SOL    HW116937   3.619   1.410  17.671  2.2362 -0.1375  0.0722
 1768SOL    HW216938   3.701   1.304  17.742  0.8350  0.9570  0.4866
 1769SOL     OW16939   3.634   0.801   5.273 -0.0969 -0.0327 -0.1138
 1769SOL    HW116940   3.681   0.879   5.304  0.6991  0.0512 -1.5690
 1769SOL    HW216941   3.686   0.787   5.194  0.1449 -0.2871  0.0909
 1770SOL     OW16942   1.761   2.735   4.079 -0.1707  0.5831 -0.3813
 1770SOL    HW116943   1.782   2.719   4.171  1.4126  2.7488 -0.3655
 1770SOL    HW216944   1.733   2.826   4.083  3.7140  1.7633 -0.2130
 1771SOL     OW16945   0.757   0.123   1.136  0.3962 -0.6171 -0.6401
 1771SOL    HW116946   0.843   0.081   1.140  0.3858 -0.3127  2.7070
 1771SOL    HW216947   0.710   0.046   1.104 -1.4676 -0.1592  0.9867
 1772SOL     OW16948   2.248   0.003   3.824  0.4356 -0.2411  0.3417
 1772SOL    HW116949   2.314   0.068   3.799 -0.2314 -0.5479 -2.2149
 1772SOL    HW216950   2.248   4.674   3.757  0.7494 -2.1605  2.2507
 1773SOL     OW16951   0.267   4.281   7.247  0.5353  0.0756 -0.2107
 1773SOL    HW116952   0.358   4.261   7.270  0.1298 -1.8377 -0.2484
 1773SOL    HW216953   0.239   4.190   7.234  2.8399 -0.5705 -0.5558
 1774SOL     OW16954   1.713   1.932  14.101 -0.6241  0.0889  0.5928
 1774SOL    HW116955   1.804   1.937  14.131 -0.7854  1.7123  0.8025
 1774SOL    HW216956   1.685   1.858  14.155  0.1043 -0.8667 -0.3583
 1775SOL     OW16957   1.258   1.488   4.121  0.5381  0.2560 -0.0009
 1775SOL    HW116958   1.212   1.410   4.091 -3.2505  2.9669 -1.3003
 1775SOL    HW216959   1.328   1.451   4.174 -1.3148 -0.4260  1.9523
 1776SOL     OW16960   3.907   0.047  12.957 -0.2205  0.3435 -0.0654
 1776SOL    HW116961   3.841   0.046  13.026 -1.1170 -0.4885 -0.9360
 1776SOL    HW216962   3.983   0.033  13.014  0.6491 -0.3070 -1.3739
 1777SOL     OW16963   3.223   4.421   4.628  0.0028 -1.3317 -1.1392
 1777SOL    HW116964   3.283   4.496   4.631 -1.4905 -0.1596 -0.1781
 1777SOL    HW216965   3.154   4.465   4.678  1.0561 -1.0141  0.0346
 1778SOL     OW16966   2.018   2.380  17.657  0.1861  0.8705 -0.4426
 1778SOL    HW116967   2.008   2.463  17.704  1.0572 -0.1751  1.5805
 1778SOL    HW216968   1.927   2.369  17.632  0.5628 -0.0906 -1.3685
 1779SOL     OW16969   3.533   0.382   4.928  0.1027  0.2502 -0.2741
 1779SOL    HW116970   3.446   0.348   4.906 -1.5365  2.3045  2.8854
 1779SOL    HW216971   3.578   0.314   4.879 -0.5341 -0.6435  0.3847
 1780SOL     OW16972   4.293   3.299   5.689 -0.6878  0.7041 -0.5383
 1780SOL    HW116973   4.202   3.322   5.709  0.2481  2.0951  2.0603
 1780SOL    HW216974   4.338   3.341   5.762 -1.9640 -0.3067  0.8353
 1781SOL     OW16975   0.698   3.255   2.015  0.2672  0.3992 -0.4041
 1781SOL    HW116976   0.707   3.262   2.110 -0.6959 -0.4580 -0.2462
 1781SOL    HW216977   0.610   3.288   1.996 -0.1070  0.1409  0.8730
 1782SOL     OW16978   1.579   1.987  12.814 -0.0064 -0.3976 -0.0777
 1782SOL    HW116979   1.529   1.914  12.777  0.0799 -0.3168 -0.3500
 1782SOL    HW216980   1.630   1.945  12.884  0.0986 -0.8733 -0.4387
 1783SOL     OW16981   1.932   1.870   3.919  0.1286  0.2974 -0.2451
 1783SOL    HW116982   1.883   1.852   3.838 -2.3449  1.5707  0.9777
 1783SOL    HW216983   1.871   1.926   3.968 -0.8721 -1.5237  0.5843
 1784SOL     OW16984   1.853   2.199   8.302 -0.2765  0.2986 -0.7783
 1784SOL    HW116985   1.789   2.259   8.262  1.1402  1.3435 -1.4774
 1784SOL    HW216986   1.801   2.119   8.306 -0.9311  0.7123 -0.8367
 1785SOL     OW16987   0.117   3.405  15.857 -0.2863 -0.6116 -0.2098
 1785SOL    HW116988   0.084   3.427  15.770 -2.1259 -0.7963  0.4356
 1785SOL    HW216989   0.106   3.310  15.856 -0.0034 -0.6474 -0.0177
 1786SOL     OW16990   2.439   4.009  16.306  0.1541 -0.0226 -0.0204
 1786SOL    HW116991   2.462   4.095  16.271 -0.5267  1.0685  2.1693
 1786SOL    HW216992   2.511   3.958  16.269  1.0103  0.5804  0.8120
 1787SOL     OW16993   0.613   0.325   7.298 -0.1577  0.2646  0.4090
 1787SOL    HW116994   0.702   0.357   7.311  0.0116  0.1786 -0.6282
 1787SOL    HW216995   0.631   0.232   7.305  1.5514  0.5358 -0.6177
 1788SOL     OW16996   3.539   1.479   8.575  0.4162  0.1961 -0.5043
 1788SOL    HW116997   3.537   1.454   8.667 -1.2121  2.1791 -0.0128
 1788SOL    HW216998   3.626   1.447   8.550  0.8314 -0.5908  1.9571
 1789SOL     OW16999   0.021   2.854   6.495  0.0024  0.0103  0.1144
 1789SOL    HW117000   0.012   2.896   6.580 -2.4986  1.9253 -1.0994
 1789SOL    HW217001   0.094   2.900   6.454 -0.5854 -0.6078 -1.5965
 1790SOL     OW17002   1.148   4.557   7.422 -0.6915 -0.0379 -0.0575
 1790SOL    HW117003   1.188   4.619   7.483 -0.8933  3.1774 -3.1981
 1790SOL    HW217004   1.113   4.628   7.368  1.0594  0.8989  0.0345
 1791SOL     OW17005   4.073   2.473   3.281 -0.2219  0.2297  0.3697
 1791SOL    HW117006   4.139   2.540   3.300 -0.5138  0.3676  0.9058
 1791SOL    HW217007   4.009   2.479   3.353 -0.2575 -1.3282  0.4634
 1792SOL     OW17008   3.030   2.314   7.173 -0.3216 -0.2780 -0.0166
 1792SOL    HW117009   3.034   2.246   7.241 -0.6880 -0.5824 -0.2984
 1792SOL    HW217010   2.967   2.280   7.109 -0.0199  0.1149 -0.5222
 1793SOL     OW17011   1.087   1.257   4.513 -0.0821  0.2892 -0.2124
 1793SOL    HW117012   1.001   1.279   4.477 -0.5007  0.0579  0.6542
 1793SOL    HW217013   1.103   1.336   4.564  4.0594 -2.3083  2.5238
 1794SOL     OW17014   0.555   3.823   8.468  0.6501 -0.1870 -0.5574
 1794SOL    HW117015   0.506   3.752   8.509  2.7131 -2.2422 -1.7114
 1794SOL    HW217016   0.642   3.797   8.497  1.1652  0.9832 -1.0430
 1795SOL     OW17017   0.064   3.821   8.646 -0.1662  0.4051  0.2817
 1795SOL    HW117018   0.028   3.789   8.563 -0.1914 -1.3057  0.9638
 1795SOL    HW217019   0.086   3.910   8.619 -2.9863  1.6024  1.9373
 1796SOL     OW17020   2.965   1.453  15.376  0.2881  0.2469 -0.1177
 1796SOL    HW117021   2.907   1.490  15.443 -0.4696 -0.5341 -0.3566
 1796SOL    HW217022   3.043   1.438  15.430  1.1876  2.0270 -0.9134
 1797SOL     OW17023   1.809   4.502   9.756 -1.0770  0.5741  0.1000
 1797SOL    HW117024   1.772   4.587   9.779  0.0339  0.9513  0.4917
 1797SOL    HW217025   1.890   4.502   9.807 -0.4455  0.7188 -0.9068
 1798SOL     OW17026   3.379   2.193   3.498 -0.0242  0.5357 -0.2461
 1798SOL    HW117027   3.293   2.234   3.489  0.3416  1.2704 -0.4027
 1798SOL    HW217028   3.349   2.116   3.547  1.0869  0.6931  0.6711
 1799SOL     OW17029   3.059   3.184   7.618  0.4154  0.4858 -0.1088
 1799SOL    HW117030   3.142   3.138   7.628 -1.2809 -2.8045 -1.1146
 1799SOL    HW217031   3.092   3.273   7.606 -1.0419  0.9633 -0.6545
 1800SOL     OW17032   1.832   4.212   9.897  0.2956 -0.0608 -0.6622
 1800SOL    HW117033   1.766   4.146   9.919  0.5415  0.1354  0.6337
 1800SOL    HW217034   1.772   4.262   9.841 -1.6047 -1.6122 -0.0357
 1801SOL     OW17035   4.367   1.132   8.660  0.2488 -0.5079  0.0774
 1801SOL    HW117036   4.399   1.094   8.578  0.1331  0.2759 -0.3317
 1801SOL    HW217037   4.298   1.066   8.671  0.5527 -0.7566  0.4779
 1802SOL     OW17038   2.820   0.983   9.550 -0.7888 -0.4705 -0.0832
 1802SOL    HW117039   2.782   0.929   9.619 -0.1483  1.5011  1.8497
 1802SOL    HW217040   2.911   0.951   9.551 -0.3778  0.6450 -1.6425
 1803SOL     OW17041   0.115   3.579   8.742 -0.1346  0.3931 -0.4298
 1803SOL    HW117042   0.127   3.673   8.723 -0.1947  0.6104  0.6441
 1803SOL    HW217043   0.131   3.583   8.836  1.0488 -1.5035 -0.5478
 1804SOL     OW17044   0.026   1.501  16.253  0.6680  0.3665  0.5479
 1804SOL    HW117045   0.101   1.549  16.220 -0.7574  0.9204 -1.8968
 1804SOL    HW217046   0.000   1.562  16.322 -1.5047  1.1547 -0.9774
 1805SOL     OW17047   4.581   0.879   8.786  0.2638  0.2166  0.1466
 1805SOL    HW117048   4.521   0.825   8.733 -2.7015  2.2226  1.4908
 1805SOL    HW217049   4.596   0.954   8.729  0.1156 -0.7990 -1.2618
 1806SOL     OW17050   2.880   2.101  15.645 -0.2150 -0.0871 -0.8610
 1806SOL    HW117051   2.929   2.071  15.722  1.9329 -0.5718 -2.4086
 1806SOL    HW217052   2.788   2.088  15.667  0.1791 -1.4313 -0.0202
 1807SOL     OW17053   2.993   1.697   7.890 -0.3909  0.8219 -0.0645
 1807SOL    HW117054   2.998   1.610   7.929 -1.8644  0.7294 -0.0728
 1807SOL    HW217055   2.901   1.703   7.865 -0.9869  1.7217  2.2584
 1808SOL     OW17056   1.075   1.858   4.713 -0.5372 -0.0267 -0.0783
 1808SOL    HW117057   1.057   1.937   4.661 -0.6676  1.5451  2.3753
 1808SOL    HW217058   1.100   1.901   4.794  0.1780 -2.4200  0.9561
 1809SOL     OW17059   3.869   4.472   4.514  0.1944 -0.1087  0.2790
 1809SOL    HW117060   3.860   4.394   4.458  2.2233 -0.5023  0.5260
 1809SOL    HW217061   3.963   4.475   4.527  0.6116  1.8661 -3.2427
 1810SOL     OW17062   2.082   2.634  11.606  0.4284 -0.4368 -0.2000
 1810SOL    HW117063   2.109   2.576  11.534 -1.1478  0.1397 -1.2634
 1810SOL    HW217064   2.162   2.684  11.624  0.0655 -0.9206  2.7541
 1811SOL     OW17065   0.194   2.623   7.732 -0.1298  0.8466  0.2167
 1811SOL    HW117066   0.249   2.701   7.726  0.9001  0.1984  1.1629
 1811SOL    HW217067   0.162   2.599   7.646 -0.9212 -1.2231  1.0758
 1812SOL     OW17068   0.598   0.498  14.985 -0.0342 -0.1825 -0.0958
 1812SOL    HW117069   0.513   0.455  14.982 -0.4909  0.7963 -1.1746
 1812SOL    HW217070   0.643   0.455  14.912 -1.6054  0.2211 -1.3004
 1813SOL     OW17071   2.752   3.016  15.249 -0.6982  0.1518 -0.7423
 1813SOL    HW117072   2.733   3.108  15.230  0.6140  1.0606  2.3849
 1813SOL    HW217073   2.816   2.992  15.182 -0.0967  0.4224 -0.2615
 1814SOL     OW17074   0.023   2.795   1.590 -0.4858  0.2165 -0.3715
 1814SOL    HW117075   4.704   2.787   1.514 -1.0708 -3.2755  0.4250
 1814SOL    HW217076   0.089   2.860   1.566 -1.2798  0.3519 -2.1610
 1815SOL     OW17077   2.182   3.465  11.031 -0.3156 -0.1709 -0.5820
 1815SOL    HW117078   2.186   3.372  11.054 -0.3094  0.1851  0.8717
 1815SOL    HW217079   2.196   3.501  11.119  2.2103 -1.2853 -0.5475
 1816SOL     OW17080   0.950   2.534  12.878  0.4206 -0.7276  0.2934
 1816SOL    HW117081   1.000   2.571  12.805 -0.3124  0.2519  0.2732
 1816SOL    HW217082   0.921   2.605  12.936 -0.7556 -1.0890  0.1533
 1817SOL     OW17083   4.055   1.523  12.195 -0.0707 -0.7936  0.2727
 1817SOL    HW117084   4.025   1.585  12.261  1.0519 -0.1891  0.2081
 1817SOL    HW217085   4.019   1.444  12.236 -0.1788 -0.8247  0.1193
 1818SOL     OW17086   2.875   0.415  10.478  0.3266  0.0951  0.2868
 1818SOL    HW117087   2.967   0.411  10.452 -0.5139 -0.3348 -2.6283
 1818SOL    HW217088   2.856   0.509  10.484  1.1571  0.1448  2.3026
 1819SOL     OW17089   4.283   0.493   8.500 -0.3817 -0.1392 -0.3404
 1819SOL    HW117090   4.213   0.466   8.440 -0.5553 -0.1119 -0.1469
 1819SOL    HW217091   4.350   0.432   8.469 -1.9804 -2.5897  1.0041
 1820SOL     OW17092   3.056   1.242   8.728  0.1144  0.2136  0.0072
 1820SOL    HW117093   3.005   1.194   8.792  2.5650 -0.6805  1.3178
 1820SOL    HW217094   3.140   1.196   8.738  0.5427  1.2037  0.9276
 1821SOL     OW17095   2.880   3.618   7.131  0.2660  0.0818  0.3800
 1821SOL    HW117096   2.950   3.613   7.196  2.1429 -0.7279 -1.7150
 1821SOL    HW217097   2.923   3.674   7.066  2.0320 -0.4651  1.0713
 1822SOL     OW17098   1.783   4.536   5.046 -0.1008 -0.2534  0.1597
 1822SOL    HW117099   1.836   4.589   4.987  0.2693  0.1756  0.8797
 1822SOL    HW217100   1.843   4.469   5.079 -0.6562 -0.1659  1.3720
 1823SOL     OW17101   2.639   0.415   7.623 -0.7723  0.0305  0.1859
 1823SOL    HW117102   2.650   0.324   7.596  0.1591  0.0309  0.5605
 1823SOL    HW217103   2.565   0.442   7.570 -0.4885 -0.6851 -0.5758
 1824SOL     OW17104   1.565   3.510   6.401  0.1809  0.4873 -0.2177
 1824SOL    HW117105   1.570   3.416   6.384 -0.5260  0.5688 -0.8577
 1824SOL    HW217106   1.638   3.541   6.348 -0.8721  0.0426 -1.9170
 1825SOL     OW17107   0.721   2.617   5.055 -0.4245 -0.1531 -0.2056
 1825SOL    HW117108   0.662   2.666   5.112 -1.9719 -1.1979 -0.9077
 1825SOL    HW217109   0.653   2.577   5.001  1.4267  0.3422 -2.8655
 1826SOL     OW17110   2.244   3.835   0.826 -0.3359  0.1006 -0.1158
 1826SOL    HW117111   2.189   3.876   0.893  1.5846  0.3867  1.2697
 1826SOL    HW217112   2.235   3.742   0.849 -0.2489 -0.0527 -0.7078
 1827SOL     OW17113   1.506   0.448   5.535  0.0177  0.7456  0.2933
 1827SOL    HW117114   1.576   0.457   5.600 -0.8050  0.0804  1.2936
 1827SOL    HW217115   1.559   0.414   5.463 -0.2038 -1.3415  1.0950
 1828SOL     OW17116   2.098   3.691   5.279  0.6757 -0.1732  0.4794
 1828SOL    HW117117   2.186   3.677   5.246  0.5485 -0.4410  0.2541
 1828SOL    HW217118   2.084   3.601   5.310 -1.5746 -0.1896 -0.5690
 1829SOL     OW17119   4.705   4.354  12.567  0.5335  0.1097 -0.1088
 1829SOL    HW117120   0.004   4.346  12.479  2.3605  1.1533  0.5995
 1829SOL    HW217121   4.626   4.405  12.550 -0.4306 -1.9637 -1.9840
 1830SOL     OW17122   4.232   2.586   2.919 -0.5262  0.4614  0.0620
 1830SOL    HW117123   4.299   2.535   2.874 -1.8548 -1.5421  0.3504
 1830SOL    HW217124   4.248   2.668   2.872 -0.2300 -0.4539 -1.4574
 1831SOL     OW17125   1.492   3.293  11.266 -0.0539 -0.0702 -0.0784
 1831SOL    HW117126   1.551   3.259  11.333 -0.5587  1.0584  0.9465
 1831SOL    HW217127   1.546   3.318  11.191 -3.5071 -2.1118 -3.2442
 1832SOL     OW17128   0.699   2.175   6.658  0.2053 -0.7322  0.1957
 1832SOL    HW117129   0.666   2.262   6.635 -0.2792 -1.2168 -0.9100
 1832SOL    HW217130   0.746   2.143   6.581 -0.6400  0.2461 -0.7309
 1833SOL     OW17131   3.301   3.432   6.691 -0.1792  0.5283  0.6619
 1833SOL    HW117132   3.248   3.413   6.769 -1.7684  0.3162 -0.4689
 1833SOL    HW217133   3.392   3.425   6.719  0.1786  1.0715 -0.3673
 1834SOL     OW17134   0.660   0.815   3.008 -0.0375  0.0678  0.4395
 1834SOL    HW117135   0.572   0.833   3.042 -0.7789 -1.1959 -0.7982
 1834SOL    HW217136   0.628   0.752   2.943  2.0873 -0.8730  0.3036
 1835SOL     OW17137   2.486   4.259   2.902 -0.5532 -0.6896  0.3160
 1835SOL    HW117138   2.437   4.332   2.865 -0.0262 -1.8308 -2.5825
 1835SOL    HW217139   2.449   4.274   2.990  0.7039 -0.5504  0.8184
 1836SOL     OW17140   3.874   2.617  17.706 -0.5926  0.3088 -0.1555
 1836SOL    HW117141   3.779   2.622  17.708 -0.8446 -3.6515 -1.5386
 1836SOL    HW217142   3.894   2.703  17.668  0.7143  0.2249  0.3348
 1837SOL     OW17143   4.306   3.159   7.263 -0.0966  0.1227 -0.3004
 1837SOL    HW117144   4.269   3.244   7.240  0.6378  0.6874  0.5937
 1837SOL    HW217145   4.230   3.109   7.294 -1.2427  2.1356  0.1564
 1838SOL     OW17146   1.292   3.287   2.080  1.0819  0.4726  0.5702
 1838SOL    HW117147   1.358   3.301   2.013 -1.4207  0.6074 -1.8695
 1838SOL    HW217148   1.241   3.211   2.051  1.8493  0.4404 -0.6580
 1839SOL     OW17149   0.301   3.122   4.423 -0.5971 -0.0825  0.3624
 1839SOL    HW117150   0.328   3.032   4.442  0.2993  0.3575  1.2008
 1839SOL    HW217151   0.371   3.144   4.362 -1.5783  0.5146 -0.5380
 1840SOL     OW17152   3.108   0.837   7.656  0.2203  0.5378  0.4990
 1840SOL    HW117153   3.172   0.868   7.720 -0.7381 -1.3986  2.3941
 1840SOL    HW217154   3.151   0.758   7.623  0.5175  1.5633 -1.5446
 1841SOL     OW17155   2.886   3.466  14.717  0.1672 -0.1864 -0.3947
 1841SOL    HW117156   2.872   3.511  14.634  0.0684  0.8918  0.1970
 1841SOL    HW217157   2.894   3.543  14.775  0.4652 -1.0368  0.6944
 1842SOL     OW17158   4.654   0.735  11.561 -0.0088 -1.1250  0.1924
 1842SOL    HW117159   4.664   0.828  11.538 -3.5972 -0.4339  1.4099
 1842SOL    HW217160   0.004   0.700  11.558  0.3159 -0.0521 -3.2109
 1843SOL     OW17161   3.107   2.636   5.894  0.2077 -0.3164 -0.4036
 1843SOL    HW117162   3.018   2.668   5.903  1.4382  2.6687  1.3078
 1843SOL    HW217163   3.094   2.549   5.933 -2.0697 -0.6933 -2.0321
 1844SOL     OW17164   4.193   3.672   5.743 -0.3467  0.6612  0.1357
 1844SOL    HW117165   4.260   3.633   5.798  0.8692  0.8138 -1.2521
 1844SOL    HW217166   4.195   3.768   5.751  3.0412  0.6081 -0.3117
 1845SOL     OW17167   1.614   0.728  11.856 -0.4001 -0.1197 -0.3561
 1845SOL    HW117168   1.578   0.721  11.945  1.4810 -0.7991  0.3585
 1845SOL    HW217169   1.543   0.767  11.806  1.6594 -0.6360 -3.7138
 1846SOL     OW17170   1.874   3.407   1.988  0.2314  0.6125  0.2933
 1846SOL    HW117171   1.858   3.490   2.033 -1.6534  0.2908  0.2330
 1846SOL    HW217172   1.942   3.430   1.926 -0.5854 -0.3549 -0.9674
 1847SOL     OW17173   0.700   2.727   8.910 -0.2768 -0.2702 -0.5511
 1847SOL    HW117174   0.694   2.823   8.905  1.1546 -0.0945  1.0274
 1847SOL    HW217175   0.764   2.705   8.842  0.4653  0.2179 -0.0183
 1848SOL     OW17176   0.010   4.364   3.307  0.1576  0.4882  0.5240
 1848SOL    HW117177   0.024   4.391   3.217  1.8735 -2.4009 -0.0563
 1848SOL    HW217178   0.097   4.358   3.346  0.8128 -1.9099 -1.3099
 1849SOL     OW17179   0.228   1.814   5.032  0.6183  0.9227 -0.4723
 1849SOL    HW117180   0.245   1.812   4.937  0.5673 -1.0061 -0.4458
 1849SOL    HW217181   0.133   1.813   5.041  0.6977  1.6621  0.4141
 1850SOL     OW17182   1.885   4.477   8.604 -0.0480 -0.4164 -0.0888
 1850SOL    HW117183   1.962   4.431   8.637  0.2757 -0.3162 -0.6955
 1850SOL    HW217184   1.888   4.465   8.509  0.2140 -1.1857  0.0157
 1851SOL     OW17185   3.900   1.276   4.034 -0.8431 -0.2948  0.2048
 1851SOL    HW117186   3.983   1.324   4.023  0.0076 -2.1272 -1.3441
 1851SOL    HW217187   3.836   1.345   4.016 -2.6502 -1.8471  0.7609
 1852SOL     OW17188   2.041   1.596   5.292  0.2668  0.4245 -0.2189
 1852SOL    HW117189   2.025   1.598   5.197  1.6210 -0.0561 -0.4597
 1852SOL    HW217190   2.119   1.651   5.302 -0.8202  1.4945  2.2837
 1853SOL     OW17191   2.577   2.582   2.232  0.4504  0.5917  0.0639
 1853SOL    HW117192   2.551   2.641   2.160 -3.2882 -0.9158  0.1954
 1853SOL    HW217193   2.605   2.506   2.182  1.0280  0.5880  0.3826
 1854SOL     OW17194   3.030   3.124   7.262 -0.7308  0.3585  0.0239
 1854SOL    HW117195   3.083   3.056   7.305 -0.1223 -1.0785 -2.9716
 1854SOL    HW217196   2.959   3.068   7.232  0.2458 -0.0230 -1.5613
 1855SOL     OW17197   1.478   0.792  10.692  0.4657 -0.3083  0.0347
 1855SOL    HW117198   1.483   0.704  10.729  2.3415 -0.7836 -1.3395
 1855SOL    HW217199   1.423   0.770  10.617  1.3755 -1.0044 -0.4236
 1856SOL     OW17200   0.228   1.492  15.539  0.6229 -0.2570  0.3358
 1856SOL    HW117201   0.260   1.417  15.590 -0.3953 -1.6527 -1.0751
 1856SOL    HW217202   0.133   1.480  15.544  0.1930  2.8984 -0.1303
 1857SOL     OW17203   0.820   1.833   4.359 -0.1272 -0.3104 -0.2265
 1857SOL    HW117204   0.915   1.846   4.361 -0.0799 -0.8868  1.5204
 1857SOL    HW217205   0.805   1.750   4.314  2.7101 -2.3746  2.5907
 1858SOL     OW17206   4.259   2.105   0.923  0.1041  0.4478  0.0684
 1858SOL    HW117207   4.265   2.011   0.904 -0.2818  0.3692  0.3531
 1858SOL    HW217208   4.268   2.109   1.018 -1.3604  0.7777  0.1943
 1859SOL     OW17209   0.627   1.470  13.121  0.1077 -0.2045  0.2766
 1859SOL    HW117210   0.665   1.555  13.143 -0.8407 -0.3623  2.5209
 1859SOL    HW217211   0.708   1.424  13.099  0.5973  1.6369 -1.7602
 1860SOL     OW17212   0.535   1.776   4.825  0.3570  0.4512  0.2963
 1860SOL    HW117213   0.610   1.835   4.836 -1.5236  2.6200  1.4505
 1860SOL    HW217214   0.532   1.739   4.913  1.9282 -0.9429 -0.2304
 1861SOL     OW17215   2.002   1.254   7.517  0.1301 -0.3697 -0.3136
 1861SOL    HW117216   2.002   1.270   7.611 -0.3229 -1.4920 -0.1178
 1861SOL    HW217217   2.097   1.259   7.503  0.1366  0.5398  0.0262
 1862SOL     OW17218   1.439   2.470  15.417 -0.0608  0.0956 -0.0896
 1862SOL    HW117219   1.440   2.481  15.512  1.7722  2.7111 -0.4182
 1862SOL    HW217220   1.457   2.560  15.392  0.4789 -0.7215 -2.6767
 1863SOL     OW17221   3.125   1.465   5.655 -0.4909 -0.4306 -0.2437
 1863SOL    HW117222   3.168   1.520   5.590 -0.9393  0.2911  0.0776
 1863SOL    HW217223   3.039   1.464   5.613 -0.7691 -1.4725  0.3442
 1864SOL     OW17224   4.101   2.118   8.529 -0.2981 -0.1480  0.0762
 1864SOL    HW117225   4.053   2.120   8.612 -3.0453 -0.3022 -1.5203
 1864SOL    HW217226   4.027   2.103   8.471  0.1535  1.6023 -0.9713
 1865SOL     OW17227   3.416   0.222  11.563 -0.3892 -0.1549 -0.0433
 1865SOL    HW117228   3.395   0.218  11.656 -1.2071  0.6842 -0.1910
 1865SOL    HW217229   3.426   0.129  11.542 -0.4416 -0.7712  2.6385
 1866SOL     OW17230   2.595   3.605   7.120  0.5430  0.6139  0.5932
 1866SOL    HW117231   2.690   3.619   7.129  0.3787  1.7890  0.5823
 1866SOL    HW217232   2.578   3.636   7.209  4.2494  1.3047  1.0967
 1867SOL     OW17233   3.126   0.485  11.946 -0.1187  0.6799 -0.1974
 1867SOL    HW117234   3.050   0.540  11.965 -2.5509 -2.4133 -0.9501
 1867SOL    HW217235   3.169   0.543  11.883  1.6245 -0.3837  0.0078
 1868SOL     OW17236   1.235   3.685   9.409  0.5841 -0.7271 -0.1141
 1868SOL    HW117237   1.224   3.652   9.319 -1.6429  2.5412 -1.0323
 1868SOL    HW217238   1.162   3.747   9.416  0.3656 -0.6744 -2.7943
 1869SOL     OW17239   1.934   3.711  14.962  0.1184 -0.0048 -0.1960
 1869SOL    HW117240   1.846   3.701  14.927 -0.1185 -0.8242  0.6335
 1869SOL    HW217241   1.984   3.708  14.881 -0.6098  0.8296 -0.6690
 1870SOL     OW17242   2.323   3.824   3.363  0.4462 -0.0738  0.5926
 1870SOL    HW117243   2.372   3.892   3.315  0.4879 -0.7469 -0.3197
 1870SOL    HW217244   2.233   3.851   3.347  0.5962 -0.2503 -0.5812
 1871SOL     OW17245   3.023   0.864   7.990  0.2862 -0.0667 -0.0173
 1871SOL    HW117246   3.062   0.952   7.991  1.0403 -0.3828 -1.3808
 1871SOL    HW217247   3.047   0.815   8.069  1.2498  1.3180  0.5668
 1872SOL     OW17248   2.809   4.385   4.188  0.3135  0.0783  0.0683
 1872SOL    HW117249   2.797   4.316   4.254 -3.2472  2.1542  1.5554
 1872SOL    HW217250   2.903   4.403   4.196 -0.0342  1.4170  1.0912
 1873SOL     OW17251   2.902   0.186   5.509  0.1593  0.0539 -0.4245
 1873SOL    HW117252   2.831   0.186   5.574  2.4343 -2.3442  2.1095
 1873SOL    HW217253   2.978   0.186   5.567  0.6894 -0.5055 -1.1127
 1874SOL     OW17254   1.907   3.485  11.838 -0.4111  0.3840  0.1835
 1874SOL    HW117255   1.816   3.487  11.869 -0.1624  2.5896  0.7848
 1874SOL    HW217256   1.906   3.542  11.762  0.6319 -0.6223 -0.5951
 1875SOL     OW17257   2.947   0.011  16.731 -0.5994  0.0949  0.2081
 1875SOL    HW117258   2.854   0.021  16.713  0.2856  1.1302 -3.7679
 1875SOL    HW217259   2.930   4.738  16.825 -0.7961  0.6269  0.2406
 1876SOL     OW17260   1.615   1.642   2.223 -0.8804  0.2073  0.0909
 1876SOL    HW117261   1.696   1.596   2.246 -0.7040 -0.1461 -1.2373
 1876SOL    HW217262   1.604   1.719   2.280 -0.0767  0.7215 -0.4432
 1877SOL     OW17263   4.092   4.673   5.523 -0.8561  0.0398 -0.6359
 1877SOL    HW117264   4.165   4.734   5.508 -1.3304  0.8832  0.5030
 1877SOL    HW217265   4.127   4.599   5.573 -0.9398  0.4848  0.0735
 1878SOL     OW17266   1.620   4.544  13.951  0.0004  0.6445 -0.0296
 1878SOL    HW117267   1.563   4.483  13.998  1.5179  0.0923  1.1118
 1878SOL    HW217268   1.656   4.485  13.885  2.1410  0.6570  1.1164
 1879SOL     OW17269   3.091   0.166   3.857  1.0371  0.1331  0.7101
 1879SOL    HW117270   3.090   0.070   3.848 -0.2982  0.5005 -3.3530
 1879SOL    HW217271   3.084   0.198   3.767  3.1621  0.7694  0.7637
 1880SOL     OW17272   0.770   3.659   2.678 -0.0242 -0.1124  0.8854
 1880SOL    HW117273   0.789   3.692   2.590  1.8006  0.4474  1.4843
 1880SOL    HW217274   0.849   3.681   2.728 -0.8766 -0.7755  2.5198
 1881SOL     OW17275   0.822   3.792   7.674 -0.0201 -0.1131  0.7224
 1881SOL    HW117276   0.789   3.769   7.761  1.1777 -0.9601  0.9602
 1881SOL    HW217277   0.888   3.858   7.695 -0.9787  0.7728  0.9513
 1882SOL     OW17278   3.084   1.619   9.434  0.0361  0.0352  0.0132
 1882SOL    HW117279   3.160   1.676   9.447  0.9577 -1.0626 -0.6452
 1882SOL    HW217280   3.107   1.592   9.345  0.9307 -0.1031  0.2799
 1883SOL     OW17281   3.466   1.872  17.221  0.4987 -0.0938 -1.0140
 1883SOL    HW117282   3.554   1.908  17.228  0.8273 -1.4888  2.0532
 1883SOL    HW217283   3.454   1.854  17.128  0.4562 -0.4424 -0.9387
 1884SOL     OW17284   3.560   4.270   3.721  0.2828  0.5646 -0.4600
 1884SOL    HW117285   3.580   4.233   3.635  1.1399  1.1483 -0.5095
 1884SOL    HW217286   3.563   4.189   3.771 -2.1406  1.4259  1.0817
 1885SOL     OW17287   0.788   2.899   7.053  0.0424  0.0567 -0.2275
 1885SOL    HW117288   0.796   2.881   6.959 -0.2737  0.3159 -0.3040
 1885SOL    HW217289   0.876   2.901   7.088 -0.0503 -1.8124  0.0982
 1886SOL     OW17290   2.692   0.002  13.083 -0.1464 -0.7433  0.7217
 1886SOL    HW117291   2.751   0.027  13.154 -2.1706 -2.1591  2.8981
 1886SOL    HW217292   2.701   0.082  13.032  1.5223 -1.3288  0.1137
 1887SOL     OW17293   2.492   4.002   6.286 -0.3743 -0.3717 -0.2798
 1887SOL    HW117294   2.519   4.022   6.375 -1.8797  3.2808 -0.6538
 1887SOL    HW217295   2.417   3.945   6.306 -0.0008 -0.7301  0.0758
 1888SOL     OW17296   3.260   2.201   5.485  0.3108  0.4460  0.0128
 1888SOL    HW117297   3.229   2.166   5.568  1.9610 -0.5397  0.1971
 1888SOL    HW217298   3.247   2.123   5.432  1.1433  0.0674  0.3698
 1889SOL     OW17299   0.210   2.631   1.253 -0.0886  0.1264  0.0756
 1889SOL    HW117300   0.276   2.680   1.302  0.0303 -1.0768  1.0991
 1889SOL    HW217301   0.198   2.559   1.315 -0.4564  0.5190  0.4635
 1890SOL     OW17302   4.472   0.608   9.792 -0.4163 -0.6926 -0.1105
 1890SOL    HW117303   4.546   0.559   9.830 -0.3490 -1.2409 -0.9623
 1890SOL    HW217304   4.500   0.700   9.792 -0.8000 -0.5756 -1.6810
 1891SOL     OW17305   4.710   3.236  12.947 -0.2545  0.6572  0.3970
 1891SOL    HW117306   0.024   3.273  12.876 -1.4308 -1.4171 -1.5746
 1891SOL    HW217307   4.700   3.148  12.912  1.5112 -0.4292  2.5917
 1892SOL     OW17308   2.902   0.668   7.829 -0.4712  0.0855 -0.1105
 1892SOL    HW117309   2.941   0.702   7.749  0.6595 -0.1087  0.3514
 1892SOL    HW217310   2.942   0.728   7.892 -2.4879  0.0601  1.1766
 1893SOL     OW17311   1.348   0.846  15.844 -0.4566 -0.1657 -0.2017
 1893SOL    HW117312   1.328   0.872  15.934  1.6639  0.7557  0.0061
 1893SOL    HW217313   1.429   0.893  15.820 -1.9789  2.3928 -0.3263
 1894SOL     OW17314   0.147   0.826   9.909 -0.6949 -0.5638  0.3456
 1894SOL    HW117315   0.070   0.773   9.889 -1.4278 -0.1035  1.9739
 1894SOL    HW217316   0.194   0.801   9.829 -1.4481  3.8348 -1.4701
 1895SOL     OW17317   0.802   2.525  14.264 -0.4383 -0.2305 -0.5058
 1895SOL    HW117318   0.765   2.436  14.269  0.5599 -0.5228  2.0747
 1895SOL    HW217319   0.729   2.570  14.223  0.8736  0.3285 -2.1987
 1896SOL     OW17320   4.031   2.349   7.331  0.3197  0.0289  0.0312
 1896SOL    HW117321   3.950   2.303   7.353  0.9427  0.3201  3.0048
 1896SOL    HW217322   4.032   2.363   7.237  0.9483 -0.7593 -0.0809
 1897SOL     OW17323   4.227   3.343  11.786  0.3805  0.1710 -0.0385
 1897SOL    HW117324   4.298   3.404  11.803  0.1523  0.2963  0.4626
 1897SOL    HW217325   4.273   3.259  11.780  0.6939  0.4471 -1.5867
 1898SOL     OW17326   0.931   1.323   5.635  0.0870 -0.2832  0.4512
 1898SOL    HW117327   0.951   1.340   5.543 -0.1146  1.0076  0.6439
 1898SOL    HW217328   1.010   1.343   5.686  0.0259 -1.7749  1.1447
 1899SOL     OW17329   1.907   1.691  10.370  0.1272 -0.1286 -0.0282
 1899SOL    HW117330   1.987   1.741  10.388  0.2443  0.6657 -2.7068
 1899SOL    HW217331   1.849   1.753  10.325  0.2530 -1.0739 -1.4599
 1900SOL     OW17332   0.286   3.139   4.710 -0.1749 -0.2599  0.4090
 1900SOL    HW117333   0.314   3.048   4.712  0.9086  0.0696  0.3722
 1900SOL    HW217334   0.296   3.159   4.617 -0.6692 -0.7703  0.2443
 1901SOL     OW17335   0.404   2.755   1.795  0.2998  0.1159 -0.3825
 1901SOL    HW117336   0.405   2.690   1.865 -0.1024  2.0309  1.3922
 1901SOL    HW217337   0.390   2.835   1.845  1.3633 -1.0306  1.7215
 1902SOL     OW17338   0.274   4.070   4.476  0.1445 -0.4608  0.2512
 1902SOL    HW117339   0.284   4.095   4.567  1.1792 -0.7164  0.2101
 1902SOL    HW217340   0.185   4.038   4.493 -1.3816  3.4222 -0.6196
 1903SOL     OW17341   1.284   1.983   5.305 -0.4942 -0.2471 -0.2150
 1903SOL    HW117342   1.272   2.046   5.234 -3.4247 -0.7811 -0.1566
 1903SOL    HW217343   1.341   1.920   5.261 -0.3578 -1.0556  1.1386
 1904SOL     OW17344   3.920   2.917   4.916 -0.1383 -0.0226  0.4889
 1904SOL    HW117345   3.872   2.869   4.984 -0.8032  0.5112  0.3884
 1904SOL    HW217346   3.886   3.005   4.934 -1.4168 -0.3888 -0.1530
 1905SOL     OW17347   2.690   1.591   5.405 -0.3403 -0.1009  0.2337
 1905SOL    HW117348   2.665   1.639   5.326 -1.2202 -0.7678  0.1121
 1905SOL    HW217349   2.613   1.608   5.459  0.8924  0.0135  1.9743
 1906SOL     OW17350   1.547   1.734   5.902  0.5377  0.1673 -0.2854
 1906SOL    HW117351   1.546   1.660   5.962  0.0719 -1.0052 -1.7417
 1906SOL    HW217352   1.531   1.697   5.816  2.2071  1.1729 -1.0459
 1907SOL     OW17353   4.073   0.738   5.083  0.1214  0.2414 -0.2225
 1907SOL    HW117354   4.160   0.738   5.124 -0.9283  1.5429  2.0351
 1907SOL    HW217355   4.090   0.803   5.015 -2.1095  0.6654 -0.3604
 1908SOL     OW17356   1.831   1.118   3.067 -0.4540  0.4760  0.1963
 1908SOL    HW117357   1.877   1.065   3.132  2.2340  0.8926 -1.3349
 1908SOL    HW217358   1.782   1.175   3.126 -1.7746 -0.1269 -0.3326
 1909SOL     OW17359   2.947   0.386   7.901 -0.1761 -0.2310 -0.5891
 1909SOL    HW117360   3.004   0.394   7.824 -0.2208  0.2757 -0.5681
 1909SOL    HW217361   2.916   0.476   7.899 -1.7571 -0.7854 -0.7936
 1910SOL     OW17362   1.275   3.085   6.166  0.1952 -0.1051  0.1699
 1910SOL    HW117363   1.355   3.047   6.129 -0.3483 -2.2599  1.2176
 1910SOL    HW217364   1.292   3.068   6.259 -1.2252 -1.3437  0.2012
 1911SOL     OW17365   0.404   3.721  17.584 -0.6104 -0.6955  0.7038
 1911SOL    HW117366   0.413   3.815  17.597  0.5964 -0.4546 -1.8873
 1911SOL    HW217367   0.493   3.690  17.569 -0.1132  0.6595  0.8705
 1912SOL     OW17368   0.775   3.895   4.586  0.6231 -0.6419  0.3035
 1912SOL    HW117369   0.857   3.874   4.542  0.4980  3.9214 -2.1027
 1912SOL    HW217370   0.797   3.981   4.623 -1.3062  0.0092 -0.0695
 1913SOL     OW17371   0.633   1.880   2.663  0.3609 -0.1407 -0.0513
 1913SOL    HW117372   0.685   1.814   2.709  1.2258  1.6125  1.5050
 1913SOL    HW217373   0.570   1.902   2.731 -1.1003  0.2883 -1.5288
 1914SOL     OW17374   3.199   0.334   3.631 -0.4466  0.6077 -0.0770
 1914SOL    HW117375   3.165   0.389   3.701  1.7114 -0.4884  1.8448
 1914SOL    HW217376   3.285   0.309   3.665  0.1781  1.5988 -0.9117
 1915SOL     OW17377   4.642   4.358   7.153  0.4054 -0.0430 -0.4346
 1915SOL    HW117378   4.648   4.324   7.064  0.3880  1.4402 -0.9984
 1915SOL    HW217379   4.695   4.435   7.130  2.3055 -1.1410  0.2849
 1916SOL     OW17380   3.716   2.980   3.148  0.0929  0.0609 -0.1512
 1916SOL    HW117381   3.669   2.945   3.224  0.8698 -1.3796 -0.3327
 1916SOL    HW217382   3.805   2.951   3.167  0.4983  1.6584  0.3478
 1917SOL     OW17383   1.199   3.242   7.022  0.2310  0.7959 -0.8698
 1917SOL    HW117384   1.277   3.230   6.968  0.2916 -3.0613  0.0319
 1917SOL    HW217385   1.129   3.199   6.973  0.8707 -0.0005 -1.0787
 1918SOL     OW17386   3.119   3.839   8.712  0.3791  0.0431 -0.2638
 1918SOL    HW117387   3.136   3.930   8.687 -0.2317  0.1137 -0.4211
 1918SOL    HW217388   3.037   3.820   8.666  0.7406 -2.6454  0.2103
 1919SOL     OW17389   3.376   2.879   9.535  0.2918 -0.0335 -0.2319
 1919SOL    HW117390   3.330   2.914   9.459  0.9427  3.0650  0.8078
 1919SOL    HW217391   3.461   2.918   9.517 -0.0580  1.3441  1.1245
 1920SOL     OW17392   1.912   3.167   2.117 -0.3283  0.6523 -0.4054
 1920SOL    HW117393   1.996   3.204   2.142  0.0834 -1.0734  0.8086
 1920SOL    HW217394   1.882   3.222   2.045 -2.2673  0.5601  0.3288
 1921SOL     OW17395   1.695   1.950   8.265 -0.1708  0.4961 -0.9962
 1921SOL    HW117396   1.747   1.894   8.207 -0.6020 -1.2746  0.3107
 1921SOL    HW217397   1.606   1.943   8.231 -1.2749 -1.5850  2.3181
 1922SOL     OW17398   0.774   1.941   4.784 -0.2900  0.4025  0.4505
 1922SOL    HW117399   0.808   1.943   4.695  1.7125 -1.3345  1.1970
 1922SOL    HW217400   0.759   2.034   4.803  1.3129  0.7048  0.1599
 1923SOL     OW17401   0.346   4.031   3.526 -0.1943  0.6059  0.5323
 1923SOL    HW117402   0.392   3.971   3.586  0.7404 -1.8015 -2.5525
 1923SOL    HW217403   0.261   3.990   3.543  0.3220  0.2010  2.1870
 1924SOL     OW17404   4.139   3.750   4.664  0.0896  0.4198 -0.4182
 1924SOL    HW117405   4.166   3.724   4.752 -4.0497 -0.7157  0.4907
 1924SOL    HW217406   4.220   3.732   4.615  0.4283  1.1370 -0.1354
 1925SOL     OW17407   1.004   2.140   0.057 -0.3593 -0.0707 -0.4501
 1925SOL    HW117408   0.998   2.217   0.113 -1.3934 -1.2973  1.1251
 1925SOL    HW217409   0.921   2.103   0.088  0.4928 -0.1947  1.7097
 1926SOL     OW17410   2.143   3.537   5.721 -0.3903  0.2028  0.1727
 1926SOL    HW117411   2.086   3.495   5.785  0.9207 -1.6192  0.1499
 1926SOL    HW217412   2.227   3.491   5.722  0.1055  1.0205 -1.9142
 1927SOL     OW17413   3.366   0.589   2.613 -0.1702  0.3479 -1.0139
 1927SOL    HW117414   3.349   0.637   2.532 -0.8745 -2.0380 -2.2844
 1927SOL    HW217415   3.430   0.523   2.586  2.1424  2.3988 -0.4292
 1928SOL     OW17416   0.864   1.635   7.743  0.4534  0.2493  0.2936
 1928SOL    HW117417   0.915   1.705   7.784  0.2228  2.8589 -3.8157
 1928SOL    HW217418   0.784   1.655   7.792  0.0140 -0.1295 -0.2632
 1929SOL     OW17419   0.930   4.035   2.942 -0.2257 -0.1111  0.3108
 1929SOL    HW117420   0.919   3.966   3.008  0.1075  1.1287  1.6645
 1929SOL    HW217421   0.913   3.993   2.858  2.7221 -0.6106 -0.0059
 1930SOL     OW17422   0.624   2.743   3.559  0.2676 -0.3260  0.2742
 1930SOL    HW117423   0.637   2.838   3.556  1.3760 -0.5054 -0.5484
 1930SOL    HW217424   0.681   2.714   3.487 -0.4212  0.1309 -0.4648
 1931SOL     OW17425   0.189   1.988   1.604 -0.6259  1.0998  0.9480
 1931SOL    HW117426   0.128   2.016   1.537  0.3850 -0.0751 -0.4597
 1931SOL    HW217427   0.267   1.999   1.550 -0.8142 -1.2443  0.1811
 1932SOL     OW17428   3.895   4.364   2.075  0.4034 -0.2897  0.2700
 1932SOL    HW117429   3.961   4.385   2.141  1.4060 -0.9960 -0.5186
 1932SOL    HW217430   3.823   4.378   2.137  1.0401  0.1243  0.9167
 1933SOL     OW17431   1.763   4.506   7.735 -0.0202  0.3098 -0.2680
 1933SOL    HW117432   1.697   4.571   7.708  1.0646  1.1341 -0.9158
 1933SOL    HW217433   1.771   4.542   7.824  0.9787  1.1055 -0.6862
 1934SOL     OW17434   2.171   2.443  11.222  0.2029  0.1323  0.2942
 1934SOL    HW117435   2.078   2.445  11.244  0.0629 -1.6275 -0.1559
 1934SOL    HW217436   2.196   2.533  11.242  0.0826  1.0248 -3.6825
 1935SOL     OW17437   0.289   2.380  15.480 -0.2043  0.4630  0.8180
 1935SOL    HW117438   0.327   2.447  15.423 -0.6841  1.1065  1.2607
 1935SOL    HW217439   0.215   2.360  15.422  0.0915  0.6821  0.3664
 1936SOL     OW17440   2.729   1.537  13.830 -0.4389  0.7742 -1.1203
 1936SOL    HW117441   2.656   1.529  13.769 -0.3854 -0.0188 -1.0710
 1936SOL    HW217442   2.794   1.507  13.767 -0.9494 -1.9461 -0.3440
 1937SOL     OW17443   1.378   4.443   7.714 -0.2041  0.1097  0.0792
 1937SOL    HW117444   1.429   4.463   7.636 -0.4858  1.1875  0.1704
 1937SOL    HW217445   1.447   4.406   7.769  2.0708 -0.1238 -2.9353
 1938SOL     OW17446   0.816   0.299   5.002  0.1014  0.0721  0.2310
 1938SOL    HW117447   0.749   0.365   4.989  0.7463  0.5531 -0.6723
 1938SOL    HW217448   0.865   0.332   5.078  0.2797 -0.6055  0.4090
 1939SOL     OW17449   0.164   2.485   8.145 -0.6269  0.5956  0.0770
 1939SOL    HW117450   0.115   2.552   8.096 -1.3624  0.2384  0.3329
 1939SOL    HW217451   0.116   2.498   8.226 -0.2142 -0.9551  0.5658
 1940SOL     OW17452   3.779   0.027   8.789  0.3005 -0.4235 -0.3295
 1940SOL    HW117453   3.838   4.712   8.841 -0.9062 -1.0915  0.3465
 1940SOL    HW217454   3.695   0.005   8.830 -0.3391  2.8163  0.0479
 1941SOL     OW17455   3.964   3.052   7.743 -0.0854  0.1666  0.0510
 1941SOL    HW117456   3.896   2.988   7.764 -0.5948 -0.0791 -2.3728
 1941SOL    HW217457   4.022   3.008   7.681  0.1190 -0.3835  0.6264
 1942SOL     OW17458   2.075   1.780   8.498 -0.1135  0.2967  0.9154
 1942SOL    HW117459   2.051   1.859   8.547 -1.2584  0.1005  0.6731
 1942SOL    HW217460   2.010   1.714   8.523  1.3625 -0.9744  1.3392
 1943SOL     OW17461   3.983   1.878   8.147  0.0512  0.5011  0.4117
 1943SOL    HW117462   3.927   1.925   8.085 -1.3051  1.8146  2.5922
 1943SOL    HW217463   4.036   1.952   8.179  2.5517 -0.9595 -0.4013
 1944SOL     OW17464   0.053   3.041   6.182  0.0514 -0.3786  0.3614
 1944SOL    HW117465   4.701   3.020   6.160  0.2736 -1.1226  0.1559
 1944SOL    HW217466   0.095   3.018   6.099  0.9268  0.5722  0.5401
 1945SOL     OW17467   0.718   3.908   4.248  0.6768  0.0346 -0.7852
 1945SOL    HW117468   0.744   3.985   4.298 -0.7356 -0.2017  0.2918
 1945SOL    HW217469   0.674   3.954   4.177  0.1901  0.5346 -0.1555
 1946SOL     OW17470   4.463   3.715   5.994 -0.3187  0.2984 -0.0780
 1946SOL    HW117471   4.386   3.740   6.045  0.4621  2.2552  0.1204
 1946SOL    HW217472   4.537   3.749   6.044 -0.5696  2.3313 -1.1333
 1947SOL     OW17473   1.656   3.314   3.316  0.4966 -0.2535  0.0580
 1947SOL    HW117474   1.751   3.309   3.329  0.9522  2.3720 -2.2073
 1947SOL    HW217475   1.625   3.234   3.358  0.9472 -0.3620  0.1837
 1948SOL     OW17476   2.491   2.132   2.097  0.0927 -0.2161 -0.2040
 1948SOL    HW117477   2.410   2.179   2.077  0.1530 -0.1763 -0.3602
 1948SOL    HW217478   2.474   2.054   2.044 -0.2908  0.1157 -0.5734
 1949SOL     OW17479   3.111   3.703   6.057  0.6668  0.2791  0.6433
 1949SOL    HW117480   3.145   3.786   6.089  1.4444  0.3327 -0.2991
 1949SOL    HW217481   3.089   3.656   6.137 -1.4493 -1.0708 -0.7259
 1950SOL     OW17482   2.205   4.270   9.303 -0.1799 -0.1558 -0.2515
 1950SOL    HW117483   2.237   4.226   9.382 -3.4448  1.6618  2.0620
 1950SOL    HW217484   2.176   4.355   9.334  0.7290  0.0037  0.1823
 1951SOL     OW17485   1.092   3.502   4.549  0.1231  0.4831  0.9228
 1951SOL    HW117486   1.174   3.468   4.587  0.1054  0.7401  1.1862
 1951SOL    HW217487   1.022   3.485   4.612 -1.3093 -3.5191 -1.7235
 1952SOL     OW17488   1.263   4.295   9.553  0.3272 -0.2575  0.0354
 1952SOL    HW117489   1.245   4.304   9.459 -1.0001 -4.5304 -0.1163
 1952SOL    HW217490   1.348   4.336   9.565  0.0959  0.1875  0.1705
 1953SOL     OW17491   2.036   3.614   3.442  0.0995 -0.1203  0.0193
 1953SOL    HW117492   2.119   3.567   3.432  0.5009  0.1964  1.9204
 1953SOL    HW217493   1.994   3.612   3.356  1.2900  1.4982 -0.6031
 1954SOL     OW17494   1.142   0.542   6.586 -0.1202 -1.1067 -0.3455
 1954SOL    HW117495   1.191   0.589   6.518  1.0785 -2.1510 -0.2098
 1954SOL    HW217496   1.083   0.611   6.617  0.2233 -0.5134 -0.9932
 1955SOL     OW17497   0.673   2.371   3.840  0.0221  0.0798 -0.5858
 1955SOL    HW117498   0.760   2.411   3.843  0.1604 -0.0435 -3.3397
 1955SOL    HW217499   0.623   2.423   3.904  1.0981  0.4381 -0.0226
 1956SOL     OW17500   0.757   2.551   2.106 -0.5770  0.2299  0.3516
 1956SOL    HW117501   0.731   2.465   2.141 -0.2406  1.0356  2.5587
 1956SOL    HW217502   0.765   2.595   2.190 -2.9964 -0.1574  0.7865
 1957SOL     OW17503   1.328   2.970   8.795 -0.1609  0.5346 -1.0581
 1957SOL    HW117504   1.320   2.939   8.705  2.6673  0.0636 -1.1338
 1957SOL    HW217505   1.240   2.999   8.818  0.2379 -0.1820  1.3915
 1958SOL     OW17506   0.747   0.755  15.564  0.4224  0.0404 -0.1515
 1958SOL    HW117507   0.691   0.824  15.530 -1.9668 -3.0773 -2.4964
 1958SOL    HW217508   0.784   0.796  15.642 -0.7046  0.3122  0.2329
 1959SOL     OW17509   2.887   0.952   8.689 -0.4280 -0.0568 -0.1208
 1959SOL    HW117510   2.847   0.968   8.774 -1.8194  0.9000 -0.9573
 1959SOL    HW217511   2.883   1.032   8.638 -2.0167 -0.3159 -0.3953
 1960SOL     OW17512   0.806   2.675  13.291 -0.0418  0.0529 -0.1216
 1960SOL    HW117513   0.742   2.698  13.224 -1.4555 -0.8071  0.9251
 1960SOL    HW217514   0.883   2.652  13.239  1.3002  2.3724  0.8222
 1961SOL     OW17515   2.251   0.899  17.389 -0.0100  0.1714  0.3981
 1961SOL    HW117516   2.213   0.947  17.463 -0.3287 -0.3916  0.6031
 1961SOL    HW217517   2.186   0.834  17.362  0.4747 -0.4853  0.8073
 1962SOL     OW17518   3.022   3.043  11.914  0.4247  0.1931 -0.1506
 1962SOL    HW117519   3.051   3.054  11.823  0.3426  1.5376 -0.0070
 1962SOL    HW217520   2.997   3.134  11.930  1.1066  0.3137  0.2429
 1963SOL     OW17521   2.248   3.947  10.037  0.8052 -0.0578  0.3524
 1963SOL    HW117522   2.217   3.975   9.950 -0.5321 -1.9401  0.2196
 1963SOL    HW217523   2.328   3.999  10.037  0.8911 -0.2012  2.2661
 1964SOL     OW17524   3.893   1.178  11.563 -0.4879  0.2705 -0.2933
 1964SOL    HW117525   3.925   1.267  11.555 -3.5121  1.3798 -0.1650
 1964SOL    HW217526   3.961   1.136  11.615  0.1009 -1.0278 -2.1047
 1965SOL     OW17527   0.071   3.284   3.782  0.4096  0.5585  0.0430
 1965SOL    HW117528   4.717   3.298   3.763 -0.0897 -2.6663  0.0218
 1965SOL    HW217529   0.065   3.301   3.876  0.8023  0.6566  0.0503
 1966SOL     OW17530   1.193   2.782   6.514 -0.1705  0.6261 -0.2836
 1966SOL    HW117531   1.172   2.781   6.607 -0.9539 -0.8083 -0.4833
 1966SOL    HW217532   1.109   2.784   6.469 -0.6538  1.5549  0.6605
 1967SOL     OW17533   2.410   0.317  12.308 -0.1518  0.4574 -0.1691
 1967SOL    HW117534   2.449   0.405  12.309 -0.3834  0.5357  1.7167
 1967SOL    HW217535   2.375   0.311  12.219 -1.1055  0.9490  0.1799
 1968SOL     OW17536   3.026   2.399  14.238  0.1558 -0.3598 -0.6943
 1968SOL    HW117537   3.110   2.439  14.214  0.6610 -1.1891 -0.3256
 1968SOL    HW217538   3.046   2.370  14.327  1.5303  0.6839 -0.6614
 1969SOL     OW17539   4.165   3.620   3.823  0.3720 -0.4471  0.1534
 1969SOL    HW117540   4.129   3.692   3.875  1.2307  1.0003 -1.2242
 1969SOL    HW217541   4.224   3.668   3.764 -2.3609  1.3526 -1.1146
 1970SOL     OW17542   2.063   1.420  13.019  0.0122 -0.0048  0.1411
 1970SOL    HW117543   2.114   1.346  12.988 -2.7648 -1.2983 -1.3099
 1970SOL    HW217544   1.980   1.372  13.020 -1.3231  2.2324 -2.0803
 1971SOL     OW17545   4.234   4.624  11.160  0.7799 -0.1071 -0.2790
 1971SOL    HW117546   4.213   4.537  11.195  0.0623 -1.1988 -3.3608
 1971SOL    HW217547   4.201   4.608  11.071  2.7016 -0.4232 -0.9325
 1972SOL     OW17548   3.337   1.622   5.568  0.0946 -0.2324 -0.2759
 1972SOL    HW117549   3.339   1.639   5.662  0.0019 -0.8033 -0.1711
 1972SOL    HW217550   3.418   1.666   5.543  0.3844  1.3786  3.4594
 1973SOL     OW17551   4.207   4.015   2.643  0.2347  0.9803  0.1349
 1973SOL    HW117552   4.293   3.979   2.623 -0.6923 -0.6076 -1.0072
 1973SOL    HW217553   4.149   3.953   2.599  0.8851  0.1679  0.4351
 1974SOL     OW17554   3.104   1.339  15.866 -0.3481 -0.8094  0.2690
 1974SOL    HW117555   3.125   1.364  15.956 -0.6470 -0.5542  0.2697
 1974SOL    HW217556   3.028   1.396  15.854  0.2436 -0.1194 -0.1192
 1975SOL     OW17557   3.606   0.750  12.447  0.1017 -0.0931 -0.4005
 1975SOL    HW117558   3.578   0.837  12.476 -0.0004  0.1167 -1.1100
 1975SOL    HW217559   3.612   0.707  12.532 -0.4198 -0.7094 -0.6805
 1976SOL     OW17560   4.505   4.692   2.614  0.2733  0.4246 -0.1526
 1976SOL    HW117561   4.546   4.698   2.528 -2.1706  0.6419 -1.3256
 1976SOL    HW217562   4.564   0.017   2.655  0.2345 -0.6193  1.5077
 1977SOL     OW17563   2.241   3.677  13.157  0.0153  0.6940 -0.0207
 1977SOL    HW117564   2.329   3.709  13.133 -0.1785  1.2533  0.0037
 1977SOL    HW217565   2.213   3.767  13.176 -1.5417  0.5647 -1.7037
 1978SOL     OW17566   0.261   4.437   9.700 -0.4150  0.0696 -0.2695
 1978SOL    HW117567   0.172   4.418   9.670 -0.6941 -1.1558  1.3459
 1978SOL    HW217568   0.304   4.365   9.653 -0.7604 -0.8485  0.8225
 1979SOL     OW17569   2.040   2.871   1.731  0.0087  0.4348  0.5836
 1979SOL    HW117570   2.007   2.959   1.746 -0.3374  0.5030 -0.6274
 1979SOL    HW217571   2.128   2.905   1.720 -0.4728  1.6024  0.4241
 1980SOL     OW17572   3.174   0.047  15.925 -0.2804  0.3635 -0.1348
 1980SOL    HW117573   3.105   4.730  15.962  0.9389 -1.1253 -0.0831
 1980SOL    HW217574   3.128   0.128  15.902  1.2679  1.2395 -0.1228
 1981SOL     OW17575   2.819   1.743   4.769  0.6831  0.3317  0.2288
 1981SOL    HW117576   2.875   1.725   4.845  0.9875  0.0383 -0.0641
 1981SOL    HW217577   2.763   1.666   4.774  2.8500 -1.2986 -0.2869
 1982SOL     OW17578   3.945   4.127   1.952 -0.4739 -0.3339 -0.1487
 1982SOL    HW117579   3.930   4.202   2.009  1.2947 -0.2130  0.1442
 1982SOL    HW217580   3.854   4.104   1.930 -0.8056  2.4784 -1.6663
 1983SOL     OW17581   3.033   2.183  16.445 -0.0829 -0.1657 -0.0580
 1983SOL    HW117582   3.067   2.226  16.524 -1.4795  0.9907 -0.0855
 1983SOL    HW217583   2.966   2.247  16.419 -2.0219 -1.9738  0.4821
 1984SOL     OW17584   3.344   1.134   1.857 -0.0619  0.6438  0.3259
 1984SOL    HW117585   3.289   1.090   1.793  0.1593 -1.3053  1.4881
 1984SOL    HW217586   3.299   1.086   1.926 -2.7919 -1.7786 -3.1670
 1985SOL     OW17587   4.498   4.278   2.489 -0.4279 -0.4649  0.0857
 1985SOL    HW117588   4.531   4.257   2.576  1.6871 -1.1119 -0.8859
 1985SOL    HW217589   4.489   4.195   2.443  0.5284  1.0589 -2.9102
 1986SOL     OW17590   1.777   2.113   8.692 -0.5218  0.2066 -0.7966
 1986SOL    HW117591   1.789   2.197   8.737  3.4673 -0.5438 -0.4203
 1986SOL    HW217592   1.736   2.139   8.610 -0.7403  1.0622 -0.4211
 1987SOL     OW17593   4.200   3.971   8.845 -0.1117  0.3779 -0.2572
 1987SOL    HW117594   4.290   3.981   8.875 -0.3040 -2.5956  1.3153
 1987SOL    HW217595   4.176   4.063   8.853  0.6187  0.4083  1.5602
 1988SOL     OW17596   4.003   2.671   2.991 -0.2177  0.1195 -0.3748
 1988SOL    HW117597   3.993   2.743   2.929 -0.5337  0.1912 -0.2381
 1988SOL    HW217598   4.091   2.639   2.971 -0.0260  0.9967 -0.9012
 1989SOL     OW17599   3.428   2.287   4.921  0.4480  0.1255  0.2493
 1989SOL    HW117600   3.353   2.343   4.944  0.2728 -0.6045  1.4687
 1989SOL    HW217601   3.415   2.268   4.828 -0.4135  1.4603  0.0887
 1990SOL     OW17602   2.204   1.510   5.838  0.5340 -0.0406 -0.2418
 1990SOL    HW117603   2.200   1.518   5.742 -0.6457 -1.5446 -0.3209
 1990SOL    HW217604   2.119   1.468   5.853  0.0241  1.9561  2.4133
 1991SOL     OW17605   1.848   3.042   7.371 -0.1991  0.1168  0.0085
 1991SOL    HW117606   1.800   3.105   7.424 -1.7037 -2.9783  2.3040
 1991SOL    HW217607   1.825   2.957   7.409  1.5171 -0.9450 -1.3525
 1992SOL     OW17608   1.856   1.741   3.257 -0.0732 -0.0874 -0.3627
 1992SOL    HW117609   1.795   1.814   3.263  1.3915  1.2205 -1.4483
 1992SOL    HW217610   1.906   1.747   3.339  0.2228  0.9836 -0.6285
 1993SOL     OW17611   2.227   3.873   2.187  0.0922  0.7945 -0.0107
 1993SOL    HW117612   2.290   3.938   2.219  0.1266  1.1048 -0.7094
 1993SOL    HW217613   2.144   3.920   2.182 -0.7732 -0.8466 -0.7062
 1994SOL     OW17614   4.373   0.564   6.361 -0.8111 -0.2012  0.1793
 1994SOL    HW117615   4.362   0.651   6.323  1.2631  0.5953  1.4191
 1994SOL    HW217616   4.305   0.562   6.428  0.3303  1.0899  1.3530
 1995SOL     OW17617   4.684   3.893  11.868  0.3649  0.1511  0.4340
 1995SOL    HW117618   0.033   3.856  11.857  0.0646 -1.0389  2.1408
 1995SOL    HW217619   4.671   3.868  11.959  1.2333  0.3624  0.6209
 1996SOL     OW17620   0.895   2.548   1.040 -0.1567  0.1280  0.2069
 1996SOL    HW117621   0.942   2.471   1.007 -0.2953 -0.1139  0.5779
 1996SOL    HW217622   0.888   2.605   0.963  1.2817 -0.3953 -0.3035
 1997SOL     OW17623   3.080   3.806  11.993  0.4989 -0.4934  1.0193
 1997SOL    HW117624   3.143   3.855  12.046  0.3431  1.9685 -1.0423
 1997SOL    HW217625   3.141   3.757  11.937 -1.8747 -2.2517 -0.0237
 1998SOL     OW17626   0.461   3.131  10.349 -0.4150  0.0092  0.0038
 1998SOL    HW117627   0.444   3.051  10.300  1.2548 -0.4470  0.1760
 1998SOL    HW217628   0.518   3.178  10.287 -3.5063  0.1841 -2.7069
 1999SOL     OW17629   0.512   4.263   4.418  0.4781  0.2026  0.0253
 1999SOL    HW117630   0.427   4.236   4.453 -0.6708  2.1816 -1.2094
 1999SOL    HW217631   0.486   4.297   4.333  0.8898  0.5608  0.0440
 2000SOL     OW17632   0.410   3.881   3.736 -0.6703 -0.0314  0.0861
 2000SOL    HW117633   0.468   3.807   3.720 -0.7905 -0.0882 -0.0866
 2000SOL    HW217634   0.369   3.859   3.819 -0.2221  0.2227  0.3740
 2001SOL     OW17635   2.816   2.455   3.226  0.5184  0.4477 -0.2506
 2001SOL    HW117636   2.756   2.462   3.300  1.9237  1.8470  0.7439
 2001SOL    HW217637   2.751   2.434   3.158  1.2735 -1.8181 -0.2736
 2002SOL     OW17638   4.508   0.640   5.823  0.3595 -0.4056  0.5718
 2002SOL    HW117639   4.533   0.688   5.744 -1.8782 -0.7384 -0.3432
 2002SOL    HW217640   4.495   0.716   5.879  1.9099  0.7788 -0.6903
 2003SOL     OW17641   0.770   1.178  16.905  0.2487 -0.1291  0.1093
 2003SOL    HW117642   0.814   1.123  16.839 -1.3929 -3.3879  1.7414
 2003SOL    HW217643   0.826   1.166  16.982  1.0297 -1.9302 -0.7105
 2004SOL     OW17644   1.081   4.718   8.079  0.1589 -0.3739 -0.3830
 2004SOL    HW117645   1.136   0.046   8.121  0.1124 -2.4453  2.9608
 2004SOL    HW217646   1.143   4.664   8.031  0.5045 -1.1584  0.9573
 2005SOL     OW17647   1.782   0.758  14.431 -0.5695 -0.2386  0.6332
 2005SOL    HW117648   1.724   0.758  14.355 -0.0274 -0.0021  0.2247
 2005SOL    HW217649   1.808   0.666  14.437  0.2126 -0.0479  0.1302
 2006SOL     OW17650   3.302   3.457   4.059  0.2820 -0.2293 -0.4138
 2006SOL    HW117651   3.344   3.531   4.016  1.2367  0.0631  1.0026
 2006SOL    HW217652   3.372   3.392   4.062  0.7205  0.3922  3.0288
 2007SOL     OW17653   2.480   0.619   5.186 -0.9480  0.0157  0.2002
 2007SOL    HW117654   2.559   0.613   5.133 -1.3623 -1.9650 -0.1853
 2007SOL    HW217655   2.477   0.530   5.220 -0.3512 -0.7734 -1.8192
 2008SOL     OW17656   0.720   1.098   2.782 -0.4169 -0.9963  0.1059
 2008SOL    HW117657   0.690   1.056   2.863 -2.3939  2.1927  1.0601
 2008SOL    HW217658   0.812   1.074   2.779 -0.7912 -2.5548  1.1315
 2009SOL     OW17659   1.344   4.336   8.922  0.6927 -0.1332 -0.1473
 2009SOL    HW117660   1.350   4.242   8.909 -0.0392 -0.2610  0.4545
 2009SOL    HW217661   1.433   4.372   8.929  0.2172  0.7783  1.2275
 2010SOL     OW17662   0.030   1.418   0.297 -0.6501 -1.3157  0.0062
 2010SOL    HW117663   0.012   1.480   0.226  1.4975 -0.2359  0.4080
 2010SOL    HW217664   0.016   1.479   0.369  3.6483 -1.1031  0.7019
 2011SOL     OW17665   3.177   2.873  16.140  0.2140  0.2111  0.1239
 2011SOL    HW117666   3.256   2.912  16.177  1.3065  0.4126 -2.3983
 2011SOL    HW217667   3.216   2.793  16.105 -0.4108 -0.4256  0.9120
 2012SOL     OW17668   1.459   0.040   4.717 -0.0278 -0.0419 -0.3745
 2012SOL    HW117669   1.367   0.015   4.726 -0.4017  0.8515 -1.6884
 2012SOL    HW217670   1.478   0.010   4.628  0.0729 -2.4846  0.4547
 2013SOL     OW17671   3.898   4.377  15.273 -0.5117 -0.5221 -0.0498
 2013SOL    HW117672   3.905   4.387  15.178 -1.0032 -0.5829 -0.0960
 2013SOL    HW217673   3.979   4.335  15.299  1.3047  3.7273  1.1990
 2014SOL     OW17674   3.874   0.052   3.721 -0.7234 -0.2012  0.2208
 2014SOL    HW117675   3.845   0.067   3.811  1.6540  1.4913  0.6997
 2014SOL    HW217676   3.915   4.704   3.727 -0.4020 -0.0357  0.4201
 2015SOL     OW17677   3.182   1.927   0.636  0.2621  0.4390  0.1047
 2015SOL    HW117678   3.141   2.009   0.663 -0.8070 -0.0671  0.0347
 2015SOL    HW217679   3.183   1.865   0.709  1.6080 -1.1117 -1.2309
 2016SOL     OW17680   4.182   1.030   7.102 -0.0239  0.3121 -0.1903
 2016SOL    HW117681   4.205   1.059   7.014 -1.5441 -0.4992 -0.8488
 2016SOL    HW217682   4.133   0.952   7.079  1.8192 -0.5989 -0.9653
 2017SOL     OW17683   3.335   1.333   3.992  0.0364  0.1438  0.7065
 2017SOL    HW117684   3.266   1.305   3.932 -1.5393 -1.6223  3.3349
 2017SOL    HW217685   3.411   1.310   3.938 -0.0468 -1.0728  1.1039
 2018SOL     OW17686   3.415   3.595   0.200 -0.4637  0.5453  0.1325
 2018SOL    HW117687   3.360   3.603   0.279 -0.3880 -0.0312  0.2443
 2018SOL    HW217688   3.376   3.510   0.177 -0.7408  1.0708 -1.3338
 2019SOL     OW17689   0.461   3.276   8.803 -0.9134  0.8957 -0.2986
 2019SOL    HW117690   0.523   3.327   8.750  1.3097 -1.8545 -0.3718
 2019SOL    HW217691   0.443   3.337   8.874 -0.3176 -1.0417  1.5142
 2020SOL     OW17692   1.706   0.727   6.874  0.0020  0.3567 -0.2663
 2020SOL    HW117693   1.622   0.695   6.839  0.8120  1.0428 -2.8704
 2020SOL    HW217694   1.696   0.807   6.822  0.2640  0.2109 -0.5386
 2021SOL     OW17695   2.690   1.239   6.868 -0.1651 -0.5359 -0.0113
 2021SOL    HW117696   2.715   1.287   6.947 -0.4028 -0.8741  0.2692
 2021SOL    HW217697   2.774   1.203   6.840  1.0674  1.3934  1.2057
 2022SOL     OW17698   2.552   3.564   4.437 -0.2032 -0.2704  0.2516
 2022SOL    HW117699   2.467   3.575   4.394 -0.2364  0.9517  0.6292
 2022SOL    HW217700   2.575   3.476   4.407  1.2822  0.1446  0.1760
 2023SOL     OW17701   3.574   2.477   7.009  0.2236 -0.2498  0.0508
 2023SOL    HW117702   3.492   2.499   7.054 -0.9615 -2.6979 -0.9211
 2023SOL    HW217703   3.609   2.565   6.994 -0.7069  0.3841  1.6178
 2024SOL     OW17704   3.670   0.033  15.028  0.3910  0.2936  0.4399
 2024SOL    HW117705   3.615   0.053  15.104 -2.8416  1.0561 -2.0422
 2024SOL    HW217706   3.743   4.718  15.057  0.4274 -0.2309 -0.6192
 2025SOL     OW17707   4.078   4.297   3.849 -0.0302  0.1285  0.4064
 2025SOL    HW117708   4.011   4.316   3.915  1.3706  1.3955  1.4644
 2025SOL    HW217709   4.158   4.294   3.901  0.1607 -0.2665  0.0884
 2026SOL     OW17710   2.119   1.008   8.075 -0.1923  0.2937  0.9090
 2026SOL    HW117711   2.054   0.995   8.144  1.8108 -2.1352  2.3673
 2026SOL    HW217712   2.201   0.976   8.112  0.0904 -1.8651 -1.6074
 2027SOL     OW17713   0.638   4.574  14.869 -0.2870  0.7171 -0.2796
 2027SOL    HW117714   0.682   4.556  14.953 -1.2849 -1.8125 -0.3053
 2027SOL    HW217715   0.605   4.486  14.848  0.3337  0.3890  0.0964
 2028SOL     OW17716   2.033   3.479   3.719 -0.1483 -0.2293 -0.2018
 2028SOL    HW117717   1.964   3.412   3.710  1.4239 -1.7460 -0.9511
 2028SOL    HW217718   2.045   3.508   3.628  1.3272 -1.7629 -0.4886
 2029SOL     OW17719   0.018   4.301   7.870  0.2979  0.0314 -0.0747
 2029SOL    HW117720   4.732   4.209   7.863 -0.3933  0.2229 -0.1341
 2029SOL    HW217721   0.044   4.302   7.962  2.3289 -1.5438 -0.6339
 2030SOL     OW17722   4.242   1.984   7.894  0.6844 -0.0275 -0.1553
 2030SOL    HW117723   4.319   2.040   7.892  1.0572 -0.5478 -0.1906
 2030SOL    HW217724   4.263   1.929   7.819 -1.7762  0.1016 -0.9330
 2031SOL     OW17725   3.986   0.904  15.217  0.0470  0.3405 -0.5265
 2031SOL    HW117726   4.040   0.828  15.194  1.8602  0.9682  1.7012
 2031SOL    HW217727   4.051   0.974  15.212 -0.8280  1.2887  1.3693
 2032SOL     OW17728   3.548   1.053   4.805 -0.4384 -0.6277 -0.1043
 2032SOL    HW117729   3.562   1.147   4.816  0.7404 -0.5845 -1.9208
 2032SOL    HW217730   3.495   1.022   4.878 -0.2264 -2.6248 -0.7921
 2033SOL     OW17731   3.359   3.834   7.944  0.3286  0.1664  0.3671
 2033SOL    HW117732   3.374   3.927   7.964 -3.3549  0.8743 -0.0892
 2033SOL    HW217733   3.343   3.844   7.850 -0.1690  0.0096  0.4345
 2034SOL     OW17734   2.720   4.015  16.473  0.4131  0.0982  0.1392
 2034SOL    HW117735   2.758   3.936  16.512 -1.3159 -0.7860  0.0253
 2034SOL    HW217736   2.711   3.990  16.381  0.5365  0.0527  0.1386
 2035SOL     OW17737   2.825   3.375   0.058 -0.7869 -0.8448  0.1499
 2035SOL    HW117738   2.781   3.452   0.094  1.2432 -0.5540  1.9927
 2035SOL    HW217739   2.868   3.412  17.733 -0.4044  1.1205  1.3149
 2036SOL     OW17740   1.598   4.210   2.816  0.0893  0.2523  0.2895
 2036SOL    HW117741   1.581   4.293   2.770 -0.8776 -0.6220 -0.9335
 2036SOL    HW217742   1.524   4.153   2.796  0.4543 -0.2058  0.2629
 2037SOL     OW17743   2.602   4.399  17.448 -0.2656 -0.4093 -0.2699
 2037SOL    HW117744   2.642   4.468  17.395 -0.3442  0.1714  0.4282
 2037SOL    HW217745   2.629   4.415  17.538  1.8139 -0.4059 -0.9131
 2038SOL     OW17746   4.413   0.290  16.019  0.0382 -0.2075  0.2744
 2038SOL    HW117747   4.360   0.320  16.093  1.0260  0.4608  0.7053
 2038SOL    HW217748   4.496   0.279  16.065  1.3211  0.5022 -1.8677
 2039SOL     OW17749   2.373   0.146   8.975 -0.0050  0.3992 -0.2800
 2039SOL    HW117750   2.454   0.141   8.924  1.7884  1.2523  2.4810
 2039SOL    HW217751   2.305   0.114   8.916 -0.8381  1.7440 -0.0456
 2040SOL     OW17752   1.044   1.972   9.802  0.7785 -0.3429  0.1143
 2040SOL    HW117753   1.044   2.052   9.854 -1.0227  0.6952 -1.4654
 2040SOL    HW217754   0.962   1.931   9.829  0.9048  0.9078  2.4057
 2041SOL     OW17755   1.751   2.487   1.978 -0.0886  0.4735  0.0175
 2041SOL    HW117756   1.796   2.532   1.907 -1.2132 -3.7321 -3.3370
 2041SOL    HW217757   1.688   2.550   2.013 -0.7103  0.0766 -0.3839
 2042SOL     OW17758   0.862   1.424   8.494  0.3521 -0.2766 -0.2030
 2042SOL    HW117759   0.934   1.383   8.447 -0.0983 -4.7746  3.0368
 2042SOL    HW217760   0.790   1.372   8.458 -0.7275  2.6635 -2.2976
 2043SOL     OW17761   2.306   0.638   6.282  0.1722  0.4322 -0.4325
 2043SOL    HW117762   2.211   0.646   6.289  0.1692  1.0242 -1.2846
 2043SOL    HW217763   2.323   0.594   6.365 -0.4155 -0.1344 -0.6105
 2044SOL     OW17764   2.125   0.941   9.329 -0.4797  0.4870  0.0107
 2044SOL    HW117765   2.217   0.922   9.342 -0.9845 -2.6234 -0.8175
 2044SOL    HW217766   2.138   0.999   9.254  0.7417  3.0192  2.2128
 2045SOL     OW17767   1.783   2.677   5.875 -0.1622 -0.1058  1.1345
 2045SOL    HW117768   1.754   2.726   5.952 -0.4886  0.9810  0.3287
 2045SOL    HW217769   1.820   2.601   5.918 -2.4687 -0.3147  2.7151
 2046SOL     OW17770   3.959   4.241   6.216 -0.1616  0.1283 -0.6610
 2046SOL    HW117771   4.018   4.197   6.154 -0.8315 -0.4372 -0.8963
 2046SOL    HW217772   4.018   4.307   6.250 -0.1434 -0.8927  1.3169
 2047SOL     OW17773   1.849   1.458   8.050  0.5568 -0.1223 -0.1358
 2047SOL    HW117774   1.928   1.436   8.000 -1.1236  0.0142 -2.8467
 2047SOL    HW217775   1.898   1.491   8.125  0.0525 -0.1297  0.1922
 2048SOL     OW17776   0.184   3.325   5.485  0.0490  0.4642  0.4925
 2048SOL    HW117777   0.100   3.318   5.530 -0.0359  0.4986  0.3388
 2048SOL    HW217778   0.217   3.243   5.522 -2.7665 -0.3438  1.1948
 2049SOL     OW17779   1.773   3.330  16.269 -0.0125  0.2759  0.0046
 2049SOL    HW117780   1.772   3.418  16.306  2.8665 -0.9320  3.0093
 2049SOL    HW217781   1.790   3.277  16.347  0.6762  0.1425 -0.2370
 2050SOL     OW17782   3.200   4.451  10.146 -0.2587  0.3647 -0.2884
 2050SOL    HW117783   3.278   4.419  10.101  0.7846  1.1839  0.9538
 2050SOL    HW217784   3.219   4.435  10.238 -1.6603 -0.2902 -0.1037
 2051SOL     OW17785   2.708   2.680  15.674 -0.2116  0.0594 -0.3100
 2051SOL    HW117786   2.668   2.728  15.602 -1.6016 -0.8732 -0.1645
 2051SOL    HW217787   2.791   2.724  15.687 -0.1371 -0.8599  2.4039
 2052SOL     OW17788   3.985   1.249   9.382 -0.2710  0.4714  0.0505
 2052SOL    HW117789   3.949   1.332   9.349  0.2150 -0.2224 -2.2430
 2052SOL    HW217790   4.076   1.276   9.393  0.1892 -1.4655  1.0284
 2053SOL     OW17791   0.327   1.171   2.487 -0.2796 -0.6996 -0.0306
 2053SOL    HW117792   0.337   1.262   2.515 -0.8411 -0.6555  0.0388
 2053SOL    HW217793   0.413   1.132   2.504  0.9637  1.3901 -1.4991
 2054SOL     OW17794   1.574   1.781   3.940 -0.5454 -0.6137  0.5154
 2054SOL    HW117795   1.486   1.787   3.978 -0.6686 -1.0973  0.2956
 2054SOL    HW217796   1.627   1.750   4.013 -0.0815  0.2721  0.5642
 2055SOL     OW17797   2.368   3.360  14.929  0.4290 -0.2542 -0.7080
 2055SOL    HW117798   2.456   3.388  14.904  0.7807  1.3413  2.4021
 2055SOL    HW217799   2.386   3.266  14.926  3.0386  0.2870 -1.7621
 2056SOL     OW17800   0.703   0.486   3.827  0.6483 -0.4135 -0.6456
 2056SOL    HW117801   0.745   0.561   3.869 -0.6412  0.1027 -0.2846
 2056SOL    HW217802   0.674   0.437   3.904  2.3655 -2.8101 -1.5299
 2057SOL     OW17803   2.117   2.646   8.260 -0.0481  0.2354 -0.4975
 2057SOL    HW117804   2.128   2.659   8.166 -1.3142  0.2400 -0.6431
 2057SOL    HW217805   2.151   2.725   8.302  1.9639 -0.8923  0.0180
 2058SOL     OW17806   1.318   3.694   6.229 -0.1411  0.2287 -0.4945
 2058SOL    HW117807   1.375   3.753   6.180 -2.2933  1.5418 -1.3858
 2058SOL    HW217808   1.378   3.664   6.298 -0.6272 -0.7273 -0.4799
 2059SOL     OW17809   0.857   3.778   6.097 -0.1771  0.3597  0.3961
 2059SOL    HW117810   0.913   3.825   6.036  1.4171  0.1063  1.6644
 2059SOL    HW217811   0.903   3.695   6.109  0.7353  0.6469 -1.1464
 2060SOL     OW17812   1.858   4.577   8.343  0.3605 -0.2260  0.0582
 2060SOL    HW117813   1.853   4.654   8.399 -1.2700 -0.4415  0.1996
 2060SOL    HW217814   1.944   4.580   8.301 -0.0619  1.1233 -0.7037
 2061SOL     OW17815   1.447   0.201   5.815 -0.1925  0.2637  0.1854
 2061SOL    HW117816   1.469   0.194   5.723 -0.1480 -0.1110  0.2242
 2061SOL    HW217817   1.484   0.283   5.849  1.5755  1.0569 -3.7351
 2062SOL     OW17818   1.412   3.538  16.260  0.3399  0.2811 -0.2700
 2062SOL    HW117819   1.419   3.594  16.183  0.2948  0.5411 -0.0841
 2062SOL    HW217820   1.337   3.480  16.242  1.3498 -1.2388  0.3875
 2063SOL     OW17821   0.639   1.479   6.171 -0.0198  0.2923  0.1483
 2063SOL    HW117822   0.687   1.479   6.088  0.4170  0.0485  0.3970
 2063SOL    HW217823   0.715   1.512   6.219  0.2816 -1.4166  0.8519
 2064SOL     OW17824   1.542   0.590  15.834  0.3981  0.2354  0.0048
 2064SOL    HW117825   1.554   0.664  15.894 -1.6892  2.2526 -2.0176
 2064SOL    HW217826   1.621   0.597  15.780  0.3718 -0.0010 -0.0625
 2065SOL     OW17827   3.257   3.406   6.431  0.3995 -0.0267  0.4181
 2065SOL    HW117828   3.284   3.418   6.522  3.1851  1.4379 -0.6092
 2065SOL    HW217829   3.215   3.320   6.437  2.3692 -1.0409 -0.2019
 2066SOL     OW17830   2.952   1.523  16.798 -0.2106 -0.4504 -0.1951
 2066SOL    HW117831   2.985   1.611  16.780  0.9391 -1.4507 -2.9604
 2066SOL    HW217832   2.890   1.509  16.727  0.7515  4.0723 -1.9091
 2067SOL     OW17833   4.292   2.924  12.782  0.4139  0.3692 -0.1858
 2067SOL    HW117834   4.247   2.871  12.716  1.7734 -1.9481  0.7537
 2067SOL    HW217835   4.289   3.012  12.744 -0.3863  0.7849  0.8261
 2068SOL     OW17836   1.819   4.111   2.685  0.0050  0.0049 -0.4814
 2068SOL    HW117837   1.740   4.150   2.722 -0.3704 -1.3884  0.1921
 2068SOL    HW217838   1.880   4.183   2.697 -0.0426  0.1175 -0.9149
 2069SOL     OW17839   4.553   3.367   7.321  0.6936  0.6110 -0.0033
 2069SOL    HW117840   4.636   3.367   7.368  0.9899 -0.7303 -0.5203
 2069SOL    HW217841   4.588   3.394   7.236 -0.8093  1.8861 -0.2124
 2070SOL     OW17842   0.193   0.772   4.347 -0.4398  0.2862 -0.6448
 2070SOL    HW117843   0.195   0.712   4.422 -0.6187  0.2811 -0.6420
 2070SOL    HW217844   0.226   0.712   4.279  2.2008 -0.2796  1.1906
 2071SOL     OW17845   3.206   0.500   6.391 -0.1652  0.2901  0.5463
 2071SOL    HW117846   3.153   0.498   6.311 -2.1595  1.7299  1.8180
 2071SOL    HW217847   3.239   0.411   6.401  1.8460  0.9477 -0.3394
 2072SOL     OW17848   2.311   0.994   4.983 -0.1421  0.1330  0.6147
 2072SOL    HW117849   2.352   1.069   4.939  0.9088  0.1383  1.6164
 2072SOL    HW217850   2.254   0.960   4.914  0.4848  1.8238 -0.7280
 2073SOL     OW17851   2.002   0.812   7.751 -0.0362  0.5054  0.5428
 2073SOL    HW117852   1.947   0.752   7.701  0.8211  1.5596 -1.6866
 2073SOL    HW217853   1.940   0.846   7.815 -0.6319  2.0481 -0.8378
 2074SOL     OW17854   1.509   1.141   3.598  0.0616  0.6664 -0.0286
 2074SOL    HW117855   1.503   1.225   3.554  1.1388  0.5888 -0.3258
 2074SOL    HW217856   1.571   1.105   3.535  0.0859  0.8990 -0.1352
 2075SOL     OW17857   4.312   3.157   2.864  0.0184  0.0083 -0.1269
 2075SOL    HW117858   4.382   3.093   2.850  0.0333 -0.0736  0.3321
 2075SOL    HW217859   4.257   3.110   2.927 -0.2508  2.2906  1.3483
 2076SOL     OW17860   1.072   0.425  12.219  0.5630 -0.1864 -0.0493
 2076SOL    HW117861   1.062   0.520  12.218  1.1259 -0.1359 -1.2516
 2076SOL    HW217862   1.127   0.412  12.142 -1.2863 -2.3856 -0.9699
 2077SOL     OW17863   4.716   3.113   1.392  0.0026  0.0636 -0.3882
 2077SOL    HW117864   0.011   3.185   1.446  0.5354  2.0446 -3.3738
 2077SOL    HW217865   4.715   3.160   1.309 -1.7571 -1.9704 -1.5222
 2078SOL     OW17866   3.795   0.822  11.415  0.2803  0.4650  0.0721
 2078SOL    HW117867   3.762   0.894  11.468 -0.9031 -1.7838  2.4074
 2078SOL    HW217868   3.738   0.752  11.446 -1.3145  0.1589 -3.5382
 2079SOL     OW17869   4.323   0.974  12.832 -0.8302  0.4197 -0.7304
 2079SOL    HW117870   4.417   0.955  12.834 -0.9052  0.3358  2.4768
 2079SOL    HW217871   4.304   1.065  12.808  1.6548  0.4937 -2.3902
 2080SOL     OW17872   1.050   0.827  11.013 -0.1216 -0.6292  0.5815
 2080SOL    HW117873   1.124   0.871  10.972 -1.9318  0.4131 -1.6206
 2080SOL    HW217874   1.081   0.818  11.103 -0.4127  0.1518  0.7638
 2081SOL     OW17875   2.003   2.350   4.520  0.4594 -0.7294  0.4083
 2081SOL    HW117876   2.094   2.333   4.497  0.8707 -0.0121  1.5173
 2081SOL    HW217877   1.957   2.323   4.441  0.2420 -0.1298  0.3297
 2082SOL     OW17878   0.901   1.944   2.924 -0.5730 -0.9717  0.4058
 2082SOL    HW117879   0.978   1.954   2.981 -1.4450  1.1522  1.2353
 2082SOL    HW217880   0.877   1.852   2.931 -0.5735 -1.2683 -3.7732
 2083SOL     OW17881   0.882   4.726   5.073  0.0653  0.0556 -0.0723
 2083SOL    HW117882   0.930   0.065   5.101  1.1297 -0.3354 -0.8500
 2083SOL    HW217883   0.793   0.005   5.104  0.2331 -1.5474  1.3470
 2084SOL     OW17884   2.144   4.008   8.442 -0.0813 -0.0652  0.1254
 2084SOL    HW117885   2.110   4.062   8.370 -1.2069  1.3138  1.6929
 2084SOL    HW217886   2.081   4.014   8.513 -0.8066  1.4738 -0.6295
 2085SOL     OW17887   0.196   2.146  15.614 -0.4776 -0.0243  0.2791
 2085SOL    HW117888   0.214   2.175  15.704  0.0144  0.7086 -0.0644
 2085SOL    HW217889   0.261   2.204  15.574 -0.7330  0.5899  0.7595
 2086SOL     OW17890   0.695   3.719   9.166  0.2194 -0.7559 -0.3499
 2086SOL    HW117891   0.603   3.730   9.189  0.0041 -2.1760 -0.4844
 2086SOL    HW217892   0.718   3.653   9.232  0.4312 -1.1803 -0.8485
 2087SOL     OW17893   0.003   1.013   2.930 -0.0684  0.1985  1.0508
 2087SOL    HW117894   0.072   0.952   2.955 -0.9483 -0.2573  2.3500
 2087SOL    HW217895   4.692   1.028   3.010 -0.1022  2.1227  0.6804
 2088SOL     OW17896   1.727   1.520  10.283 -0.3190 -0.6937  0.6414
 2088SOL    HW117897   1.792   1.583  10.316 -1.1724 -0.1506  1.2876
 2088SOL    HW217898   1.785   1.444  10.276 -1.3083 -1.6281  2.7135
 2089SOL     OW17899   3.597   4.329   9.198 -0.1669 -0.2396  0.6306
 2089SOL    HW117900   3.507   4.297   9.211 -0.0811  0.2546  2.4853
 2089SOL    HW217901   3.594   4.399   9.263 -0.1711 -1.4419  1.9281
 2090SOL     OW17902   2.723   1.246   7.546  0.6882 -0.1791  0.3217
 2090SOL    HW117903   2.779   1.169   7.554  0.2920 -0.2812  2.0681
 2090SOL    HW217904   2.783   1.318   7.528  0.8913  0.0430  1.8919
 2091SOL     OW17905   0.199   1.559  17.332 -0.6029  0.3247 -0.1701
 2091SOL    HW117906   0.104   1.567  17.340 -0.3999  0.2170  2.4193
 2091SOL    HW217907   0.209   1.509  17.413  0.7299  0.0111 -0.5229
 2092SOL     OW17908   3.315   0.209   8.290  0.6750  0.3423  0.6419
 2092SOL    HW117909   3.295   0.302   8.302  3.0569  0.9293  0.0522
 2092SOL    HW217910   3.364   0.191   8.370 -0.3827 -0.8454  1.0345
 2093SOL     OW17911   3.861   3.522   7.297 -0.4068  0.1021  0.3348
 2093SOL    HW117912   3.860   3.594   7.234  0.7683 -0.0854  0.1063
 2093SOL    HW217913   3.905   3.449   7.254 -1.1907 -0.0202 -0.2650
 2094SOL     OW17914   4.476   2.943   7.426 -0.4184  0.1695 -0.3874
 2094SOL    HW117915   4.539   2.913   7.491 -0.2855 -0.2654 -0.7128
 2094SOL    HW217916   4.492   2.876   7.359 -0.7942 -1.1673  0.8680
 2095SOL     OW17917   4.560   1.361   9.773 -0.2018 -0.4183  0.1731
 2095SOL    HW117918   4.499   1.294   9.802 -1.5229 -0.2882 -2.2482
 2095SOL    HW217919   4.502   1.404   9.710  1.2014 -0.9485 -1.5090
 2096SOL     OW17920   1.399   0.599   3.748 -0.2582  0.1412  0.4144
 2096SOL    HW117921   1.455   0.616   3.672 -0.1692  0.1914  0.4908
 2096SOL    HW217922   1.349   0.680   3.750 -0.2803  0.2170 -2.5079
 2097SOL     OW17923   2.661   3.646   6.701 -0.0692 -0.1507  0.7582
 2097SOL    HW117924   2.638   3.577   6.640 -0.1077  0.3120  0.2533
 2097SOL    HW217925   2.685   3.593   6.777 -0.5890  1.9333  2.3854
 2098SOL     OW17926   4.696   1.448  14.482 -0.6271 -0.4964 -0.3305
 2098SOL    HW117927   0.013   1.430  14.406  1.5192  2.1727  0.6037
 2098SOL    HW217928   4.619   1.485  14.438  0.3683  0.9757 -0.8450
 2099SOL     OW17929   0.698   4.045   7.982 -0.5252 -0.4073  0.7483
 2099SOL    HW117930   0.603   4.050   7.979 -0.6530 -1.5885  3.0996
 2099SOL    HW217931   0.720   4.127   7.937 -0.0884 -1.3255 -0.7140
 2100SOL     OW17932   0.443   2.797   7.881  0.1529 -0.5787 -0.1294
 2100SOL    HW117933   0.516   2.754   7.926  1.5741  1.4382 -0.5260
 2100SOL    HW217934   0.407   2.839   7.959 -0.3329  0.5894 -0.9912
 2101SOL     OW17935   2.320   4.310   2.125  0.3659  0.3640  0.0172
 2101SOL    HW117936   2.365   4.234   2.163 -4.9034 -3.1712 -0.8394
 2101SOL    HW217937   2.375   4.383   2.155  0.6120  0.3334 -0.3652
 2102SOL     OW17938   3.490   2.891   3.301  0.0994 -0.0057 -0.2212
 2102SOL    HW117939   3.411   2.881   3.248  0.6817 -1.7206 -0.7833
 2102SOL    HW217940   3.463   2.866   3.389  1.4050  1.5229  0.6028
 2103SOL     OW17941   1.670   2.996   9.421 -0.4888  0.1207 -0.0032
 2103SOL    HW117942   1.626   2.912   9.434  1.0312 -0.4812  1.2154
 2103SOL    HW217943   1.605   3.060   9.451 -2.0917 -1.2912 -0.4765
 2104SOL     OW17944   0.920   1.044   0.566 -0.0211  0.2273 -0.4883
 2104SOL    HW117945   0.847   1.007   0.615  0.2098 -1.2222 -1.2458
 2104SOL    HW217946   0.874   1.121   0.532 -0.4424  0.5475  0.8142
 2105SOL     OW17947   2.750   0.975   6.553 -0.1153  0.5590  0.1490
 2105SOL    HW117948   2.835   1.016   6.538 -0.7303  2.6548  2.4343
 2105SOL    HW217949   2.765   0.881   6.543  2.5882  1.2242 -2.1400
 2106SOL     OW17950   4.221   3.725   8.247  0.0234 -0.0692  0.2682
 2106SOL    HW117951   4.178   3.806   8.218 -1.2934 -1.1109 -0.6927
 2106SOL    HW217952   4.160   3.655   8.224  0.7239 -0.3840 -0.6216
 2107SOL     OW17953   2.713   3.384  12.299  0.5876 -0.1622  0.1092
 2107SOL    HW117954   2.644   3.440  12.336  0.7199  0.4782 -0.6374
 2107SOL    HW217955   2.665   3.301  12.295 -1.4790  0.9207  2.3091
 2108SOL     OW17956   3.590   1.181   7.102  0.1800  0.2291 -0.1483
 2108SOL    HW117957   3.646   1.113   7.140  1.7977  2.5184  1.5527
 2108SOL    HW217958   3.523   1.195   7.170 -2.5951  1.3032 -3.1232
 2109SOL     OW17959   0.047   2.878   2.306 -0.1063  0.9225  0.4854
 2109SOL    HW117960   0.001   2.837   2.233  1.2134 -0.7849  0.6212
 2109SOL    HW217961   0.003   2.961   2.325 -0.1078  1.2296 -0.9122
 2110SOL     OW17962   4.362   4.059  17.009  0.0149 -0.4141 -0.0356
 2110SOL    HW117963   4.347   4.149  16.981 -0.7861 -0.8020 -0.8402
 2110SOL    HW217964   4.451   4.064  17.044 -0.8311  0.1645  2.0687
 2111SOL     OW17965   3.087   2.214   3.754  0.1599  0.6045 -0.0010
 2111SOL    HW117966   3.119   2.284   3.696  0.3859  0.5750  0.0856
 2111SOL    HW217967   3.033   2.266   3.813  0.0781 -1.1342  1.4604
 2112SOL     OW17968   0.632   2.671  14.010  0.0720 -0.7430  0.1910
 2112SOL    HW117969   0.641   2.762  14.039  0.4919 -0.8041  0.2516
 2112SOL    HW217970   0.697   2.669  13.940  0.6859 -2.1653  0.8028
 2113SOL     OW17971   0.327   0.990   6.612 -0.6294  0.0904  0.3710
 2113SOL    HW117972   0.313   1.066   6.556  1.4512  0.0238 -0.2479
 2113SOL    HW217973   0.244   0.989   6.661  0.2321  2.3583  1.8571
 2114SOL     OW17974   1.181   3.838   3.061 -0.2664 -0.2190  0.2362
 2114SOL    HW117975   1.212   3.878   3.142  1.0835  2.1288 -1.4444
 2114SOL    HW217976   1.252   3.774   3.059 -0.4765 -0.4836  1.3795
 2115SOL     OW17977   4.514   2.075  14.846 -0.5456 -0.2895 -0.3273
 2115SOL    HW117978   4.595   2.126  14.845  0.1295 -1.4139 -2.6360
 2115SOL    HW217979   4.516   2.053  14.752 -0.9105  1.8431 -0.8285
 2116SOL     OW17980   1.368   4.165   2.466 -0.1436 -0.4135 -0.5565
 2116SOL    HW117981   1.429   4.120   2.525  0.2363  0.7252 -0.0763
 2116SOL    HW217982   1.293   4.185   2.522  0.0212 -0.2785 -0.3830
 2117SOL     OW17983   2.339   1.867   5.139  0.1483 -0.1869  0.8616
 2117SOL    HW117984   2.329   1.795   5.202  2.0165 -1.7593 -0.6437
 2117SOL    HW217985   2.372   1.934   5.199 -1.9411  0.6432  1.0846
 2118SOL     OW17986   0.680   3.174  11.584  0.4776 -0.0319  0.2040
 2118SOL    HW117987   0.692   3.174  11.489  1.1573 -1.8491  0.2855
 2118SOL    HW217988   0.620   3.248  11.593  1.2159  0.1037  4.1845
 2119SOL     OW17989   1.801   2.643   8.184 -0.1320 -0.3472  0.1678
 2119SOL    HW117990   1.866   2.662   8.116  0.3781 -1.0284  0.4711
 2119SOL    HW217991   1.737   2.715   8.176 -0.5962 -0.8889 -1.0803
 2120SOL     OW17992   3.227   3.207   5.619 -0.8664 -0.7150 -0.0429
 2120SOL    HW117993   3.256   3.195   5.528  1.1691 -0.0974  0.5182
 2120SOL    HW217994   3.221   3.114   5.639  0.5953 -0.0481  3.4706
 2121SOL     OW17995   1.063   1.222   1.650  0.0812  0.1365  0.4023
 2121SOL    HW117996   1.108   1.199   1.568 -2.7033 -0.4535 -0.9437
 2121SOL    HW217997   0.982   1.173   1.634  1.2381 -1.6677  0.0454
 2122SOL     OW17998   2.169   2.787   9.001 -0.5217  0.3372  0.0689
 2122SOL    HW117999   2.257   2.775   9.035 -0.6876 -1.4511 -0.1224
 2122SOL    HW218000   2.128   2.839   9.070  1.8747  3.3049 -0.7697
 2123SOL     OW18001   1.141   0.196   3.326 -0.1207  0.4652 -0.5207
 2123SOL    HW118002   1.229   0.181   3.361 -0.5905  1.7894  1.2182
 2123SOL    HW218003   1.095   0.257   3.383 -1.5648 -0.0583 -1.1068
 2124SOL     OW18004   1.761   0.249  12.753 -0.6212  0.2506 -0.1193
 2124SOL    HW118005   1.767   0.321  12.690 -2.9813  1.6678  1.2842
 2124SOL    HW218006   1.748   0.187  12.681  0.2164  0.8651 -0.7933
 2125SOL     OW18007   1.029   0.622  15.408  0.0591  0.3947 -0.1163
 2125SOL    HW118008   0.966   0.614  15.480  2.5233 -1.4138  1.8396
 2125SOL    HW218009   0.979   0.648  15.331  0.9150  0.8317 -0.5307
 2126SOL     OW18010   0.657   0.949   8.805 -0.2058 -0.1444 -0.0063
 2126SOL    HW118011   0.730   1.010   8.806  0.6651 -1.1610 -2.1414
 2126SOL    HW218012   0.599   0.985   8.872  0.5027  1.0624 -0.0409
 2127SOL     OW18013   2.842   3.716   5.545  0.0289 -1.0707  0.1182
 2127SOL    HW118014   2.824   3.703   5.638  2.4646 -1.0601  0.5863
 2127SOL    HW218015   2.753   3.718   5.511  0.1104  1.6808  0.0601
 2128SOL     OW18016   3.249   3.168   3.799 -0.2954  0.4809 -0.4116
 2128SOL    HW118017   3.197   3.243   3.829 -0.1955  0.7744 -0.9760
 2128SOL    HW218018   3.280   3.205   3.716 -0.3700  1.0657 -0.1792
 2129SOL     OW18019   1.269   4.036  10.485  0.0594  0.8647  0.0975
 2129SOL    HW118020   1.258   4.031  10.580  4.6313 -0.8711  0.5524
 2129SOL    HW218021   1.363   4.047  10.475 -0.1737  1.5584 -1.3096
 2130SOL     OW18022   1.101   2.793   2.669 -0.3045  0.4115 -0.3860
 2130SOL    HW118023   1.098   2.704   2.703 -0.1087  0.9962  1.1751
 2130SOL    HW218024   1.045   2.851   2.720 -2.8445 -2.5436  0.1602
 2131SOL     OW18025   3.784   1.103   0.232  0.0970  0.6999  0.0350
 2131SOL    HW118026   3.769   1.065   0.318 -2.7097  1.4436 -0.1294
 2131SOL    HW218027   3.724   1.050   0.180 -1.4594  2.0525  0.4523
 2132SOL     OW18028   1.389   0.885   6.207  0.3214 -0.1004 -0.2886
 2132SOL    HW118029   1.437   0.803   6.200  1.8169  0.6824  0.6964
 2132SOL    HW218030   1.455   0.936   6.255  0.8558 -3.0176  2.1075
 2133SOL     OW18031   3.624   0.982  17.668  0.8577 -0.0287 -0.0666
 2133SOL    HW118032   3.601   1.071  17.695 -2.2552 -0.7161 -0.3808
 2133SOL    HW218033   3.550   0.933  17.631  0.1967  0.7494  0.2126
 2134SOL     OW18034   4.458   1.939   1.925 -0.4861  0.1618 -0.5937
 2134SOL    HW118035   4.550   1.913   1.931 -1.4382 -3.1196 -0.1984
 2134SOL    HW218036   4.408   1.874   1.974  0.1781  0.4424  0.4540
 2135SOL     OW18037   1.100   1.446   6.114 -0.0618  0.0035  0.0369
 2135SOL    HW118038   1.112   1.540   6.103  1.5666 -0.2270 -0.2997
 2135SOL    HW218039   1.168   1.441   6.181  0.2226 -1.0491 -0.3268
 2136SOL     OW18040   1.687   4.363   1.960 -0.4028 -0.5677  0.4024
 2136SOL    HW118041   1.747   4.434   1.936 -0.4744 -0.8854 -0.7023
 2136SOL    HW218042   1.749   4.330   2.026  0.9725 -0.5870 -0.9102
 2137SOL     OW18043   4.325   2.642   8.744  0.1210 -0.3012  0.2724
 2137SOL    HW118044   4.304   2.611   8.656 -2.3525 -0.5577  0.9476
 2137SOL    HW218045   4.384   2.716   8.727 -1.5291  0.6825 -1.2678
 2138SOL     OW18046   2.751   4.421   1.767 -0.0219 -0.1678 -0.0344
 2138SOL    HW118047   2.786   4.495   1.718  1.3976 -0.9036 -0.1318
 2138SOL    HW218048   2.812   4.423   1.840 -0.3686 -2.3544  0.3278
 2139SOL     OW18049   4.055   2.359   3.831 -0.2868  0.1373  0.0731
 2139SOL    HW118050   4.017   2.438   3.870  1.4647 -0.0963  2.2421
 2139SOL    HW218051   3.976   2.320   3.794  0.0811  1.1342 -1.8124
 2140SOL     OW18052   2.598   1.772   5.215  0.1749  0.9301 -0.1066
 2140SOL    HW118053   2.577   1.849   5.162 -1.7321  0.5122  0.0109
 2140SOL    HW218054   2.550   1.706   5.164 -0.3107  1.7114 -0.6543
 2141SOL     OW18055   2.765   1.587  16.278  0.1562  0.1478  0.6814
 2141SOL    HW118056   2.839   1.533  16.307  1.0537  1.0913  0.1265
 2141SOL    HW218057   2.804   1.611  16.194 -1.7166 -0.1998 -0.2682
 2142SOL     OW18058   0.219   1.579   0.534 -0.5655  0.1075 -0.1396
 2142SOL    HW118059   0.186   1.502   0.580 -1.2961 -1.2019 -2.8386
 2142SOL    HW218060   0.307   1.546   0.519 -1.0514 -1.2968  0.1176
 2143SOL     OW18061   1.772   3.681   1.602 -0.7267 -0.4704  0.5861
 2143SOL    HW118062   1.846   3.620   1.598 -1.1470 -1.0864  2.2325
 2143SOL    HW218063   1.719   3.650   1.529 -1.2253  1.8550 -0.0244
 2144SOL     OW18064   1.673   4.667   8.850 -0.1378 -0.1566 -0.0006
 2144SOL    HW118065   1.766   4.689   8.850  0.5273 -2.9024 -0.8841
 2144SOL    HW218066   1.632   0.006   8.888  3.2403  1.4245  0.3722
 2145SOL     OW18067   0.923   1.339   2.910 -0.1817 -0.1440  0.5317
 2145SOL    HW118068   0.844   1.343   2.964  0.6154  0.6534  1.6433
 2145SOL    HW218069   0.933   1.247   2.886 -2.0424 -0.1760 -0.1213
 2146SOL     OW18070   1.215   1.471   5.371  0.7757  0.3536 -0.5296
 2146SOL    HW118071   1.274   1.412   5.419 -0.9232  0.0598  1.2055
 2146SOL    HW218072   1.277   1.520   5.317 -1.0082 -0.0367 -2.8900
 2147SOL     OW18073   0.460   0.713  15.732 -0.0667  0.1707 -0.3978
 2147SOL    HW118074   0.392   0.740  15.670 -0.5666  0.5762  0.3365
 2147SOL    HW218075   0.490   0.637  15.682  0.5441  1.1173 -1.4742
 2148SOL     OW18076   3.755   4.272  12.308  0.5381 -0.0022  0.1669
 2148SOL    HW118077   3.807   4.351  12.319 -0.5468  0.8558 -0.8453
 2148SOL    HW218078   3.789   4.206  12.368 -0.7617 -0.1624  0.7262
 2149SOL     OW18079   1.206   0.720  10.780 -0.6825 -0.2834  0.1422
 2149SOL    HW118080   1.253   0.801  10.801  1.5117 -1.4664 -0.1655
 2149SOL    HW218081   1.143   0.751  10.715 -0.6396 -2.0535 -0.7561
 2150SOL     OW18082   1.785   3.550  11.555  0.6320 -0.1174 -0.5608
 2150SOL    HW118083   1.728   3.601  11.498 -0.0457 -1.5991 -1.2192
 2150SOL    HW218084   1.735   3.543  11.636 -0.9939  0.5050 -1.5049
 2151SOL     OW18085   2.592   4.267   0.815  0.3392 -0.0409  0.1497
 2151SOL    HW118086   2.630   4.255   0.728 -0.3715 -3.7169  0.3310
 2151SOL    HW218087   2.569   4.360   0.817  1.3223  0.1972  0.7087
 2152SOL     OW18088   1.671   0.001  15.002 -0.5626  0.4010  0.0135
 2152SOL    HW118089   1.633   4.714  14.918 -0.6286 -0.2444  0.2371
 2152SOL    HW218090   1.688   0.089  14.968 -1.0622  0.7112  0.5629
 2153SOL     OW18091   4.578   0.053   8.910  0.0364  0.1728  0.0434
 2153SOL    HW118092   4.591   0.082   8.820  0.4839  1.4507  0.5033
 2153SOL    HW218093   4.603   4.701   8.891 -0.8657 -0.0638  0.0069
 2154SOL     OW18094   3.778   0.589  10.915 -0.4418  0.7580 -0.1292
 2154SOL    HW118095   3.809   0.514  10.865 -0.7372 -0.3513  1.3436
 2154SOL    HW218096   3.859   0.638  10.928  0.0580  0.3728 -1.7832
 2155SOL     OW18097   0.325   0.768   9.680 -0.0075  0.7718 -0.3979
 2155SOL    HW118098   0.408   0.810   9.660  0.1987  0.4631 -0.1943
 2155SOL    HW218099   0.285   0.769   9.593 -1.8040  0.2384  0.4170
 2156SOL     OW18100   3.310   1.266   9.996  0.0858  0.0271  0.3713
 2156SOL    HW118101   3.279   1.276  10.086  1.9132 -1.1411  1.1344
 2156SOL    HW218102   3.393   1.315  10.006  1.7128 -2.6091 -0.3042
 2157SOL     OW18103   2.491   4.631   2.165 -0.4420 -0.0905  0.4245
 2157SOL    HW118104   2.429   4.658   2.097 -1.7317  0.8441  1.9774
 2157SOL    HW218105   2.538   4.559   2.123  0.7854  1.3831 -0.6847
 2158SOL     OW18106   1.622   0.019  15.719 -0.1271  0.3050  0.0792
 2158SOL    HW118107   1.662   0.035  15.634  2.1100  1.7645  1.4236
 2158SOL    HW218108   1.586   4.669  15.709 -0.5843  0.3661  1.2043
 2159SOL     OW18109   2.572   1.629   2.225  0.2808  0.4258  0.4252
 2159SOL    HW118110   2.501   1.673   2.272  1.1285  1.6051  0.5838
 2159SOL    HW218111   2.647   1.643   2.282  1.0767 -0.7064 -0.3486
 2160SOL     OW18112   3.140   2.445   8.205 -0.5886 -0.0270 -0.0434
 2160SOL    HW118113   3.133   2.535   8.236 -0.0009  0.1127 -0.3243
 2160SOL    HW218114   3.082   2.398   8.264  0.1600 -0.5461  0.2792
 2161SOL     OW18115   0.418   2.434  11.868  0.0831 -0.0493 -0.2312
 2161SOL    HW118116   0.360   2.360  11.885  0.4404 -0.0276  1.1342
 2161SOL    HW218117   0.496   2.399  11.911  0.3661 -0.5429 -1.1558
 2162SOL     OW18118   1.649   3.550   2.653  0.3485  0.3089 -0.4545
 2162SOL    HW118119   1.594   3.477   2.626 -0.3856  0.3312  0.9783
 2162SOL    HW218120   1.583   3.613   2.683  1.3160 -0.4243  3.1556
 2163SOL     OW18121   3.498   0.075   7.784 -0.0367 -0.1111  0.1817
 2163SOL    HW118122   3.572   0.055   7.842 -1.7215 -1.6031  1.8166
 2163SOL    HW218123   3.504   4.729   7.739 -1.6358  0.0066 -0.2229
 2164SOL     OW18124   1.374   1.059   5.618  0.7278  0.3817 -0.0056
 2164SOL    HW118125   1.289   1.052   5.575  1.2017  0.8489 -1.0100
 2164SOL    HW218126   1.423   0.985   5.582 -2.3754 -0.8739 -1.6860
 2165SOL     OW18127   1.721   1.854   3.722 -0.0436  0.0435 -0.7463
 2165SOL    HW118128   1.678   1.930   3.683 -1.1315 -0.1393  0.1007
 2165SOL    HW218129   1.651   1.829   3.782  0.3382 -0.7780 -0.6421
 2166SOL     OW18130   2.863   0.035  17.455 -0.1864  0.2115  0.3510
 2166SOL    HW118131   2.943   0.018  17.505 -1.1576  1.1340  2.2277
 2166SOL    HW218132   2.821   0.108  17.501  0.1252  0.2754  0.5321
 2167SOL     OW18133   3.617   4.536   1.391  0.2786 -0.0612  0.4849
 2167SOL    HW118134   3.603   4.577   1.477  0.6444 -2.6875  1.7815
 2167SOL    HW218135   3.545   4.473   1.391  0.3245 -0.0980  2.2885
 2168SOL     OW18136   0.969   0.097   4.210  0.1354  0.0157  0.6609
 2168SOL    HW118137   0.974   0.003   4.223 -1.8913 -0.1061  0.6683
 2168SOL    HW218138   0.981   0.127   4.301 -0.7177  0.2410  0.7050
 2169SOL     OW18139   0.759   1.483   8.103 -0.6842  0.3130 -0.7836
 2169SOL    HW118140   0.775   1.410   8.163  1.5757  1.3090 -0.1640
 2169SOL    HW218141   0.809   1.555   8.143  1.7868 -1.9638  0.2464
 2170SOL     OW18142   3.127   1.362   9.531  0.4378 -0.2376 -0.0302
 2170SOL    HW118143   3.155   1.346   9.621 -0.9661 -3.2336 -0.1083
 2170SOL    HW218144   3.131   1.458   9.531 -1.2773 -0.1627 -1.9923
 2171SOL     OW18145   4.570   0.643   3.128 -0.0551  0.3777  0.5910
 2171SOL    HW118146   4.520   0.589   3.189  0.7061 -2.2233 -1.0611
 2171SOL    HW218147   4.614   0.586   3.065 -2.0324  0.9567 -1.3339
 2172SOL     OW18148   1.138   1.840   7.189  0.3634  0.1600  0.4883
 2172SOL    HW118149   1.206   1.868   7.250 -0.2489 -0.7766  1.6212
 2172SOL    HW218150   1.084   1.784   7.245  1.3164 -0.2202  1.0258
 2173SOL     OW18151   3.925   4.738   5.899 -0.2730  0.0249  0.0296
 2173SOL    HW118152   3.990   0.067   5.879 -0.5675 -0.0359 -1.1043
 2173SOL    HW218153   3.941   4.674   5.830 -0.1326  0.0050  0.0791
 2174SOL     OW18154   0.602   1.348   5.384 -0.8017  0.2283 -0.0921
 2174SOL    HW118155   0.621   1.384   5.298 -2.8004 -0.7075 -0.9293
 2174SOL    HW218156   0.562   1.427   5.421 -0.9926  0.8399 -1.6272
 2175SOL     OW18157   0.243   1.452  10.451  0.4775 -0.1514 -0.6261
 2175SOL    HW118158   0.183   1.517  10.416 -0.2557 -1.1292 -1.1590
 2175SOL    HW218159   0.189   1.438  10.529 -0.4743 -0.5301 -1.3573
 2176SOL     OW18160   2.902   0.607   8.195 -0.0879  0.4630  0.0917
 2176SOL    HW118161   2.835   0.675   8.183  1.3593  1.8376 -0.1432
 2176SOL    HW218162   2.986   0.648   8.177 -1.1694  1.6441 -2.2779
 2177SOL     OW18163   0.080   1.236   9.740  0.2638  0.8677 -0.8313
 2177SOL    HW118164   0.139   1.311   9.737  2.0833 -0.5208  0.3465
 2177SOL    HW218165   0.000   1.268   9.783  0.4199  0.9925 -0.6349
 2178SOL     OW18166   0.797   0.393   9.226  0.2059 -0.1901 -0.0299
 2178SOL    HW118167   0.709   0.355   9.219 -0.2254  1.3374 -2.7100
 2178SOL    HW218168   0.842   0.316   9.259 -0.3889 -0.0656  1.0950
 2179SOL     OW18169   3.012   4.122  12.299 -0.4726  0.3149  0.4250
 2179SOL    HW118170   2.935   4.088  12.253  1.9828 -0.5603 -3.1134
 2179SOL    HW218171   3.041   4.191  12.240 -2.7815  0.2654 -0.7570
 2180SOL     OW18172   2.733   3.195  11.784  0.1080 -0.6597  0.2431
 2180SOL    HW118173   2.773   3.281  11.776 -0.0695 -0.5168  0.8982
 2180SOL    HW218174   2.642   3.224  11.795  0.2629 -0.4279  0.9117
 2181SOL     OW18175   1.254   1.491  17.214  0.0074  0.5945  0.5432
 2181SOL    HW118176   1.166   1.469  17.183 -1.0964  3.3972  1.7374
 2181SOL    HW218177   1.241   1.489  17.309 -2.8765 -1.8158  0.1084
 2182SOL     OW18178   1.435   0.579   4.300  0.5280  0.1905  0.2472
 2182SOL    HW118179   1.365   0.621   4.249  1.8578  0.5794 -1.2443
 2182SOL    HW218180   1.509   0.597   4.243  0.3881 -0.1049 -0.0351
 2183SOL     OW18181   2.717   1.368   4.005  0.1807  0.0752  0.2394
 2183SOL    HW118182   2.738   1.280   3.975 -0.9581 -0.2325  0.3505
 2183SOL    HW218183   2.690   1.358   4.096  0.6289  1.1364  0.4877
 2184SOL     OW18184   3.601   2.371   2.926 -0.7145  0.0409  0.4857
 2184SOL    HW118185   3.651   2.308   2.978 -1.3291  0.4327  1.5456
 2184SOL    HW218186   3.525   2.370   2.983  0.7782 -1.5432  2.4217
 2185SOL     OW18187   2.934   0.934   5.487  0.1972 -0.7435  0.1523
 2185SOL    HW118188   2.890   0.876   5.549  1.4005 -1.3730  0.4061
 2185SOL    HW218189   3.022   0.897   5.485 -0.0987 -1.5221  1.9437
 2186SOL     OW18190   3.921   1.148   8.408  0.6089 -0.5809 -0.1312
 2186SOL    HW118191   4.000   1.198   8.387 -0.1666  0.5005 -0.4657
 2186SOL    HW218192   3.941   1.061   8.373  0.0343 -1.3121  1.3762
 2187SOL     OW18193   3.716   0.060  15.390  0.1007 -0.1420  0.6607
 2187SOL    HW118194   3.755   0.123  15.330 -0.7993 -0.0865  0.1323
 2187SOL    HW218195   3.799   0.021  15.418  0.4004 -0.3448 -0.5116
 2188SOL     OW18196   0.380   1.881   5.246  0.0216  0.0761 -0.6651
 2188SOL    HW118197   0.353   1.802   5.292 -0.5569  0.3304 -0.5706
 2188SOL    HW218198   0.350   1.857   5.158 -0.1922 -1.9119 -0.0497
 2189SOL     OW18199   3.595   3.260   7.798 -0.2841  0.4076  0.0576
 2189SOL    HW118200   3.536   3.282   7.870  0.0952 -1.4295  0.9265
 2189SOL    HW218201   3.631   3.346   7.776  0.2937  0.4448  1.1442
 2190SOL     OW18202   0.055   3.607   5.036 -0.3695 -0.1330 -0.4417
 2190SOL    HW118203   0.142   3.575   5.057 -0.1018  0.1889 -1.0448
 2190SOL    HW218204   0.034   3.546   4.965  0.8920 -0.2294 -0.7247
 2191SOL     OW18205   0.317   0.800   7.811  0.4637  0.1419 -0.0562
 2191SOL    HW118206   0.391   0.751   7.776 -0.0645  0.5954 -1.8317
 2191SOL    HW218207   0.355   0.888   7.800  1.4111 -0.3291 -0.5316
 2192SOL     OW18208   3.102   2.643  11.685 -0.1631 -0.3710  0.8633
 2192SOL    HW118209   3.133   2.600  11.605 -0.5776  1.1363 -0.1141
 2192SOL    HW218210   3.095   2.572  11.748  1.8190  0.5109  2.0746
 2193SOL     OW18211   4.151   0.280   4.001  0.2408  0.5300 -0.9039
 2193SOL    HW118212   4.121   0.211   4.060 -0.4984  2.2607  0.7222
 2193SOL    HW218213   4.162   0.360   4.052  0.4737 -0.3251  0.3708
 2194SOL     OW18214   0.679   3.153   6.020 -0.4931 -0.6367 -0.0017
 2194SOL    HW118215   0.687   3.058   6.010 -0.6314 -0.7673  1.2010
 2194SOL    HW218216   0.598   3.175   5.974 -0.8312  0.8747  1.3295
 2195SOL     OW18217   1.793   0.949  11.720  0.9394  0.7985  0.2127
 2195SOL    HW118218   1.722   0.888  11.704 -0.0375  2.0024 -0.0894
 2195SOL    HW218219   1.779   0.960  11.814 -0.6010 -0.2547  0.0946
 2196SOL     OW18220   1.434   1.145   2.967  0.0259  0.3601  0.6443
 2196SOL    HW118221   1.376   1.167   2.894  1.0709 -0.0205 -0.2906
 2196SOL    HW218222   1.517   1.187   2.941 -0.9310 -0.0960 -3.2172
 2197SOL     OW18223   2.504   0.959   1.284  0.1276  0.4492 -0.2427
 2197SOL    HW118224   2.538   0.937   1.197  1.1349  2.4556 -0.3510
 2197SOL    HW218225   2.562   0.903   1.336 -1.6423 -0.7002  0.5080
 2198SOL     OW18226   1.783   1.171  16.280 -0.3101  0.0460 -0.1551
 2198SOL    HW118227   1.721   1.098  16.277  1.4823 -1.4216 -1.7151
 2198SOL    HW218228   1.735   1.252  16.263 -2.0020 -1.0790 -0.7728
 2199SOL     OW18229   1.290   1.658   0.226  0.8590 -0.1885  0.3601
 2199SOL    HW118230   1.308   1.675   0.318  0.9988 -1.8953  0.6451
 2199SOL    HW218231   1.259   1.741   0.191 -0.8403 -0.9603  0.0136
 2200SOL     OW18232   1.006   3.452   5.804 -0.1997 -0.5366 -0.1479
 2200SOL    HW118233   1.038   3.516   5.868  1.2057  0.1769 -1.5476
 2200SOL    HW218234   1.090   3.435   5.762 -0.2000 -1.5179  0.2537
 2201SOL     OW18235   0.028   1.842   2.622  0.4505 -0.5152  0.0761
 2201SOL    HW118236   0.100   1.778   2.623  0.6785 -0.2101  1.6670
 2201SOL    HW218237   0.051   1.889   2.542  1.3216  1.0994  1.2951
 2202SOL     OW18238   3.029   0.785  15.343  0.4166 -0.4564 -0.3202
 2202SOL    HW118239   3.099   0.849  15.350  2.0886 -2.1649 -1.4644
 2202SOL    HW218240   3.014   0.768  15.250  0.3958 -1.5861 -0.1124
 2203SOL     OW18241   1.396   1.448   2.416 -0.3373 -0.4170 -0.6994
 2203SOL    HW118242   1.385   1.542   2.429 -0.8757 -0.2747 -2.1552
 2203SOL    HW218243   1.309   1.420   2.445 -0.8096 -0.4654 -2.1584
 2204SOL     OW18244   4.469   4.564  11.662 -1.0212 -0.3375  0.3878
 2204SOL    HW118245   4.441   4.501  11.597 -0.3166 -1.0536  0.7732
 2204SOL    HW218246   4.476   4.515  11.744 -0.6289  1.0840  1.2005
 2205SOL     OW18247   2.189   3.079   5.793  0.0277  0.3938 -0.3417
 2205SOL    HW118248   2.113   3.025   5.772  2.2977 -2.0298 -2.3006
 2205SOL    HW218249   2.167   3.105   5.883  1.9406 -0.4190  0.3597
 2206SOL     OW18250   2.830   1.792  15.232  0.0686 -0.1117  0.0282
 2206SOL    HW118251   2.920   1.822  15.230 -0.6669  2.1747  1.3998
 2206SOL    HW218252   2.826   1.737  15.310 -0.7956 -0.0048  0.0564
 2207SOL     OW18253   0.520   3.965   9.397  0.1071  0.2022 -0.2049
 2207SOL    HW118254   0.500   4.044   9.346 -1.9358 -1.0960 -1.4099
 2207SOL    HW218255   0.610   3.979   9.425  0.4161 -1.4023 -0.4228
 2208SOL     OW18256   1.243   1.212   1.365 -0.0114  0.1970 -0.0162
 2208SOL    HW118257   1.178   1.240   1.301  1.0294 -0.9583 -1.6058
 2208SOL    HW218258   1.323   1.192   1.315  1.5608  0.9001  2.1900
 2209SOL     OW18259   1.573   3.121   4.805  0.5384  0.0078  0.4179
 2209SOL    HW118260   1.625   3.157   4.877 -2.1322 -0.5174  2.6076
 2209SOL    HW218261   1.586   3.192   4.742  0.9591 -0.8105 -0.4090
 2210SOL     OW18262   4.272   0.123   2.892 -0.1055  0.3552 -0.2739
 2210SOL    HW118263   4.195   0.099   2.839  0.8066  0.2176 -1.5267
 2210SOL    HW218264   4.315   0.038   2.900 -0.9914  0.1313  2.0636
 2211SOL     OW18265   0.802   2.199   6.917 -0.4097 -0.9124 -0.0396
 2211SOL    HW118266   0.794   2.197   6.821  0.6205  2.0985 -0.1819
 2211SOL    HW218267   0.717   2.160   6.939 -1.4354  0.9411 -0.6780
 2212SOL     OW18268   1.594   0.455  10.487  0.3544 -0.9691  0.5429
 2212SOL    HW118269   1.592   0.488  10.577  0.5122  0.6437 -0.0459
 2212SOL    HW218270   1.500   0.443  10.470  0.2139 -0.2747  0.8071
 2213SOL     OW18271   1.619   4.209  12.915  0.4349 -0.5290  0.0709
 2213SOL    HW118272   1.581   4.184  12.999  0.1891 -1.1362 -0.2186
 2213SOL    HW218273   1.548   4.191  12.854  0.3255  0.3530 -0.0623
 2214SOL     OW18274   0.656   0.715   4.667 -0.3866  0.5805 -0.2315
 2214SOL    HW118275   0.573   0.761   4.674  0.3241  1.7615  0.4298
 2214SOL    HW218276   0.699   0.768   4.734  0.6860 -0.7347  0.1149
 2215SOL     OW18277   0.982   2.969   4.448 -0.1124 -0.1750  0.7004
 2215SOL    HW118278   0.906   2.971   4.390 -1.1043 -0.8592  1.9590
 2215SOL    HW218279   1.047   2.994   4.381 -1.6271  0.2115 -0.6209
 2216SOL     OW18280   3.073   1.897   3.184  0.4296 -0.1203 -0.2102
 2216SOL    HW118281   3.161   1.903   3.221  0.3907 -0.6874 -0.0235
 2216SOL    HW218282   3.036   1.985   3.187 -0.6521 -0.6086  0.6635
 2217SOL     OW18283   0.006   0.903   1.308 -0.4112 -0.1223 -0.1107
 2217SOL    HW118284   0.090   0.947   1.296 -1.1414  1.5896  1.0047
 2217SOL    HW218285   4.694   0.955   1.246 -2.1987 -1.1361  0.4960
 2218SOL     OW18286   1.592   2.932   4.582  0.0148  0.0096 -0.1488
 2218SOL    HW118287   1.682   2.958   4.605  1.1991 -3.5949 -0.8027
 2218SOL    HW218288   1.545   2.994   4.638 -0.0438 -0.7299  0.6207
 2219SOL     OW18289   2.031   4.445   4.278 -0.1084  0.3652  0.5546
 2219SOL    HW118290   2.064   4.356   4.268 -0.9157  0.0682  0.5030
 2219SOL    HW218291   1.942   4.440   4.242 -0.9075  0.7585  2.4538
 2220SOL     OW18292   1.415   3.715   7.212  0.0835 -0.5795  0.1839
 2220SOL    HW118293   1.383   3.686   7.127  0.1997  2.4662 -0.8873
 2220SOL    HW218294   1.427   3.808   7.196 -0.9779 -0.5264 -0.2516
 2221SOL     OW18295   2.288   3.032   3.222 -0.0106  0.1208 -0.2847
 2221SOL    HW118296   2.214   3.009   3.277  1.6805 -1.1818  1.4395
 2221SOL    HW218297   2.273   2.997   3.134  0.8094  0.3245 -0.5080
 2222SOL     OW18298   3.189   1.330   8.217 -0.3218 -0.2256 -0.8276
 2222SOL    HW118299   3.270   1.342   8.167  0.4185  2.0482  0.9317
 2222SOL    HW218300   3.215   1.365   8.302 -0.3235  1.6354 -1.5789
 2223SOL     OW18301   1.089   3.752   6.806  0.2426 -0.7205 -0.8288
 2223SOL    HW118302   1.164   3.703   6.841  0.7537  0.4952 -0.2126
 2223SOL    HW218303   1.123   3.840   6.788 -0.0366 -0.0620  1.8907
 2224SOL     OW18304   3.186   4.366   7.457 -0.5248  0.1666  0.3373
 2224SOL    HW118305   3.261   4.313   7.483  0.6608  1.3564 -0.6401
 2224SOL    HW218306   3.113   4.316   7.494 -1.5394  0.4312 -1.2637
 2225SOL     OW18307   0.484   3.427   5.972 -0.5720 -0.2982  0.0843
 2225SOL    HW118308   0.463   3.492   6.040 -0.7429  1.1012 -1.2902
 2225SOL    HW218309   0.425   3.456   5.902 -0.4012  0.7015  0.3442
 2226SOL     OW18310   2.837   0.349   4.946  0.2022 -0.5416  0.4814
 2226SOL    HW118311   2.766   0.386   4.999  0.4896 -1.0046  1.1979
 2226SOL    HW218312   2.888   0.423   4.914 -2.1187  1.4826  1.4476
 2227SOL     OW18313   3.094   0.336   7.660 -0.0585  0.1204 -0.2410
 2227SOL    HW118314   3.128   0.410   7.610  0.1716  0.6997  0.7788
 2227SOL    HW218315   3.031   0.306   7.595 -3.1059  5.3619  0.3152
 2228SOL     OW18316   1.411   3.015   2.287 -0.0727 -0.3375 -0.2637
 2228SOL    HW118317   1.352   3.061   2.346 -2.3331 -0.5369 -2.3401
 2228SOL    HW218318   1.434   2.944   2.347  2.2789 -0.0906 -0.8512
 2229SOL     OW18319   0.309   0.393  15.459  0.1219 -0.4139 -0.1565
 2229SOL    HW118320   0.222   0.353  15.471  0.6371 -1.1458  1.1192
 2229SOL    HW218321   0.277   0.482  15.475 -0.2788 -0.3265 -1.3969
 2230SOL     OW18322   3.334   0.935   7.804 -0.4688 -0.0158  0.9132
 2230SOL    HW118323   3.285   0.956   7.884 -0.9771  0.5448  0.4561
 2230SOL    HW218324   3.337   1.022   7.765  0.0268 -0.9297 -1.0821
 2231SOL     OW18325   1.271   4.377   0.811  0.0908  0.2374  0.0544
 2231SOL    HW118326   1.181   4.389   0.780 -0.8980 -2.0043  2.0478
 2231SOL    HW218327   1.324   4.446   0.772  0.9024  1.0749  2.6163
 2232SOL     OW18328   0.169   2.512  11.791  0.0447 -0.3178 -0.2247
 2232SOL    HW118329   0.231   2.562  11.738  0.5495 -1.7320 -0.9696
 2232SOL    HW218330   0.208   2.425  11.797 -2.0357 -1.3283 -1.5918
 2233SOL     OW18331   0.100   1.824  17.326 -0.2231 -0.4911  0.2045
 2233SOL    HW118332   0.133   1.754  17.382  1.5780 -0.3317 -0.6735
 2233SOL    HW218333   0.162   1.837  17.255  0.9172  2.9038  1.8471
 2234SOL     OW18334   1.987   1.128   5.942 -0.0620  0.0321 -0.4295
 2234SOL    HW118335   1.972   1.174   6.025  1.0034  0.3316 -0.3929
 2234SOL    HW218336   1.910   1.071   5.941  1.1905 -1.7309  1.5594
 2235SOL     OW18337   2.563   4.069   6.688 -0.9000 -0.0011 -0.4976
 2235SOL    HW118338   2.488   4.125   6.707 -0.4332 -0.2865  2.0778
 2235SOL    HW218339   2.638   4.128   6.699 -0.7462 -0.2796 -0.0936
 2236SOL     OW18340   2.588   4.342   9.849 -0.0549 -0.2655  0.1837
 2236SOL    HW118341   2.614   4.357   9.758 -0.6846 -0.2175  0.0114
 2236SOL    HW218342   2.493   4.354   9.847  0.2172  1.4710 -2.5842
 2237SOL     OW18343   0.066   0.428   4.325  0.2658 -0.1128 -0.2120
 2237SOL    HW118344   0.084   0.438   4.232  0.4621 -2.1434 -0.4027
 2237SOL    HW218345   0.125   0.487   4.371  0.0798  0.0834 -0.2227
 2238SOL     OW18346   0.500   2.927   3.053  0.2765 -0.0022 -0.5602
 2238SOL    HW118347   0.449   2.930   3.135 -0.8312  1.1314 -1.2907
 2238SOL    HW218348   0.463   2.852   3.007  1.4313 -0.5736 -0.5544
 2239SOL     OW18349   0.916   1.653   8.623 -0.4081  0.4296  0.5369
 2239SOL    HW118350   0.988   1.615   8.674  2.1313  0.9340 -2.7078
 2239SOL    HW218351   0.884   1.575   8.578  1.4306  0.9400 -1.6450
 2240SOL     OW18352   0.049   2.570   3.155  0.4636 -0.3474 -0.3436
 2240SOL    HW118353   0.085   2.515   3.086 -2.1198 -2.0613 -0.3492
 2240SOL    HW218354   0.072   2.522   3.235 -1.0866 -1.4242 -0.5250
 2241SOL     OW18355   1.713   3.014   4.035 -0.9217 -0.2893  0.4774
 2241SOL    HW118356   1.706   3.085   3.971  0.6577 -0.8939 -0.3737
 2241SOL    HW218357   1.620   3.010   4.055 -0.9009 -0.2185  0.5855
 2242SOL     OW18358   2.170   2.255   4.821  0.3405  0.8765 -0.3167
 2242SOL    HW118359   2.076   2.274   4.811  0.0303 -1.2912 -1.4712
 2242SOL    HW218360   2.176   2.225   4.911  1.1724 -2.7866 -1.5721
 2243SOL     OW18361   1.323   1.944  15.990 -0.3341  0.5044 -0.5382
 2243SOL    HW118362   1.334   1.852  15.965  0.5347  0.2919  0.6004
 2243SOL    HW218363   1.405   1.978  15.954 -0.1604  0.8531  0.1923
 2244SOL     OW18364   0.255   2.417   9.032 -0.1850  0.4281 -0.4211
 2244SOL    HW118365   0.202   2.384   8.959  0.0064  0.6948 -0.6822
 2244SOL    HW218366   0.338   2.375   9.011 -1.1053 -1.5002 -0.2482
 2245SOL     OW18367   4.245   1.693   5.027 -0.1336 -0.0363  0.0950
 2245SOL    HW118368   4.240   1.739   5.111 -0.7679 -0.0157  0.0478
 2245SOL    HW218369   4.205   1.607   5.044 -0.6271 -0.3156 -2.4130
 2246SOL     OW18370   4.462   3.876   5.388 -0.9109 -0.1108 -0.0184
 2246SOL    HW118371   4.440   3.865   5.481 -1.5883 -0.3081 -0.1998
 2246SOL    HW218372   4.503   3.791   5.373  0.6178  0.6402 -0.0702
 2247SOL     OW18373   3.516   1.972   6.588  0.4031 -0.4279 -0.3324
 2247SOL    HW118374   3.512   2.051   6.534  1.1848 -0.1017  0.0857
 2247SOL    HW218375   3.547   1.911   6.521  0.3257  1.2646 -1.8918
 2248SOL     OW18376   2.412   0.876   7.079 -0.2313 -0.3797 -0.0139
 2248SOL    HW118377   2.428   0.970   7.092 -2.2044  0.0012 -0.3435
 2248SOL    HW218378   2.481   0.856   7.016  1.1505  2.4474  0.5938
 2249SOL     OW18379   0.873   4.625   6.664 -0.3376  0.0189  0.1746
 2249SOL    HW118380   0.814   4.623   6.589 -0.3366 -2.3506  0.2230
 2249SOL    HW218381   0.916   4.709   6.647  0.5363 -0.4276  0.1804
 2250SOL     OW18382   3.369   0.513   1.827 -0.1736 -0.0274 -0.5299
 2250SOL    HW118383   3.276   0.505   1.850 -0.2096 -0.7703 -0.9278
 2250SOL    HW218384   3.411   0.441   1.873 -0.6441  0.4226  0.6068
 2251SOL     OW18385   2.709   3.851   6.517  0.2977 -0.6606  0.0354
 2251SOL    HW118386   2.713   3.785   6.585 -0.8707 -0.0959  0.6457
 2251SOL    HW218387   2.675   3.925   6.568 -0.0337 -0.8250  0.0528
 2252SOL     OW18388   0.740   1.230  15.273 -0.1029  0.1113  0.5733
 2252SOL    HW118389   0.727   1.249  15.180  1.3113  0.4446  0.4312
 2252SOL    HW218390   0.742   1.319  15.309  2.4057  0.4236 -0.3238
 2253SOL     OW18391   4.599   0.950   6.932 -0.2783 -0.2648 -0.3456
 2253SOL    HW118392   4.516   0.993   6.914 -0.4280 -0.2314  0.4322
 2253SOL    HW218393   4.572   0.861   6.950 -0.6043  0.0069  0.4913
 2254SOL     OW18394   1.026   1.897   8.781 -0.1941  0.1856  0.3357
 2254SOL    HW118395   1.050   1.896   8.688 -0.8494 -1.0424  0.1807
 2254SOL    HW218396   1.009   1.991   8.785  0.8474  0.4115 -0.3943
 2255SOL     OW18397   4.493   4.537  12.524  0.3055  0.1743  0.2875
 2255SOL    HW118398   4.529   4.565  12.440 -0.4032  1.1921  0.3246
 2255SOL    HW218399   4.405   4.522  12.488  1.1321 -0.2113 -1.6085
 2256SOL     OW18400   1.253   0.399  17.395 -0.2574  0.5639 -0.2487
 2256SOL    HW118401   1.244   0.411  17.490 -1.8985 -3.6378  0.0933
 2256SOL    HW218402   1.345   0.374  17.389 -0.5694  0.0488 -2.7115
 2257SOL     OW18403   3.686   3.505   7.786  0.2330 -0.1703  0.7169
 2257SOL    HW118404   3.699   3.586   7.736  1.9085 -0.6852  0.3409
 2257SOL    HW218405   3.669   3.544   7.872  2.1707 -0.7456  1.3453
 2258SOL     OW18406   2.278   0.871   2.803  0.2010  0.1417  0.0855
 2258SOL    HW118407   2.352   0.811   2.799  0.3451  0.2245  1.3715
 2258SOL    HW218408   2.319   0.946   2.847  0.8474  0.0423 -0.3547
 2259SOL     OW18409   4.180   0.147   0.009  0.3372  0.1494 -0.5257
 2259SOL    HW118410   4.263   0.186  17.734  1.0979 -2.5024 -2.0478
 2259SOL    HW218411   4.215   0.063   0.041 -1.3261  0.2547  1.6354
 2260SOL     OW18412   1.201   3.580   9.139 -0.7651  0.0010  0.1620
 2260SOL    HW118413   1.123   3.526   9.135 -1.0717  0.4766 -0.2670
 2260SOL    HW218414   1.264   3.508   9.146  2.0645  2.3779 -0.8726
 2261SOL     OW18415   2.707   3.046   8.857  0.2182 -0.2139  0.1978
 2261SOL    HW118416   2.783   3.104   8.853 -0.2783  0.4033 -0.2963
 2261SOL    HW218417   2.740   2.963   8.892 -1.3253 -0.8513  0.1267
 2262SOL     OW18418   3.868   1.745   3.393 -0.5847 -0.7208  0.0475
 2262SOL    HW118419   3.918   1.795   3.458 -1.4556 -0.0164  0.1870
 2262SOL    HW218420   3.930   1.689   3.348 -1.9361 -0.9254 -1.5668
 2263SOL     OW18421   0.040   0.588   1.833 -0.5489 -0.1355  0.2796
 2263SOL    HW118422   0.005   0.667   1.874  1.7461  0.6324  0.7348
 2263SOL    HW218423   4.701   0.534   1.844  0.5315 -1.8747 -0.6717
 2264SOL     OW18424   2.564   4.321   6.464  0.6540 -0.1214  0.1125
 2264SOL    HW118425   2.470   4.315   6.481  0.8868 -3.2662  0.3031
 2264SOL    HW218426   2.591   4.389   6.526 -2.4479 -0.2394  1.6125
 2265SOL     OW18427   2.208   3.398   7.951  0.7099  0.7523  0.0915
 2265SOL    HW118428   2.160   3.356   7.879  0.7020  0.7858  0.0772
 2265SOL    HW218429   2.296   3.388   7.914  0.5705 -1.2338  0.2782
 2266SOL     OW18430   1.505   1.874  16.964  0.0136  0.5190 -0.2200
 2266SOL    HW118431   1.544   1.842  16.883 -0.0001  1.7029 -0.6937
 2266SOL    HW218432   1.499   1.795  17.018 -2.0347  1.3437  0.7650
 2267SOL     OW18433   3.562   2.328   1.605 -0.3148 -0.0813  0.2563
 2267SOL    HW118434   3.546   2.291   1.518  0.0019 -0.6006  0.4199
 2267SOL    HW218435   3.525   2.264   1.666 -0.9964  2.1886  2.2574
 2268SOL     OW18436   3.642   0.066  15.677 -0.4596  0.7049  0.0116
 2268SOL    HW118437   3.728   0.036  15.705 -1.0949  0.0285  1.2828
 2268SOL    HW218438   3.594   0.066  15.760  1.9929  3.1585  1.4098
 2269SOL     OW18439   1.743   3.152   9.207  0.2117 -0.2046 -0.4435
 2269SOL    HW118440   1.663   3.146   9.155 -0.0754  1.7875 -0.2269
 2269SOL    HW218441   1.723   3.095   9.280  2.5828 -2.1679 -1.3375
 2270SOL     OW18442   0.352   1.121   9.353  0.4705 -0.4058 -0.4067
 2270SOL    HW118443   0.283   1.085   9.297 -0.3000  2.9516 -1.5674
 2270SOL    HW218444   0.312   1.098   9.438  0.3306 -0.8228 -0.5842
 2271SOL     OW18445   3.529   2.459   5.312  0.2385  0.1715  0.0098
 2271SOL    HW118446   3.569   2.520   5.250 -0.3883 -0.2691 -0.8426
 2271SOL    HW218447   3.562   2.497   5.393 -2.0092 -0.5753  1.2827
 2272SOL     OW18448   0.517   2.135   8.072  0.0402  0.6874  0.1499
 2272SOL    HW118449   0.472   2.088   8.001 -0.1483  1.3334 -0.1569
 2272SOL    HW218450   0.465   2.110   8.148 -1.2408  1.1806 -0.5639
 2273SOL     OW18451   1.926   4.615   2.447  0.2630  0.2963 -0.2403
 2273SOL    HW118452   1.926   4.616   2.543 -1.0256 -1.3517 -0.2241
 2273SOL    HW218453   1.877   4.534   2.433  0.3517  0.1333  0.3803
 2274SOL     OW18454   2.577   2.282  16.484  0.2047  0.2813 -1.0006
 2274SOL    HW118455   2.663   2.300  16.446  0.0388 -0.1756 -1.5922
 2274SOL    HW218456   2.556   2.192  16.461 -3.0585  1.1764 -1.5861
 2275SOL     OW18457   0.972   2.100   0.859  0.0390  0.2390 -0.0425
 2275SOL    HW118458   0.895   2.153   0.879  0.8364  1.4101 -0.0755
 2275SOL    HW218459   0.963   2.025   0.919  2.5923 -1.1167 -1.3635
 2276SOL     OW18460   1.271   3.578   8.049 -0.0338 -0.4847 -0.1059
 2276SOL    HW118461   1.197   3.528   8.016  0.0123 -0.0860 -0.8085
 2276SOL    HW218462   1.215   3.636   8.102 -2.8236 -4.8319  1.7345
 2277SOL     OW18463   3.809   3.816   5.710 -0.6206  0.3826 -0.3890
 2277SOL    HW118464   3.738   3.855   5.762  0.0679  0.8833  0.1776
 2277SOL    HW218465   3.794   3.723   5.724  1.1793  0.1676  0.0931
 2278SOL     OW18466   2.364   2.072   8.132  0.3524  0.5130  0.2482
 2278SOL    HW118467   2.302   2.011   8.174 -0.1029 -0.4322 -1.7958
 2278SOL    HW218468   2.392   2.120   8.210 -0.2549  1.4738 -0.1253
 2279SOL     OW18469   2.140   3.605  16.580  0.0624 -0.5305  0.0471
 2279SOL    HW118470   2.050   3.573  16.580 -0.2055  0.2500 -0.9819
 2279SOL    HW218471   2.151   3.615  16.675 -0.4857 -1.7435  0.2472
 2280SOL     OW18472   4.433   0.685  11.404 -0.3345  0.3289  0.0383
 2280SOL    HW118473   4.491   0.653  11.334  1.3319 -0.0655  1.6180
 2280SOL    HW218474   4.493   0.683  11.478  0.4577  0.3818 -0.6065
 2281SOL     OW18475   4.304   2.746  16.858 -0.4467  0.3026 -0.1016
 2281SOL    HW118476   4.302   2.703  16.773 -0.9788  0.8696 -0.3713
 2281SOL    HW218477   4.391   2.714  16.883  0.3005  1.1608 -1.6471
 2282SOL     OW18478   3.387   2.102   1.798 -0.2214  0.5173  0.4546
 2282SOL    HW118479   3.444   2.026   1.790 -0.6582  0.3550 -0.9871
 2282SOL    HW218480   3.313   2.070   1.748  0.0567  0.9332 -0.2152
 2283SOL     OW18481   1.472   3.485   3.409  0.3993 -0.3922 -0.3173
 2283SOL    HW118482   1.544   3.427   3.384  0.8018 -0.3663  0.7753
 2283SOL    HW218483   1.412   3.478   3.334 -1.0410 -0.8518  0.8806
 2284SOL     OW18484   4.053   3.278   7.133  0.1644 -0.3869 -0.0263
 2284SOL    HW118485   4.107   3.344   7.091 -1.2478 -0.0256 -1.2761
 2284SOL    HW218486   4.003   3.231   7.066 -0.6565  1.0670 -0.4310
 2285SOL     OW18487   4.702   3.789  10.321  0.9128  0.0205 -0.3560
 2285SOL    HW118488   0.008   3.848  10.260 -0.0099 -0.9593 -1.9762
 2285SOL    HW218489   0.036   3.733  10.348  0.0521  0.5169  2.9491
 2286SOL     OW18490   1.024   0.387   5.650 -0.5284  0.0804 -0.3903
 2286SOL    HW118491   1.111   0.367   5.616  0.6318  2.4946  1.2108
 2286SOL    HW218492   1.010   0.330   5.725  1.9324  0.7272  0.5464
 2287SOL     OW18493   2.009   0.422   8.700 -0.2256 -0.3970  0.3770
 2287SOL    HW118494   1.961   0.494   8.741 -0.3521 -0.6233  0.6297
 2287SOL    HW218495   2.088   0.419   8.753 -0.1707  0.7130  0.3636
 2288SOL     OW18496   1.607   3.796   1.778 -0.5699 -0.2270 -0.1949
 2288SOL    HW118497   1.608   3.883   1.736  1.8488 -1.1930 -2.1057
 2288SOL    HW218498   1.669   3.743   1.729 -0.1149 -0.1824  0.3299
 2289SOL     OW18499   4.673   1.171  10.669 -0.4665 -0.3175  0.0132
 2289SOL    HW118500   4.638   1.260  10.673 -0.0597 -0.2841  2.7151
 2289SOL    HW218501   4.595   1.116  10.668 -0.0634 -0.8974  1.0305
 2290SOL     OW18502   3.633   3.249  17.376 -0.2277 -0.3133 -0.7091
 2290SOL    HW118503   3.553   3.297  17.398 -0.1095 -1.8421  3.1493
 2290SOL    HW218504   3.703   3.314  17.375  0.4306 -1.0284 -1.3801
 2291SOL     OW18505   2.676   2.821   1.964 -0.3063 -0.9285  0.1371
 2291SOL    HW118506   2.729   2.875   2.023  2.6536 -1.8826 -1.6323
 2291SOL    HW218507   2.723   2.738   1.965  1.2541 -0.0292  1.6612
 2292SOL     OW18508   4.574   0.704   5.070  0.2572 -0.9987 -0.5074
 2292SOL    HW118509   4.571   0.678   4.978 -0.0182 -1.1241 -0.4636
 2292SOL    HW218510   4.669   0.714   5.077  0.3175 -1.3651 -0.7956
 2293SOL     OW18511   0.172   1.942   1.126 -0.2858  0.5382 -0.2848
 2293SOL    HW118512   0.170   2.017   1.186 -0.8393  0.3565 -0.0782
 2293SOL    HW218513   0.249   1.955   1.071 -0.3652  1.4185 -0.1887
 2294SOL     OW18514   1.829   1.556  15.716 -0.1963  0.3139  0.1210
 2294SOL    HW118515   1.789   1.594  15.638  1.0865  3.0878  0.7964
 2294SOL    HW218516   1.754   1.538  15.772 -0.0968 -1.1500 -0.2088
 2295SOL     OW18517   2.532   1.498  15.036 -0.0998  0.2864  0.0146
 2295SOL    HW118518   2.594   1.461  15.099 -0.8472 -0.9973 -0.0249
 2295SOL    HW218519   2.547   1.589  15.063  0.9780 -0.0250  0.4543
 2296SOL     OW18520   0.132   3.268   7.185 -0.3457 -0.4284  0.3311
 2296SOL    HW118521   0.041   3.253   7.158 -0.1938 -1.4636  0.3970
 2296SOL    HW218522   0.121   3.256   7.279  1.1496  0.0355  0.5712
 2297SOL     OW18523   1.428   2.545   6.493 -0.2321 -0.2437 -0.4328
 2297SOL    HW118524   1.364   2.612   6.467 -0.3568  0.1928  0.9665
 2297SOL    HW218525   1.419   2.562   6.587  1.8621 -0.0617 -0.2839
 2298SOL     OW18526   1.968   4.488  10.846  0.1971 -0.2577  0.2717
 2298SOL    HW118527   1.927   4.464  10.930 -1.8032  1.7120 -0.1160
 2298SOL    HW218528   1.987   4.401  10.812 -2.7627 -1.7096  2.2372
 2299SOL     OW18529   2.299   3.878   3.938 -0.4102 -0.3297 -0.7784
 2299SOL    HW118530   2.253   3.838   3.865  0.5697  0.4737 -1.8301
 2299SOL    HW218531   2.390   3.863   3.913  0.1579  1.8957 -0.0107
 2300SOL     OW18532   0.927   2.425   5.509 -0.0532  0.1061  0.3026
 2300SOL    HW118533   0.861   2.461   5.568 -0.5409  0.6888 -0.5939
 2300SOL    HW218534   0.879   2.389   5.435  0.4993 -1.3374  0.6535
 2301SOL     OW18535   2.041   1.507   5.548 -0.6475 -0.2512 -0.1283
 2301SOL    HW118536   2.005   1.419   5.535 -1.6319  0.3113 -1.1855
 2301SOL    HW218537   2.073   1.511   5.458  0.3454 -0.9335  0.1953
 2302SOL     OW18538   3.959   4.140   7.415  0.8884 -0.4541 -0.5675
 2302SOL    HW118539   3.875   4.096   7.430  0.9738 -0.0732  1.0570
 2302SOL    HW218540   3.993   4.100   7.336  1.1526 -2.4794  0.5883
 2303SOL     OW18541   4.591   4.217   5.255 -0.0719 -0.2294  0.0712
 2303SOL    HW118542   4.654   4.220   5.183  0.1574 -1.6798  0.2131
 2303SOL    HW218543   4.640   4.250   5.330  1.6688 -1.9358 -0.2824
 2304SOL     OW18544   3.167   3.940   4.929  0.4343  0.2471 -0.2296
 2304SOL    HW118545   3.219   3.989   4.993 -0.1097 -0.2061  0.5640
 2304SOL    HW218546   3.214   3.960   4.848  1.0802  0.1186  0.1132
 2305SOL     OW18547   2.050   2.980   8.806  0.0339 -0.1073  0.0921
 2305SOL    HW118548   2.129   3.016   8.767  0.7958 -1.2532  0.5534
 2305SOL    HW218549   2.094   2.910   8.855  1.2456  2.0014  2.0128
 2306SOL     OW18550   3.819   0.758   7.437 -0.3523 -0.3654  0.5802
 2306SOL    HW118551   3.871   0.798   7.506  1.3508 -0.0533 -0.8798
 2306SOL    HW218552   3.790   0.683   7.490 -0.8919 -1.4212 -1.1952
 2307SOL     OW18553   3.541   3.342  10.257  0.3194  0.3895  0.3092
 2307SOL    HW118554   3.464   3.398  10.257  1.9517  2.6539 -3.8089
 2307SOL    HW218555   3.510   3.271  10.313  0.5404  0.7032  0.8305
 2308SOL     OW18556   4.667   3.826   2.706  0.0550  0.4260  0.0409
 2308SOL    HW118557   4.701   3.737   2.706  0.5436  0.6179 -0.7422
 2308SOL    HW218558   4.736   3.876   2.662  0.0270  0.2911 -0.1550
 2309SOL     OW18559   2.572   3.885   1.884 -0.1011 -0.0956 -0.1275
 2309SOL    HW118560   2.575   3.893   1.789  1.7589 -1.4066 -0.1628
 2309SOL    HW218561   2.481   3.877   1.912 -1.1339  0.2992 -3.3865
 2310SOL     OW18562   1.035   0.951  15.409 -0.3185  0.7491 -0.1863
 2310SOL    HW118563   0.944   0.965  15.434 -0.0731  0.2812  0.9969
 2310SOL    HW218564   1.026   0.934  15.315 -0.4671  0.6895 -0.1599
 2311SOL     OW18565   4.122   1.666   7.192 -0.0718  0.4249  0.3862
 2311SOL    HW118566   4.076   1.660   7.276 -1.6707 -0.3991 -0.5476
 2311SOL    HW218567   4.213   1.674   7.221  0.3229 -0.4793 -0.6254
 2312SOL     OW18568   4.332   4.285   7.022  0.0564  0.0632  0.3329
 2312SOL    HW118569   4.416   4.252   6.988 -1.4908 -0.6708 -2.7061
 2312SOL    HW218570   4.346   4.265   7.115  1.7200  1.7124  0.4354
 2313SOL     OW18571   0.434   2.035   7.164  0.0132 -0.1782  0.3491
 2313SOL    HW118572   0.342   2.014   7.177  0.3570 -0.4551  2.4160
 2313SOL    HW218573   0.470   1.992   7.242  0.0075 -0.5744  0.1337
 2314SOL     OW18574   4.200   0.779   8.363  0.8172 -0.0194  0.2699
 2314SOL    HW118575   4.154   0.846   8.312  0.3757  0.3163  1.1055
 2314SOL    HW218576   4.125   0.721   8.377  0.7418  0.2420  0.9434
 2315SOL     OW18577   2.797   0.718  15.156 -0.0346 -0.2779 -0.1343
 2315SOL    HW118578   2.754   0.634  15.139  0.5457 -0.5055 -0.4539
 2315SOL    HW218579   2.852   0.728  15.079 -0.0072 -2.8840 -0.4830
 2316SOL     OW18580   0.094   0.337   3.320  0.2126  0.3263  0.3218
 2316SOL    HW118581   0.149   0.367   3.393  0.1186 -1.6454  1.2230
 2316SOL    HW218582   0.013   0.320   3.368  1.4988  0.0158  2.3972
 2317SOL     OW18583   1.121   2.658   7.943 -0.0739 -0.4437  0.9061
 2317SOL    HW118584   1.125   2.722   8.014  0.1836  1.6024 -0.9567
 2317SOL    HW218585   1.213   2.632   7.944 -0.3680 -1.4774  1.4339
 2318SOL     OW18586   1.225   0.978   9.281 -0.0143  0.5530 -0.0547
 2318SOL    HW118587   1.196   1.056   9.233  2.1026  1.7202  0.5522
 2318SOL    HW218588   1.188   0.914   9.221  0.3887  1.2333 -1.0272
 2319SOL     OW18589   2.908   0.722   5.208 -0.1406  0.2861 -0.1322
 2319SOL    HW118590   2.975   0.657   5.229  0.8922  1.5976  0.6248
 2319SOL    HW218591   2.899   0.777   5.285  0.6089  0.3167 -0.0658
 2320SOL     OW18592   0.698   3.813  14.176  0.4783  0.0906  0.0030
 2320SOL    HW118593   0.768   3.767  14.129  0.4221  0.8796 -0.8456
 2320SOL    HW218594   0.746   3.876  14.229 -0.3831  1.8053 -1.2385
 2321SOL     OW18595   4.446   1.082   0.265 -0.0571 -0.3534  0.0752
 2321SOL    HW118596   4.394   1.137   0.323  0.3621  1.2949 -1.1115
 2321SOL    HW218597   4.428   0.993   0.294  0.0311 -0.4379 -0.1298
 2322SOL     OW18598   1.640   0.673   5.685  0.0017 -0.2954  0.2806
 2322SOL    HW118599   1.672   0.747   5.633 -0.9001  2.5719  3.7448
 2322SOL    HW218600   1.549   0.701   5.695  0.7125  2.0506  0.1016
 2323SOL     OW18601   2.852   4.418   1.007 -0.2720  0.1972  0.3884
 2323SOL    HW118602   2.866   4.389   0.917  1.3786 -1.5390  1.1896
 2323SOL    HW218603   2.938   4.400   1.045  0.1512  1.2517 -0.0973
 2324SOL     OW18604   0.879   3.593  17.340  0.4782 -0.0616  0.6010
 2324SOL    HW118605   0.873   3.536  17.417 -0.1872  0.6521  1.0806
 2324SOL    HW218606   0.853   3.681  17.369 -0.4922 -0.3615  0.6304
 2325SOL     OW18607   0.713   0.526   7.550  0.2329 -0.1826  0.3123
 2325SOL    HW118608   0.792   0.570   7.583  0.9259 -1.7808  0.7786
 2325SOL    HW218609   0.646   0.589   7.576  0.1962 -0.7939  1.7405
 2326SOL     OW18610   0.947   1.933  12.136 -0.6086  0.2646 -0.4887
 2326SOL    HW118611   0.912   1.884  12.210 -1.7780  2.8514  0.6356
 2326SOL    HW218612   0.940   2.023  12.166 -0.3724 -0.2503  1.1160
 2327SOL     OW18613   0.038   3.471  13.168 -0.1705 -0.0337  0.0214
 2327SOL    HW118614   0.015   3.414  13.094 -1.1019  0.3344  0.0211
 2327SOL    HW218615   4.691   3.497  13.203  0.2898  0.5780  0.6849
 2328SOL     OW18616   3.858   4.288   8.623  0.2681  0.0541 -0.5606
 2328SOL    HW118617   3.940   4.332   8.599 -0.4107 -0.1275 -3.1864
 2328SOL    HW218618   3.866   4.312   8.715  1.7470 -0.5991 -0.5185
 2329SOL     OW18619   3.366   4.729  16.594 -0.1453  0.3654 -0.3960
 2329SOL    HW118620   3.395   0.004  16.684 -0.1066  0.8402 -0.4794
 2329SOL    HW218621   3.430   4.663  16.568 -0.0868  0.7017 -1.1250
 2330SOL     OW18622   4.455   4.650   2.985  0.2561 -0.5182  0.3315
 2330SOL    HW118623   4.528   4.703   2.953  0.2844 -1.1426 -0.6493
 2330SOL    HW218624   4.454   4.666   3.080  1.2650  0.7109  0.1351
 2331SOL     OW18625   1.283   1.174  17.229 -0.0384  0.6979 -0.4538
 2331SOL    HW118626   1.342   1.169  17.155  1.1654 -0.5627  0.5974
 2331SOL    HW218627   1.206   1.223  17.198 -0.5269  1.5580  2.0642
 2332SOL     OW18628   3.163   1.229   1.414  0.2793  0.1530 -0.1618
 2332SOL    HW118629   3.137   1.152   1.365  1.4461  1.8032 -3.3929
 2332SOL    HW218630   3.088   1.232   1.474  1.2905  2.3098  1.0284
 2333SOL     OW18631   4.491   4.209   6.414 -0.1393 -0.1837 -0.4506
 2333SOL    HW118632   4.541   4.288   6.392  0.2217 -0.4908 -0.7322
 2333SOL    HW218633   4.550   4.157   6.468  0.3743  0.6243 -0.2418
 2334SOL     OW18634   2.567   2.687   8.045 -0.2273 -0.5633  0.5240
 2334SOL    HW118635   2.604   2.775   8.040 -0.8619 -0.2712  0.8435
 2334SOL    HW218636   2.641   2.635   8.016 -0.8636 -0.1216 -1.8885
 2335SOL     OW18637   3.573   4.112   5.140  0.1494  0.4984  0.0989
 2335SOL    HW118638   3.635   4.184   5.127  0.8281 -0.2377 -0.7919
 2335SOL    HW218639   3.640   4.050   5.170  1.3261  0.8023 -1.8615
 2336SOL     OW18640   0.565   2.427   6.575  0.1183 -0.2749  0.4887
 2336SOL    HW118641   0.551   2.512   6.532  1.9110 -0.1282  0.1919
 2336SOL    HW218642   0.481   2.389   6.550  0.3085 -2.0991  2.7016
 2337SOL     OW18643   4.098   2.366   6.628  0.0035 -0.0785 -0.3078
 2337SOL    HW118644   4.181   2.412   6.641 -1.3463  1.6922  1.8491
 2337SOL    HW218645   4.120   2.287   6.578  0.9113 -0.9240  1.4213
 2338SOL     OW18646   1.314   1.629   2.125 -0.3468 -0.0331 -0.2260
 2338SOL    HW118647   1.267   1.555   2.163 -1.5218  0.6665 -0.3042
 2338SOL    HW218648   1.402   1.596   2.143  0.2147  1.2576 -0.6402
 2339SOL     OW18649   2.466   2.594  14.182 -0.2400  0.2182  0.0413
 2339SOL    HW118650   2.533   2.530  14.159 -2.2717 -0.9487 -2.6404
 2339SOL    HW218651   2.524   2.669  14.189 -0.4782  0.2975  1.1844
 2340SOL     OW18652   0.721   1.273   1.514 -0.1871 -0.7757  0.0054
 2340SOL    HW118653   0.757   1.359   1.535 -0.0577 -0.7807 -0.1917
 2340SOL    HW218654   0.634   1.270   1.554 -0.1225 -0.3137  0.1836
 2341SOL     OW18655   3.604   3.406   0.402 -0.4637  0.2282 -1.7816
 2341SOL    HW118656   3.626   3.481   0.457  1.7746  0.0996 -2.4913
 2341SOL    HW218657   3.649   3.431   0.322  0.3345  0.7270 -1.1737
 2342SOL     OW18658   2.994   3.359   2.000  0.0579 -0.0959 -0.2199
 2342SOL    HW118659   3.049   3.438   1.996 -1.4829  0.9934  0.1067
 2342SOL    HW218660   3.012   3.338   2.091  0.4927  1.9948  0.1876
 2343SOL     OW18661   1.831   4.456   5.619 -0.0138  0.2006 -0.1338
 2343SOL    HW118662   1.874   4.517   5.680 -0.3681  0.5515 -0.2386
 2343SOL    HW218663   1.748   4.502   5.623  0.9699  1.9253  0.2631
 2344SOL     OW18664   3.302   4.165  15.813  0.3871  1.0788 -0.3881
 2344SOL    HW118665   3.224   4.206  15.852 -0.8221 -0.4117 -1.2238
 2344SOL    HW218666   3.327   4.238  15.756 -0.3738  1.2293 -0.5321
 2345SOL     OW18667   4.027   2.656  10.728  0.1986  0.5044  0.3820
 2345SOL    HW118668   4.078   2.608  10.794 -1.4196 -0.3140  1.0344
 2345SOL    HW218669   4.060   2.740  10.759  2.8399 -0.7057  0.9029
 2346SOL     OW18670   1.619   4.359  15.042 -0.4081 -0.0701 -0.0551
 2346SOL    HW118671   1.574   4.340  15.125 -2.5037  1.3403 -0.8682
 2346SOL    HW218672   1.691   4.416  15.068  0.2794 -0.4912 -1.0738
 2347SOL     OW18673   4.430   0.260   2.656  0.0740  0.2930  0.2521
 2347SOL    HW118674   4.384   0.195   2.709 -2.4468  1.0670 -0.9672
 2347SOL    HW218675   4.403   0.343   2.696  2.7966  2.1986 -1.8549
 2348SOL     OW18676   1.785   3.642  10.341  0.4610 -0.0452  0.2696
 2348SOL    HW118677   1.811   3.550  10.342  0.8605  0.0625 -0.6738
 2348SOL    HW218678   1.871   3.678  10.319  1.4957 -2.6408  0.0156
 2349SOL     OW18679   3.979   1.968   5.705  0.4593  0.2821 -0.4995
 2349SOL    HW118680   3.949   1.926   5.786  1.0551  0.0621 -0.3938
 2349SOL    HW218681   4.025   2.044   5.739 -0.4292  0.6408 -0.0921
 2350SOL     OW18682   4.347   4.195   4.202 -0.6072 -0.1616 -0.1670
 2350SOL    HW118683   4.403   4.233   4.269  0.6840 -2.4877  0.0563
 2350SOL    HW218684   4.347   4.103   4.227  2.5256 -0.3313 -0.8352
 2351SOL     OW18685   0.829   3.008   6.649 -0.6259  0.1808  0.7296
 2351SOL    HW118686   0.826   2.927   6.599  2.1151 -0.9288  2.3180
 2351SOL    HW218687   0.775   3.071   6.601 -0.3106 -0.6505 -0.6962
 2352SOL     OW18688   1.400   0.881   7.815 -1.0131 -0.4456 -0.3021
 2352SOL    HW118689   1.397   0.928   7.899 -0.9822 -0.8467 -0.0789
 2352SOL    HW218690   1.484   0.841   7.833 -0.8317  0.2218  0.3501
 2353SOL     OW18691   0.442   1.069   7.695 -0.3478  0.3552 -0.5377
 2353SOL    HW118692   0.527   1.091   7.656 -0.1787 -1.4300 -1.1538
 2353SOL    HW218693   0.413   1.015   7.622 -1.6330 -0.1103  0.3129
 2354SOL     OW18694   3.996   0.046  16.204  0.1303  0.5297 -0.6293
 2354SOL    HW118695   3.928   0.112  16.191 -0.0094  0.3372 -0.8584
 2354SOL    HW218696   4.019   0.053  16.297  0.8963 -0.2384 -0.7540
 2355SOL     OW18697   0.854   3.949  14.361 -0.7514 -0.4342 -0.5602
 2355SOL    HW118698   0.941   3.949  14.321  0.1192  1.4202  1.3192
 2355SOL    HW218699   0.868   3.878  14.424  0.4683  1.0908  0.8847
 2356SOL     OW18700   2.559   4.521   3.121  0.0049  0.1588 -0.5343
 2356SOL    HW118701   2.609   4.490   3.045 -1.3235 -1.7904 -0.6270
 2356SOL    HW218702   2.621   4.593   3.128 -1.6307  1.6792 -1.7037
 2357SOL     OW18703   2.056   3.404   4.684 -0.0617 -0.4287  0.0016
 2357SOL    HW118704   2.035   3.323   4.730 -0.9123 -0.6021 -0.6821
 2357SOL    HW218705   1.980   3.456   4.712 -0.1905  0.9584 -2.8591
 2358SOL     OW18706   3.533   1.722  15.777  0.4231 -0.0310  0.0347
 2358SOL    HW118707   3.443   1.701  15.802  0.6536 -0.3265  0.6099
 2358SOL    HW218708   3.526   1.778  15.700  0.1410 -1.2931 -0.8539
 2359SOL     OW18709   3.709   2.362   9.571 -0.1596 -0.2884  0.1890
 2359SOL    HW118710   3.668   2.437   9.528 -0.0527  0.0491  0.6732
 2359SOL    HW218711   3.696   2.392   9.661 -1.0274 -0.6719  0.1940
 2360SOL     OW18712   4.074   3.287   5.378 -0.2146 -0.1525  0.3323
 2360SOL    HW118713   4.035   3.323   5.298 -0.7454  1.3786  1.2830
 2360SOL    HW218714   3.995   3.260   5.425 -1.5155  4.1595  0.6204
 2361SOL     OW18715   2.080   3.658   2.698 -0.0714  0.3628  0.3621
 2361SOL    HW118716   2.083   3.748   2.731 -2.8256  0.7104 -0.3649
 2361SOL    HW218717   1.994   3.632   2.729  0.0092  0.2114  0.4591
 2362SOL     OW18718   0.976   0.754   6.687 -0.4775  0.3191 -0.2973
 2362SOL    HW118719   0.918   0.777   6.759 -2.0878 -1.0724 -1.1495
 2362SOL    HW218720   1.002   0.838   6.649 -3.2188  0.8447 -0.9923
 2363SOL     OW18721   4.284   1.112  10.935  0.2787 -0.6817  0.2317
 2363SOL    HW118722   4.255   1.130  11.024  1.0926 -1.2982  0.6131
 2363SOL    HW218723   4.331   1.032  10.956 -2.0147 -2.5544 -1.8516
 2364SOL     OW18724   3.045   3.238   6.832  0.4536  0.5575  0.1371
 2364SOL    HW118725   2.962   3.277   6.805  0.8261  2.5600  1.9350
 2364SOL    HW218726   3.069   3.293   6.907 -2.1744  0.9097  0.6994
 2365SOL     OW18727   1.978   2.457  16.951 -0.0495 -0.0403  0.5883
 2365SOL    HW118728   1.900   2.418  16.911  0.0468  0.3370  0.0285
 2365SOL    HW218729   2.039   2.447  16.877  1.0303 -0.3243  1.5171
 2366SOL     OW18730   1.990   1.230   6.968 -0.1641  0.1106  0.0929
 2366SOL    HW118731   2.062   1.211   7.028 -0.5710  0.7440  0.7800
 2366SOL    HW218732   2.013   1.161   6.905  1.6304  1.5973 -0.8742
 2367SOL     OW18733   1.517   0.647  13.448  0.3882  0.0400 -0.1339
 2367SOL    HW118734   1.606   0.659  13.414  0.3241  0.6256 -0.0901
 2367SOL    HW218735   1.547   0.630  13.538  0.9906 -0.9073 -0.5107
 2368SOL     OW18736   3.958   1.016   4.041  0.3764 -0.3131  0.4819
 2368SOL    HW118737   3.929   1.106   4.027  0.3192 -0.6214 -1.4879
 2368SOL    HW218738   3.916   0.976   3.964  2.3695 -0.0503 -0.7392
 2369SOL     OW18739   1.354   2.979  15.268 -0.1497  0.1201  0.3644
 2369SOL    HW118740   1.372   3.012  15.180 -0.5024  1.1610  0.6763
 2369SOL    HW218741   1.273   3.027  15.284  0.6971  1.4850  0.5376
 2370SOL     OW18742   2.447   2.475   5.327 -0.2388  0.1519 -0.6138
 2370SOL    HW118743   2.506   2.534   5.280  0.3879 -0.2860 -0.3843
 2370SOL    HW218744   2.358   2.509   5.315 -0.5549 -0.8148 -0.9956
 2371SOL     OW18745   4.291   3.343   3.139  0.1428 -0.4188  0.2107
 2371SOL    HW118746   4.277   3.252   3.115 -1.4624  0.4014 -1.9653
 2371SOL    HW218747   4.387   3.345   3.145  0.3231  0.7771 -2.7183
 2372SOL     OW18748   0.765   4.399   5.695 -0.3247  0.1098 -0.0376
 2372SOL    HW118749   0.852   4.367   5.669 -1.2877 -1.6008 -1.1609
 2372SOL    HW218750   0.731   4.434   5.613 -0.9287 -1.4357 -0.4508
 2373SOL     OW18751   3.605   0.104   9.211 -0.2683  0.0280 -0.4471
 2373SOL    HW118752   3.561   0.019   9.202 -0.2458 -0.2557  2.0919
 2373SOL    HW218753   3.692   0.080   9.240 -0.7533  1.0879  1.9006
 2374SOL     OW18754   1.079   0.444   4.355  0.0044 -0.0362 -0.6957
 2374SOL    HW118755   1.036   0.359   4.344  0.8952 -0.5265 -0.3656
 2374SOL    HW218756   1.169   0.421   4.333  0.3147 -1.0792  1.7540
 2375SOL     OW18757   0.190   0.176   7.478  0.4337  0.3225 -0.7073
 2375SOL    HW118758   0.257   0.211   7.420  0.4827 -0.1900 -0.9598
 2375SOL    HW218759   0.215   0.084   7.479 -0.1083  0.1857  0.6605
 2376SOL     OW18760   4.396   4.126   4.974 -0.6850 -0.1908  0.0180
 2376SOL    HW118761   4.486   4.100   4.992 -1.1193 -1.6161  0.1209
 2376SOL    HW218762   4.354   4.098   5.055 -0.4102  1.5255  0.7700
 2377SOL     OW18763   4.688   3.181  11.560  0.3160 -0.0661 -0.0494
 2377SOL    HW118764   4.691   3.201  11.466  0.6236 -1.4440 -0.3223
 2377SOL    HW218765   4.650   3.094  11.547  2.4560 -0.6754 -2.2823
 2378SOL     OW18766   2.023   0.162  11.493  0.7704 -0.1886 -0.0389
 2378SOL    HW118767   1.952   0.226  11.490  1.4856  0.5556 -0.9725
 2378SOL    HW218768   2.091   0.227  11.485  1.8916 -1.1072  1.9399
 2379SOL     OW18769   1.103   2.085   9.548 -0.3668 -0.0013  0.2660
 2379SOL    HW118770   1.192   2.052   9.535  0.7522  3.1500 -0.0418
 2379SOL    HW218771   1.082   2.069   9.640 -2.0854  0.5098 -0.0438
 2380SOL     OW18772   1.576   3.212   3.829  0.2272  0.4364 -0.1186
 2380SOL    HW118773   1.524   3.288   3.806  0.2626  1.8834  4.6607
 2380SOL    HW218774   1.511   3.149   3.798  0.7190  0.9710 -2.2437
 2381SOL     OW18775   1.953   4.333   5.069  0.1825  0.4209 -0.2631
 2381SOL    HW118776   2.012   4.329   4.994 -1.2619  0.4101 -1.4228
 2381SOL    HW218777   1.880   4.278   5.041  0.5456 -0.7280  1.0595
 2382SOL     OW18778   0.720   3.212   2.298 -0.2138  0.2724 -0.6607
 2382SOL    HW118779   0.681   3.299   2.306 -1.1672 -0.3911  1.8242
 2382SOL    HW218780   0.708   3.168   2.382 -1.5063 -0.0784 -1.0320
 2383SOL     OW18781   1.084   0.972  16.240  0.1881  0.2997  0.6401
 2383SOL    HW118782   1.106   1.060  16.270 -1.4321  1.1648 -0.6982
 2383SOL    HW218783   1.094   0.916  16.316 -0.4749  0.5427  0.9042
 2384SOL     OW18784   2.045   4.160   6.797 -0.3761  0.1844  0.0736
 2384SOL    HW118785   2.129   4.117   6.812 -0.3439  0.7323  1.4130
 2384SOL    HW218786   2.041   4.243   6.845 -1.5623  1.2413 -1.7907
 2385SOL     OW18787   3.491   0.852   2.750 -0.1310 -0.0695 -0.7785
 2385SOL    HW118788   3.402   0.839   2.784 -0.0861 -1.2847 -1.1180
 2385SOL    HW218789   3.515   0.769   2.710  2.4652 -0.7247  2.1675
 2386SOL     OW18790   3.292   1.821   9.505  0.2857 -0.1045  0.0177
 2386SOL    HW118791   3.268   1.868   9.425 -4.0839 -0.4614  1.1576
 2386SOL    HW218792   3.315   1.898   9.558  0.3739 -0.2154  0.1416
 2387SOL     OW18793   1.684   1.487  14.821  0.8183  0.4045 -0.1779
 2387SOL    HW118794   1.635   1.427  14.876  3.2033 -0.8043  0.6395
 2387SOL    HW218795   1.636   1.501  14.740  0.6008 -1.5975 -0.3777
 2388SOL     OW18796   3.098   1.051  15.767 -0.0898 -0.0736  0.3939
 2388SOL    HW118797   3.184   1.032  15.729 -0.1925 -0.2169  0.2334
 2388SOL    HW218798   3.105   1.146  15.776  1.0492 -0.1062 -0.2688
 2389SOL     OW18799   2.401   1.802   1.637 -0.4890  0.3122 -0.1204
 2389SOL    HW118800   2.369   1.721   1.676  0.7720  0.6263  1.5768
 2389SOL    HW218801   2.417   1.782   1.545  0.0608  1.4360 -0.2777
 2390SOL     OW18802   1.342   1.525  16.853  0.4140  0.4262  0.1452
 2390SOL    HW118803   1.299   1.539  16.769 -2.1568  1.7179  1.6543
 2390SOL    HW218804   1.379   1.613  16.865  0.6275  0.2141  1.0881
 2391SOL     OW18805   0.499   0.432   1.291 -0.2394  0.8743 -0.2066
 2391SOL    HW118806   0.589   0.403   1.275 -0.6731  0.0252 -1.1325
 2391SOL    HW218807   0.479   0.477   1.208  0.7506  1.8045  0.0627
 2392SOL     OW18808   0.392   3.290   1.014 -0.2790 -0.3546 -0.0813
 2392SOL    HW118809   0.345   3.208   1.021  0.3701 -0.7983 -0.9354
 2392SOL    HW218810   0.351   3.329   0.937  1.1621  0.4715 -0.4394
 2393SOL     OW18811   3.852   4.093   3.756  0.2376 -0.5313  0.9323
 2393SOL    HW118812   3.901   4.173   3.777 -0.3726  0.7726 -2.6192
 2393SOL    HW218813   3.878   4.076   3.666 -0.7960 -0.5963  0.6462
 2394SOL     OW18814   1.678   3.766   9.066  0.0852 -0.4743  0.3346
 2394SOL    HW118815   1.611   3.832   9.083  0.1118 -0.1007 -0.9766
 2394SOL    HW218816   1.723   3.829   9.009  0.1371  0.7205  1.6984
 2395SOL     OW18817   2.091   3.667   4.896  0.3363 -0.2270 -0.1712
 2395SOL    HW118818   2.136   3.635   4.817  1.6220 -3.1947  1.7541
 2395SOL    HW218819   2.168   3.657   4.953 -1.8850 -2.3737  2.4470
 2396SOL     OW18820   4.739   1.002  10.877  0.9828 -0.2623  0.0137
 2396SOL    HW118821   4.709   0.940  10.810  0.2076 -2.0154  1.9763
 2396SOL    HW218822   0.015   1.081  10.826 -0.6663 -0.5780 -0.9754
 2397SOL     OW18823   3.106   4.527  15.692  0.4016 -0.0637 -0.2628
 2397SOL    HW118824   3.179   4.481  15.651 -0.7061 -0.7529 -1.4335
 2397SOL    HW218825   3.080   4.466  15.762  1.5019 -0.1118  0.1129
 2398SOL     OW18826   4.491   1.921   1.435 -0.0035 -0.0905  0.0238
 2398SOL    HW118827   4.516   1.892   1.523  0.9717  1.2682  0.2090
 2398SOL    HW218828   4.422   1.979   1.467  0.8702  1.0871 -0.2184
 2399SOL     OW18829   4.580   4.059   1.248  0.1553 -0.5466  0.0633
 2399SOL    HW118830   4.570   3.984   1.189  1.0196 -1.1215  0.6540
 2399SOL    HW218831   4.648   4.109   1.203 -0.6614  1.0710  0.6478
 2400SOL     OW18832   1.826   1.736   6.772 -0.0279 -0.8930  0.3845
 2400SOL    HW118833   1.828   1.809   6.834  1.2346 -0.1834 -0.4846
 2400SOL    HW218834   1.732   1.720   6.770 -0.7304  3.0324  0.9937
 2401SOL     OW18835   0.376   0.913   7.456 -0.1933  0.3467 -0.0119
 2401SOL    HW118836   0.299   0.855   7.456 -0.0220  0.1362 -2.3490
 2401SOL    HW218837   0.352   0.981   7.394  0.2976  0.6592  0.1414
 2402SOL     OW18838   2.302   0.270  11.252  0.5347 -1.0856  0.0847
 2402SOL    HW118839   2.227   0.212  11.244 -0.1507 -0.4988  2.3446
 2402SOL    HW218840   2.288   0.305  11.340  1.2889  3.3880 -1.5490
 2403SOL     OW18841   4.413   1.779   7.145 -0.2976 -0.1623 -0.3313
 2403SOL    HW118842   4.506   1.757   7.134 -0.3704  0.0847 -1.3844
 2403SOL    HW218843   4.415   1.869   7.179  0.1017  0.0038 -0.7957
 2404SOL     OW18844   0.324   0.238   3.913 -0.3816  0.4513  0.3733
 2404SOL    HW118845   0.396   0.293   3.882  2.2196 -1.6470  2.5808
 2404SOL    HW218846   0.369   0.176   3.971 -0.0293 -1.9495 -2.4410
 2405SOL     OW18847   1.715   2.583  17.615  0.7290  0.2932 -0.2296
 2405SOL    HW118848   1.735   2.539  17.532 -2.2826 -0.6308 -0.4711
 2405SOL    HW218849   1.758   2.519  17.671  1.2591  0.8053 -0.0473
 2406SOL     OW18850   3.955   1.720  12.359 -0.3323 -0.0089 -0.3346
 2406SOL    HW118851   4.002   1.790  12.404  0.1220 -0.8608  0.5208
 2406SOL    HW218852   3.889   1.768  12.309 -2.8366 -1.6802  1.3630
 2407SOL     OW18853   2.302   4.224   3.169  0.2949  0.2660  0.1632
 2407SOL    HW118854   2.281   4.308   3.129 -0.4439 -0.1541 -0.3457
 2407SOL    HW218855   2.224   4.194   3.216  0.3654 -0.7823 -0.3727
 2408SOL     OW18856   3.821   3.032   2.664  0.2328 -0.1964  0.3675
 2408SOL    HW118857   3.752   3.043   2.730 -1.1104  0.7089 -1.1794
 2408SOL    HW218858   3.771   3.031   2.582  0.7716 -1.2330  0.0582
 2409SOL     OW18859   1.259   0.868  17.519  0.0051  0.0738 -0.6876
 2409SOL    HW118860   1.258   0.964  17.516 -1.0626  0.0839  0.1578
 2409SOL    HW218861   1.325   0.837  17.580  1.0252 -0.7681 -2.2261
 2410SOL     OW18862   1.418   3.753   1.582  0.3640 -0.0100 -0.7839
 2410SOL    HW118863   1.456   3.749   1.670  0.5906 -2.3680 -0.9810
 2410SOL    HW218864   1.486   3.714   1.527  1.4937  2.0269 -0.8219
 2411SOL     OW18865   3.338   3.796  14.706  0.1997  0.4435  0.4877
 2411SOL    HW118866   3.311   3.711  14.671  2.3287  0.0414 -0.1646
 2411SOL    HW218867   3.348   3.760  14.794  1.4219 -1.9605 -0.6304
 2412SOL     OW18868   1.906   3.940   3.545  0.0241 -0.3826 -0.2412
 2412SOL    HW118869   1.843   4.012   3.547  0.1041 -0.3882  1.8377
 2412SOL    HW218870   1.868   3.879   3.481 -1.9588 -0.7274  1.2950
 2413SOL     OW18871   4.673   0.813   4.015 -0.2404  0.0488  0.4086
 2413SOL    HW118872   4.711   0.901   4.017 -1.8091  0.7241  0.5632
 2413SOL    HW218873   4.620   0.816   3.935  0.4430 -0.1529 -0.0405
 2414SOL     OW18874   1.340   4.219   3.618  0.2165 -0.1637  0.7206
 2414SOL    HW118875   1.272   4.219   3.550  0.2034 -0.0985  0.7343
 2414SOL    HW218876   1.376   4.133   3.597  1.8097  0.3476  1.3669
 2415SOL     OW18877   4.522   3.707  13.783  0.5983 -0.2743  0.0318
 2415SOL    HW118878   4.437   3.744  13.808  0.1054 -2.2894  1.3440
 2415SOL    HW218879   4.545   3.691  13.874  3.6273  0.6879 -0.5723
 2416SOL     OW18880   0.576   4.734   3.267  0.2819  0.2828  0.2709
 2416SOL    HW118881   0.650   4.690   3.225  2.3262  1.3670  2.7134
 2416SOL    HW218882   0.607   0.086   3.267 -0.3517  0.5036 -0.7913
 2417SOL     OW18883   2.904   3.654  11.875 -0.2402  0.3414 -0.0288
 2417SOL    HW118884   2.882   3.611  11.958  1.0145  0.3718  0.3111
 2417SOL    HW218885   2.968   3.717  11.908 -1.2967 -0.2190  3.0811
 2418SOL     OW18886   1.679   0.748   2.786 -0.0714  0.4956  0.1840
 2418SOL    HW118887   1.733   0.822   2.759  0.5500  0.0625  0.2545
 2418SOL    HW218888   1.741   0.695   2.836 -0.4281 -1.0319 -1.0096
 2419SOL     OW18889   4.542   0.018  15.515  0.2507 -0.6424  0.1466
 2419SOL    HW118890   4.533   0.060  15.429  1.4101 -1.2656 -0.2689
 2419SOL    HW218891   4.629   4.720  15.504  1.3458  1.5779  1.5149
 2420SOL     OW18892   2.013   1.769   5.661 -0.2612  0.5381  0.0146
 2420SOL    HW118893   2.010   1.772   5.757 -1.5226  2.0078 -0.0674
 2420SOL    HW218894   2.010   1.675   5.647 -4.8167  0.4242  1.8263
 2421SOL     OW18895   3.898   3.070   6.911  0.7025  0.5999 -0.1671
 2421SOL    HW118896   3.967   3.012   6.879  1.0832  0.8770  0.1630
 2421SOL    HW218897   3.924   3.151   6.867 -0.0135  2.0344  2.0834
 2422SOL     OW18898   1.118   1.505  14.103 -0.4082  0.0734  0.0521
 2422SOL    HW118899   1.182   1.535  14.168  1.5029 -0.2836 -1.6806
 2422SOL    HW218900   1.102   1.583  14.051  0.1605  0.5931  0.6511
 2423SOL     OW18901   3.864   2.468   3.063 -0.1260 -0.3980  0.4178
 2423SOL    HW118902   3.894   2.506   3.145 -0.5865 -0.2060  0.4976
 2423SOL    HW218903   3.905   2.528   3.001  0.8658 -1.2247  0.2693
 2424SOL     OW18904   1.734   4.263   6.532  0.4739  0.7135 -0.6795
 2424SOL    HW118905   1.676   4.273   6.608  1.3620  0.8574 -0.0265
 2424SOL    HW218906   1.806   4.324   6.547  1.6540 -0.7869 -0.3544
 2425SOL     OW18907   2.603   0.839   2.714  0.3152 -0.2715  0.6111
 2425SOL    HW118908   2.675   0.778   2.735  0.1415 -0.4503  0.6883
 2425SOL    HW218909   2.527   0.783   2.702  0.9396 -0.5979 -1.8624
 2426SOL     OW18910   4.012   4.217   5.173  0.0612 -0.2419 -0.6833
 2426SOL    HW118911   4.004   4.122   5.169  0.0197 -0.2049 -1.6401
 2426SOL    HW218912   3.950   4.234   5.243  0.5098 -0.0833 -0.3270
 2427SOL     OW18913   4.375   2.874   1.041  0.2387  0.0153 -0.3824
 2427SOL    HW118914   4.444   2.926   1.001  0.5999 -1.3503 -1.5323
 2427SOL    HW218915   4.312   2.875   0.969 -1.8138 -1.3198  1.3837
 2428SOL     OW18916   3.308   3.089  13.723 -0.3574 -0.1920 -0.2488
 2428SOL    HW118917   3.294   3.022  13.790  0.7878  1.4643  1.6644
 2428SOL    HW218918   3.403   3.093  13.729 -0.4700  0.0950  1.4900
 2429SOL     OW18919   1.174   1.382   8.044  0.1957  0.3540 -0.0672
 2429SOL    HW118920   1.177   1.382   7.949 -1.9579  1.8047 -0.1567
 2429SOL    HW218921   1.266   1.372   8.067 -0.3538 -2.2448  1.0728
 2430SOL     OW18922   0.485   1.792   6.768 -0.2276 -0.4530 -0.0349
 2430SOL    HW118923   0.412   1.733   6.784 -0.0104 -0.9890 -1.0151
 2430SOL    HW218924   0.561   1.734   6.773  1.3097  1.6137  0.4545
 2431SOL     OW18925   0.030   1.046  17.145  0.2948  0.0798 -0.4188
 2431SOL    HW118926   0.037   1.135  17.180 -1.5133  0.7323 -1.7188
 2431SOL    HW218927   0.043   1.053  17.050 -1.6449  1.0258 -0.6233
 2432SOL     OW18928   2.308   0.639  13.107  0.1866 -0.0862  0.1104
 2432SOL    HW118929   2.317   0.729  13.139 -3.1752 -0.0802  1.0828
 2432SOL    HW218930   2.218   0.617  13.133 -0.4655  1.0213 -1.2140
 2433SOL     OW18931   2.214   1.950   5.960 -0.2687  0.3665 -0.2007
 2433SOL    HW118932   2.264   1.875   5.927  0.3422  0.0939  1.3726
 2433SOL    HW218933   2.130   1.908   5.978 -1.3800  2.1735 -1.1154
 2434SOL     OW18934   2.614   1.421   4.256  0.1460  0.3913 -0.3221
 2434SOL    HW118935   2.538   1.471   4.225 -0.8533 -2.4592 -2.4589
 2434SOL    HW218936   2.638   1.460   4.340 -0.4377 -2.5470  1.2165
 2435SOL     OW18937   4.290   2.097   2.561 -0.5573 -0.4302  0.0468
 2435SOL    HW118938   4.285   2.041   2.638  2.1347 -2.1029 -1.0010
 2435SOL    HW218939   4.196   2.106   2.543 -0.2301  2.3607 -0.2993
 2436SOL     OW18940   4.137   2.148   5.500  0.4734 -0.2164  0.0798
 2436SOL    HW118941   4.136   2.075   5.563  0.7125  0.2297  0.6008
 2436SOL    HW218942   4.167   2.226   5.547 -2.2829  1.4075 -0.8373
 2437SOL     OW18943   3.679   3.009  12.343  0.3346 -0.2174  0.2539
 2437SOL    HW118944   3.634   3.029  12.261 -0.3295  2.4639  1.3065
 2437SOL    HW218945   3.759   2.960  12.321  2.1646  2.6961  0.4385
 2438SOL     OW18946   1.052   1.549   8.221 -0.0111 -0.2980 -0.3280
 2438SOL    HW118947   1.108   1.540   8.298  0.6872  2.0805 -0.5371
 2438SOL    HW218948   1.097   1.490   8.160 -1.1182  0.4216 -1.8442
 2439SOL     OW18949   4.093   3.008   6.429 -0.1800  0.0713 -0.0799
 2439SOL    HW118950   4.162   3.010   6.495 -2.1477 -2.0150  2.0463
 2439SOL    HW218951   4.036   3.078   6.461 -0.6341  0.5112 -1.8131
 2440SOL     OW18952   3.503   1.230   4.414 -0.4534 -0.0020 -0.0188
 2440SOL    HW118953   3.478   1.299   4.475  1.7777  0.4428  0.3930
 2440SOL    HW218954   3.517   1.289   4.340  0.4765  1.6267  1.4492
 2441SOL     OW18955   0.503   1.765   3.923 -0.7514 -0.9218  0.2546
 2441SOL    HW118956   0.416   1.790   3.953 -0.3576 -1.2329  1.6592
 2441SOL    HW218957   0.542   1.714   3.995 -1.6110 -1.7604  0.1251
 2442SOL     OW18958   2.351   1.415  16.169  0.5635  0.3729 -0.5236
 2442SOL    HW118959   2.317   1.499  16.140 -1.6329 -0.1995  0.3109
 2442SOL    HW218960   2.278   1.356  16.149 -0.8308  1.7517  0.5164
 2443SOL     OW18961   4.361   3.492   4.232  0.1838 -0.0860 -0.3227
 2443SOL    HW118962   4.398   3.560   4.176 -1.7899  0.1397 -1.3479
 2443SOL    HW218963   4.387   3.529   4.316 -1.7823 -0.6398  0.5274
 2444SOL     OW18964   1.111   2.660   4.334 -0.4019 -0.4092  0.2305
 2444SOL    HW118965   1.176   2.688   4.270  0.4993 -3.2079 -0.0572
 2444SOL    HW218966   1.037   2.710   4.300 -0.6713 -0.5761  0.5675
 2445SOL     OW18967   1.640   1.235  11.999  0.1148  0.0271 -0.7158
 2445SOL    HW118968   1.554   1.275  11.987  0.4043  2.3495  4.8525
 2445SOL    HW218969   1.677   1.283  12.074  0.4809  1.5752 -1.8826
 2446SOL     OW18970   2.818   4.697   3.356 -0.1184 -0.1356 -0.1291
 2446SOL    HW118971   2.731   4.680   3.390 -1.0404  4.2760 -0.2606
 2446SOL    HW218972   2.859   0.032   3.402 -0.0158  1.2021 -2.3851
 2447SOL     OW18973   4.496   0.538  10.730 -0.2892 -0.2081 -0.3600
 2447SOL    HW118974   4.524   0.446  10.731 -1.0548 -0.4447 -0.5455
 2447SOL    HW218975   4.536   0.559  10.646 -2.1227  1.7864 -0.7370
 2448SOL     OW18976   1.980   2.032  17.378  0.2444 -0.5621  0.2576
 2448SOL    HW118977   2.000   1.962  17.441  0.9183  0.4322  1.1445
 2448SOL    HW218978   1.888   2.006  17.373  0.1280  0.0269 -0.6363
 2449SOL     OW18979   1.418   0.031   9.526  0.4595  0.3492 -0.5219
 2449SOL    HW118980   1.361   4.693   9.520 -0.4327  0.7587  2.8533
 2449SOL    HW218981   1.392   0.069   9.610  1.4936 -2.1821  0.9136
 2450SOL     OW18982   2.894   2.996   3.732  0.5349 -0.1174 -0.0516
 2450SOL    HW118983   2.923   3.026   3.645  1.3493 -2.7530 -0.6836
 2450SOL    HW218984   2.802   3.023   3.729  0.8584  0.8455 -1.6316
 2451SOL     OW18985   0.427   3.987   2.086 -0.6813  0.0902  0.5130
 2451SOL    HW118986   0.360   4.055   2.081  0.2399  1.0932  1.9879
 2451SOL    HW218987   0.364   3.916   2.099 -0.1749 -0.2778  0.9584
 2452SOL     OW18988   4.546   2.527   7.017 -0.2377  0.2959  0.2196
 2452SOL    HW118989   4.571   2.469   6.945  0.0000  2.0171 -1.0839
 2452SOL    HW218990   4.537   2.464   7.088 -0.5131  0.9032  0.7248
 2453SOL     OW18991   0.172   0.100  15.943  0.0065 -0.4027 -0.1214
 2453SOL    HW118992   0.082   0.121  15.970  0.2606  2.0245 -1.1714
 2453SOL    HW218993   0.223   0.180  15.954  0.7318 -1.0307  1.0201
 2454SOL     OW18994   1.558   3.390   1.688 -0.4257 -0.7976  0.2989
 2454SOL    HW118995   1.643   3.425   1.661 -0.8425  2.6525  3.5373
 2454SOL    HW218996   1.579   3.348   1.771  2.6504  1.0132  0.4039
 2455SOL     OW18997   2.092   1.438  10.551  0.0389  0.2145 -0.7412
 2455SOL    HW118998   2.107   1.523  10.591  2.2110 -0.5614  0.1126
 2455SOL    HW218999   1.996   1.437  10.548 -0.1021  2.5179  3.5443
 2456SOL     OW19000   1.319   0.325   4.322  0.1216  0.0405  0.2405
 2456SOL    HW119001   1.403   0.281   4.311 -0.2953 -0.6652 -0.1043
 2456SOL    HW219002   1.358   0.409   4.299  1.0340  0.2489  2.5999
 2457SOL     OW19003   1.087   0.919  14.566  0.2094 -0.0558 -0.3635
 2457SOL    HW119004   1.182   0.923  14.560  0.2779 -0.5350  0.4101
 2457SOL    HW219005   1.073   0.825  14.576  0.6239 -0.1643 -0.8240
 2458SOL     OW19006   0.975   3.202   7.248 -0.3509  0.4784  0.0130
 2458SOL    HW119007   1.035   3.160   7.310  1.6622  0.0848 -2.1814
 2458SOL    HW219008   1.043   3.233   7.189  1.8601 -1.6419  1.4393
 2459SOL     OW19009   0.915   0.876   4.166 -0.7066  0.4995  0.5264
 2459SOL    HW119010   0.949   0.959   4.199  0.7096 -0.3230  1.1332
 2459SOL    HW219011   0.846   0.905   4.106 -0.4958  1.0461  0.5457
 2460SOL     OW19012   1.203   0.293   6.707 -0.2274  0.3749  0.1851
 2460SOL    HW119013   1.296   0.302   6.688  0.1026 -0.8313  1.2473
 2460SOL    HW219014   1.179   0.386   6.715  0.8546  0.6298  0.3637
 2461SOL     OW19015   0.899   0.626   9.102  0.1990 -0.4176  0.2818
 2461SOL    HW119016   0.863   0.539   9.120 -1.5602  0.4567  0.9499
 2461SOL    HW219017   0.842   0.649   9.029  1.2847  1.0566 -0.1046
 2462SOL     OW19018   0.820   0.690  15.234 -0.2528  0.1252  0.4814
 2462SOL    HW119019   0.795   0.750  15.304  1.3087  0.2298  0.9483
 2462SOL    HW219020   0.822   0.752  15.161  0.1262 -0.8150 -0.3057
 2463SOL     OW19021   0.364   2.832   6.739  0.1735 -0.5514  0.2056
 2463SOL    HW119022   0.270   2.852   6.736  0.7175  2.0713  0.4059
 2463SOL    HW219023   0.394   2.920   6.761  0.2541 -0.3639 -0.6228
 2464SOL     OW19024   2.727   0.911   5.046 -0.0622 -0.2254 -0.2807
 2464SOL    HW119025   2.808   0.862   5.038  1.2974  1.9718  0.1603
 2464SOL    HW219026   2.739   0.953   5.132  0.9338  1.3715 -1.2173
 2465SOL     OW19027   2.687   2.236   6.363  0.0130 -0.3208 -0.7820
 2465SOL    HW119028   2.649   2.301   6.423  0.0038 -1.3025  0.2579
 2465SOL    HW219029   2.710   2.164   6.421 -1.8142  1.4223  2.1299
 2466SOL     OW19030   2.631   3.219   3.753 -0.5699 -0.0101 -0.2789
 2466SOL    HW119031   2.668   3.299   3.790 -1.5844  0.8878 -1.2145
 2466SOL    HW219032   2.581   3.250   3.677 -0.2511 -0.4005 -0.6494
 2467SOL     OW19033   2.863   0.890   3.802 -0.0301 -0.4333  0.1711
 2467SOL    HW119034   2.875   0.803   3.840  1.0332  0.7130  2.5074
 2467SOL    HW219035   2.952   0.925   3.797  0.3629 -1.2415  1.3792
 2468SOL     OW19036   2.733   0.468   7.200 -0.2426 -0.1921 -0.3579
 2468SOL    HW119037   2.659   0.435   7.149 -0.1303 -2.2422  0.8222
 2468SOL    HW219038   2.747   0.400   7.266  1.0108 -1.0565 -1.5069
 2469SOL     OW19039   3.677   0.393  12.642  0.6886  0.7271  0.1262
 2469SOL    HW119040   3.669   0.479  12.683  1.3050  0.5153  0.6958
 2469SOL    HW219041   3.731   0.340  12.701 -1.7621 -2.3576 -0.4032
 2470SOL     OW19042   1.456   3.766   3.080 -0.5956 -0.1516  0.4943
 2470SOL    HW119043   1.480   3.792   2.991  1.2457 -0.6897  0.8411
 2470SOL    HW219044   1.514   3.819   3.135 -1.1671  2.9650 -1.8664
 2471SOL     OW19045   0.397   3.622   9.676  1.0755 -0.2329  0.5428
 2471SOL    HW119046   0.435   3.695   9.724 -0.0667  0.0885  0.9727
 2471SOL    HW219047   0.321   3.670   9.642  1.8078 -0.8617 -1.9265
 2472SOL     OW19048   2.066   3.822  10.262 -0.1160  0.0466  0.0084
 2472SOL    HW119049   2.115   3.844  10.183  1.7529 -2.9111  0.3244
 2472SOL    HW219050   2.127   3.761  10.304 -1.1298 -0.4386  0.7992
 2473SOL     OW19051   4.265   4.292   3.148  0.1691 -0.2598 -0.5754
 2473SOL    HW119052   4.201   4.226   3.120 -1.9879  2.1179 -1.2923
 2473SOL    HW219053   4.254   4.354   3.076 -0.7500 -0.4507 -0.6015
 2474SOL     OW19054   0.852   3.847  10.940  0.3130  0.2330  0.1708
 2474SOL    HW119055   0.851   3.867  11.034  0.5021 -0.8252  0.3962
 2474SOL    HW219056   0.757   3.854  10.935  0.3206 -1.2058 -1.8920
 2475SOL     OW19057   0.824   2.711   8.181  0.1016 -0.1118 -0.6379
 2475SOL    HW119058   0.745   2.685   8.134 -1.2214  1.0712  0.9481
 2475SOL    HW219059   0.822   2.648   8.253  0.0093  0.2391 -0.3341
 2476SOL     OW19060   2.080   3.906   5.871 -0.0694  0.3427  0.3156
 2476SOL    HW119061   2.164   3.923   5.914 -0.0093  1.0619 -0.0716
 2476SOL    HW219062   2.029   3.987   5.878 -0.7044  0.0417 -0.7409
 2477SOL     OW19063   1.848   3.388   6.711 -0.1592  0.2356  0.4793
 2477SOL    HW119064   1.882   3.426   6.791  0.8824  0.3839 -0.0370
 2477SOL    HW219065   1.817   3.302   6.740  1.2805 -1.3995 -2.7667
 2478SOL     OW19066   3.449   4.415   3.305  0.0319 -0.1641  0.2857
 2478SOL    HW119067   3.363   4.423   3.348  1.3757  2.0782  2.5549
 2478SOL    HW219068   3.489   4.499   3.329 -0.7700  0.7992 -1.7850
 2479SOL     OW19069   3.015   2.967  13.735  0.2147 -0.3316  0.7154
 2479SOL    HW119070   2.992   2.875  13.725 -2.4315  0.4821 -0.7801
 2479SOL    HW219071   3.053   2.982  13.649  1.4890  3.2578  1.8890
 2480SOL     OW19072   2.386   1.724  16.486  0.1674 -0.3645 -0.3065
 2480SOL    HW119073   2.426   1.747  16.402 -0.2272 -1.6281 -0.8550
 2480SOL    HW219074   2.451   1.672  16.534 -2.3963 -2.3447  1.0240
 2481SOL     OW19075   4.589   2.390   2.626 -0.0763 -0.4340 -0.0870
 2481SOL    HW119076   4.640   2.469   2.609  0.1779 -0.5643  0.0646
 2481SOL    HW219077   4.643   2.312   2.614 -1.4171 -1.4762  0.5934
 2482SOL     OW19078   0.768   2.647   6.841  0.0156  0.6021  0.8347
 2482SOL    HW119079   0.818   2.582   6.890  1.1772 -0.0036 -1.1358
 2482SOL    HW219080   0.678   2.638   6.874  0.2435  0.6240  1.4552
 2483SOL     OW19081   4.177   3.821  10.624  0.8077 -0.3878 -0.3789
 2483SOL    HW119082   4.189   3.896  10.683 -1.2965 -1.2567  1.1761
 2483SOL    HW219083   4.110   3.769  10.669  1.0226  0.9215  1.4805
 2484SOL     OW19084   4.495   0.442   3.288  0.4781  0.1237  0.1923
 2484SOL    HW119085   4.404   0.440   3.319  0.4312 -2.4993 -0.1203
 2484SOL    HW219086   4.542   0.434   3.370  2.2281 -1.7657 -0.9895
 2485SOL     OW19087   2.933   1.300   6.480  0.3618 -0.1123  0.1423
 2485SOL    HW119088   2.980   1.263   6.555  0.3626  0.5966  0.4939
 2485SOL    HW219089   2.968   1.243   6.412 -1.1506 -1.3965  0.4278
 2486SOL     OW19090   1.425   2.038   0.694  0.2413 -0.0026  0.4038
 2486SOL    HW119091   1.336   2.046   0.660  0.3832  2.8882  0.7270
 2486SOL    HW219092   1.418   1.952   0.735 -0.9632  0.5861  1.4615
 2487SOL     OW19093   3.625   4.378   7.220  0.6001  0.2377  1.0709
 2487SOL    HW119094   3.567   4.313   7.261 -1.3159  0.7577 -0.8397
 2487SOL    HW219095   3.697   4.380   7.284  1.6505 -0.5550 -0.0765
 2488SOL     OW19096   3.642   3.395   2.654 -0.3075 -0.6681  0.6656
 2488SOL    HW119097   3.673   3.330   2.717 -0.6880 -1.1978  0.3063
 2488SOL    HW219098   3.603   3.332   2.593  1.2021 -0.8920 -0.0692
 2489SOL     OW19099   3.579   4.580  10.331 -0.6971 -0.0747  0.6720
 2489SOL    HW119100   3.510   4.551  10.390 -0.6511  3.0161  2.1884
 2489SOL    HW219101   3.572   4.510  10.265  0.9031  0.3042  0.0849
 2490SOL     OW19102   3.602   0.379  15.193 -0.0538  0.2109 -0.8274
 2490SOL    HW119103   3.655   0.457  15.186  0.9611 -0.5276 -1.3620
 2490SOL    HW219104   3.676   0.321  15.211  0.2526  0.6788 -0.6148
 2491SOL     OW19105   0.750   4.243   6.873  0.9483 -0.4377 -0.1503
 2491SOL    HW119106   0.682   4.237   6.940 -0.9418  0.3647 -2.0115
 2491SOL    HW219107   0.825   4.194   6.906  1.4297  0.7815  0.5513
 2492SOL     OW19108   0.523   4.199  11.104  0.4852 -0.4957 -0.0513
 2492SOL    HW119109   0.446   4.251  11.127  0.4679 -0.0563 -1.0974
 2492SOL    HW219110   0.490   4.110  11.115 -0.4718  0.1183  1.8734
 2493SOL     OW19111   2.607   3.685   2.105  0.1522  0.1549 -0.2288
 2493SOL    HW119112   2.694   3.659   2.076  0.8135  1.4776  0.5529
 2493SOL    HW219113   2.599   3.748   2.033  1.7181 -0.5873 -1.0367
 2494SOL     OW19114   0.942   0.424   0.036  0.2726 -0.6004 -0.0925
 2494SOL    HW119115   0.946   0.349  17.731 -2.0175  0.0546 -1.1031
 2494SOL    HW219116   0.915   0.496  17.731  3.0286 -2.0132 -3.0967
 2495SOL     OW19117   1.866   1.587   8.516 -0.0597  0.0035 -0.1055
 2495SOL    HW119118   1.867   1.502   8.560 -0.2476  0.1699  0.2138
 2495SOL    HW219119   1.798   1.625   8.570 -0.0733 -1.6971  1.0857
 2496SOL     OW19120   2.317   4.668   5.635 -0.0365  0.1910  0.3751
 2496SOL    HW119121   2.274   4.731   5.577  1.3846 -0.4306 -1.3551
 2496SOL    HW219122   2.353   4.727   5.701 -1.5518  1.7624 -0.2013
 2497SOL     OW19123   3.977   3.850  15.245 -0.5705 -0.0563  0.2386
 2497SOL    HW119124   3.996   3.758  15.263 -1.8929  0.0753  2.2691
 2497SOL    HW219125   4.034   3.892  15.310  0.4000 -1.8805  0.5893
 2498SOL     OW19126   0.807   3.291   2.691  0.3661  0.1735 -0.1069
 2498SOL    HW119127   0.834   3.357   2.628 -0.9397  1.2460  0.4502
 2498SOL    HW219128   0.718   3.324   2.707  1.6493  3.1792  0.6987
 2499SOL     OW19129   4.029   0.110   8.125 -0.1256 -0.0584  0.1785
 2499SOL    HW119130   4.059   0.123   8.215  1.2111  2.3717 -0.6376
 2499SOL    HW219131   4.114   0.101   8.082 -0.2023 -1.3389  0.2873
 2500SOL     OW19132   2.395   0.235   1.936  0.6276  0.0598  0.1649
 2500SOL    HW119133   2.350   0.151   1.926 -2.0336  1.5280 -0.2111
 2500SOL    HW219134   2.347   0.276   2.008  0.5200  0.1995  0.0127
 2501SOL     OW19135   2.128   1.920   4.733  0.5019 -0.0265 -0.2411
 2501SOL    HW119136   2.215   1.909   4.695 -0.1752 -1.2936 -1.3895
 2501SOL    HW219137   2.113   2.011   4.707  1.0652 -0.2814 -1.4545
 2502SOL     OW19138   4.635   2.853   1.338  0.5360  0.2374  0.1443
 2502SOL    HW119139   4.677   2.851   1.252  0.5590 -0.8762  0.1839
 2502SOL    HW219140   4.669   2.940   1.358 -0.0425  0.7808 -1.2451
 2503SOL     OW19141   0.699   3.077  15.682  0.3701 -0.8598  0.3864
 2503SOL    HW119142   0.722   3.065  15.590 -1.5680 -1.1882 -0.0502
 2503SOL    HW219143   0.616   3.124  15.673 -0.0907 -2.2394 -2.3390
 2504SOL     OW19144   3.840   1.231   4.723  0.4178  0.4664  0.0076
 2504SOL    HW119145   3.753   1.202   4.695  0.7961 -1.8595  1.2298
 2504SOL    HW219146   3.848   1.188   4.808  1.3494 -1.9295 -1.2874
 2505SOL     OW19147   1.618   3.752   4.711  0.0001  0.2059 -0.3526
 2505SOL    HW119148   1.689   3.789   4.658 -0.5252  0.9289 -0.5592
 2505SOL    HW219149   1.647   3.749   4.802  0.1940 -1.2691 -0.4609
 2506SOL     OW19150   3.805   3.093   9.577  0.2862  0.4584  0.0971
 2506SOL    HW119151   3.873   3.094   9.643 -1.5187  0.1597  1.9650
 2506SOL    HW219152   3.795   3.187   9.562 -0.3379  0.8155  2.8219
 2507SOL     OW19153   4.514   1.722   8.870  0.9215 -0.2501 -0.4982
 2507SOL    HW119154   4.487   1.692   8.957 -1.2864 -0.0657 -1.1238
 2507SOL    HW219155   4.494   1.815   8.876 -0.4644 -0.6745  1.2866
 2508SOL     OW19156   3.665   2.555   5.523 -0.1904  0.2152 -0.2866
 2508SOL    HW119157   3.603   2.569   5.594  0.1073 -2.9120  0.6020
 2508SOL    HW219158   3.688   2.647   5.513  0.9017  0.2628  2.6536
 2509SOL     OW19159   2.941   0.558   2.108  0.6209 -0.0032 -0.6405
 2509SOL    HW119160   2.975   0.536   2.195 -0.0692  1.3111 -0.0462
 2509SOL    HW219161   2.847   0.566   2.125  1.0881  0.5750  1.7085
 2510SOL     OW19162   0.819   0.220  10.053  0.5563  0.0093  0.3164
 2510SOL    HW119163   0.788   0.221  10.143  0.1386 -1.1851  0.1865
 2510SOL    HW219164   0.739   0.190  10.011  1.2628  0.3232 -1.2698
 2511SOL     OW19165   1.769   1.658   8.963 -0.4595 -0.2152  0.0571
 2511SOL    HW119166   1.710   1.722   8.922  0.4758  0.5666 -0.0508
 2511SOL    HW219167   1.758   1.672   9.057 -0.4820 -1.1950  0.2073
 2512SOL     OW19168   3.302   3.737   7.185  0.2235 -0.4283 -0.1722
 2512SOL    HW119169   3.379   3.680   7.177  0.4780 -0.3036  1.4683
 2512SOL    HW219170   3.243   3.689   7.243  0.9430  0.0241  0.9331
 2513SOL     OW19171   1.514   2.550   6.979  0.1024  0.0118  0.2925
 2513SOL    HW119172   1.505   2.495   7.057  2.0573 -1.2468 -0.3495
 2513SOL    HW219173   1.532   2.634   7.021  2.2822 -0.3463  0.1238
 2514SOL     OW19174   2.721   4.486  11.824 -0.4438 -0.0543 -0.0937
 2514SOL    HW119175   2.667   4.514  11.750  0.7229  0.2120 -0.8357
 2514SOL    HW219176   2.681   4.550  11.882  3.4980  2.6530 -0.3708
 2515SOL     OW19177   2.220   3.425   3.387  0.2560 -0.5110  0.4104
 2515SOL    HW119178   2.280   3.374   3.333  0.1931 -0.1849  0.0345
 2515SOL    HW219179   2.247   3.415   3.478  0.5641  1.5325  0.5444
 2516SOL     OW19180   2.806   3.338   2.340 -0.2208 -0.0179 -0.4842
 2516SOL    HW119181   2.897   3.340   2.371  0.0111  0.6512 -1.2151
 2516SOL    HW219182   2.799   3.429   2.312  0.5912  0.7651  1.9024
 2517SOL     OW19183   2.396   2.565   9.057 -0.0175  0.4380  0.0411
 2517SOL    HW119184   2.464   2.587   9.120 -2.6918  1.1625  2.6640
 2517SOL    HW219185   2.317   2.551   9.109 -0.0173  0.2002 -0.0225
 2518SOL     OW19186   4.649   4.329   5.515 -0.0706 -0.0082  0.2496
 2518SOL    HW119187   4.628   4.417   5.548  0.3480  1.4028 -3.2603
 2518SOL    HW219188   4.718   4.302   5.576 -0.6446  0.6678  1.2035
 2519SOL     OW19189   2.887   2.791   5.899 -0.1806  0.5653 -0.1529
 2519SOL    HW119190   2.893   2.777   5.805  1.0667 -1.2863  0.1946
 2519SOL    HW219191   2.817   2.729   5.921 -0.6470  0.3074 -2.3634
 2520SOL     OW19192   1.048   4.567   9.766 -0.5203  0.3264 -0.1033
 2520SOL    HW119193   1.062   4.661   9.782  0.0518  0.3109 -0.5483
 2520SOL    HW219194   0.960   4.578   9.729 -0.6959 -2.7527 -0.5447
 2521SOL     OW19195   1.136   0.532   4.790  0.3091  0.3943  0.1100
 2521SOL    HW119196   1.070   0.534   4.721 -0.2782  1.0145  0.6960
 2521SOL    HW219197   1.164   0.623   4.787 -1.2068  0.8927  0.9948
 2522SOL     OW19198   4.024   4.483   2.738  0.9267 -0.1710  0.4199
 2522SOL    HW119199   4.012   4.393   2.769  0.2171 -0.4461 -0.6540
 2522SOL    HW219200   4.108   4.468   2.694  1.3360  0.2998  1.0321
 2523SOL     OW19201   2.712   3.527  10.212 -0.4529 -0.4715 -0.0862
 2523SOL    HW119202   2.619   3.544  10.226  0.1566  1.2905  1.8340
 2523SOL    HW219203   2.732   3.607  10.163  3.3478 -0.5451  1.3232
 2524SOL     OW19204   2.382   1.844   6.678  0.3584  0.0942 -0.0836
 2524SOL    HW119205   2.440   1.909   6.638  0.7107  0.2705  0.7149
 2524SOL    HW219206   2.446   1.796   6.731  0.0491  1.7242  1.7450
 2525SOL     OW19207   2.316   4.731   2.442 -0.4554 -0.1605 -0.0642
 2525SOL    HW119208   2.279   4.662   2.497  3.3425 -0.7226  1.8034
 2525SOL    HW219209   2.298   4.694   2.356  0.2034 -0.0751 -0.2416
 2526SOL     OW19210   4.287   2.478  17.159  0.5540 -0.1398  0.6634
 2526SOL    HW119211   4.220   2.480  17.090  0.1257  0.7990  1.1011
 2526SOL    HW219212   4.319   2.389  17.143  3.3343  0.6195  1.9330
 2527SOL     OW19213   2.934   1.690   9.634 -0.4440 -0.5057  0.0895
 2527SOL    HW119214   2.998   1.729   9.693 -0.9315  0.6280 -0.1308
 2527SOL    HW219215   2.981   1.675   9.551  0.4652  1.5184  0.2286
 2528SOL     OW19216   3.795   3.829   8.987 -0.5232  0.1229 -0.3937
 2528SOL    HW119217   3.752   3.832   8.901  0.5044 -1.5960 -0.9700
 2528SOL    HW219218   3.760   3.908   9.028  1.1481  1.0402 -0.7321
 2529SOL     OW19219   3.396   1.777   7.254 -0.3238  0.3121 -0.6112
 2529SOL    HW119220   3.469   1.764   7.194  1.4042  0.0469  1.5471
 2529SOL    HW219221   3.430   1.829   7.327 -0.8101  2.3234 -1.8322
 2530SOL     OW19222   3.843   1.603   8.620  0.0585 -0.3240  0.3069
 2530SOL    HW119223   3.900   1.589   8.695 -0.9677 -0.0735  1.1209
 2530SOL    HW219224   3.809   1.516   8.596  1.4068 -1.1013  1.2413
 2531SOL     OW19225   1.558   4.477   4.028  0.1541  0.7989 -0.0654
 2531SOL    HW119226   1.471   4.506   4.055 -0.5859 -0.9226 -0.6240
 2531SOL    HW219227   1.535   4.401   3.975 -1.3889 -0.2920  2.1694
 2532SOL     OW19228   3.768   0.757  14.967 -0.5677  0.1712  0.4826
 2532SOL    HW119229   3.754   0.687  14.903 -0.8241  0.8751 -0.2305
 2532SOL    HW219230   3.782   0.839  14.919  1.8716 -0.9935 -0.7869
 2533SOL     OW19231   0.441   1.949  13.707  0.4000 -0.5315 -0.0773
 2533SOL    HW119232   0.521   2.002  13.704  0.2596 -0.2494  1.4113
 2533SOL    HW219233   0.374   2.016  13.697  0.5604 -0.8735 -3.4245
 2534SOL     OW19234   0.989   2.252   1.937  0.1631  0.2666  0.4132
 2534SOL    HW119235   1.014   2.343   1.948  1.6689 -0.1583  0.5276
 2534SOL    HW219236   1.072   2.205   1.928 -1.1575 -1.8029 -1.2277
 2535SOL     OW19237   1.495   0.214   3.022 -0.3446 -0.5468  0.1411
 2535SOL    HW119238   1.506   0.252   2.934  0.8811 -0.8914  0.1489
 2535SOL    HW219239   1.409   0.247   3.050 -0.8334 -1.0354 -0.7707
 2536SOL     OW19240   0.312   2.178  11.142 -0.3342  0.1111 -0.1668
 2536SOL    HW119241   0.305   2.226  11.060 -3.1371 -0.8796 -0.4917
 2536SOL    HW219242   0.230   2.129  11.134 -0.4716  0.4094 -0.6292
 2537SOL     OW19243   2.436   4.285   8.583  0.0649  0.0954 -0.6544
 2537SOL    HW119244   2.350   4.271   8.542 -0.3565  0.1322  0.2212
 2537SOL    HW219245   2.415   4.372   8.617 -0.8466 -1.3880  2.5414
 2538SOL     OW19246   3.289   4.692   9.080  0.4012 -0.0557  0.4979
 2538SOL    HW119247   3.317   4.688   9.172  1.1516 -0.6165  0.2498
 2538SOL    HW219248   3.205   4.738   9.075  0.9062  0.9361  1.1214
 2539SOL     OW19249   2.126   0.111   2.172 -0.0381  0.5861 -0.4127
 2539SOL    HW119250   2.102   0.039   2.230  0.5550  1.6483  1.1582
 2539SOL    HW219251   2.093   0.094   2.084  1.0000 -1.7309 -0.3521
 2540SOL     OW19252   3.349   4.216   9.232  0.3535  0.0867 -0.7179
 2540SOL    HW119253   3.351   4.140   9.174  1.5172 -1.5120  1.4494
 2540SOL    HW219254   3.274   4.263   9.195  0.3480 -0.5689 -1.5502
 2541SOL     OW19255   1.188   1.116   1.969 -0.1291  0.1593  0.2417
 2541SOL    HW119256   1.259   1.168   1.931 -0.4129  1.4120  1.4243
 2541SOL    HW219257   1.193   1.040   1.911  1.6628  0.4446  0.0258
 2542SOL     OW19258   1.357   4.632   6.479 -0.5941  0.1522 -0.4957
 2542SOL    HW119259   1.367   4.537   6.480  0.0328  0.2346  1.2897
 2542SOL    HW219260   1.328   4.623   6.570  0.6687 -1.4995 -0.2422
 2543SOL     OW19261   1.964   1.813   1.957 -0.2251  0.0033 -0.5655
 2543SOL    HW119262   2.045   1.854   1.928  1.9963 -3.5275  0.6004
 2543SOL    HW219263   2.004   1.729   1.981  1.6694  0.0637 -3.6359
 2544SOL     OW19264   1.190   2.525  10.805  0.1301  0.0579 -0.0045
 2544SOL    HW119265   1.212   2.617  10.792 -0.6223  0.1899 -0.3728
 2544SOL    HW219266   1.157   2.532  10.895  1.8723  0.6038  0.5844
 2545SOL     OW19267   0.057   3.503   9.473 -0.2057 -0.5349 -0.3162
 2545SOL    HW119268   4.710   3.484   9.435 -1.0073  1.1599  0.6832
 2545SOL    HW219269   0.069   3.598   9.481  0.8693 -1.0565  3.8820
 2546SOL     OW19270   4.646   2.423   3.995  0.1211  0.6757 -0.6477
 2546SOL    HW119271   4.623   2.358   4.062 -1.2543  1.7930 -0.0384
 2546SOL    HW219272   4.619   2.509   4.027  0.4962  0.7261 -0.4655
 2547SOL     OW19273   3.947   0.446   6.066  0.4936 -0.4128  0.0643
 2547SOL    HW119274   4.042   0.458   6.062  0.2597  1.0481 -1.3803
 2547SOL    HW219275   3.925   0.429   5.974  1.5991 -0.6484 -0.1533
 2548SOL     OW19276   0.543   0.919  14.411 -0.1607  0.7565 -0.0168
 2548SOL    HW119277   0.638   0.918  14.425 -0.1446 -1.3437 -0.3003
 2548SOL    HW219278   0.521   0.869  14.489  0.8362 -2.4014 -1.7496
 2549SOL     OW19279   4.012   1.890   8.965  0.3971  0.2838  0.3280
 2549SOL    HW119280   3.954   1.830   9.011  0.3416  1.9925  2.5120
 2549SOL    HW219281   4.026   1.836   8.888  1.4359 -0.5589  1.1050
 2550SOL     OW19282   2.281   4.203  12.049  0.4020 -0.5251 -0.0812
 2550SOL    HW119283   2.374   4.206  12.025  0.2822  0.7449 -0.3964
 2550SOL    HW219284   2.261   4.286  12.006 -0.5303  0.3588  2.1010
 2551SOL     OW19285   4.707   1.994   3.440 -0.2602 -0.2656 -0.9508
 2551SOL    HW119286   4.690   2.088   3.445  0.5880 -0.1230 -0.7826
 2551SOL    HW219287   4.617   1.968   3.419 -0.3518 -1.7791  1.2971
 2552SOL     OW19288   0.866   0.776   3.690 -0.1497  0.1663 -0.0728
 2552SOL    HW119289   0.864   0.869   3.670  1.1761  0.2202  0.0515
 2552SOL    HW219290   0.862   0.777   3.785 -0.3953  1.1594 -0.0937
 2553SOL     OW19291   3.484   2.675   7.419 -0.0735  0.4017  0.3482
 2553SOL    HW119292   3.468   2.661   7.325  3.0910  0.7767 -0.2192
 2553SOL    HW219293   3.403   2.662   7.468  1.5038  1.9263  3.3068
 2554SOL     OW19294   1.048   2.880  12.862  0.6612  0.1781  0.2762
 2554SOL    HW119295   1.074   2.802  12.814 -0.9428 -0.4130  0.3812
 2554SOL    HW219296   1.010   2.927  12.788  0.7085 -0.8530 -0.4066
 2555SOL     OW19297   0.103   3.419   1.086 -0.0415  0.3116  0.4195
 2555SOL    HW119298   0.107   3.405   0.991 -2.0337 -0.9854  0.5469
 2555SOL    HW219299   0.034   3.355   1.102 -1.0220  2.2388  3.9218
 2556SOL     OW19300   4.280   3.167   0.661  0.3577 -0.1027  0.3574
 2556SOL    HW119301   4.260   3.077   0.688 -1.6414  0.3946  0.5806
 2556SOL    HW219302   4.198   3.185   0.613 -0.4403 -0.1620  1.7037
 2557SOL     OW19303   3.285   3.079  10.860 -0.0379 -0.1174  0.2637
 2557SOL    HW119304   3.335   3.060  10.780  2.7066 -2.6983  2.5849
 2557SOL    HW219305   3.265   3.172  10.852 -0.1416 -0.1058  0.6665
 2558SOL     OW19306   4.202   4.437  13.060 -0.2496  0.1639 -0.1867
 2558SOL    HW119307   4.181   4.430  12.967  2.4547  0.9534 -0.8634
 2558SOL    HW219308   4.119   4.414  13.102  0.4061 -1.0550  0.4502
 2559SOL     OW19309   0.529   1.266   4.374  0.5808 -0.1860  0.3385
 2559SOL    HW119310   0.503   1.299   4.289  2.4809 -0.0219 -0.1801
 2559SOL    HW219311   0.467   1.197   4.397  0.8851  0.1031  2.0687
 2560SOL     OW19312   4.080   2.125   2.316 -0.0304 -0.0719  0.1852
 2560SOL    HW119313   4.065   2.151   2.407  2.4170  1.5519  0.1305
 2560SOL    HW219314   4.038   2.199   2.272  0.4045 -0.1847 -0.4156
 2561SOL     OW19315   3.544   2.982   6.027 -0.1742  0.0787  0.1804
 2561SOL    HW119316   3.558   3.033   6.106  2.0221 -0.4873  0.1513
 2561SOL    HW219317   3.450   2.968   6.035 -0.1269 -0.9915 -1.0886
 2562SOL     OW19318   0.740   3.678   3.322 -0.0917  0.0219  0.4135
 2562SOL    HW119319   0.776   3.764   3.344  1.5149 -0.4092 -0.5561
 2562SOL    HW219320   0.747   3.688   3.227  0.9098  2.0400  0.6922
 2563SOL     OW19321   0.600   4.173  16.839  0.6943 -0.2454  0.2238
 2563SOL    HW119322   0.680   4.176  16.786  0.9172 -0.5061  0.5449
 2563SOL    HW219323   0.587   4.265  16.859 -2.3128 -0.6213 -0.0352
 2564SOL     OW19324   4.016   1.204   7.506 -0.1673 -0.0055  0.6238
 2564SOL    HW119325   4.112   1.209   7.510 -0.1463  0.2796 -0.1440
 2564SOL    HW219326   4.000   1.142   7.435 -1.1075  0.1078  0.7344
 2565SOL     OW19327   0.952   1.486   1.713  0.2708  0.0223  0.1594
 2565SOL    HW119328   0.982   1.395   1.707 -0.3451 -0.1238 -0.8130
 2565SOL    HW219329   1.032   1.519   1.755  0.5817  0.9257 -1.1299
 2566SOL     OW19330   4.180   3.744   1.866 -0.5630 -0.0299  0.3786
 2566SOL    HW119331   4.149   3.834   1.855  0.3940  0.3263  0.5063
 2566SOL    HW219332   4.271   3.744   1.834 -0.4398 -2.8562  0.7658
 2567SOL     OW19333   2.058   3.914   2.522  0.0844 -0.1870 -0.7788
 2567SOL    HW119334   2.109   3.939   2.599 -2.1122  0.1032  0.5850
 2567SOL    HW219335   2.050   3.994   2.470 -1.1581 -0.5282 -1.1184
 2568SOL     OW19336   2.661   0.702  15.598  0.6342 -0.2775 -1.0817
 2568SOL    HW119337   2.611   0.784  15.598 -0.1378 -0.7603 -0.5871
 2568SOL    HW219338   2.593   0.641  15.569 -1.7241  1.8360  0.0164
 2569SOL     OW19339   3.293   3.866   7.685  0.5321 -0.0016 -0.4650
 2569SOL    HW119340   3.250   3.781   7.675 -0.8749  0.7219 -0.5063
 2569SOL    HW219341   3.375   3.856   7.636 -0.0924 -0.1892 -1.4872
 2570SOL     OW19342   0.284   0.999   0.877 -0.0839 -0.3751 -0.2496
 2570SOL    HW119343   0.283   1.093   0.856 -2.4725 -0.0056  1.4836
 2570SOL    HW219344   0.191   0.977   0.884 -0.4456  1.0793 -0.4974
 2571SOL     OW19345   3.976   4.433   6.656  0.3987 -0.6376  0.0588
 2571SOL    HW119346   4.007   4.479   6.578  0.5392 -0.6599  0.1024
 2571SOL    HW219347   3.896   4.481   6.678  1.5070  1.2558 -0.0492
 2572SOL     OW19348   2.807   0.436   1.500 -0.3607 -0.3774  0.2309
 2572SOL    HW119349   2.787   0.356   1.548  1.6483  0.0665  1.7958
 2572SOL    HW219350   2.757   0.501   1.551  0.7540  0.3650  0.3737
 2573SOL     OW19351   0.821   2.124   5.995 -0.0378  0.0915 -0.1670
 2573SOL    HW119352   0.837   2.212   5.962  0.9626  0.2311  0.7251
 2573SOL    HW219353   0.794   2.078   5.915  0.2993 -0.4716  0.0421
 2574SOL     OW19354   2.533   1.485   7.731 -0.9209 -0.0887 -0.4532
 2574SOL    HW119355   2.478   1.496   7.809  1.6099  0.1054  1.3104
 2574SOL    HW219356   2.596   1.417   7.754  0.7153  1.8947  0.9610
 2575SOL     OW19357   4.726   1.658   0.161 -0.5095 -0.4015  0.3646
 2575SOL    HW119358   0.028   1.726   0.215  0.5815 -1.2358  0.5947
 2575SOL    HW219359   4.723   1.694   0.072  0.5550  0.3974  0.6515
 2576SOL     OW19360   2.937   3.539  17.615  0.4286  0.3646 -0.4113
 2576SOL    HW119361   2.927   3.559  17.522 -1.2639 -1.3965 -0.6001
 2576SOL    HW219362   3.029   3.514  17.622  0.1974  1.1318  6.2402
 2577SOL     OW19363   1.253   3.651   9.665  0.4365 -0.0936 -0.4767
 2577SOL    HW119364   1.256   3.654   9.569  1.1448  0.1102 -0.4512
 2577SOL    HW219365   1.240   3.559   9.687  0.5527  0.1027  0.4060
 2578SOL     OW19366   0.974   0.237  16.016  0.2032 -0.1578 -0.4865
 2578SOL    HW119367   1.011   0.325  16.005  2.6132 -0.9400  1.2558
 2578SOL    HW219368   0.923   0.247  16.096 -0.1780 -1.9819 -0.5002
 2579SOL     OW19369   4.303   0.067   8.888  0.2388  0.6024  0.3061
 2579SOL    HW119370   4.391   0.092   8.915  0.5019  1.5284 -1.4167
 2579SOL    HW219371   4.242   0.140   8.897 -0.4362  0.5307 -3.4033
 2580SOL     OW19372   1.801   3.586   5.306  0.2998  0.3652 -0.1536
 2580SOL    HW119373   1.816   3.578   5.400  1.1121 -0.3953 -0.3509
 2580SOL    HW219374   1.892   3.579   5.277  0.2544  0.2243 -0.2625
 2581SOL     OW19375   3.130   4.082   2.012 -0.4039  0.0095  0.7750
 2581SOL    HW119376   3.082   4.047   2.087 -0.6495 -1.8859 -0.2879
 2581SOL    HW219377   3.061   4.101   1.949 -0.6909  1.4639  1.5366
 2582SOL     OW19378   3.866   4.678   2.825  0.5855 -0.0071  0.4994
 2582SOL    HW119379   3.914   4.595   2.825 -0.1689 -0.4463 -1.9410
 2582SOL    HW219380   3.778   4.645   2.844  0.2917 -1.0656 -2.6849
 2583SOL     OW19381   0.808   4.331  16.269  0.2920 -0.5704  0.3981
 2583SOL    HW119382   0.893   4.374  16.262  0.3634 -0.7406  0.2116
 2583SOL    HW219383   0.771   4.370  16.348  0.6822 -1.4471  1.0193
 2584SOL     OW19384   1.218   0.344  16.897 -0.2035 -0.2754  0.5118
 2584SOL    HW119385   1.250   0.254  16.891  1.1379  0.0520  2.7135
 2584SOL    HW219386   1.184   0.342  16.986 -0.4480 -0.8359  0.4074
 2585SOL     OW19387   0.357   1.427   2.512 -0.2144 -0.0572 -0.7902
 2585SOL    HW119388   0.421   1.496   2.492  0.7456 -0.5954  0.4159
 2585SOL    HW219389   0.292   1.493   2.538 -1.0846 -0.7119 -1.3205
 2586SOL     OW19390   3.632   0.270   1.515 -0.4270  0.6218  0.4308
 2586SOL    HW119391   3.595   0.349   1.554 -1.3812  0.0420  0.7123
 2586SOL    HW219392   3.620   0.208   1.587 -1.3644  0.0169 -0.2595
 2587SOL     OW19393   1.941   4.394   3.867  0.3573  0.1347 -0.2064
 2587SOL    HW119394   1.895   4.312   3.849 -0.7791  0.3324  1.7200
 2587SOL    HW219395   1.887   4.435   3.935 -2.1915 -2.8743 -0.4230
 2588SOL     OW19396   2.940   0.919  15.581 -0.1157  1.2925  0.1074
 2588SOL    HW119397   2.964   0.973  15.505 -0.6422 -0.7106 -1.4795
 2588SOL    HW219398   2.998   0.963  15.643 -0.5910 -0.1808  1.5955
 2589SOL     OW19399   0.202   3.097  11.091 -0.0388  0.3286 -0.3745
 2589SOL    HW119400   0.200   3.014  11.139 -0.3065  0.0809 -0.8216
 2589SOL    HW219401   0.261   3.074  11.019 -1.4762  0.7760 -1.6861
 2590SOL     OW19402   0.755   2.381   2.689  0.8745  0.6237  0.6994
 2590SOL    HW119403   0.824   2.365   2.625  0.1756 -0.8545  0.3249
 2590SOL    HW219404   0.798   2.353   2.769 -1.2655 -2.2731  0.8422
 2591SOL     OW19405   2.071   3.430  11.506 -0.5543  0.3912  0.3235
 2591SOL    HW119406   2.047   3.343  11.537 -1.7640  0.2336 -1.0037
 2591SOL    HW219407   1.987   3.477  11.506 -0.8278 -0.0781 -1.3466
 2592SOL     OW19408   4.073   2.958   2.650  0.3523  0.2198 -0.1300
 2592SOL    HW119409   4.051   2.873   2.610  1.7635  0.7948 -2.1016
 2592SOL    HW219410   3.987   2.998   2.664 -0.0137 -0.9598  1.0238
 2593SOL     OW19411   3.628   2.534   1.791  0.1704 -0.1136  1.1377
 2593SOL    HW119412   3.720   2.542   1.765 -0.3212 -1.6717 -1.0826
 2593SOL    HW219413   3.600   2.475   1.721  1.1818 -1.6437  2.0016
 2594SOL     OW19414   0.426   3.262   4.935  0.4701  0.3262  0.5924
 2594SOL    HW119415   0.387   3.229   4.854  1.5543  0.2304  0.1083
 2594SOL    HW219416   0.518   3.236   4.937 -0.2850 -2.4682 -1.1768
 2595SOL     OW19417   1.816   4.029   9.518  0.0619 -0.4600  0.9718
 2595SOL    HW119418   1.846   3.939   9.505  0.2350 -0.6173  2.4475
 2595SOL    HW219419   1.745   4.019   9.581 -0.6112  2.6012  0.6940
 2596SOL     OW19420   4.087   3.692   6.961 -0.1180 -0.2656 -0.1311
 2596SOL    HW119421   4.134   3.608   6.954  0.1742  0.0205 -1.4839
 2596SOL    HW219422   4.116   3.715   6.873 -0.9974  1.6099  0.0740
 2597SOL     OW19423   3.857   2.119   8.419  0.9702  0.4507 -0.3398
 2597SOL    HW119424   3.792   2.123   8.348  0.2327  1.7514  0.4183
 2597SOL    HW219425   3.885   2.210   8.414  0.9528  0.3833 -1.6798
 2598SOL     OW19426   3.468   1.659  11.138  0.3384  0.3055 -0.3327
 2598SOL    HW119427   3.510   1.715  11.204  0.4213  0.0028 -0.1287
 2598SOL    HW219428   3.471   1.706  11.055 -0.4750 -0.9943 -1.0960
 2599SOL     OW19429   3.087   4.703   3.522 -0.1303 -0.2124  0.0067
 2599SOL    HW119430   3.102   4.612   3.499 -0.8830 -0.0995 -0.9052
 2599SOL    HW219431   3.025   4.734   3.457 -0.0908 -2.3523 -1.0243
 2600SOL     OW19432   0.284   0.073   4.996 -0.3317  0.0731  0.3786
 2600SOL    HW119433   0.225   0.010   5.036  1.0309 -1.3808  0.1241
 2600SOL    HW219434   0.228   0.111   4.928  2.2278 -1.2702 -2.5245
 2601SOL     OW19435   3.932   4.016  15.020  0.3822 -0.4267  0.4749
 2601SOL    HW119436   3.958   3.956  15.090 -0.0741 -0.3744  0.6909
 2601SOL    HW219437   3.845   4.045  15.046  1.4032  0.2825  3.0818
 2602SOL     OW19438   0.379   4.440   2.401  0.7048 -0.1221 -0.8091
 2602SOL    HW119439   0.338   4.470   2.320 -0.3221  0.9416  0.1087
 2602SOL    HW219440   0.413   4.353   2.380  3.1086  0.1972  1.8427
 2603SOL     OW19441   2.817   4.340  12.086 -0.3775  0.1391 -0.6683
 2603SOL    HW119442   2.911   4.328  12.073 -0.0140  2.6098 -0.1380
 2603SOL    HW219443   2.806   4.434  12.079 -0.5586  0.1458 -0.2710
 2604SOL     OW19444   1.246   2.284   8.839  0.3027  0.6419 -0.1180
 2604SOL    HW119445   1.194   2.318   8.913  1.3588 -0.0642  0.9525
 2604SOL    HW219446   1.174   2.275   8.777  0.7574 -2.0029 -0.2604
 2605SOL     OW19447   1.224   3.801  14.589 -0.3450  0.0918  0.1243
 2605SOL    HW119448   1.269   3.723  14.557  0.6438 -0.1923  2.1846
 2605SOL    HW219449   1.235   3.862  14.517 -1.6980  1.4760  1.0913
 2606SOL     OW19450   0.808   3.064   3.257  0.1124  0.2724 -0.5819
 2606SOL    HW119451   0.727   3.020   3.282  0.2163 -0.4878 -1.5893
 2606SOL    HW219452   0.844   3.096   3.341  1.6709 -1.3802 -0.6352
 2607SOL     OW19453   3.378   0.277  11.819  0.0635 -0.4065  0.0917
 2607SOL    HW119454   3.318   0.230  11.876  0.3921 -2.7359 -1.4949
 2607SOL    HW219455   3.457   0.292  11.871 -1.6384  3.3628  1.5838
 2608SOL     OW19456   0.523   4.011   5.623  0.2288 -0.0647 -0.1930
 2608SOL    HW119457   0.560   3.955   5.691  1.3507 -0.4537 -1.1251
 2608SOL    HW219458   0.527   3.959   5.542 -2.4178 -0.7246  0.0939
 2609SOL     OW19459   1.701   1.324   3.253 -0.0136  0.1838 -0.2069
 2609SOL    HW119460   1.680   1.354   3.341  0.8586 -1.0781  0.4304
 2609SOL    HW219461   1.613   1.325   3.217  0.5812 -0.0760 -1.6657
 2610SOL     OW19462   1.898   2.968   3.065  0.0667 -0.1452 -0.1829
 2610SOL    HW119463   1.945   2.895   3.106  2.0159  1.6193  0.6964
 2610SOL    HW219464   1.966   3.003   3.008  0.3422 -1.2266 -0.5252
 2611SOL     OW19465   2.794   0.885   5.723 -0.4383 -0.1973  0.2921
 2611SOL    HW119466   2.823   0.878   5.813 -0.4504  0.9224  0.3890
 2611SOL    HW219467   2.714   0.938   5.730  0.8564  1.4207  2.8041
 2612SOL     OW19468   0.565   4.399   4.970  0.2943 -0.2968  0.0171
 2612SOL    HW119469   0.639   4.338   4.975  1.4959  1.1519 -0.2369
 2612SOL    HW219470   0.596   4.463   4.906 -1.3370 -1.9890 -2.4525
 2613SOL     OW19471   3.533   2.790   1.714 -0.1233 -0.1910 -0.6969
 2613SOL    HW119472   3.580   2.845   1.778  2.3504 -0.7583 -2.0450
 2613SOL    HW219473   3.556   2.702   1.743 -3.0953 -0.2256  1.4783
 2614SOL     OW19474   0.023   3.354   4.040 -0.0377  0.7057  0.5875
 2614SOL    HW119475   0.101   3.344   4.095  0.0510  2.0097  0.7006
 2614SOL    HW219476   4.682   3.341   4.091 -0.8692 -1.2645 -1.1743
 2615SOL     OW19477   3.842   0.945  11.160 -0.4768 -0.4133  0.1514
 2615SOL    HW119478   3.832   0.877  11.227  0.5617  1.3709  2.1273
 2615SOL    HW219479   3.748   0.964  11.160 -0.4804 -0.4163 -0.5290
 2616SOL     OW19480   3.592   0.823  16.190  0.6245  0.1049  0.4157
 2616SOL    HW119481   3.517   0.881  16.204 -1.0790 -1.6779 -1.1787
 2616SOL    HW219482   3.640   0.885  16.135  0.4006 -0.3385 -0.2881
 2617SOL     OW19483   4.091   0.046   6.125 -0.6496 -0.3796  0.4147
 2617SOL    HW119484   4.157   0.109   6.096  0.6332 -0.9386  2.1461
 2617SOL    HW219485   4.026   0.049   6.054 -0.1850 -0.3736 -0.0068
 2618SOL     OW19486   0.719   1.583   6.768 -0.2335  0.0744  0.4761
 2618SOL    HW119487   0.771   1.503   6.771 -2.3642 -1.3171  0.2887
 2618SOL    HW219488   0.778   1.649   6.804 -1.2062  0.8672  0.6067
 2619SOL     OW19489   1.192   4.622   5.777 -0.1929  0.2500  0.6601
 2619SOL    HW119490   1.194   4.636   5.683  0.9775 -0.1104  0.6359
 2619SOL    HW219491   1.161   4.708   5.807 -1.7353  0.5256 -1.7016
 2620SOL     OW19492   3.583   1.130  16.323  0.7854  0.1847  0.0029
 2620SOL    HW119493   3.542   1.135  16.236 -0.7757 -0.8504  0.6768
 2620SOL    HW219494   3.602   1.222  16.342 -0.0553  0.2545  0.5130
 2621SOL     OW19495   0.341   3.378   8.352  0.1170  0.5745  0.1914
 2621SOL    HW119496   0.269   3.422   8.397  1.2114  0.0739  2.4641
 2621SOL    HW219497   0.419   3.431   8.366  0.5181  0.3498 -1.2111
 2622SOL     OW19498   1.501   2.745  15.378 -0.1344 -0.0941  0.1561
 2622SOL    HW119499   1.488   2.833  15.343 -1.1470 -0.8795 -1.4947
 2622SOL    HW219500   1.567   2.760  15.445 -0.6334  0.1353  0.5944
 2623SOL     OW19501   2.820   1.269   4.889  0.0028 -0.2006 -0.2265
 2623SOL    HW119502   2.780   1.231   4.811 -0.7103 -0.6780  0.3709
 2623SOL    HW219503   2.856   1.193   4.936  1.2274 -1.4330 -3.1547
 2624SOL     OW19504   2.216   2.714   6.885  0.2103 -0.2902 -0.3081
 2624SOL    HW119505   2.238   2.779   6.818  0.9356 -1.3848 -1.1211
 2624SOL    HW219506   2.303   2.680   6.905  0.0810 -1.0332 -1.0144
 2625SOL     OW19507   0.249   3.780   1.649  0.2280 -0.6229 -0.2638
 2625SOL    HW119508   0.309   3.715   1.686  0.2089 -1.4450 -1.6717
 2625SOL    HW219509   0.168   3.766   1.699  0.3260  2.4500  0.7568
 2626SOL     OW19510   0.292   4.446   6.973 -0.5127 -0.0991 -0.4576
 2626SOL    HW119511   0.311   4.416   7.062  1.4172  0.6327 -0.6314
 2626SOL    HW219512   0.274   4.363   6.929 -0.9418 -0.7721  0.9727
 2627SOL     OW19513   0.505   2.597  13.689  0.4108 -0.4642  0.3557
 2627SOL    HW119514   0.569   2.616  13.620  1.6057  1.2751  1.9275
 2627SOL    HW219515   0.500   2.685  13.726  0.8850  0.0894 -0.8827
 2628SOL     OW19516   0.414   0.916   6.901  0.4836  0.2829  0.5268
 2628SOL    HW119517   0.326   0.882   6.889  0.6028 -0.8551  2.7889
 2628SOL    HW219518   0.443   0.883   6.816  2.0400  1.6415  0.5070
 2629SOL     OW19519   0.301   3.173   3.731 -0.5081  0.3573 -0.1133
 2629SOL    HW119520   0.228   3.232   3.751  0.1371  1.0580  0.1963
 2629SOL    HW219521   0.257   3.088   3.734  1.8444 -0.9383 -2.3944
 2630SOL     OW19522   2.146   0.679   5.285  0.1202 -0.5397  0.0295
 2630SOL    HW119523   2.228   0.728   5.289  0.4825 -1.2814  1.6233
 2630SOL    HW219524   2.136   0.661   5.192  0.9862  0.4484 -0.2522
 2631SOL     OW19525   4.159   2.262   4.959  0.4114 -0.0503  0.0845
 2631SOL    HW119526   4.076   2.222   4.932 -0.0185  0.5035  0.5713
 2631SOL    HW219527   4.153   2.346   4.913  1.6344  1.2322  2.2751
 2632SOL     OW19528   2.695   0.204   0.665  0.6196  0.2225 -0.0001
 2632SOL    HW119529   2.629   0.271   0.647 -1.3544 -1.9781 -0.8960
 2632SOL    HW219530   2.685   0.200   0.760 -2.9363  1.7823 -0.2648
 2633SOL     OW19531   1.130   2.653   3.945 -0.3414  0.2132  0.7966
 2633SOL    HW119532   1.185   2.578   3.922  1.8522  2.4948 -1.4388
 2633SOL    HW219533   1.102   2.628   4.033 -1.0173 -1.1335  0.2123
 2634SOL     OW19534   1.354   3.540  13.323  0.0520 -0.6847 -0.2264
 2634SOL    HW119535   1.278   3.554  13.266  1.2528  0.7907 -1.4778
 2634SOL    HW219536   1.376   3.448  13.310 -0.3441 -0.8856  0.5499
 2635SOL     OW19537   1.526   4.406   7.948 -0.2114  0.1528 -0.0973
 2635SOL    HW119538   1.532   4.374   8.038  0.4177  0.0189 -0.1817
 2635SOL    HW219539   1.593   4.472   7.964 -0.2295 -0.6083  3.0427
 2636SOL     OW19540   0.354   0.878   6.295 -0.1827  0.0050  0.0063
 2636SOL    HW119541   0.289   0.942   6.266 -1.6795 -1.5305 -0.0373
 2636SOL    HW219542   0.310   0.799   6.266 -2.8356  2.1425 -1.7717
 2637SOL     OW19543   4.599   4.379  17.041 -0.3420 -0.6221  0.3968
 2637SOL    HW119544   4.644   4.305  17.083 -1.0184 -1.8439 -1.0409
 2637SOL    HW219545   4.634   4.454  17.089  0.2708  0.0847 -1.1553
 2638SOL     OW19546   2.710   1.103   8.315 -0.4367  0.2345  0.2474
 2638SOL    HW119547   2.732   1.009   8.319  0.1420  0.2622 -2.0615
 2638SOL    HW219548   2.789   1.138   8.273 -0.5357 -0.8334 -0.8446
 2639SOL     OW19549   3.032   0.604   2.645 -0.2056  0.4336 -0.0866
 2639SOL    HW119550   2.956   0.610   2.703  0.4767 -0.7302  0.9393
 2639SOL    HW219551   3.098   0.565   2.702 -0.4398  1.8615  1.1471
 2640SOL     OW19552   3.222   0.058   1.139 -0.0240 -0.4409 -0.7117
 2640SOL    HW119553   3.192   0.062   1.230 -0.4751  1.2809 -0.9408
 2640SOL    HW219554   3.153   0.008   1.097 -1.2625  0.7172 -0.0514
 2641SOL     OW19555   4.646   2.536  17.656 -0.1380  0.7690 -0.3374
 2641SOL    HW119556   4.714   2.475  17.685 -1.4242 -0.2173  0.6277
 2641SOL    HW219557   4.569   2.510  17.707  1.0504 -1.3261  0.4315
 2642SOL     OW19558   4.730   0.942   4.416  0.0859 -0.0755  0.3757
 2642SOL    HW119559   4.709   0.864   4.467 -1.0807  1.0768  1.6378
 2642SOL    HW219560   0.024   0.891   4.342  0.7672 -0.7178  1.1209
 2643SOL     OW19561   2.684   1.982  17.203  0.0657 -0.1170 -0.9736
 2643SOL    HW119562   2.693   1.908  17.262 -0.5478  1.8445  1.5868
 2643SOL    HW219563   2.650   1.939  17.125 -3.4291  2.8431 -1.0706
 2644SOL     OW19564   2.218   2.952  10.822 -0.5870  0.0015  0.4831
 2644SOL    HW119565   2.219   2.876  10.764 -1.3473  1.4892 -1.4651
 2644SOL    HW219566   2.257   3.015  10.762  2.2639 -3.2713 -1.1012
 2645SOL     OW19567   1.832   0.036   7.755  0.0221 -0.4781  0.2316
 2645SOL    HW119568   1.766   0.105   7.757  1.8429  1.3479 -3.0134
 2645SOL    HW219569   1.842   0.025   7.660 -1.9638  0.3185 -0.0716
 2646SOL     OW19570   0.144   1.584   7.018  0.2739 -0.0431  0.4121
 2646SOL    HW119571   0.167   1.506   7.069 -2.6349 -1.4801 -0.4476
 2646SOL    HW219572   0.093   1.631   7.084 -2.1201 -0.4922 -1.1154
 2647SOL     OW19573   0.907   3.457  12.689 -0.4209 -0.3558 -0.0251
 2647SOL    HW119574   0.873   3.368  12.681 -1.9300  0.3555 -1.5005
 2647SOL    HW219575   0.953   3.451  12.606 -2.4707  0.0483 -1.1950
 2648SOL     OW19576   2.811   0.874  16.503 -0.1608  0.5183  0.1550
 2648SOL    HW119577   2.802   0.963  16.469 -0.1541  0.6791  0.5825
 2648SOL    HW219578   2.882   0.841  16.448 -0.6211 -0.8738  0.4012
 2649SOL     OW19579   2.399   3.932   7.583 -0.2766 -0.1767  0.2149
 2649SOL    HW119580   2.348   3.969   7.656  0.8794  1.1696  0.3402
 2649SOL    HW219581   2.344   3.862   7.547 -1.7083  0.6285  0.8240
 2650SOL     OW19582   4.113   0.215  13.729  0.0838  0.1454 -0.1617
 2650SOL    HW119583   4.177   0.145  13.717  0.3528  0.7188 -2.0529
 2650SOL    HW219584   4.173   0.289  13.721  1.0800 -0.5168  1.1430
 2651SOL     OW19585   1.811   0.908  12.684 -0.3973  0.3963  0.4959
 2651SOL    HW119586   1.808   0.848  12.609  1.7397  0.0818  0.6567
 2651SOL    HW219587   1.764   0.987  12.658 -2.0371 -0.9829 -0.7765
 2652SOL     OW19588   3.709   2.711  16.806 -0.4026 -0.0057 -0.4044
 2652SOL    HW119589   3.647   2.749  16.869 -1.0780  0.6565 -1.4579
 2652SOL    HW219590   3.780   2.684  16.864  0.6750  2.1331 -0.7430
 2653SOL     OW19591   0.034   3.522   2.156 -0.0431 -0.1613  0.0515
 2653SOL    HW119592   0.057   3.430   2.173 -2.2175 -0.4309  1.5093
 2653SOL    HW219593   4.717   3.542   2.231 -2.3864 -2.2328 -1.1228
 2654SOL     OW19594   1.600   2.948   7.507 -0.2080 -0.3087  0.4858
 2654SOL    HW119595   1.522   3.001   7.517  1.1796  1.4325  2.0124
 2654SOL    HW219596   1.651   2.975   7.584  2.1356  0.9540 -1.4901
 2655SOL     OW19597   3.946   2.528   5.384  0.0907 -0.8946  0.4309
 2655SOL    HW119598   3.951   2.505   5.292 -2.5902 -2.0627  0.5817
 2655SOL    HW219599   3.889   2.604   5.389 -1.2126 -1.6882 -2.5266
 2656SOL     OW19600   0.080   2.842   2.870  0.5996 -0.5899  0.1443
 2656SOL    HW119601   0.084   2.747   2.865  0.9556 -0.5547 -0.2532
 2656SOL    HW219602   0.124   2.866   2.789  0.9336  0.1934  0.5602
 2657SOL     OW19603   1.858   0.750   5.159 -0.0627  0.0325 -0.3378
 2657SOL    HW119604   1.775   0.795   5.176 -0.6448 -0.4995 -1.6903
 2657SOL    HW219605   1.920   0.822   5.156  1.1293 -1.0117 -0.8210
 2658SOL     OW19606   2.556   0.946   3.795 -0.1517  0.1087  0.5994
 2658SOL    HW119607   2.554   0.887   3.719  0.0827 -0.0150  0.6912
 2658SOL    HW219608   2.637   0.923   3.839 -0.0646 -0.1083  0.3288
 2659SOL     OW19609   0.244   1.134   8.634  0.6282 -0.1013  0.2586
 2659SOL    HW119610   0.297   1.171   8.704  1.7721 -0.3492 -0.4805
 2659SOL    HW219611   0.212   1.056   8.680 -0.3805 -0.1784 -0.5786
 2660SOL     OW19612   4.172   3.671   8.569 -0.2155 -0.2332 -0.4635
 2660SOL    HW119613   4.105   3.649   8.505  0.4614 -2.1435 -0.5346
 2660SOL    HW219614   4.117   3.678   8.647  1.0643  0.5675  0.3640
 2661SOL     OW19615   3.944   4.009  14.742  0.2647 -0.0137 -0.1986
 2661SOL    HW119616   3.931   3.915  14.726  0.7501  0.4623 -3.3578
 2661SOL    HW219617   3.954   4.014  14.837 -0.8004  1.0474 -0.1497
 2662SOL     OW19618   2.731   1.332   5.417  0.1009  0.5021 -0.4233
 2662SOL    HW119619   2.711   1.421   5.386  1.1808  1.0602  0.4666
 2662SOL    HW219620   2.689   1.319   5.502 -0.5121 -0.8601 -0.9380
 2663SOL     OW19621   4.507   2.661   0.158 -0.1688  0.1617  0.1933
 2663SOL    HW119622   4.433   2.698   0.109 -1.3136  1.6681  3.0401
 2663SOL    HW219623   4.499   2.568   0.139  1.6707  0.4197 -1.9758
 2664SOL     OW19624   0.926   4.434   7.546 -0.0564 -0.1380  0.1283
 2664SOL    HW119625   0.993   4.455   7.480 -0.3063  1.5144  0.4130
 2664SOL    HW219626   0.974   4.376   7.605  1.7429 -0.2457 -1.4338
 2665SOL     OW19627   3.267   2.387   7.021  0.4318  0.0059  0.1869
 2665SOL    HW119628   3.209   2.382   7.097  0.3588  0.9146  0.1908
 2665SOL    HW219629   3.216   2.349   6.950 -0.5979 -0.2169  1.0565
 2666SOL     OW19630   1.794   4.076   6.234  0.0468  0.1335  0.3265
 2666SOL    HW119631   1.800   4.025   6.153 -1.2351 -0.0677  0.3578
 2666SOL    HW219632   1.745   4.152   6.204 -0.3234 -1.5738 -3.4643
 2667SOL     OW19633   0.739   4.680   4.447 -0.4417  0.5583  0.1281
 2667SOL    HW119634   0.793   4.607   4.416 -0.4063  0.9544 -0.7476
 2667SOL    HW219635   0.803   0.012   4.442  0.2990 -0.0366  1.1777
 2668SOL     OW19636   0.901   1.288   3.599 -0.3647  0.0023 -0.3897
 2668SOL    HW119637   0.849   1.299   3.519 -1.9651  1.0324  0.7958
 2668SOL    HW219638   0.988   1.314   3.569 -0.5077  0.5989 -0.2934
 2669SOL     OW19639   3.291   4.277   1.671 -0.1414 -0.6117 -0.4720
 2669SOL    HW119640   3.195   4.276   1.672 -0.1588 -0.0315 -1.5187
 2669SOL    HW219641   3.285   4.338   1.744 -0.3232  2.2481 -2.8987
 2670SOL     OW19642   1.153   0.304  17.152  0.5383 -0.2484  0.3263
 2670SOL    HW119643   1.204   0.326  17.230  2.8936 -1.1858 -0.9260
 2670SOL    HW219644   1.169   0.211  17.166 -1.8711 -0.5544  0.9671
 2671SOL     OW19645   1.098   1.807   6.466  0.2603 -0.0280  0.1543
 2671SOL    HW119646   1.111   1.883   6.410  2.7789  0.1155  0.9401
 2671SOL    HW219647   1.008   1.825   6.492  0.3242 -1.3442  1.2921
 2672SOL     OW19648   0.419   1.717   8.658  0.5529  0.0074 -0.2996
 2672SOL    HW119649   0.500   1.666   8.667 -0.7405 -1.9374  0.2384
 2672SOL    HW219650   0.363   1.656   8.611 -2.0582  2.1275  0.0549
 2673SOL     OW19651   2.291   4.208  11.596  0.4687 -0.3084  0.1703
 2673SOL    HW119652   2.309   4.290  11.641 -0.6087 -1.4866  2.7346
 2673SOL    HW219653   2.201   4.217  11.565  1.1987  2.5496 -1.1398
 2674SOL     OW19654   3.646   2.626   2.635 -0.0350 -0.3056  0.1146
 2674SOL    HW119655   3.564   2.605   2.591  0.1563  0.1915 -0.4785
 2674SOL    HW219656   3.621   2.632   2.727  1.8976  1.3174  0.5312
 2675SOL     OW19657   1.145   2.430  15.658 -0.3538  0.1458 -0.6203
 2675SOL    HW119658   1.050   2.434  15.651 -0.4482  0.2368  0.7099
 2675SOL    HW219659   1.167   2.505  15.604 -0.3361  0.7062  0.1728
 2676SOL     OW19660   1.473   3.429   5.243  0.2508  0.5794 -0.2370
 2676SOL    HW119661   1.485   3.522   5.224 -1.1683  0.3722 -2.1282
 2676SOL    HW219662   1.457   3.433   5.337 -3.7707  2.2294 -0.9840
 2677SOL     OW19663   0.756   4.598   0.811 -0.4663  0.0035 -0.0209
 2677SOL    HW119664   0.673   4.635   0.780 -0.8949 -0.5934  0.4086
 2677SOL    HW219665   0.813   4.674   0.819  0.6376 -1.0257  1.9275
 2678SOL     OW19666   0.240   2.061   2.878  0.2950 -0.1367 -0.3120
 2678SOL    HW119667   0.306   2.104   2.933 -1.0013  0.6509  0.6408
 2678SOL    HW219668   0.294   1.989   2.848  0.5529 -0.3816  0.7265
 2679SOL     OW19669   0.162   1.147  11.958 -0.5930  0.0742 -0.2869
 2679SOL    HW119670   0.099   1.108  12.019  1.6171 -1.4138  1.0797
 2679SOL    HW219671   0.138   1.109  11.873  0.4133 -1.4841  0.1229
 2680SOL     OW19672   1.868   1.435   2.791 -0.1116  0.5153 -0.2521
 2680SOL    HW119673   1.914   1.432   2.707 -1.2017  1.4743 -0.8856
 2680SOL    HW219674   1.932   1.415   2.859  0.4867  0.4009 -0.8551
 2681SOL     OW19675   1.527   3.898   6.073  0.5425 -0.1516  0.2413
 2681SOL    HW119676   1.492   3.986   6.063 -0.3308 -0.2172  2.8422
 2681SOL    HW219677   1.622   3.912   6.078  0.3878  0.9219  0.0500
 2682SOL     OW19678   4.674   0.710  16.884  0.6605 -0.3602 -0.6566
 2682SOL    HW119679   4.632   0.663  16.812 -1.0073 -0.6675  0.5434
 2682SOL    HW219680   4.590   0.738  16.920  0.6861 -1.3910  0.2072
 2683SOL     OW19681   1.747   2.535  11.807  0.6216 -0.2814 -0.3928
 2683SOL    HW119682   1.787   2.620  11.826 -2.4788  1.4787 -1.7713
 2683SOL    HW219683   1.818   2.474  11.785  2.0144  0.3973  2.2037
 2684SOL     OW19684   1.639   0.784   7.908  0.0794  0.0939  0.1778
 2684SOL    HW119685   1.713   0.845   7.908 -2.2398  2.8771  2.1970
 2684SOL    HW219686   1.639   0.766   8.002 -0.4988 -1.0708 -0.0514
 2685SOL     OW19687   1.953   1.013   3.305  0.5378  0.1864  0.3056
 2685SOL    HW119688   2.033   0.987   3.258  0.7014  0.6222  0.3377
 2685SOL    HW219689   2.003   1.053   3.376 -2.8622  2.4933  1.3833
 2686SOL     OW19690   2.475   0.474   2.379  0.2569  0.4442 -0.0043
 2686SOL    HW119691   2.386   0.508   2.394 -0.4787 -0.8015 -1.6266
 2686SOL    HW219692   2.452   0.381   2.373  1.1410  0.1255  1.3446
 2687SOL     OW19693   3.303   2.473   5.530  0.0437 -0.1268  0.3776
 2687SOL    HW119694   3.240   2.405   5.556  0.4004  0.0691  1.7549
 2687SOL    HW219695   3.364   2.423   5.475  0.0018 -0.7765  0.9137
 2688SOL     OW19696   3.013   4.550   4.304  0.7208 -0.4848 -0.2765
 2688SOL    HW119697   3.108   4.565   4.300  0.7556 -0.7804 -0.5598
 2688SOL    HW219698   2.982   4.625   4.355 -0.4518  0.3918 -2.2918
 2689SOL     OW19699   2.628   1.384  15.624 -0.2336 -0.2329 -0.2359
 2689SOL    HW119700   2.674   1.301  15.637  0.0058 -0.1307 -0.4435
 2689SOL    HW219701   2.547   1.370  15.673  1.7696 -1.3386  2.7253
 2690SOL     OW19702   4.616   0.174   0.121 -0.4901  0.2786 -0.1910
 2690SOL    HW119703   4.583   0.106   0.062  2.1622  0.2569 -1.6287
 2690SOL    HW219704   4.692   0.203   0.071 -2.1637 -0.1420 -2.9926
 2691SOL     OW19705   2.317   4.507   3.226  0.3709  0.4609  0.3418
 2691SOL    HW119706   2.404   4.500   3.187 -1.3139 -0.5961 -3.2339
 2691SOL    HW219707   2.281   4.593   3.202 -1.7074  0.1701  2.3125
 2692SOL     OW19708   3.207   1.608  16.138  0.1142 -0.0732  0.2666
 2692SOL    HW119709   3.221   1.514  16.146  2.4747  0.2846  0.2033
 2692SOL    HW219710   3.126   1.618  16.188 -0.7018 -0.6221 -0.9428
 2693SOL     OW19711   4.239   2.237   8.332  0.1333  0.1862 -0.1095
 2693SOL    HW119712   4.221   2.181   8.256 -0.4852 -2.9488  2.3083
 2693SOL    HW219713   4.193   2.189   8.402  2.2190 -1.2485  0.2614
 2694SOL     OW19714   3.556   0.176   8.582 -0.0320  0.6396  0.4920
 2694SOL    HW119715   3.548   0.238   8.654  1.1070 -0.5673  1.6274
 2694SOL    HW219716   3.549   0.089   8.620  0.5595 -0.0769 -1.0172
 2695SOL     OW19717   0.514   3.655   5.060 -0.4193  0.2084  0.1732
 2695SOL    HW119718   0.579   3.716   5.094 -2.0258  1.0739  1.7371
 2695SOL    HW219719   0.539   3.640   4.969 -0.1511  0.4504  0.2085
 2696SOL     OW19720   2.256   1.180   7.033  0.3336 -0.8348 -0.7643
 2696SOL    HW119721   2.324   1.209   6.973 -0.1117  1.3309 -0.2463
 2696SOL    HW219722   2.301   1.192   7.117  1.9998 -2.2678 -1.4484
 2697SOL     OW19723   4.317   0.968   9.034  0.4874 -0.2668 -0.1632
 2697SOL    HW119724   4.369   1.042   9.005  2.2751 -1.2498  0.5561
 2697SOL    HW219725   4.279   1.005   9.113 -0.0779 -1.5363  0.1696
 2698SOL     OW19726   1.946   2.533   9.509 -0.7127  0.5925  0.0571
 2698SOL    HW119727   1.964   2.624   9.534  1.4954  0.1931 -0.0615
 2698SOL    HW219728   1.985   2.501   9.590  0.5665  0.6918 -0.5090
 2699SOL     OW19729   2.009   2.149   7.400 -0.6016  0.5609 -0.1718
 2699SOL    HW119730   1.962   2.165   7.481 -1.4932 -0.2865 -0.5163
 2699SOL    HW219731   2.079   2.091   7.429  0.1405  1.4439 -0.1963
 2700SOL     OW19732   2.638   4.562   6.973 -0.0271  0.4717  0.4439
 2700SOL    HW119733   2.711   4.573   7.033  0.1441 -1.3813  0.5570
 2700SOL    HW219734   2.589   4.505   7.032  1.9674  0.7952  2.3714
 2701SOL     OW19735   0.398   1.827   9.481 -0.3016  0.2980 -0.5205
 2701SOL    HW119736   0.440   1.911   9.503 -0.3935 -0.3912  2.2990
 2701SOL    HW219737   0.456   1.763   9.522 -1.5199 -0.3206  0.2259
 2702SOL     OW19738   0.621   0.506  15.625  0.2893  0.3285 -0.7585
 2702SOL    HW119739   0.687   0.485  15.690 -2.1030 -0.8940  1.2895
 2702SOL    HW219740   0.666   0.572  15.572 -0.0114  1.1440  0.0104
 2703SOL     OW19741   0.842   0.323  16.240 -0.4171  0.4335 -0.2024
 2703SOL    HW119742   0.907   0.358  16.301 -0.2337  0.6853 -0.5418
 2703SOL    HW219743   0.766   0.376  16.266 -0.9011 -0.4203  0.1084
 2704SOL     OW19744   0.799   1.612   4.228  0.0218 -0.3611  0.2817
 2704SOL    HW119745   0.851   1.619   4.148 -0.2723  1.3646  0.2364
 2704SOL    HW219746   0.715   1.610   4.184 -0.0245  1.3976  0.2837
 2705SOL     OW19747   4.515   3.251   0.720  0.4624 -0.7191  0.2899
 2705SOL    HW119748   4.425   3.228   0.698  0.5560  0.1099 -0.9325
 2705SOL    HW219749   4.555   3.264   0.634 -1.3681  0.1575 -0.4270
 2706SOL     OW19750   2.026   0.643   4.782 -0.0691  0.8064 -0.5956
 2706SOL    HW119751   2.113   0.626   4.745  1.1782  2.1172  1.7253
 2706SOL    HW219752   1.974   0.659   4.703  0.6849 -1.5138 -1.5730
 2707SOL     OW19753   0.049   1.741  12.425 -0.1158 -0.3029 -0.2614
 2707SOL    HW119754   0.067   1.693  12.344 -1.1424  0.4361 -0.9374
 2707SOL    HW219755   0.060   1.829  12.389 -2.6251 -0.8485 -2.3596
 2708SOL     OW19756   0.747   1.456   5.913 -0.3097 -0.3069  0.2940
 2708SOL    HW119757   0.700   1.436   5.832  0.9023 -0.4167 -0.3652
 2708SOL    HW219758   0.801   1.379   5.932  0.2397  0.3034  1.2147
 2709SOL     OW19759   2.441   0.349   5.260 -0.1652  0.1624 -0.4187
 2709SOL    HW119760   2.388   0.313   5.189  0.9610  0.9992 -1.6862
 2709SOL    HW219761   2.481   0.275   5.308 -0.8090  0.5008  0.6444
 2710SOL     OW19762   2.955   0.555   7.055  0.6011 -0.3476  0.4156
 2710SOL    HW119763   2.997   0.622   7.108  1.3249 -0.3267 -0.1922
 2710SOL    HW219764   2.894   0.536   7.126  0.4830 -0.5955  0.2496
 2711SOL     OW19765   0.580   1.119   2.553  0.1304 -0.1816 -0.1143
 2711SOL    HW119766   0.624   1.127   2.638  0.3869  0.4763 -0.3072
 2711SOL    HW219767   0.612   1.035   2.521  0.5019  0.0923 -0.4587
 2712SOL     OW19768   4.123   3.942   9.253  0.0814  0.0821  0.1850
 2712SOL    HW119769   4.180   3.970   9.325 -0.8648  2.4252  0.0146
 2712SOL    HW219770   4.075   4.019   9.225  2.1790  1.9366  1.6735
 2713SOL     OW19771   2.294   3.724  10.406 -0.1439 -0.0242 -0.1337
 2713SOL    HW119772   2.328   3.813  10.408 -0.9382  0.3026 -1.2914
 2713SOL    HW219773   2.294   3.699  10.499  0.3677 -1.1640 -0.4328
 2714SOL     OW19774   2.119   2.929  15.665 -0.3138  0.2957 -0.5010
 2714SOL    HW119775   2.133   2.904  15.757 -0.3689  2.7848  0.1907
 2714SOL    HW219776   2.157   3.017  15.664 -2.0271  1.0798  1.5702
 2715SOL     OW19777   3.211   1.296  13.265  0.4099  0.0850  0.2143
 2715SOL    HW119778   3.196   1.383  13.301  1.2173  0.6472 -0.8147
 2715SOL    HW219779   3.234   1.249  13.345  2.7218 -0.6258 -0.8563
 2716SOL     OW19780   3.423   2.309   2.706 -0.5723  0.1685  0.1680
 2716SOL    HW119781   3.372   2.232   2.729 -0.3951 -0.1233 -0.4318
 2716SOL    HW219782   3.498   2.312   2.765  0.2386  1.9256 -0.9452
 2717SOL     OW19783   2.527   2.373  17.630  0.2483 -0.3821 -0.0137
 2717SOL    HW119784   2.618   2.394  17.650 -0.1967  1.5739 -0.0878
 2717SOL    HW219785   2.531   2.333  17.543 -1.2054  3.1050 -1.6916
 2718SOL     OW19786   2.331   1.376   6.030  0.3271  0.3841 -0.7364
 2718SOL    HW119787   2.406   1.432   6.050  1.6906 -0.6294 -3.0695
 2718SOL    HW219788   2.300   1.432   5.959  2.3767 -0.6559 -2.4424
 2719SOL     OW19789   0.871   1.994   0.382 -0.4397  0.3526  0.1410
 2719SOL    HW119790   0.848   1.971   0.292  2.2323  0.5288 -0.5867
 2719SOL    HW219791   0.809   1.948   0.438  2.8832 -1.6859  2.1966
 2720SOL     OW19792   4.003   2.616  11.061 -0.1070  0.0218 -0.2290
 2720SOL    HW119793   4.003   2.533  11.013 -1.4094  0.4954 -1.0651
 2720SOL    HW219794   3.916   2.643  11.031  0.2070  2.1769  0.7963
 2721SOL     OW19795   0.110   1.016   6.826  0.0470  0.6798 -0.2864
 2721SOL    HW119796   0.145   1.104   6.840 -0.1437  0.4285  1.6493
 2721SOL    HW219797   0.021   1.035   6.854 -0.4441  1.7732 -2.5504
 2722SOL     OW19798   2.520   4.245  12.783 -0.0720  0.0376  1.0267
 2722SOL    HW119799   2.449   4.299  12.749 -0.9303 -2.3810 -0.9909
 2722SOL    HW219800   2.600   4.265  12.734 -0.4706  1.4771  0.9401
 2723SOL     OW19801   2.167   0.587  14.979  0.0364  0.4249 -0.0421
 2723SOL    HW119802   2.190   0.623  14.894  0.8657  0.8747  0.3656
 2723SOL    HW219803   2.103   0.520  14.957  2.9767 -2.8844  1.4698
 2724SOL     OW19804   2.336   2.933   5.978 -0.0710 -0.4870 -0.1257
 2724SOL    HW119805   2.421   2.902   5.948  0.6824  1.3206  0.1751
 2724SOL    HW219806   2.287   2.950   5.898  0.4016  0.5715 -0.1867
 2725SOL     OW19807   2.150   1.940   8.243  0.2736  0.1379 -0.3929
 2725SOL    HW119808   2.190   1.964   8.327  0.4568 -2.9459  0.3940
 2725SOL    HW219809   2.073   1.893   8.276 -1.0202  3.5799  1.5279
 2726SOL     OW19810   4.331   1.933   2.804 -0.3417 -0.0334  0.4543
 2726SOL    HW119811   4.359   1.995   2.871  2.4192  1.8603 -2.4648
 2726SOL    HW219812   4.413   1.885   2.794  1.1767  2.4953  0.7544
 2727SOL     OW19813   2.962   4.689   1.065  0.5418 -0.2194 -0.2012
 2727SOL    HW119814   2.881   4.638   1.073 -0.1620  1.1564  1.3237
 2727SOL    HW219815   3.003   4.647   0.989  0.7095 -1.9666  0.8435
 2728SOL     OW19816   4.610   3.224   1.701  0.0294 -0.3217 -0.3557
 2728SOL    HW119817   4.637   3.272   1.622 -0.4662 -0.2714 -0.4950
 2728SOL    HW219818   4.674   3.262   1.761 -1.4817  0.5659  0.6852
 2729SOL     OW19819   1.374   1.512  15.761 -0.3989  1.1470  0.8330
 2729SOL    HW119820   1.367   1.596  15.715  0.8963  1.6658  1.5916
 2729SOL    HW219821   1.404   1.458  15.687 -3.1110 -0.4915  0.9551
 2730SOL     OW19822   1.433   1.781  15.700 -0.0445  0.0334  0.9763
 2730SOL    HW119823   1.381   1.846  15.653 -1.1403 -2.7544 -1.6681
 2730SOL    HW219824   1.484   1.839  15.757 -2.4502  3.5371 -0.4651
 2731SOL     OW19825   2.068   0.081   6.860  0.0373 -0.3616  0.2876
 2731SOL    HW119826   2.116   0.094   6.941  1.4891 -2.6168 -0.2028
 2731SOL    HW219827   2.026   0.167   6.860 -2.2943 -1.4639  4.3850
 2732SOL     OW19828   1.270   2.662  11.942  0.3308 -0.0835 -0.5710
 2732SOL    HW119829   1.271   2.635  11.850  2.5397 -0.7799 -0.3407
 2732SOL    HW219830   1.357   2.629  11.966 -0.5817 -3.2980 -1.7044
 2733SOL     OW19831   0.802   3.667   8.547  0.6185  0.3985 -0.3592
 2733SOL    HW119832   0.832   3.577   8.563  0.6605  0.2748 -1.1444
 2733SOL    HW219833   0.805   3.670   8.451 -0.8811 -0.7130 -0.4442
 2734SOL     OW19834   3.434   0.834   6.083  0.0889 -0.3543  0.1184
 2734SOL    HW119835   3.464   0.920   6.113  0.1612  0.1678 -1.4454
 2734SOL    HW219836   3.432   0.791   6.168  0.7448 -0.0104  0.3110
 2735SOL     OW19837   3.785   1.797  17.501 -0.4513  0.0841 -0.3623
 2735SOL    HW119838   3.877   1.779  17.479 -0.2804  0.1423  0.3101
 2735SOL    HW219839   3.795   1.838  17.587 -0.2443  0.3271 -0.4994
 2736SOL     OW19840   0.128   4.022   3.246 -0.1991 -0.0792  0.0537
 2736SOL    HW119841   0.035   4.032   3.263 -0.4469 -0.6262 -0.9635
 2736SOL    HW219842   0.161   4.067   3.323  0.9487 -2.3262  0.8884
 2737SOL     OW19843   2.857   4.642   8.213  0.1962  0.4503  0.1069
 2737SOL    HW119844   2.920   4.638   8.140  0.3887  1.0876  0.2395
 2737SOL    HW219845   2.797   4.715   8.203  0.0599  0.3927  0.5323
 2738SOL     OW19846   4.077   3.245   3.518 -0.3177  0.4787  0.6822
 2738SOL    HW119847   4.120   3.214   3.598 -1.7704  0.9520  1.6476
 2738SOL    HW219848   4.064   3.339   3.535 -0.0550  0.5788  0.3200
 2739SOL     OW19849   3.031   2.100   4.945 -0.4911 -0.1444  0.6824
 2739SOL    HW119850   2.996   2.049   4.873 -0.0059 -1.1536  1.1515
 2739SOL    HW219851   3.120   2.065   4.949  0.3844  2.1583  1.6111
 2740SOL     OW19852   4.385   0.933  10.148  0.2566 -0.2218  0.2845
 2740SOL    HW119853   4.389   0.977  10.233 -1.1347 -2.1719  1.3661
 2740SOL    HW219854   4.450   0.979  10.095  1.1150 -1.4392  0.2841
 2741SOL     OW19855   1.100   0.388   2.858 -0.1741 -0.2338  0.0683
 2741SOL    HW119856   1.185   0.422   2.885 -0.5398  1.2580 -0.6675
 2741SOL    HW219857   1.136   0.308   2.818 -0.5543 -1.9659  3.1643
 2742SOL     OW19858   3.453   0.757   6.895  0.2924 -0.4148 -0.2053
 2742SOL    HW119859   3.456   0.763   6.991 -0.7376 -1.0105 -0.1312
 2742SOL    HW219860   3.482   0.668   6.878  1.2707 -0.2515  0.6364
 2743SOL     OW19861   0.086   0.124   9.494  0.7407  0.0713  0.0497
 2743SOL    HW119862   0.016   0.071   9.455  1.5764 -0.4629 -0.7264
 2743SOL    HW219863   0.163   0.080   9.459  0.9481  0.7065 -0.2845
 2744SOL     OW19864   2.849   0.611  12.245 -0.0868 -0.5340  0.4586
 2744SOL    HW119865   2.833   0.583  12.155 -0.6838 -1.1053  0.7404
 2744SOL    HW219866   2.944   0.603  12.256  0.4096  2.5904 -1.7364
 2745SOL     OW19867   1.380   3.197   8.330 -0.2339  0.1469  0.9732
 2745SOL    HW119868   1.385   3.121   8.272 -0.3225  0.7233  0.2105
 2745SOL    HW219869   1.429   3.165   8.406  0.5273  0.7462  0.7390
 2746SOL     OW19870   1.390   0.438   3.952  0.5509  0.3768  0.0259
 2746SOL    HW119871   1.400   0.502   3.882  1.0048  2.7529  2.2478
 2746SOL    HW219872   1.479   0.407   3.970 -0.0561 -0.6256  1.3284
 2747SOL     OW19873   2.782   1.292   3.425 -0.4412 -0.7530 -0.8031
 2747SOL    HW119874   2.829   1.375   3.413 -0.8589 -0.7048 -2.0913
 2747SOL    HW219875   2.855   1.237   3.455 -0.9927 -0.4813  1.0951
 2748SOL     OW19876   0.457   3.127   2.212  0.1299 -0.3073 -0.2713
 2748SOL    HW119877   0.550   3.148   2.205  0.4125 -2.1059 -1.8702
 2748SOL    HW219878   0.454   3.058   2.279 -4.0216 -1.1660 -1.3511
 2749SOL     OW19879   4.278   1.266   3.054 -0.4805  0.8138  0.1184
 2749SOL    HW119880   4.366   1.258   3.017 -0.8765  0.6304 -0.7895
 2749SOL    HW219881   4.243   1.188   3.010 -0.3424  2.3396 -2.6419
 2750SOL     OW19882   4.612   2.775   4.340  0.1465 -0.3450  0.4730
 2750SOL    HW119883   4.677   2.712   4.372 -1.9651 -3.1775 -0.8318
 2750SOL    HW219884   4.585   2.731   4.259 -1.0269 -0.6691  1.0384
 2751SOL     OW19885   2.022   0.737   3.955 -0.5810 -0.6051  0.2903
 2751SOL    HW119886   2.084   0.787   3.903 -0.0586 -1.1898  0.3477
 2751SOL    HW219887   1.959   0.709   3.889 -2.5173 -2.1054  2.7330
 2752SOL     OW19888   1.259   1.761  13.499  0.6176 -0.1943 -0.0794
 2752SOL    HW119889   1.241   1.847  13.537  4.1396  1.4367 -2.1221
 2752SOL    HW219890   1.200   1.706  13.551  1.3561 -0.4717  0.4708
 2753SOL     OW19891   1.467   4.347   4.926  0.0171 -0.1004 -0.1694
 2753SOL    HW119892   1.425   4.267   4.896 -0.1908 -0.2289  0.4620
 2753SOL    HW219893   1.437   4.417   4.869  0.4211 -1.4717 -2.0576
 2754SOL     OW19894   3.965   2.001  14.611  0.4145  0.0908 -0.3355
 2754SOL    HW119895   4.054   1.985  14.643  0.4185 -0.1931 -0.4997
 2754SOL    HW219896   3.976   2.077  14.554 -1.3230 -1.6935 -3.0366
 2755SOL     OW19897   1.654   1.051   8.179  0.2048  0.8783  0.8422
 2755SOL    HW119898   1.606   0.969   8.174  0.1171  0.9809  0.0395
 2755SOL    HW219899   1.687   1.068   8.091  0.0343 -2.2082  0.2050
 2756SOL     OW19900   1.423   3.129   1.816 -0.2814  0.0286  0.1032
 2756SOL    HW119901   1.503   3.177   1.840  0.1988 -0.7508  0.0620
 2756SOL    HW219902   1.448   3.044   1.852 -1.3254 -0.8491 -1.2825
 2757SOL     OW19903   1.987   3.267   3.010 -0.2978  0.6236  0.0081
 2757SOL    HW119904   1.900   3.293   2.980  0.1176  0.9273 -0.9170
 2757SOL    HW219905   1.969   3.252   3.103 -0.8181 -2.4024 -0.5868
 2758SOL     OW19906   0.560   3.108   7.758  0.1198  0.7120  0.2498
 2758SOL    HW119907   0.510   3.030   7.734  1.0785  0.7249 -1.8846
 2758SOL    HW219908   0.494   3.143   7.817 -0.5920 -2.2417  1.1803
 2759SOL     OW19909   2.640   1.275  11.866 -0.1677 -0.3477 -0.1165
 2759SOL    HW119910   2.608   1.324  11.790 -4.2140 -0.7006  1.3584
 2759SOL    HW219911   2.706   1.340  11.889 -0.5485  0.6038 -1.7265
 2760SOL     OW19912   2.313   3.998   7.839 -0.1159 -0.3381 -0.0520
 2760SOL    HW119913   2.261   3.990   7.919  0.3417 -0.1856  0.2609
 2760SOL    HW219914   2.380   3.931   7.855  0.0137  0.1516  1.4098
 2761SOL     OW19915   3.648   4.614   6.416  0.1816  0.4359  0.1815
 2761SOL    HW119916   3.700   4.659   6.482  0.7544  0.1659 -0.0804
 2761SOL    HW219917   3.623   4.689   6.363 -0.4423  0.2559  0.2284
 2762SOL     OW19918   0.694   1.790   1.889  0.3247 -0.4508  0.0621
 2762SOL    HW119919   0.756   1.775   1.818 -1.8752  0.7118 -2.1249
 2762SOL    HW219920   0.735   1.872   1.916  1.6107 -1.0075 -0.2280
 2763SOL     OW19921   4.437   1.292   4.123 -0.2914 -0.0253  0.0397
 2763SOL    HW119922   4.487   1.235   4.182  0.3199 -0.8035 -1.2287
 2763SOL    HW219923   4.348   1.275   4.153 -0.3178 -0.4368 -0.2672
 2764SOL     OW19924   0.500   1.828  10.528 -0.1900  0.3544  0.5148
 2764SOL    HW119925   0.430   1.862  10.583 -1.1938  0.7077 -0.9702
 2764SOL    HW219926   0.572   1.831  10.590  0.9853  0.4167 -0.8679
 2765SOL     OW19927   4.168   0.984   5.238 -0.3363  0.0570  0.1069
 2765SOL    HW119928   4.134   1.002   5.325  0.6323  0.3573  0.4271
 2765SOL    HW219929   4.250   0.937   5.256 -1.6842 -2.4726 -0.3867
 2766SOL     OW19930   4.007   2.751   6.441  0.1553  0.1245  0.3130
 2766SOL    HW119931   3.965   2.727   6.524  2.7160  0.8835  1.8451
 2766SOL    HW219932   4.016   2.845   6.456  1.7406  0.4152 -2.4006
 2767SOL     OW19933   3.503   0.725   7.722 -0.3106 -0.0897 -0.1102
 2767SOL    HW119934   3.558   0.686   7.791  1.7638 -0.2717 -1.8772
 2767SOL    HW219935   3.458   0.793   7.773 -0.5259  0.0023 -0.4267
 2768SOL     OW19936   4.374   3.480   8.695  0.4940 -0.1406  0.2635
 2768SOL    HW119937   4.354   3.387   8.681 -0.2670 -0.0214  0.5882
 2768SOL    HW219938   4.295   3.526   8.667 -0.9486 -2.4956  0.4694
 2769SOL     OW19939   3.809   4.711   3.477 -0.5478 -0.0826 -0.1980
 2769SOL    HW119940   3.872   4.640   3.465 -0.4791  0.0285 -0.4877
 2769SOL    HW219941   3.823   0.004   3.566  1.4167 -1.0051 -0.1927
 2770SOL     OW19942   0.258   4.393   5.475 -0.2908  0.1341  0.7756
 2770SOL    HW119943   0.234   4.342   5.398  0.9519 -0.3449  0.7073
 2770SOL    HW219944   0.212   4.337   5.537 -0.4220  1.6661  2.0557
 2771SOL     OW19945   3.778   2.452   4.136 -0.6950  0.0471 -0.0877
 2771SOL    HW119946   3.767   2.371   4.087 -0.0910 -0.1865  0.1730
 2771SOL    HW219947   3.686   2.473   4.152 -1.4245 -3.5037  0.2713
 2772SOL     OW19948   2.249   2.775   6.407 -0.8165 -0.1987 -0.5158
 2772SOL    HW119949   2.182   2.730   6.356 -0.7098  0.9403 -1.6763
 2772SOL    HW219950   2.319   2.764   6.343  1.3362  0.3224  1.7169
 2773SOL     OW19951   3.959   2.309  10.676  0.6316  0.2260  0.1034
 2773SOL    HW119952   3.889   2.359  10.633  0.7492 -0.1002 -0.4709
 2773SOL    HW219953   3.966   2.345  10.765 -1.8229  1.8676 -0.3655
 2774SOL     OW19954   0.960   3.959   9.119  0.0008 -0.1035 -0.5606
 2774SOL    HW119955   0.982   3.917   9.036 -0.4723  1.8655 -1.6767
 2774SOL    HW219956   1.008   4.041   9.111  1.1592 -0.8741 -1.4511
 2775SOL     OW19957   1.805   1.994   4.832 -0.3796  0.3386 -0.6136
 2775SOL    HW119958   1.786   1.957   4.746  0.4334 -0.6229 -0.3766
 2775SOL    HW219959   1.886   1.948   4.852  0.0835  1.1084 -0.7100
 2776SOL     OW19960   0.661   2.808   1.054 -0.0160  0.0303 -0.2166
 2776SOL    HW119961   0.601   2.839   1.122  0.4980  0.6716 -0.0500
 2776SOL    HW219962   0.743   2.833   1.096 -1.3875  2.2357  1.1827
 2777SOL     OW19963   1.961   2.603  13.664  0.0892  0.0813 -0.6900
 2777SOL    HW119964   1.986   2.561  13.747 -1.4972  0.5910  0.0529
 2777SOL    HW219965   2.014   2.563  13.596  0.1952 -1.5823  0.3622
 2778SOL     OW19966   0.112   2.967   3.771 -0.7137  0.5642 -0.5971
 2778SOL    HW119967   0.016   2.972   3.775 -0.7822  1.2857 -3.2425
 2778SOL    HW219968   0.128   2.907   3.698  1.7091  0.7985 -0.2400
 2779SOL     OW19969   2.513   1.361   9.057  0.0537 -0.0078  0.5972
 2779SOL    HW119970   2.593   1.354   9.006 -0.1886  2.5292 -0.1649
 2779SOL    HW219971   2.490   1.450   9.030  1.1009  0.9919  3.0523
 2780SOL     OW19972   3.418   1.335   3.547  0.1733  0.4333  0.1546
 2780SOL    HW119973   3.397   1.251   3.506 -0.9228  1.3216 -1.0784
 2780SOL    HW219974   3.445   1.383   3.469  2.0944 -1.5249 -0.4192
 2781SOL     OW19975   1.779   2.701   3.412 -0.8313  0.7123 -0.1470
 2781SOL    HW119976   1.714   2.765   3.382 -1.1952 -0.0857 -1.0759
 2781SOL    HW219977   1.808   2.749   3.489 -2.8961 -0.7928  1.5736
 2782SOL     OW19978   2.425   4.430  11.762  0.4040  0.8740 -0.1183
 2782SOL    HW119979   2.354   4.449  11.823  0.6030 -1.1955  0.7499
 2782SOL    HW219980   2.476   4.368  11.814 -0.0670 -1.5095 -2.5155
 2783SOL     OW19981   2.118   3.602   3.932  0.4985 -0.0403 -0.0067
 2783SOL    HW119982   2.198   3.557   3.958  0.5223  0.0064  0.0015
 2783SOL    HW219983   2.097   3.548   3.856  1.7098  0.9921 -1.0570
 2784SOL     OW19984   2.826   3.414  17.360 -0.3724  0.5102  0.2894
 2784SOL    HW119985   2.798   3.495  17.318 -2.0544 -0.0560  0.3363
 2784SOL    HW219986   2.873   3.368  17.291  0.6884  2.0222  0.0066
 2785SOL     OW19987   1.346   4.692   7.868 -0.2068 -0.2510  0.3893
 2785SOL    HW119988   1.387   4.607   7.850 -2.0289 -0.5714 -2.2487
 2785SOL    HW219989   1.376   4.725   7.952 -0.1683 -1.1664  0.7321
 2786SOL     OW19990   3.872   2.038   7.076  0.1223  0.2086  0.0806
 2786SOL    HW119991   3.830   2.121   7.098 -2.0563 -0.4455 -1.5383
 2786SOL    HW219992   3.943   2.037   7.140 -0.8067 -0.6745  1.1031
 2787SOL     OW19993   2.319   3.202   5.058  0.3997 -0.4498  0.4190
 2787SOL    HW119994   2.408   3.215   5.089  0.3104 -0.8780  0.8694
 2787SOL    HW219995   2.336   3.171   4.970 -0.1483  0.6489 -0.0693
 2788SOL     OW19996   4.391   3.835  15.676 -1.1268 -0.0673  0.3643
 2788SOL    HW119997   4.435   3.889  15.741  1.9394  0.6688 -2.3495
 2788SOL    HW219998   4.415   3.886  15.599  2.7711  0.5222  1.9994
 2789SOL     OW19999   2.030   4.176  11.783  0.0742 -0.1031  0.1513
 2789SOL    HW120000   2.014   4.092  11.740 -0.7077  0.3775 -0.5090
 2789SOL    HW220001   2.026   4.236  11.708  0.0824  0.7215  0.8121
 2790SOL     OW20002   2.076   2.284  17.263 -0.1893 -0.0776 -0.2469
 2790SOL    HW120003   2.059   2.247  17.176  1.1710  0.0711 -0.5745
 2790SOL    HW220004   2.038   2.208  17.308  0.2908  0.0209  0.3349
 2791SOL     OW20005   1.451   1.953   2.250 -0.0180  0.2401 -0.7082
 2791SOL    HW120006   1.542   1.972   2.274 -0.6588  2.2742  0.1284
 2791SOL    HW220007   1.449   1.911   2.164 -0.7613 -1.9021  0.3646
 2792SOL     OW20008   1.360   4.126   0.842  0.3371  0.0421 -0.4928
 2792SOL    HW120009   1.304   4.110   0.919  2.3110  0.1709  0.9588
 2792SOL    HW220010   1.337   4.217   0.827 -0.3414 -0.2578 -1.2882
 2793SOL     OW20011   3.655   3.378   3.826  0.3446  0.0390 -0.2979
 2793SOL    HW120012   3.698   3.309   3.775  0.2064  0.3681 -0.8557
 2793SOL    HW220013   3.728   3.441   3.822 -0.1494  0.5909 -0.6009
 2794SOL     OW20014   0.130   3.543   6.860  0.3048  0.3466 -0.5399
 2794SOL    HW120015   0.170   3.532   6.946  1.5704 -0.4242 -1.2171
 2794SOL    HW220016   0.197   3.598   6.820 -0.4851  0.4309 -1.7535
 2795SOL     OW20017   0.360   4.257   5.059 -0.1531  0.4234 -0.7449
 2795SOL    HW120018   0.432   4.314   5.033  0.5913  1.6006  3.8501
 2795SOL    HW220019   0.399   4.197   5.123  0.8914  1.2432 -0.6186
 2796SOL     OW20020   2.648   3.599   5.228  0.4672 -0.0110 -0.2641
 2796SOL    HW120021   2.645   3.677   5.284  0.7055  0.2070 -0.5580
 2796SOL    HW220022   2.607   3.636   5.150  0.4603 -1.3388 -0.8917
 2797SOL     OW20023   2.553   4.683  11.897  0.6470  0.2574 -0.6320
 2797SOL    HW120024   2.560   0.040  11.899  1.9633  0.1408  0.2906
 2797SOL    HW220025   2.475   4.678  11.842  0.9206  1.3341 -1.1217
 2798SOL     OW20026   0.818   2.091   3.750  0.5333 -0.2020  0.5005
 2798SOL    HW120027   0.830   2.177   3.710  1.8592 -0.7434 -0.2439
 2798SOL    HW220028   0.908   2.059   3.754  0.6558 -0.1753 -2.1494
 2799SOL     OW20029   4.061   3.617   4.996 -0.3283 -0.4029 -0.8876
 2799SOL    HW120030   4.042   3.711   4.998 -0.2834 -0.4133  0.0454
 2799SOL    HW220031   4.142   3.612   4.946  0.3325 -0.1906  0.1635
 2800SOL     OW20032   2.036   2.571   4.716  0.0948 -0.1185 -0.2958
 2800SOL    HW120033   2.010   2.510   4.648 -0.8352 -0.0848  0.0333
 2800SOL    HW220034   2.129   2.552   4.727  0.3992 -0.0942 -2.8923
 2801SOL     OW20035   2.313   1.522   6.965 -0.1461 -0.4756 -0.0128
 2801SOL    HW120036   2.286   1.516   6.873 -0.4958  0.8416  0.0062
 2801SOL    HW220037   2.239   1.479   7.007 -1.1323  0.7623 -0.4892
 2802SOL     OW20038   0.302   2.234  16.402  0.4402  0.0655  0.1549
 2802SOL    HW120039   0.239   2.167  16.375  0.1218  1.7084 -3.1319
 2802SOL    HW220040   0.243   2.308  16.417  0.3624 -0.3301  1.7872
 2803SOL     OW20041   2.349   3.456   3.923  0.3718  0.2247 -0.1800
 2803SOL    HW120042   2.429   3.498   3.890  0.4680  1.0922  1.1386
 2803SOL    HW220043   2.393   3.396   3.984 -0.3987 -0.1968 -0.0440
 2804SOL     OW20044   4.698   0.477   9.852  0.4393  0.6472  0.1091
 2804SOL    HW120045   0.016   0.419   9.801 -2.0245 -0.3361 -1.5257
 2804SOL    HW220046   4.718   0.438   9.936 -2.3047 -1.5331 -0.2520
 2805SOL     OW20047   0.840   3.700   5.365  0.2055 -0.7555  0.0352
 2805SOL    HW120048   0.877   3.652   5.439  1.0045 -1.3477 -0.7555
 2805SOL    HW220049   0.810   3.622   5.319  2.0861 -2.5265  1.7624
 2806SOL     OW20050   0.703   1.284   8.337  0.5443  0.9672 -0.4906
 2806SOL    HW120051   0.737   1.208   8.292 -1.3424 -0.2783  0.2023
 2806SOL    HW220052   0.610   1.264   8.352  0.7869 -0.9625 -1.6156
 2807SOL     OW20053   2.287   2.249  11.865  0.1396 -0.3930  0.4783
 2807SOL    HW120054   2.235   2.246  11.946  0.1385  1.2173  0.5369
 2807SOL    HW220055   2.322   2.338  11.863  1.2036 -0.8647 -1.3682
 2808SOL     OW20056   0.270   0.146   9.927 -0.0661 -0.7726  0.3111
 2808SOL    HW120057   0.230   0.232   9.913 -0.3806 -0.7827  1.1610
 2808SOL    HW220058   0.277   0.118   9.835  1.2007  1.7315 -0.3622
 2809SOL     OW20059   1.564   1.901   7.885 -0.4174 -0.0997  0.6219
 2809SOL    HW120060   1.504   1.954   7.938 -0.5207 -0.6670  1.0748
 2809SOL    HW220061   1.546   1.819   7.930  0.2411 -0.3635  0.4030
 2810SOL     OW20062   0.936   3.504   8.035  0.5339  0.3819  0.5976
 2810SOL    HW120063   0.874   3.516   7.963  0.9530  0.2846  0.2189
 2810SOL    HW220064   0.957   3.410   8.037  0.2149  0.2901 -0.7584
 2811SOL     OW20065   1.773   0.931   2.541 -0.5424  0.1060  0.6101
 2811SOL    HW120066   1.787   1.014   2.495  0.8003 -0.3469  0.2039
 2811SOL    HW220067   1.820   0.951   2.622 -0.8498  3.5668 -0.0547
 2812SOL     OW20068   1.686   3.888  10.492  0.1409  0.1782 -0.1679
 2812SOL    HW120069   1.749   3.857  10.557 -0.1231 -0.6736 -0.3137
 2812SOL    HW220070   1.674   3.809  10.439 -1.2619  0.2919 -0.0405
 2813SOL     OW20071   0.744   1.031   8.228  0.4499  0.1207  0.0818
 2813SOL    HW120072   0.728   1.026   8.133 -0.7556  0.2966  0.2768
 2813SOL    HW220073   0.808   0.961   8.241  0.7331  0.2798 -0.4350
 2814SOL     OW20074   1.315   4.520   4.771  0.2457 -0.3005  0.3379
 2814SOL    HW120075   1.303   4.550   4.861  0.4336  1.3991 -0.2157
 2814SOL    HW220076   1.239   4.565   4.736 -0.7450 -0.2103  2.6288
 2815SOL     OW20077   4.506   2.006   6.479 -0.4137  0.0451 -0.1726
 2815SOL    HW120078   4.564   2.077   6.509 -0.0546 -0.1607 -0.3744
 2815SOL    HW220079   4.472   2.040   6.396  0.0354  2.1528  0.5071
 2816SOL     OW20080   1.734   2.002   1.851  0.0781  0.0015  0.2125
 2816SOL    HW120081   1.826   1.975   1.848  0.5378  1.8174 -2.4792
 2816SOL    HW220082   1.746   2.083   1.901 -1.8588  0.3819  0.0788
 2817SOL     OW20083   1.654   2.432   6.288 -0.4051 -0.1853  0.1587
 2817SOL    HW120084   1.581   2.376   6.260  0.2340 -0.2984 -1.3046
 2817SOL    HW220085   1.627   2.472   6.370  2.2665  4.0892 -1.0594
 2818SOL     OW20086   1.637   4.649  13.587  0.4880 -0.4068  0.0088
 2818SOL    HW120087   1.572   4.618  13.524  0.3155  0.2012 -0.1105
 2818SOL    HW220088   1.573   4.668  13.656 -0.1880  0.5904 -0.8829
 2819SOL     OW20089   1.789   0.600  10.326  0.3444 -0.3890 -0.1922
 2819SOL    HW120090   1.788   0.526  10.387  0.1595  0.9139  1.3795
 2819SOL    HW220091   1.695   0.618  10.319  0.2697 -0.5147  0.4550
 2820SOL     OW20092   4.371   0.377   8.924  0.1141  0.0456 -0.1907
 2820SOL    HW120093   4.439   0.371   8.991 -0.0178  0.3651 -0.0331
 2820SOL    HW220094   4.405   0.453   8.877 -0.7347  0.1010 -0.7060
 2821SOL     OW20095   3.700   3.910   1.823 -0.6711 -0.3263 -0.0203
 2821SOL    HW120096   3.640   3.978   1.793  0.1323  0.5029  0.2612
 2821SOL    HW220097   3.688   3.838   1.761 -0.2413  0.3646 -0.9013
 2822SOL     OW20098   0.844   2.311   2.950  0.0425  0.3815  0.3484
 2822SOL    HW120099   0.811   2.274   3.032  2.2176 -0.3418  0.9043
 2822SOL    HW220100   0.939   2.301   2.959  0.2475  0.2008 -2.0547
 2823SOL     OW20101   2.350   0.903   6.249  0.5467  0.3085  0.0999
 2823SOL    HW120102   2.442   0.897   6.223  0.5985  0.9378  0.1342
 2823SOL    HW220103   2.339   0.809   6.258 -0.1652  0.3696 -0.1330
 2824SOL     OW20104   2.235   3.379   9.964 -0.3901  0.3000  0.2266
 2824SOL    HW120105   2.240   3.473   9.985 -1.3402  0.7110 -1.4207
 2824SOL    HW220106   2.144   3.372   9.994 -1.2739  1.1242 -2.3041
 2825SOL     OW20107   2.805   2.538  14.239  0.6132  0.3510  0.5781
 2825SOL    HW120108   2.807   2.586  14.322 -0.2802 -1.5402  1.6713
 2825SOL    HW220109   2.886   2.488  14.234  0.8062  0.7941 -0.7198
 2826SOL     OW20110   0.940   2.774  10.777 -1.0870  0.1379  0.2311
 2826SOL    HW120111   1.034   2.756  10.775 -1.1649  0.0214 -2.8239
 2826SOL    HW220112   0.946   2.862  10.741  0.0815 -0.0486 -0.0413
 2827SOL     OW20113   1.874   0.571   6.695 -0.3632  0.0240 -0.4772
 2827SOL    HW120114   1.820   0.493   6.692  1.9566 -1.6034 -0.1313
 2827SOL    HW220115   1.836   0.612   6.773  2.2742  0.2770  0.6922
 2828SOL     OW20116   0.214   0.819   8.241  0.0153 -0.3829 -0.7145
 2828SOL    HW120117   0.301   0.834   8.278 -0.1842 -0.8669 -0.0268
 2828SOL    HW220118   0.170   0.901   8.264  0.2433  1.0529 -5.5687
 2829SOL     OW20119   3.988   2.624   8.303 -0.1467 -0.6877 -0.0567
 2829SOL    HW120120   4.072   2.593   8.269  1.7037  2.0253  2.0913
 2829SOL    HW220121   4.005   2.718   8.302 -1.8977 -0.3822  0.0080
 2830SOL     OW20122   3.120   1.181  14.082 -0.2131  0.1090 -0.9281
 2830SOL    HW120123   3.191   1.147  14.027  2.3444  1.8404  1.3194
 2830SOL    HW220124   3.091   1.256  14.030  1.0164  1.2490  0.0303
 2831SOL     OW20125   4.729   0.827   4.698  0.1541  0.4780  0.1796
 2831SOL    HW120126   0.026   0.910   4.730 -0.5935  0.3789  1.2569
 2831SOL    HW220127   4.680   0.865   4.626 -1.5977 -0.2349  1.0115
 2832SOL     OW20128   1.365   0.418   2.500  0.5109  0.3996  0.1891
 2832SOL    HW120129   1.413   0.497   2.527 -0.5353  1.2949 -0.5999
 2832SOL    HW220130   1.294   0.459   2.451  3.1638  4.1230 -0.5372
 2833SOL     OW20131   1.406   1.426   9.603  0.3691 -0.3503 -0.3744
 2833SOL    HW120132   1.497   1.398   9.600  1.3313  2.5835  1.6468
 2833SOL    HW220133   1.416   1.485   9.678 -3.2341 -1.6238  1.1070
 2834SOL     OW20134   2.243   2.754  16.730 -0.0538 -0.2076  0.2368
 2834SOL    HW120135   2.216   2.670  16.766 -1.2087  0.7081  1.5398
 2834SOL    HW220136   2.201   2.824  16.782  3.0173 -1.3833  4.2986
 2835SOL     OW20137   2.432   2.814   0.292  0.0768 -0.1836 -0.2840
 2835SOL    HW120138   2.468   2.856   0.370  0.3335 -0.3318 -0.3206
 2835SOL    HW220139   2.484   2.864   0.229  0.7559 -0.2783  0.1967
 2836SOL     OW20140   0.075   2.262   4.841  0.0845 -0.0697 -0.1732
 2836SOL    HW120141   0.112   2.257   4.929  1.3194 -1.7605 -0.7879
 2836SOL    HW220142   0.016   2.187   4.833 -0.6637  0.6489 -1.4273
 2837SOL     OW20143   3.117   4.729   0.699  0.5422 -0.0182 -0.1150
 2837SOL    HW120144   3.061   0.067   0.705  0.0578 -0.4076  0.4261
 2837SOL    HW220145   3.194   0.045   0.694  0.4272 -0.0310 -2.0822
 2838SOL     OW20146   2.731   3.375   2.858 -0.0696  0.0068  0.0636
 2838SOL    HW120147   2.742   3.307   2.791  0.3711  0.3935 -0.2646
 2838SOL    HW220148   2.681   3.440   2.808  0.9020  1.5313  1.0642
 2839SOL     OW20149   0.319   1.278   8.383  0.4229 -0.2474 -0.2421
 2839SOL    HW120150   0.352   1.189   8.372  2.3190  0.3103  1.0078
 2839SOL    HW220151   0.330   1.282   8.478  0.7005 -0.0509 -0.2795
 2840SOL     OW20152   1.972   2.821   1.115 -0.5266 -0.2023  0.5971
 2840SOL    HW120153   2.003   2.736   1.084 -2.4234  0.1037 -2.1866
 2840SOL    HW220154   1.999   2.822   1.207  0.3608  0.3781  0.3273
 2841SOL     OW20155   2.950   2.272   2.974 -0.1929  0.3703  0.1887
 2841SOL    HW120156   2.882   2.339   2.981 -2.5952 -1.9831 -0.4940
 2841SOL    HW220157   2.937   2.240   2.885  2.0174  2.3843 -0.8496
 2842SOL     OW20158   2.372   2.251   4.635 -0.4691  0.6686  0.7603
 2842SOL    HW120159   2.430   2.186   4.675 -1.5839 -1.1741 -0.5890
 2842SOL    HW220160   2.305   2.249   4.703 -3.2208  0.5471 -1.9258
 2843SOL     OW20161   3.714   1.932   4.945 -0.2111  0.4870  0.5434
 2843SOL    HW120162   3.655   2.007   4.953 -0.6763  0.3110 -1.2572
 2843SOL    HW220163   3.690   1.880   5.022 -0.6872 -0.1385 -0.0238
 2844SOL     OW20164   2.431   0.531   5.672 -0.0354  0.2798  0.0217
 2844SOL    HW120165   2.357   0.524   5.612 -0.9554  2.5875  0.8801
 2844SOL    HW220166   2.490   0.586   5.620 -0.3440  2.2534  1.7618
 2845SOL     OW20167   0.613   0.346  12.012  0.8558 -0.3081  0.2979
 2845SOL    HW120168   0.560   0.271  12.036 -0.6859  0.3995 -0.8806
 2845SOL    HW220169   0.543   0.405  11.984  0.6686  0.8085  3.1737
 2846SOL     OW20170   3.943   1.939   4.307  0.3772 -0.3263  0.3609
 2846SOL    HW120171   3.879   2.007   4.330  1.1490 -0.0588  1.7318
 2846SOL    HW220172   3.889   1.873   4.265  1.0036  0.2875 -1.4002
 2847SOL     OW20173   4.117   1.547  15.107 -0.1388 -0.2595 -0.3649
 2847SOL    HW120174   4.061   1.617  15.073  0.9311  0.6745 -0.2020
 2847SOL    HW220175   4.118   1.485  15.034 -0.1749  0.5256 -1.0395
 2848SOL     OW20176   0.458   4.046   7.241  0.5509 -0.3902  0.5709
 2848SOL    HW120177   0.416   3.965   7.212  1.8214 -0.4924 -1.0083
 2848SOL    HW220178   0.450   4.103   7.165  0.2179  0.4429  1.2317
 2849SOL     OW20179   1.525   4.548   2.184  0.1807 -0.3328  0.1772
 2849SOL    HW120180   1.518   4.510   2.272  0.6201  1.6417  1.0810
 2849SOL    HW220181   1.443   4.524   2.142  0.3213 -1.1015  0.3465
 2850SOL     OW20182   1.277   4.650   3.474 -0.1732 -0.0558 -0.1636
 2850SOL    HW120183   1.264   4.673   3.565  2.0843  1.7616 -0.3082
 2850SOL    HW220184   1.355   4.596   3.490  0.2119 -0.4418 -3.2689
 2851SOL     OW20185   1.306   1.129   4.945  0.1942  0.2932  0.1508
 2851SOL    HW120186   1.311   1.093   5.034  2.7456 -0.2080 -0.1957
 2851SOL    HW220187   1.214   1.115   4.923  0.6219 -1.8394 -0.3615
 2852SOL     OW20188   4.643   3.812   3.802 -0.2398  0.0321 -0.3455
 2852SOL    HW120189   4.666   3.778   3.715  0.2832  0.2095 -0.2776
 2852SOL    HW220190   4.615   3.738   3.855 -0.0836 -1.5878 -2.5261
 2853SOL     OW20191   1.095   3.508   2.931  0.1524 -0.3888  0.5527
 2853SOL    HW120192   1.057   3.520   3.018 -2.9467  1.2731 -1.0005
 2853SOL    HW220193   1.082   3.413   2.926  1.5043 -0.3941 -3.2976
 2854SOL     OW20194   0.863   4.500  17.672 -0.3776  0.0444 -0.4793
 2854SOL    HW120195   0.796   4.560  17.702  0.3015  0.1346  0.8565
 2854SOL    HW220196   0.902   4.479   0.004  0.3119  0.1151 -0.7802
 2855SOL     OW20197   1.251   0.345   5.519  0.2249  0.2124 -0.5423
 2855SOL    HW120198   1.276   0.326   5.428 -0.6808 -4.1533  0.1450
 2855SOL    HW220199   1.333   0.389   5.542  0.3059  0.2475 -0.8941
 2856SOL     OW20200   1.573   2.026   3.599 -0.1005  0.4121 -0.1475
 2856SOL    HW120201   1.530   2.023   3.514  1.1017  0.4163 -0.7656
 2856SOL    HW220202   1.602   2.116   3.610  0.0531  0.5254 -1.5643
 2857SOL     OW20203   3.503   4.397   2.641 -0.1660 -0.2628 -0.3237
 2857SOL    HW120204   3.429   4.367   2.589  1.7480 -1.5668 -2.2489
 2857SOL    HW220205   3.536   4.313   2.673 -0.4391  0.3560  1.6180
 2858SOL     OW20206   0.148   2.855  16.542 -0.0479  0.0746  0.3218
 2858SOL    HW120207   0.237   2.838  16.512 -0.7268 -0.3275 -1.4796
 2858SOL    HW220208   0.102   2.870  16.459 -0.4368  0.2986  0.5796
 2859SOL     OW20209   3.589   0.550   7.134  0.2520  0.1869 -0.0882
 2859SOL    HW120210   3.525   0.479   7.126  0.1799  0.1857  0.4982
 2859SOL    HW220211   3.553   0.597   7.209 -0.7406 -2.7364  1.2457
 2860SOL     OW20212   2.053   1.279   6.595  0.1489 -0.2322  0.2511
 2860SOL    HW120213   2.096   1.217   6.654  2.9189  0.6777 -0.8314
 2860SOL    HW220214   2.120   1.326   6.545 -1.3567  0.6917 -0.9109
 2861SOL     OW20215   2.210   2.335   7.307  0.2192  0.3440 -0.3865
 2861SOL    HW120216   2.187   2.390   7.232  0.3917  2.4592  1.0900
 2861SOL    HW220217   2.140   2.270   7.313  0.2904  0.4447  1.6062
 2862SOL     OW20218   0.470   1.719   1.632  0.2468  0.7758 -0.1317
 2862SOL    HW120219   0.446   1.641   1.681 -0.7586 -0.2298 -2.2662
 2862SOL    HW220220   0.496   1.773   1.707 -0.4454 -0.9049  1.3239
 2863SOL     OW20221   1.779   2.744   7.246 -0.1687 -0.2561 -0.2654
 2863SOL    HW120222   1.831   2.805   7.194 -0.4822  1.3778  1.2948
 2863SOL    HW220223   1.738   2.703   7.170 -0.3008  0.8974 -0.8272
 2864SOL     OW20224   2.233   4.313   4.948  0.0270  0.4150 -0.1752
 2864SOL    HW120225   2.276   4.289   5.030  0.3478  1.3526 -0.0799
 2864SOL    HW220226   2.279   4.255   4.887 -2.7470  0.0480 -1.9222
 2865SOL     OW20227   4.240   0.200   8.627 -0.7562 -0.3368 -0.7216
 2865SOL    HW120228   4.285   0.149   8.695 -1.2708 -1.1630 -1.0159
 2865SOL    HW220229   4.248   0.290   8.661  0.1584 -0.5956 -0.2486
 2866SOL     OW20230   3.527   4.141   1.765 -0.0083 -0.4325 -0.2459
 2866SOL    HW120231   3.445   4.168   1.724 -0.2755 -0.5277  0.2261
 2866SOL    HW220232   3.589   4.192   1.714 -1.3064  0.2471 -1.1520
 2867SOL     OW20233   3.621   1.799   5.176 -0.4505 -0.1721  0.5105
 2867SOL    HW120234   3.543   1.854   5.180 -0.0135  0.5023 -0.1365
 2867SOL    HW220235   3.680   1.836   5.242 -1.1787 -0.3017  1.2297
 2868SOL     OW20236   1.879   3.843   3.804  0.4610  0.2127  0.2770
 2868SOL    HW120237   1.884   3.897   3.725  0.6130 -2.3062 -1.4704
 2868SOL    HW220238   1.784   3.830   3.813  0.7042 -2.0581 -0.4515
 2869SOL     OW20239   1.125   3.044   5.940 -0.0545  1.1616  0.4397
 2869SOL    HW120240   1.176   3.044   6.021 -0.0425 -1.4445  0.4521
 2869SOL    HW220241   1.079   3.128   5.948 -1.9002  0.2963 -0.8847
 2870SOL     OW20242   1.652   1.861   3.004 -0.1124 -0.3025 -0.0865
 2870SOL    HW120243   1.601   1.919   2.948  0.9517  0.0984 -0.6460
 2870SOL    HW220244   1.723   1.833   2.946 -0.4634 -1.7057  0.1620
 2871SOL     OW20245   2.209   4.545   2.583  0.4833 -0.2632  0.7280
 2871SOL    HW120246   2.135   4.567   2.638 -1.0769 -0.5210 -1.2604
 2871SOL    HW220247   2.278   4.520   2.645 -0.3527  2.3512  2.6701
 2872SOL     OW20248   2.338   0.735  15.423  0.1388  0.5100 -0.2077
 2872SOL    HW120249   2.302   0.753  15.336 -0.1475  0.4389 -0.1043
 2872SOL    HW220250   2.271   0.779  15.475  0.4722  0.1529  0.5236
 2873SOL     OW20251   3.152   2.968   4.844  0.0411  0.4659 -0.6562
 2873SOL    HW120252   3.180   2.917   4.768  1.4791 -0.6153  0.5898
 2873SOL    HW220253   3.234   2.966   4.893 -0.4517 -3.0709  0.0144
 2874SOL     OW20254   2.713   3.262   9.098 -0.0341 -0.1034 -0.7782
 2874SOL    HW120255   2.638   3.218   9.059 -0.8487  0.7917 -0.2101
 2874SOL    HW220256   2.775   3.249   9.026  0.0094 -0.0778 -0.7458
 2875SOL     OW20257   1.987   4.447   3.116  0.1503 -0.0696 -0.0902
 2875SOL    HW120258   1.987   4.508   3.190 -0.7641 -1.0876  0.7389
 2875SOL    HW220259   1.893   4.446   3.097 -0.2641  0.8362  1.9132
 2876SOL     OW20260   0.038   0.171   7.707 -0.5184 -0.2307 -0.5382
 2876SOL    HW120261   0.045   0.244   7.769  1.9398 -1.9005  1.1505
 2876SOL    HW220262   0.102   0.194   7.639  0.7217  2.3755  1.4889
 2877SOL     OW20263   4.025   0.461   7.034  0.7748  0.1626  0.1297
 2877SOL    HW120264   3.955   0.441   7.096 -0.9754  2.0127 -1.2261
 2877SOL    HW220265   3.987   0.441   6.948  0.5596 -0.2576  0.3260
 2878SOL     OW20266   2.563   1.525   1.573 -0.3812 -0.4448 -0.0297
 2878SOL    HW120267   2.484   1.551   1.619 -1.2661 -0.3732 -1.5938
 2878SOL    HW220268   2.613   1.510   1.654 -2.5560  0.8677  1.5381
 2879SOL     OW20269   0.653   3.062   2.892  0.2428  0.3320  0.1246
 2879SOL    HW120270   0.591   3.132   2.911  3.0490  3.0071 -0.4647
 2879SOL    HW220271   0.609   3.001   2.950  0.5016 -0.4561 -0.5077
 2880SOL     OW20272   1.697   1.959   5.076 -0.0604  0.5847 -0.0428
 2880SOL    HW120273   1.646   2.039   5.076  1.2567  1.4136 -1.9068
 2880SOL    HW220274   1.734   1.956   4.987 -0.0976 -1.6484 -0.0008
 2881SOL     OW20275   4.497   1.004   4.607  0.2142  0.1258  0.2527
 2881SOL    HW120276   4.526   1.094   4.599  1.6820 -0.3738 -0.0516
 2881SOL    HW220277   4.438   1.017   4.681  0.4974 -1.9908  0.8466
 2882SOL     OW20278   1.417   4.255   7.261 -0.0947  0.4363 -0.0616
 2882SOL    HW120279   1.469   4.330   7.233  0.8754 -0.8416 -1.6809
 2882SOL    HW220280   1.455   4.241   7.348  0.5707  1.6350 -0.1563
 2883SOL     OW20281   1.501   0.887   2.528 -0.5189 -0.0949 -0.2972
 2883SOL    HW120282   1.596   0.895   2.537 -0.7722  0.2497  2.1088
 2883SOL    HW220283   1.466   0.976   2.523  0.0456  0.0254 -1.9909
 2884SOL     OW20284   1.848   1.282  12.924 -0.5221  0.5936 -0.3300
 2884SOL    HW120285   1.872   1.190  12.919 -0.5107  0.5292  0.9188
 2884SOL    HW220286   1.753   1.282  12.928 -0.4678  0.1171  0.9010
 2885SOL     OW20287   1.184   2.608   8.353  0.0367  0.7492 -0.4117
 2885SOL    HW120288   1.127   2.545   8.310 -0.6289  0.3611  1.0233
 2885SOL    HW220289   1.264   2.570   8.319 -0.5127  1.1138 -2.0843
 2886SOL     OW20290   3.750   3.433   0.160  0.1891  0.2610  0.3955
 2886SOL    HW120291   3.704   3.384   0.092 -1.0764 -0.5303  1.8205
 2886SOL    HW220292   3.810   3.484   0.105  0.0800  0.1375  0.1624
 2887SOL     OW20293   4.011   3.830  17.295 -0.4505 -0.1119  0.5997
 2887SOL    HW120294   4.058   3.913  17.296  0.3784 -0.5641 -1.1725
 2887SOL    HW220295   3.976   3.836  17.206  1.9789  1.0787 -0.2790
 2888SOL     OW20296   0.066   2.374   5.829 -0.0208 -0.0991 -0.1979
 2888SOL    HW120297   0.010   2.451   5.839 -1.7432 -1.2627 -0.9389
 2888SOL    HW220298   0.065   2.367   5.734 -0.3180 -0.3382 -0.1746
 2889SOL     OW20299   0.318   3.187  11.545 -0.4989  0.3679 -0.0613
 2889SOL    HW120300   0.250   3.201  11.611 -0.3654 -1.3396  0.4396
 2889SOL    HW220301   0.369   3.268  11.543 -1.1359  0.6974 -2.7461
 2890SOL     OW20302   2.122   1.146   9.086  0.7486  0.1459  0.4652
 2890SOL    HW120303   2.217   1.155   9.074  0.5144  1.5497 -0.3635
 2890SOL    HW220304   2.089   1.125   8.999 -0.1803  1.5364  0.4807
 2891SOL     OW20305   1.800   4.416   6.298  0.5707  0.4029 -0.2152
 2891SOL    HW120306   1.800   4.342   6.357  1.1462  2.4034  2.2865
 2891SOL    HW220307   1.741   4.386   6.229 -0.0270  0.0229  0.4713
 2892SOL     OW20308   2.693   0.636   9.130 -0.1001  0.0895 -0.0356
 2892SOL    HW120309   2.619   0.638   9.190 -1.0274  0.6456 -1.1899
 2892SOL    HW220310   2.750   0.627   9.207 -0.1312 -2.0378 -0.2786
 2893SOL     OW20311   1.534   4.010   2.598  0.0935 -0.1115  0.1327
 2893SOL    HW120312   1.614   3.996   2.648 -0.6201 -0.5179  1.1540
 2893SOL    HW220313   1.558   3.968   2.515 -0.2761 -1.9482  0.9682
 2894SOL     OW20314   1.962   3.877   4.900  0.5609  0.2565  0.2400
 2894SOL    HW120315   1.998   3.922   4.977  1.2625 -0.9399  0.6028
 2894SOL    HW220316   2.005   3.792   4.899 -0.5823 -0.3192  0.1266
 2895SOL     OW20317   4.194   1.913   3.334 -0.1407  0.1437  0.3010
 2895SOL    HW120318   4.215   2.007   3.340 -0.7004  0.2093  1.2131
 2895SOL    HW220319   4.188   1.910   3.238  1.5181 -0.7815  0.2224
 2896SOL     OW20320   3.382   0.557   4.338 -0.2872  0.4149  0.2050
 2896SOL    HW120321   3.368   0.603   4.255  0.3670 -0.2077 -0.2441
 2896SOL    HW220322   3.437   0.489   4.300 -0.2137  0.4273  0.2910
 2897SOL     OW20323   1.839   2.751   8.824 -0.0323  0.2353  0.5449
 2897SOL    HW120324   1.898   2.714   8.759  0.9154  1.6759  0.6058
 2897SOL    HW220325   1.859   2.844   8.822  2.5367 -0.3441  0.1095
 2898SOL     OW20326   2.713   1.486   1.786  0.5759 -0.5784  0.6724
 2898SOL    HW120327   2.734   1.407   1.835  1.2508 -1.6999 -1.4250
 2898SOL    HW220328   2.729   1.538   1.865 -1.7385 -0.8590  1.3255
 2899SOL     OW20329   0.720   1.404   9.788 -0.0373  0.7487 -0.1262
 2899SOL    HW120330   0.711   1.436   9.878 -1.7841  0.5782 -0.2548
 2899SOL    HW220331   0.741   1.313   9.805 -0.7749  0.1065 -2.6704
 2900SOL     OW20332   0.720   4.311   6.500  0.1760 -0.1660 -0.3943
 2900SOL    HW120333   0.677   4.350   6.423 -2.4654 -1.7407  0.2744
 2900SOL    HW220334   0.808   4.326   6.466  2.0121 -2.1939  3.5484
 2901SOL     OW20335   4.556   3.166  12.091 -0.1879 -0.0712  0.1667
 2901SOL    HW120336   4.530   3.098  12.029 -1.4780 -1.5564  2.3229
 2901SOL    HW220337   4.518   3.249  12.062 -0.6752 -0.5292 -0.4801
 2902SOL     OW20338   1.339   2.253   6.455  0.1338 -0.9595 -0.5318
 2902SOL    HW120339   1.245   2.246   6.441 -0.0910  0.9044 -0.0368
 2902SOL    HW220340   1.351   2.348   6.452  2.7701 -1.2685 -0.4315
 2903SOL     OW20341   4.257   0.762   2.403 -1.2667  0.2705 -0.1039
 2903SOL    HW120342   4.232   0.739   2.314 -1.6477  1.7121 -0.3724
 2903SOL    HW220343   4.174   0.758   2.450 -0.1498 -0.2277  1.8513
 2904SOL     OW20344   1.464   1.282   0.381  0.2668  0.2142  0.3489
 2904SOL    HW120345   1.501   1.352   0.328 -0.2502 -0.2276 -0.5829
 2904SOL    HW220346   1.381   1.320   0.408 -0.0198  0.6375 -1.1354
 2905SOL     OW20347   2.404   3.816  12.788  0.5858 -0.0134 -0.4976
 2905SOL    HW120348   2.429   3.766  12.866 -1.3310  1.9708  1.3777
 2905SOL    HW220349   2.399   3.899  12.834  1.2515  0.2765 -0.9482
 2906SOL     OW20350   3.880   0.932  12.473  0.1867  0.0153 -0.2575
 2906SOL    HW120351   3.817   0.888  12.417 -0.5855  0.7157  0.0548
 2906SOL    HW220352   3.892   0.869  12.544 -1.0673 -1.1555 -1.0965
 2907SOL     OW20353   4.018   2.264   7.875 -0.2309  0.1204  0.5431
 2907SOL    HW120354   4.100   2.237   7.834 -1.6336 -1.0783 -1.4896
 2907SOL    HW220355   3.963   2.301   7.806 -0.0868  1.1380  0.9851
 2908SOL     OW20356   2.411   3.091   7.059  0.1056 -0.2145 -0.5930
 2908SOL    HW120357   2.317   3.095   7.043  0.0754  1.3778 -0.0501
 2908SOL    HW220358   2.441   3.172   7.016  0.7836 -0.6706 -0.9766
 2909SOL     OW20359   0.360   2.447  17.668 -0.0577  0.4175 -0.6668
 2909SOL    HW120360   0.374   2.463  17.575 -0.9141  1.4967 -0.6129
 2909SOL    HW220361   0.271   2.413  17.671 -0.8437  2.3898 -1.1589
 2910SOL     OW20362   0.499   2.619   6.856  0.4020  0.2217 -0.2617
 2910SOL    HW120363   0.430   2.554   6.870  1.2109 -0.6137 -0.1103
 2910SOL    HW220364   0.447   2.687   6.814 -0.9569  0.5879  2.0308
 2911SOL     OW20365   4.149   2.010   5.267 -0.5896 -0.4709 -0.3990
 2911SOL    HW120366   4.062   1.978   5.244  0.3725 -2.3855 -1.3891
 2911SOL    HW220367   4.137   2.060   5.348 -2.5206 -0.9638 -0.3838
 2912SOL     OW20368   0.329   4.474   6.240 -0.0578  0.0966 -0.1683
 2912SOL    HW120369   0.283   4.541   6.290 -0.8420 -0.2889 -0.3742
 2912SOL    HW220370   0.298   4.494   6.152 -0.1030  3.2994  0.5993
 2913SOL     OW20371   3.010   4.511   8.398  0.3831  0.5985 -0.0540
 2913SOL    HW120372   2.961   4.574   8.346  0.3580 -0.6077 -1.4881
 2913SOL    HW220373   2.992   4.548   8.484 -1.8641  1.2953 -0.8209
 2914SOL     OW20374   4.110   0.839  16.528 -0.4677  0.0277  0.2762
 2914SOL    HW120375   4.152   0.818  16.611  0.5268 -1.2736 -0.5634
 2914SOL    HW220376   4.028   0.863  16.571 -0.5281  0.4013 -0.0523
 2915SOL     OW20377   4.187   1.955  13.494  0.1127 -0.0870 -0.0150
 2915SOL    HW120378   4.192   2.015  13.568 -1.2865  1.1119 -0.9057
 2915SOL    HW220379   4.160   1.873  13.538  0.5996  0.1804  0.7900
 2916SOL     OW20380   0.932   3.123   6.352  0.1936  0.5665  0.0047
 2916SOL    HW120381   0.990   3.101   6.425 -1.3923 -1.1784  0.7330
 2916SOL    HW220382   0.853   3.145   6.400 -0.3015 -2.7400  0.6862
 2917SOL     OW20383   4.652   2.480  17.088 -0.1916 -0.2234 -0.1430
 2917SOL    HW120384   4.645   2.473  17.183  0.3154  3.2302  0.1497
 2917SOL    HW220385   0.001   2.515  17.072 -0.6486 -0.2521 -2.7412
 2918SOL     OW20386   1.957   3.495   6.228  0.0444 -0.1219  0.0941
 2918SOL    HW120387   1.967   3.494   6.324 -1.1247  1.4185  0.2463
 2918SOL    HW220388   1.899   3.421   6.211  1.0786 -0.7701 -0.5529
 2919SOL     OW20389   0.775   2.756   3.300 -0.4759  0.1639 -0.1308
 2919SOL    HW120390   0.770   2.662   3.316  1.8799 -0.0782 -0.9279
 2919SOL    HW220391   0.779   2.758   3.204  1.8752  2.7546  0.0434
 2920SOL     OW20392   0.665   1.451   6.519  0.4463 -0.1671  0.2981
 2920SOL    HW120393   0.735   1.386   6.530 -0.0007 -0.8592 -0.9445
 2920SOL    HW220394   0.672   1.496   6.603 -1.0236 -0.2060  0.4333
 2921SOL     OW20395   2.998   3.313   5.249  0.3285  0.2615 -0.1084
 2921SOL    HW120396   2.958   3.386   5.202 -1.0681 -0.3402  0.1642
 2921SOL    HW220397   3.057   3.363   5.306  2.0681 -0.2845 -1.4422
 2922SOL     OW20398   4.401   3.002   4.227  0.4793  0.3589 -0.2959
 2922SOL    HW120399   4.359   2.977   4.309  1.8343 -1.0609 -0.0602
 2922SOL    HW220400   4.451   2.923   4.208  0.5896 -0.3280  2.9428
 2923SOL     OW20401   1.229   0.164   6.957 -0.2433  0.0954  0.3490
 2923SOL    HW120402   1.205   0.187   6.868 -0.5010  3.3795  1.2722
 2923SOL    HW220403   1.218   0.069   6.956  0.5066  0.0174 -0.1241
 2924SOL     OW20404   1.071   0.897  12.042 -1.0878 -0.4234 -0.0499
 2924SOL    HW120405   1.015   0.969  12.069  0.1790  1.1469 -1.6278
 2924SOL    HW220406   1.047   0.820  12.093 -1.5348  0.8399  1.6419
 2925SOL     OW20407   3.052   0.543   5.740  0.2365  0.9488 -0.0217
 2925SOL    HW120408   3.126   0.548   5.680  1.4483 -2.6444  1.1679
 2925SOL    HW220409   2.986   0.544   5.670 -1.6622 -0.7797  1.7233
 2926SOL     OW20410   0.039   4.182   2.949  0.3000 -0.2521 -0.3397
 2926SOL    HW120411   0.019   4.117   3.017  0.4747  0.9710  0.8851
 2926SOL    HW220412   0.024   4.266   2.992  1.8206  0.2423 -0.7539
 2927SOL     OW20413   1.212   3.715   4.788  0.1714  0.2342 -0.0241
 2927SOL    HW120414   1.302   3.716   4.755 -0.1942 -0.1373 -1.0174
 2927SOL    HW220415   1.234   3.707   4.881  0.0462  1.2603  0.0866
 2928SOL     OW20416   2.479   2.483  16.831  0.3128 -0.5606  0.0661
 2928SOL    HW120417   2.402   2.438  16.866 -1.2751  3.0086  1.2527
 2928SOL    HW220418   2.540   2.411  16.848 -2.6552 -2.7996  1.2824
 2929SOL     OW20419   3.110   3.557   9.405 -0.1844  0.5585  0.6727
 2929SOL    HW120420   3.143   3.474   9.371  0.2490  1.2402 -0.5665
 2929SOL    HW220421   3.129   3.604   9.323  1.0408 -0.1325  0.5707
 2930SOL     OW20422   2.831   0.542  10.179  0.3096  0.2890 -0.2535
 2930SOL    HW120423   2.795   0.459  10.211 -2.3191  1.1422 -1.0368
 2930SOL    HW220424   2.864   0.577  10.262 -0.2700  0.3564 -0.0532
 2931SOL     OW20425   2.005   4.371   3.533  0.8336 -0.3811 -0.1026
 2931SOL    HW120426   2.086   4.387   3.581  0.6133 -1.6299  0.6686
 2931SOL    HW220427   1.994   4.443   3.470  0.1197 -1.1631 -0.8783
 2932SOL     OW20428   0.980   1.319   1.221  0.4917  0.3817 -0.0037
 2932SOL    HW120429   0.936   1.255   1.277  1.0977  0.8772  1.0450
 2932SOL    HW220430   0.934   1.395   1.258 -2.5942 -2.4067  1.8531
 2933SOL     OW20431   2.702   1.123  16.307 -0.2300  0.2581 -0.5692
 2933SOL    HW120432   2.670   1.099  16.220  0.7419 -1.7412 -0.3699
 2933SOL    HW220433   2.637   1.189  16.330  0.6506  0.6864  0.6841
 2934SOL     OW20434   0.870   0.597   1.830  0.9776 -0.5102  0.3349
 2934SOL    HW120435   0.807   0.586   1.759 -0.7772  1.5389  1.5552
 2934SOL    HW220436   0.815   0.585   1.907  0.1663  0.7216 -0.0630
 2935SOL     OW20437   4.319   4.372   4.849  0.5253 -0.5601 -0.5481
 2935SOL    HW120438   4.250   4.362   4.914  1.6595 -4.1125  0.0863
 2935SOL    HW220439   4.360   4.286   4.852 -0.2338 -0.9321 -0.8471
 2936SOL     OW20440   1.148   0.545   6.975  0.0201  0.7459  0.2729
 2936SOL    HW120441   1.061   0.567   7.007 -0.7458  1.0312 -2.0270
 2936SOL    HW220442   1.173   0.621   6.923  2.1022 -0.5513 -0.6370
 2937SOL     OW20443   3.875   4.157   1.066  0.7168  0.5769 -0.3057
 2937SOL    HW120444   3.786   4.168   1.033 -0.3162 -0.3767  2.1064
 2937SOL    HW220445   3.928   4.172   0.988  1.3146  0.7195  0.1282
 2938SOL     OW20446   2.188   3.550  11.294 -0.4896  0.2179  0.1190
 2938SOL    HW120447   2.202   3.622  11.356 -0.5072  0.2141  0.1273
 2938SOL    HW220448   2.148   3.500  11.365 -1.0074  0.9206  0.3290
 2939SOL     OW20449   2.802   1.758  11.426  0.1131  0.1017 -0.9175
 2939SOL    HW120450   2.804   1.748  11.521  0.0894 -1.6508 -1.1070
 2939SOL    HW220451   2.881   1.712  11.397 -0.5146 -0.3656 -1.8656
 2940SOL     OW20452   3.511   1.737   2.158  0.2904  0.0882 -0.7559
 2940SOL    HW120453   3.579   1.695   2.106  0.2776 -0.1200 -0.6049
 2940SOL    HW220454   3.562   1.739   2.238  0.6588  3.3112 -1.0580
 2941SOL     OW20455   3.236   2.317  14.890  0.2475  0.0338  0.1601
 2941SOL    HW120456   3.306   2.289  14.949  1.6790 -0.1045 -1.6285
 2941SOL    HW220457   3.289   2.383  14.846  0.0520  0.9673  1.2996
 2942SOL     OW20458   0.437   0.367   1.834 -0.0574  0.5645  0.1265
 2942SOL    HW120459   0.414   0.403   1.749 -0.4659  1.0612  0.4412
 2942SOL    HW220460   0.351   0.368   1.876 -0.3861  1.1317 -0.5713
 2943SOL     OW20461   1.951   0.363  14.274 -0.4927  0.2817 -0.1535
 2943SOL    HW120462   1.859   0.348  14.251 -0.2429 -2.9713  1.0197
 2943SOL    HW220463   1.968   0.430  14.207 -2.2300 -0.3094 -1.1878
 2944SOL     OW20464   1.406   1.245   6.123 -0.1798 -0.1263  0.2483
 2944SOL    HW120465   1.342   1.284   6.182  0.0151  0.1844  0.2526
 2944SOL    HW220466   1.350   1.198   6.061 -0.8667  2.4444 -1.0851
 2945SOL     OW20467   1.480   0.620   6.776 -0.0606 -0.3228 -0.0983
 2945SOL    HW120468   1.472   0.553   6.707  0.2148 -0.5034  0.0461
 2945SOL    HW220469   1.387   0.643   6.785 -0.3308 -1.8550  1.2095
 2946SOL     OW20470   2.556   2.982   8.635 -0.2373  0.0631  0.5226
 2946SOL    HW120471   2.635   2.996   8.688 -0.7811 -1.7699  1.8059
 2946SOL    HW220472   2.587   2.966   8.545  0.1523 -0.1795  0.6977
 2947SOL     OW20473   1.186   0.727   6.347 -0.2688 -0.3895 -0.2072
 2947SOL    HW120474   1.121   0.796   6.331 -1.5939 -1.1466  1.9897
 2947SOL    HW220475   1.262   0.781   6.327 -1.1953  0.7618 -0.6444
 2948SOL     OW20476   0.578   2.694   0.821  0.0072 -0.1175 -0.4661
 2948SOL    HW120477   0.621   2.768   0.779  0.6011 -0.1393  0.0989
 2948SOL    HW220478   0.603   2.703   0.913 -2.0027 -2.0570  0.2830
 2949SOL     OW20479   0.611   2.875   2.050 -0.3442  0.3061  0.4312
 2949SOL    HW120480   0.583   2.925   1.974 -1.3390  1.1008  1.3238
 2949SOL    HW220481   0.539   2.813   2.062 -1.3711  1.3697 -0.2486
 2950SOL     OW20482   4.473   1.881   3.452  0.3783 -0.0816 -0.0368
 2950SOL    HW120483   4.511   1.793   3.441 -1.5605 -1.1140  1.5152
 2950SOL    HW220484   4.387   1.875   3.411  1.4237  2.0757 -2.4759
 2951SOL     OW20485   2.522   1.270   3.134  0.1152  0.1797  0.4842
 2951SOL    HW120486   2.613   1.298   3.122  0.1724 -0.0338  0.4343
 2951SOL    HW220487   2.487   1.359   3.145 -0.5762 -0.0734  0.2754
 2952SOL     OW20488   3.296   0.870   6.685  0.1302  0.0170  0.2877
 2952SOL    HW120489   3.360   0.825   6.630 -2.1275 -2.3410 -0.4241
 2952SOL    HW220490   3.287   0.807   6.757  0.1181  1.2299  1.3400
 2953SOL     OW20491   3.550   4.667   3.381  0.3237 -0.2883 -0.2665
 2953SOL    HW120492   3.493   4.680   3.457  0.1007  0.0876 -0.4941
 2953SOL    HW220493   3.637   4.675   3.418  1.1138 -0.2132 -2.1096
 2954SOL     OW20494   3.110   2.933  11.354  0.0633  0.1795  0.6667
 2954SOL    HW120495   3.179   2.996  11.333  1.9703 -1.2002  2.8749
 2954SOL    HW220496   3.157   2.857  11.321 -0.2026 -0.4203  1.6806
 2955SOL     OW20497   2.997   2.113   8.964  0.3093  0.5675 -0.0495
 2955SOL    HW120498   3.081   2.115   9.011  0.7973 -0.7470 -0.8841
 2955SOL    HW220499   3.002   2.020   8.946  0.9461 -0.0616  3.3359
 2956SOL     OW20500   0.916   1.114  17.142 -0.4608  0.0918  0.2639
 2956SOL    HW120501   0.958   1.029  17.142 -1.4434 -0.3944  1.6768
 2956SOL    HW220502   0.885   1.113  17.233 -2.2083  0.0110 -0.3287
 2957SOL     OW20503   1.511   0.454   5.864  0.0296 -0.0947  0.2869
 2957SOL    HW120504   1.422   0.486   5.881  0.7847  1.3882  1.5280
 2957SOL    HW220505   1.564   0.532   5.847 -1.9388  1.0858 -0.4561
 2958SOL     OW20506   0.260   1.297   3.802  0.2478  0.2592 -0.2111
 2958SOL    HW120507   0.311   1.218   3.821  0.3879  0.1342 -1.1029
 2958SOL    HW220508   0.199   1.311   3.874  1.0963  0.2571  0.5162
 2959SOL     OW20509   2.536   3.282   9.326 -0.1359 -0.1653  0.0311
 2959SOL    HW120510   2.610   3.341   9.341  1.0651 -2.0213  1.5491
 2959SOL    HW220511   2.572   3.239   9.248 -1.9099 -2.0696  0.2674
 2960SOL     OW20512   0.031   2.053   9.060 -0.7001  0.0867 -0.2500
 2960SOL    HW120513   0.106   1.998   9.082 -0.7558  1.0386  2.3141
 2960SOL    HW220514   0.033   2.125   9.123  0.9261  0.9466 -1.2902
 2961SOL     OW20515   4.310   2.814   4.407  0.2142 -0.1093  0.1263
 2961SOL    HW120516   4.244   2.746   4.400  0.0752 -0.0693  1.0149
 2961SOL    HW220517   4.393   2.766   4.400 -0.6199 -1.2942 -1.3926
 2962SOL     OW20518   3.479   0.990   2.483  0.0098 -0.4955 -0.2041
 2962SOL    HW120519   3.470   0.904   2.442  0.5992 -1.1900  1.1294
 2962SOL    HW220520   3.451   0.960   2.569  1.1958  0.5479  0.5381
 2963SOL     OW20521   2.563   4.701   8.014 -0.5031  0.2523 -0.7379
 2963SOL    HW120522   2.625   0.014   8.065 -0.6063  2.0584 -2.4436
 2963SOL    HW220523   2.511   4.648   8.074  0.7932  0.6404  0.7265
 2964SOL     OW20524   4.735   2.740  14.927 -0.2901  1.1527  0.1863
 2964SOL    HW120525   0.043   2.657  14.930 -2.7962 -0.3206 -2.1881
 2964SOL    HW220526   4.691   2.744  14.842  0.8277  0.1870 -0.4494
 2965SOL     OW20527   4.498   0.701   7.477  0.2236  0.0741  0.6885
 2965SOL    HW120528   4.406   0.676   7.487 -0.0859  1.8428  2.1715
 2965SOL    HW220529   4.545   0.618   7.465 -0.5923  0.0041 -2.0520
 2966SOL     OW20530   0.177   0.582   4.534  0.0289 -0.1355 -0.2432
 2966SOL    HW120531   0.169   0.600   4.628  2.2502  0.7096 -0.2144
 2966SOL    HW220532   0.233   0.507   4.549 -0.4452 -0.4211  0.0997
 2967SOL     OW20533   0.403   2.469   7.891 -0.5958  0.4979  0.5040
 2967SOL    HW120534   0.337   2.507   7.833  0.6299  1.4534 -0.2622
 2967SOL    HW220535   0.368   2.493   7.977  0.0738  0.9444  0.6543
 2968SOL     OW20536   1.138   3.288  13.240  0.8338  0.1908  0.1540
 2968SOL    HW120537   1.061   3.249  13.198  0.2629  1.6290 -0.1468
 2968SOL    HW220538   1.106   3.378  13.247  3.8863  1.1173  1.9869
 2969SOL     OW20539   1.477   1.196   2.396  0.1351 -0.2218  0.0807
 2969SOL    HW120540   1.393   1.182   2.352 -0.5455  0.0650  1.2840
 2969SOL    HW220541   1.459   1.289   2.413  1.6759 -0.4083  2.6790
 2970SOL     OW20542   0.589   2.157  17.146 -0.9449  0.3543  1.0366
 2970SOL    HW120543   0.613   2.181  17.236  0.7244 -1.2186  1.0244
 2970SOL    HW220544   0.662   2.106  17.111 -1.2580 -1.3142  2.8030
 2971SOL     OW20545   2.098   1.360   1.824  0.4821 -0.0437  0.2374
 2971SOL    HW120546   2.162   1.301   1.783  0.3278  0.4768 -0.7644
 2971SOL    HW220547   2.036   1.354   1.751  1.1395  1.1139 -0.4173
 2972SOL     OW20548   1.815   4.660   3.198  0.4034  0.5226  0.2888
 2972SOL    HW120549   1.758   4.614   3.259  0.1852 -0.3022 -0.5579
 2972SOL    HW220550   1.861   4.716   3.261  2.0750 -0.0210 -0.4368
 2973SOL     OW20551   3.956   4.309   7.042 -0.2984  0.7694  0.3738
 2973SOL    HW120552   4.012   4.256   7.100  0.0134 -0.1534 -0.7657
 2973SOL    HW220553   3.987   4.398   7.057 -1.3443  1.2548 -0.3915
 2974SOL     OW20554   2.242   2.574   7.465  0.3194 -0.2369 -0.0888
 2974SOL    HW120555   2.247   2.552   7.558  2.1469 -3.5223 -0.9978
 2974SOL    HW220556   2.241   2.492   7.417  1.3948  0.6538 -1.6242
 2975SOL     OW20557   4.609   4.599  12.296 -0.2738 -0.1029  0.0351
 2975SOL    HW120558   4.643   4.510  12.282  0.1906 -0.0869  1.0894
 2975SOL    HW220559   4.616   4.637  12.208  0.5351  0.7410  0.4728
 2976SOL     OW20560   4.532   0.909  14.035 -0.0785  0.2970  0.2068
 2976SOL    HW120561   4.532   0.997  13.997 -0.1190 -0.2432 -1.0427
 2976SOL    HW220562   4.590   0.869  13.971  1.6746  0.5431  1.6364
 2977SOL     OW20563   4.550   4.177   3.191  0.1384  0.1369  0.2223
 2977SOL    HW120564   4.603   4.243   3.236 -2.9142  2.2608  0.7399
 2977SOL    HW220565   4.470   4.229   3.185  0.2300  0.1506 -0.8300
 2978SOL     OW20566   2.223   3.566   2.037  0.4846 -0.6999 -0.2190
 2978SOL    HW120567   2.163   3.557   2.111  0.0496  1.4045 -0.3171
 2978SOL    HW220568   2.169   3.615   1.975 -0.6780  0.8974  2.0677
 2979SOL     OW20569   1.120   0.239   9.533  0.2412 -0.1728 -0.0104
 2979SOL    HW120570   1.075   0.176   9.589 -0.2918 -0.5328 -0.8504
 2979SOL    HW220571   1.194   0.263   9.589 -0.0277  2.2403 -0.6749
 2980SOL     OW20572   4.540   3.241   5.335  0.1926  0.0030  0.5188
 2980SOL    HW120573   4.535   3.229   5.240  0.7368 -0.5998  0.5609
 2980SOL    HW220574   4.490   3.173   5.380 -0.5862  0.5786  0.5260
 2981SOL     OW20575   3.412   1.389   0.172 -0.2619  0.1694 -0.8479
 2981SOL    HW120576   3.477   1.334   0.128  0.8910 -1.8220  3.4163
 2981SOL    HW220577   3.407   1.462   0.110  0.7502  0.6189 -0.3876
 2982SOL     OW20578   1.558   1.541  12.675  0.0574  0.0340  0.5727
 2982SOL    HW120579   1.538   1.467  12.618  0.3604 -0.2616  0.8579
 2982SOL    HW220580   1.638   1.521  12.724 -0.8058 -0.0869  1.9201
 2983SOL     OW20581   0.968   1.583  15.047  0.1987  0.3842  0.3396
 2983SOL    HW120582   0.888   1.622  15.010 -0.2719 -0.4555  0.4850
 2983SOL    HW220583   0.948   1.610  15.136 -0.0563 -0.5969  0.5795
 2984SOL     OW20584   1.119   2.805   5.866 -0.1894  0.0020  0.1156
 2984SOL    HW120585   1.054   2.771   5.928 -0.5506  0.6568  0.0967
 2984SOL    HW220586   1.123   2.900   5.878  1.0027 -0.1285  0.7729
 2985SOL     OW20587   3.337   3.427   1.966  0.0028 -0.9120  0.4964
 2985SOL    HW120588   3.343   3.331   1.964  0.6076 -0.8434 -0.7719
 2985SOL    HW220589   3.384   3.440   1.885  0.8020 -1.2554  0.9086
 2986SOL     OW20590   4.460   3.355   3.449 -0.3282  0.0474  0.0014
 2986SOL    HW120591   4.416   3.438   3.436 -1.7378 -0.5083  1.2364
 2986SOL    HW220592   4.518   3.360   3.373 -0.0925  0.3974  0.2048
 2987SOL     OW20593   4.190   1.589  10.986 -0.2809 -0.3111 -0.0535
 2987SOL    HW120594   4.153   1.516  10.937  0.3379 -1.4623  1.1942
 2987SOL    HW220595   4.283   1.583  10.966  0.2378  2.0908  1.5325
 2988SOL     OW20596   0.619   4.086  13.136 -0.4421 -0.0751  0.1465
 2988SOL    HW120597   0.677   4.062  13.208  2.0558 -0.0520 -1.8265
 2988SOL    HW220598   0.530   4.071  13.166 -0.9956 -0.2109 -1.5383
 2989SOL     OW20599   0.536   2.697   5.886  0.4134  0.1392 -0.2153
 2989SOL    HW120600   0.577   2.759   5.946 -0.7565  0.6164  0.0850
 2989SOL    HW220601   0.492   2.638   5.949 -0.5541 -0.3374 -1.3318
 2990SOL     OW20602   3.256   3.531   8.392  0.3992  0.1053 -0.4609
 2990SOL    HW120603   3.298   3.561   8.311  1.2938  0.9501  0.3219
 2990SOL    HW220604   3.322   3.476   8.434 -0.3513  0.6172  1.3896
 2991SOL     OW20605   0.806   2.225  14.377  0.5318  0.1511 -0.1485
 2991SOL    HW120606   0.794   2.163  14.449  0.8535  0.3144  0.0466
 2991SOL    HW220607   0.886   2.271  14.401 -0.0118 -0.8043  3.4698
 2992SOL     OW20608   4.419   2.040   7.299  0.2360  0.3620  1.1865
 2992SOL    HW120609   4.373   2.096   7.361 -0.9142  0.8153 -0.0790
 2992SOL    HW220610   4.494   2.099   7.285  0.0669  0.6614  1.5272
 2993SOL     OW20611   3.042   0.265   0.679  0.2054 -0.2056 -0.5009
 2993SOL    HW120612   3.050   0.339   0.619 -0.3200  1.6468  1.7050
 2993SOL    HW220613   2.947   0.259   0.677  0.1151  0.3241  3.3112
 2994SOL     OW20614   0.224   0.223  13.226  0.2920  0.0107  0.1463
 2994SOL    HW120615   0.138   0.261  13.206  1.1466  2.2126  0.7470
 2994SOL    HW220616   0.238   0.143  13.174  0.8566  0.6330 -0.6695
 2995SOL     OW20617   3.175   0.275   2.008 -0.2220 -0.6774  0.2620
 2995SOL    HW120618   3.176   0.179   2.011  0.2138 -0.5722  4.3276
 2995SOL    HW220619   3.214   0.299   2.092 -0.2817  1.1046 -0.2274
 2996SOL     OW20620   0.716   1.304  13.439  0.3746 -0.4236 -0.2492
 2996SOL    HW120621   0.689   1.337  13.353  0.1000  0.2585  0.0978
 2996SOL    HW220622   0.672   1.220  13.448  0.3934 -0.3537  0.4639
 2997SOL     OW20623   2.700   3.640   2.386  0.1281  0.0651  0.4061
 2997SOL    HW120624   2.641   3.707   2.423  0.9604 -0.2298  2.2953
 2997SOL    HW220625   2.653   3.622   2.305  0.1486  0.3120  0.3391
 2998SOL     OW20626   3.325   1.604   4.400  0.3623 -0.3807  0.0620
 2998SOL    HW120627   3.389   1.554   4.450  0.4562 -1.0358 -0.7112
 2998SOL    HW220628   3.367   1.597   4.315  0.8443 -0.7921  0.3307
 2999SOL     OW20629   3.940   0.337  14.055 -0.1625 -0.7191 -0.2190
 2999SOL    HW120630   3.937   0.263  13.994 -1.4270 -1.1211  0.3414
 2999SOL    HW220631   4.032   0.363  14.066  0.4526 -2.6299 -0.8686
 3000SOL     OW20632   3.122   4.555   0.902 -0.6889 -0.2370  0.0031
 3000SOL    HW120633   3.134   4.610   0.824  0.0699 -0.1125  0.2098
 3000SOL    HW220634   3.161   4.471   0.876 -0.0460 -0.2080  0.8711
 3001SOL     OW20635   0.469   4.193   2.306 -0.0965  0.3739 -0.0123
 3001SOL    HW120636   0.452   4.120   2.365  0.9576  0.6262  0.5979
 3001SOL    HW220637   0.480   4.149   2.221  0.0084 -1.1545  0.7927
 3002SOL     OW20638   1.666   0.610   2.091 -0.4116  0.0045 -0.0608
 3002SOL    HW120639   1.758   0.619   2.116 -0.4252 -0.5236  0.1790
 3002SOL    HW220640   1.616   0.658   2.158  0.0067 -1.8286  1.5588
 3003SOL     OW20641   0.319   2.643   0.742  0.0463  0.0567  0.6296
 3003SOL    HW120642   0.326   2.709   0.673 -1.9983 -1.4694 -1.0184
 3003SOL    HW220643   0.406   2.641   0.782  0.5670 -0.9745 -0.5679
 3004SOL     OW20644   3.640   1.811   6.431 -0.0906 -0.0598 -0.2143
 3004SOL    HW120645   3.696   1.735   6.413  0.5877 -0.1062  2.0849
 3004SOL    HW220646   3.644   1.836   6.339  0.5538  1.5991  0.2733
 3005SOL     OW20647   2.787   2.979  12.389  0.4411 -0.4071 -0.1881
 3005SOL    HW120648   2.794   2.991  12.295 -0.4127  1.0688 -0.0718
 3005SOL    HW220649   2.835   3.056  12.420 -1.1198  1.0687 -1.4029
 3006SOL     OW20650   0.814   3.671   6.378 -0.4577 -0.4107 -0.2509
 3006SOL    HW120651   0.905   3.644   6.364 -0.1400  0.2684  0.5302
 3006SOL    HW220652   0.808   3.717   6.294  0.6280 -1.7657 -1.0665
 3007SOL     OW20653   4.409   4.373   7.782  0.4671  0.3571 -0.2215
 3007SOL    HW120654   4.416   4.281   7.809  1.0938  0.3380 -0.4588
 3007SOL    HW220655   4.499   4.397   7.802  1.0987 -1.4382 -0.9491
 3008SOL     OW20656   0.975   4.238   5.432  0.1463  0.3624 -0.2081
 3008SOL    HW120657   0.966   4.332   5.446 -2.6094  0.2162 -0.9982
 3008SOL    HW220658   1.071   4.238   5.439  0.1571  2.6465 -0.2690
 3009SOL     OW20659   3.308   3.659   8.142 -0.9169  0.5314  0.1176
 3009SOL    HW120660   3.231   3.609   8.116 -0.0458  0.0178 -1.5427
 3009SOL    HW220661   3.321   3.710   8.062  1.4673 -1.2936 -0.6637
 3010SOL     OW20662   0.868   0.115   3.514 -0.3772  0.3906 -0.4407
 3010SOL    HW120663   0.898   0.055   3.445 -2.1670 -0.2018 -0.7085
 3010SOL    HW220664   0.939   0.178   3.525 -1.4750  1.3611  1.2226
 3011SOL     OW20665   3.166   1.967  16.536 -0.1279  0.0568  0.6075
 3011SOL    HW120666   3.167   1.938  16.445  3.1753 -1.4238  1.0797
 3011SOL    HW220667   3.098   2.032  16.521 -0.9084 -1.1085 -0.8542
 3012SOL     OW20668   2.680   0.488   2.158  0.4757 -0.0252  0.0850
 3012SOL    HW120669   2.721   0.404   2.136 -0.1126 -0.1773 -0.4230
 3012SOL    HW220670   2.595   0.463   2.194  0.5276 -1.0135 -0.4838
 3013SOL     OW20671   2.534   2.351  15.240 -0.6682  0.1869 -0.1413
 3013SOL    HW120672   2.453   2.390  15.209 -0.6749 -0.7523 -1.3132
 3013SOL    HW220673   2.588   2.366  15.162  1.1271 -1.8796  0.6744
 3014SOL     OW20674   3.641   2.988   5.379 -0.7839  0.2762 -0.3793
 3014SOL    HW120675   3.627   3.061   5.440 -1.1000 -0.8925  0.9371
 3014SOL    HW220676   3.548   2.968   5.365 -0.8912  0.8376 -0.4868
 3015SOL     OW20677   2.865   1.981   3.486 -0.5564  0.3991  0.1683
 3015SOL    HW120678   2.903   1.910   3.537  0.8624  0.7890 -0.3601
 3015SOL    HW220679   2.841   2.038   3.560 -1.8339 -1.8895  1.5271
 3016SOL     OW20680   4.295   2.816   2.749 -0.0059  0.3890  0.0803
 3016SOL    HW120681   4.216   2.867   2.731 -0.8001  0.2094  3.0502
 3016SOL    HW220682   4.349   2.829   2.671  1.8705 -2.0881  0.9447
 3017SOL     OW20683   2.823   2.237   6.138  0.0462  0.4993 -0.1313
 3017SOL    HW120684   2.803   2.145   6.157  0.6906  0.5482  0.8058
 3017SOL    HW220685   2.789   2.276   6.218  0.9593 -0.1547  0.5796
 3018SOL     OW20686   1.739   2.517   4.482 -0.0200 -0.0479  0.4113
 3018SOL    HW120687   1.714   2.549   4.568 -0.3480  2.3920 -0.5839
 3018SOL    HW220688   1.758   2.425   4.499 -1.8191 -0.5115 -0.0983
 3019SOL     OW20689   3.523   1.443   8.862 -0.2179  0.7868 -0.0445
 3019SOL    HW120690   3.485   1.356   8.866  2.3302 -0.3395 -0.9547
 3019SOL    HW220691   3.569   1.444   8.946 -0.5809  0.8407  0.1572
 3020SOL     OW20692   4.605   3.363   0.268 -0.5675 -0.5472  0.2928
 3020SOL    HW120693   4.530   3.423   0.267  0.5011  0.7876  0.5191
 3020SOL    HW220694   4.613   3.339   0.176 -1.2228 -2.0324  0.6168
 3021SOL     OW20695   0.053   3.113  14.265  0.0364 -0.6147 -0.1040
 3021SOL    HW120696   4.731   3.043  14.239 -0.3577  0.0282 -0.9347
 3021SOL    HW220697   0.022   3.128  14.354  1.4358 -0.0612  0.2883
 3022SOL     OW20698   2.981   3.914   9.068  0.3565  0.4278  0.0495
 3022SOL    HW120699   2.938   4.000   9.070 -0.1637  0.1758 -0.3977
 3022SOL    HW220700   2.924   3.874   9.003 -0.6764  0.7240  0.7656
 3023SOL     OW20701   2.224   4.613   8.343  0.3867  0.2764  0.3023
 3023SOL    HW120702   2.180   4.694   8.315 -0.8229 -0.7691 -0.8313
 3023SOL    HW220703   2.311   4.621   8.303 -0.2285  1.7099 -0.7899
 3024SOL     OW20704   3.637   3.529   5.755  0.2546 -0.4714 -0.1811
 3024SOL    HW120705   3.573   3.459   5.744  0.3683 -0.4773 -0.7861
 3024SOL    HW220706   3.584   3.585   5.812  0.4125 -0.8198  0.3115
 3025SOL     OW20707   4.396   0.525  15.869  0.1939 -0.4314  0.0591
 3025SOL    HW120708   4.446   0.511  15.789  0.1229 -1.6058  0.2280
 3025SOL    HW220709   4.401   0.441  15.914 -0.0343  0.1299  1.1264
 3026SOL     OW20710   2.119   3.241   2.289 -0.2104  0.3218  0.3526
 3026SOL    HW120711   2.136   3.158   2.333  0.4974 -0.8682 -2.1454
 3026SOL    HW220712   2.120   3.297   2.366  1.9322  0.6604  0.0802
 3027SOL     OW20713   2.242   0.926  12.877  0.1523  0.1593  0.0379
 3027SOL    HW120714   2.264   0.901  12.966 -0.6241 -0.3996  0.0679
 3027SOL    HW220715   2.266   0.845  12.831  3.1339  1.3352 -0.4812
 3028SOL     OW20716   0.269   3.238   2.055  0.0732 -0.1919 -0.2247
 3028SOL    HW120717   0.323   3.292   1.998 -0.0867  0.5827  0.3613
 3028SOL    HW220718   0.331   3.197   2.116  0.5897 -1.9874 -1.9702
 3029SOL     OW20719   1.785   1.387   8.913  0.2356  0.3345  0.0868
 3029SOL    HW120720   1.784   1.483   8.911  0.1831  0.3680  1.9266
 3029SOL    HW220721   1.866   1.377   8.864  0.9663  0.8117  1.2018
 3030SOL     OW20722   4.243   3.274   4.417  0.5109 -0.4663  0.1363
 3030SOL    HW120723   4.217   3.192   4.458 -0.9804 -0.6251 -1.1143
 3030SOL    HW220724   4.195   3.270   4.334  2.2597 -0.6429 -0.8856
 3031SOL     OW20725   2.574   4.110   5.371 -0.1322 -0.3203 -0.1913
 3031SOL    HW120726   2.615   4.187   5.330  1.9153 -0.9892  0.6219
 3031SOL    HW220727   2.540   4.148   5.452 -1.1351 -0.8345 -0.3746
 3032SOL     OW20728   0.645   0.395   5.941 -0.1846 -0.3416 -0.1512
 3032SOL    HW120729   0.654   0.472   5.885  0.4877  0.3705  0.9320
 3032SOL    HW220730   0.718   0.339   5.915  0.4706 -1.2981  3.7707
 3033SOL     OW20731   0.950   3.921  16.106  0.0027  0.0228  0.2498
 3033SOL    HW120732   0.980   3.830  16.099 -1.8385 -0.3659 -2.4621
 3033SOL    HW220733   0.951   3.937  16.012 -1.1127  1.8880  0.5669
 3034SOL     OW20734   3.151   0.478  12.986  0.0844  0.0492 -0.2651
 3034SOL    HW120735   3.100   0.462  12.907 -0.8355  0.2601  0.2841
 3034SOL    HW220736   3.129   0.569  13.005 -0.0551  0.4346 -2.2813
 3035SOL     OW20737   2.276   3.685   4.663 -0.3955 -0.0634  0.0557
 3035SOL    HW120738   2.279   3.780   4.652  0.9200 -0.0434  0.5382
 3035SOL    HW220739   2.218   3.657   4.592 -1.0885  1.4825  0.0368
 3036SOL     OW20740   0.199   3.137  15.961  0.3833  0.1397 -0.1427
 3036SOL    HW120741   0.291   3.158  15.972 -0.1061  1.5332  1.2284
 3036SOL    HW220742   0.216   3.062  15.904  0.3925 -1.2524  1.7117
 3037SOL     OW20743   3.733   3.117  17.587  0.3059 -0.5626  0.0864
 3037SOL    HW120744   3.670   3.099  17.657  0.2023 -1.5480 -0.2601
 3037SOL    HW220745   3.682   3.165  17.522 -1.5020  1.8766  3.3385
 3038SOL     OW20746   2.491   3.127   8.120 -0.4226 -0.3390  0.0785
 3038SOL    HW120747   2.508   3.203   8.176 -1.3493 -0.6565  0.7886
 3038SOL    HW220748   2.398   3.109   8.136 -0.0861 -0.7039  1.5790
 3039SOL     OW20749   2.443   1.417   5.222 -0.3267  0.1057  0.3958
 3039SOL    HW120750   2.440   1.429   5.317 -2.3146  2.5041  0.0061
 3039SOL    HW220751   2.354   1.391   5.200  0.3595 -3.3125  1.6565
 3040SOL     OW20752   0.523   3.170   3.963 -0.6655  0.1261  0.2905
 3040SOL    HW120753   0.487   3.158   3.875  0.1182  0.9962 -0.1486
 3040SOL    HW220754   0.610   3.135   3.943 -1.4110 -2.3297  1.3972
 3041SOL     OW20755   0.217   3.775   8.209 -1.0712  0.2363 -0.6811
 3041SOL    HW120756   0.141   3.745   8.257 -1.4532  0.6043 -1.0526
 3041SOL    HW220757   0.238   3.692   8.166 -1.2377 -0.9141  1.4823
 3042SOL     OW20758   2.691   3.000   2.759  0.2294  0.0940 -0.2316
 3042SOL    HW120759   2.675   3.077   2.704 -1.2994 -0.6226 -0.7940
 3042SOL    HW220760   2.611   3.008   2.810  0.3936 -2.0756  0.3546
 3043SOL     OW20761   2.253   2.757   7.747  0.2891 -0.3231  0.4918
 3043SOL    HW120762   2.217   2.670   7.728 -1.1071  0.6452 -1.3051
 3043SOL    HW220763   2.225   2.764   7.838 -1.6591  0.2657 -0.1415
 3044SOL     OW20764   0.113   3.986   5.211 -0.4724  0.1865 -0.0997
 3044SOL    HW120765   0.127   3.932   5.288  0.9491  0.4121 -0.2092
 3044SOL    HW220766   0.171   3.943   5.147  0.5264  1.5798 -0.1289
 3045SOL     OW20767   2.717   0.140   8.182 -0.0198 -0.2679 -0.2706
 3045SOL    HW120768   2.697   0.232   8.168  2.4002  0.3447  0.2180
 3045SOL    HW220769   2.809   0.151   8.157  0.3245 -0.4699  0.9428
 3046SOL     OW20770   0.921   2.602  10.283 -0.1257  0.2356 -0.5275
 3046SOL    HW120771   0.960   2.541  10.347  1.4980  1.3053 -0.5111
 3046SOL    HW220772   0.932   2.684  10.331 -0.8153 -1.2021  2.1010
 3047SOL     OW20773   1.196   2.120   7.072 -0.3066  0.0894  0.1091
 3047SOL    HW120774   1.153   2.129   6.987  1.0379 -0.3245 -0.6149
 3047SOL    HW220775   1.145   2.050   7.112  0.0922 -0.0109  0.4432
 3048SOL     OW20776   0.320   3.063   5.176 -0.6447  0.1309  0.4382
 3048SOL    HW120777   0.282   3.150   5.169 -0.4479  0.4666  3.5339
 3048SOL    HW220778   0.243   3.006   5.179 -0.0609 -0.6781  0.1027
 3049SOL     OW20779   4.668   3.337   5.588  0.1506  0.1851  0.5387
 3049SOL    HW120780   4.624   3.260   5.550 -0.4801  0.8432 -0.0693
 3049SOL    HW220781   4.627   3.406   5.536 -0.3256 -0.7926 -0.3991
 3050SOL     OW20782   4.221   0.682   7.509 -0.1646  0.1612  0.1185
 3050SOL    HW120783   4.182   0.700   7.423 -0.2262  1.3437  0.3988
 3050SOL    HW220784   4.176   0.749   7.561  0.7078  0.9325 -0.1255
 3051SOL     OW20785   0.924   1.969   6.187  0.6836 -0.1601 -0.3615
 3051SOL    HW120786   0.888   2.031   6.124 -0.5256  1.3811  1.8485
 3051SOL    HW220787   0.952   1.892   6.137  0.0851 -0.4561 -0.2377
 3052SOL     OW20788   2.582   0.579   6.769  0.2597 -0.6178 -0.2077
 3052SOL    HW120789   2.553   0.517   6.836  0.8838 -1.0079 -0.2873
 3052SOL    HW220790   2.674   0.557   6.749  0.7827  1.2728  0.1824
 3053SOL     OW20791   0.101   4.548   4.074 -0.8690  0.6734  0.1870
 3053SOL    HW120792   0.151   4.628   4.085  2.6360 -1.4252 -0.5354
 3053SOL    HW220793   0.167   4.487   4.040  1.4221  2.7926  0.8927
 3054SOL     OW20794   2.983   0.515   1.016  0.4194  0.7408  0.3105
 3054SOL    HW120795   2.962   0.473   1.099  1.9172  0.1311  0.3896
 3054SOL    HW220796   3.007   0.437   0.965  0.0497 -0.7880  2.4610
 3055SOL     OW20797   0.654   4.656  17.747 -0.0437 -0.0984  0.0692
 3055SOL    HW120798   0.589   4.647  17.677 -0.8280  0.8120  0.6721
 3055SOL    HW220799   0.661   0.012   0.006 -1.2248 -0.0177  0.0871
 3056SOL     OW20800   2.566   1.159   1.787  0.2604 -0.1476  0.4462
 3056SOL    HW120801   2.635   1.180   1.850  1.6556 -1.3027 -0.7104
 3056SOL    HW220802   2.535   1.074   1.818 -1.0822 -0.1323 -0.7973
 3057SOL     OW20803   3.877   1.794   5.929  0.8734 -0.6729 -0.1042
 3057SOL    HW120804   3.941   1.747   5.984 -0.6571 -1.6541  0.8322
 3057SOL    HW220805   3.819   1.828   5.997 -0.2588 -0.9253 -0.9631
 3058SOL     OW20806   3.398   2.054   4.006 -0.2794 -0.2088 -0.4085
 3058SOL    HW120807   3.330   2.017   3.950  1.0223 -1.0758 -1.4163
 3058SOL    HW220808   3.469   2.066   3.942 -0.8874  0.6728 -0.9216
 3059SOL     OW20809   3.040   0.110   0.142 -0.5675  0.5867  0.3441
 3059SOL    HW120810   3.031   0.205   0.153 -3.4850  0.7131 -3.5657
 3059SOL    HW220811   3.033   0.083   0.234 -0.4693 -2.7553 -0.6302
 3060SOL     OW20812   0.515   3.556   4.378 -0.1342  0.0523 -0.3617
 3060SOL    HW120813   0.504   3.650   4.394  2.9368  0.3607  0.0796
 3060SOL    HW220814   0.442   3.518   4.425  0.2694  0.2704  0.4336
 3061SOL     OW20815   1.751   3.238   5.008  0.3624 -0.6626 -0.4630
 3061SOL    HW120816   1.692   3.204   5.075 -0.5815  0.3965 -0.7706
 3061SOL    HW220817   1.763   3.327   5.039  0.5023 -0.4455 -1.1429
 3062SOL     OW20818   0.903   1.648   3.952 -0.0893  0.4913 -0.5430
 3062SOL    HW120819   0.924   1.741   3.956  0.9787  0.1691  1.3059
 3062SOL    HW220820   0.987   1.612   3.923  0.5577  1.5068  0.0899
 3063SOL     OW20821   1.331   2.535  10.167 -0.1022 -0.0236 -0.1938
 3063SOL    HW120822   1.320   2.629  10.155  0.0126  0.3677  2.6182
 3063SOL    HW220823   1.241   2.509  10.145  0.7511  0.0255 -3.6112
 3064SOL     OW20824   0.111   2.461   1.424 -0.3250 -0.1036 -0.2978
 3064SOL    HW120825   0.016   2.463   1.419 -0.1876  0.6991 -2.2751
 3064SOL    HW220826   0.125   2.466   1.519 -0.4120 -1.7229 -0.1929
 3065SOL     OW20827   0.754   0.520  13.329 -0.3657 -0.0610 -0.3066
 3065SOL    HW120828   0.661   0.512  13.308 -0.1731 -0.7934 -0.8663
 3065SOL    HW220829   0.768   0.610  13.360 -1.0545 -1.2498  3.4425
 3066SOL     OW20830   0.864   3.009   8.674  0.1405  0.0216 -0.0096
 3066SOL    HW120831   0.881   3.099   8.647 -0.2162  0.3792  0.9846
 3066SOL    HW220832   0.842   2.961   8.594  2.4058 -1.5338  0.2951
 3067SOL     OW20833   3.495   0.418   8.715  0.4180  0.1440  0.0100
 3067SOL    HW120834   3.537   0.479   8.776  1.0016 -1.2676  1.0174
 3067SOL    HW220835   3.487   0.480   8.642  0.4352 -0.4302 -0.4798
 3068SOL     OW20836   0.455   3.174   5.848  0.1081  0.1819  0.0284
 3068SOL    HW120837   0.450   3.263   5.881 -0.9892  0.8689 -1.9547
 3068SOL    HW220838   0.464   3.187   5.753  0.4974  0.7532  0.1422
 3069SOL     OW20839   0.184   1.108   4.558  0.4233  0.7604 -0.3200
 3069SOL    HW120840   0.128   1.032   4.544  0.2636  0.5526  1.5395
 3069SOL    HW220841   0.125   1.153   4.619 -0.9689 -1.9762  0.3294
 3070SOL     OW20842   0.007   3.672   8.365  0.2066  0.1212  0.4492
 3070SOL    HW120843   4.678   3.608   8.342  0.4837  0.1171 -0.3652
 3070SOL    HW220844   4.692   3.751   8.357 -1.3902 -0.8816  1.2856
 3071SOL     OW20845   1.097   3.878   8.581 -0.0217  0.0411  0.2233
 3071SOL    HW120846   1.064   3.788   8.575 -1.5671  0.7102 -1.5493
 3071SOL    HW220847   1.172   3.870   8.639  0.2990 -1.6305 -0.4080
 3072SOL     OW20848   2.517   1.747  10.213  0.1315  0.3349  0.2497
 3072SOL    HW120849   2.585   1.693  10.173 -1.6741 -0.3351 -1.8941
 3072SOL    HW220850   2.443   1.688  10.224 -1.3604  1.7510 -2.2387
 3073SOL     OW20851   2.976   0.074   6.775 -0.0108  0.1212 -0.1461
 3073SOL    HW120852   3.004   0.038   6.859 -0.0816 -1.4443 -0.8113
 3073SOL    HW220853   2.979   0.168   6.796  0.3433  0.0363  0.1843
 3074SOL     OW20854   4.585   0.267   7.114 -0.8652  0.2853  0.3215
 3074SOL    HW120855   4.647   0.261   7.186 -0.2324  1.1713 -0.1537
 3074SOL    HW220856   4.575   0.174   7.092  1.0352  0.4190 -1.0991
 3075SOL     OW20857   3.005   0.998  12.476 -0.9783 -0.5492 -0.0293
 3075SOL    HW120858   2.968   0.911  12.462 -0.9421 -0.6596  0.5380
 3075SOL    HW220859   3.013   1.004  12.571 -4.0210  1.1869  0.1013
 3076SOL     OW20860   3.007   0.526   9.154  0.3550 -0.2668 -0.7496
 3076SOL    HW120861   3.010   0.515   9.059 -1.3342  0.0887 -0.8480
 3076SOL    HW220862   2.958   0.451   9.188 -1.0447  0.3247 -1.4756
 3077SOL     OW20863   4.331   1.675   9.732  0.5917  0.3242  0.0371
 3077SOL    HW120864   4.345   1.706   9.821  2.5268  1.8473 -0.7898
 3077SOL    HW220865   4.278   1.743   9.690  1.1682  0.8350  0.1496
 3078SOL     OW20866   1.704   0.616   7.127  0.0864  0.1059  0.5469
 3078SOL    HW120867   1.696   0.689   7.065  0.9669  0.2976  0.6594
 3078SOL    HW220868   1.642   0.553   7.091  0.5112 -0.6979  1.2237
 3079SOL     OW20869   2.442   2.680   2.022 -0.2089 -0.1588  0.0079
 3079SOL    HW120870   2.501   2.726   1.963 -1.6308  1.2473 -0.3186
 3079SOL    HW220871   2.398   2.617   1.964 -0.4185 -1.0831  1.1747
 3080SOL     OW20872   3.716   1.909  11.581 -0.1972 -0.8591 -0.0150
 3080SOL    HW120873   3.761   1.988  11.550 -1.7265  0.5309  1.3007
 3080SOL    HW220874   3.670   1.945  11.656 -1.2824 -0.6201 -0.7937
 3081SOL     OW20875   1.382   1.016   8.055 -0.0764 -0.4997 -0.4482
 3081SOL    HW120876   1.374   1.093   8.112 -2.5061 -1.9109  1.1020
 3081SOL    HW220877   1.387   0.942   8.115 -0.3304 -1.6764 -1.8905
 3082SOL     OW20878   2.819   0.406   3.124  0.2763 -0.1129  0.0758
 3082SOL    HW120879   2.892   0.345   3.111 -0.4843 -1.2599  1.2833
 3082SOL    HW220880   2.767   0.348   3.069 -0.4929 -0.3876  1.1014
 3083SOL     OW20881   1.947   0.910   2.021  0.2783  0.3401  0.9552
 3083SOL    HW120882   1.882   0.868   2.078  2.1945 -2.8043  0.7875
 3083SOL    HW220883   1.887   0.926   1.948 -0.8350  0.8718  1.9756
 3084SOL     OW20884   3.143   2.911   0.558 -0.7175  0.0838 -0.7509
 3084SOL    HW120885   3.069   2.896   0.617 -0.3197  0.0011 -0.2634
 3084SOL    HW220886   3.137   2.842   0.493  1.3622 -0.1009 -0.7406
 3085SOL     OW20887   4.264   4.061   6.565  0.5612 -0.4219  0.4328
 3085SOL    HW120888   4.339   4.094   6.515  0.4849 -1.0548 -0.0992
 3085SOL    HW220889   4.191   4.112   6.531  0.9062 -0.4777 -0.4063
 3086SOL     OW20890   1.301   0.685  10.486 -0.0180 -0.4973 -0.9302
 3086SOL    HW120891   1.314   0.759  10.427  0.5326  1.0165  1.0777
 3086SOL    HW220892   1.344   0.618  10.433 -0.0841 -1.1982 -0.1061
 3087SOL     OW20893   0.110   1.744   7.416  0.1433 -0.3563 -0.2963
 3087SOL    HW120894   0.152   1.768   7.499  1.1586  0.8080 -1.1515
 3087SOL    HW220895   0.168   1.780   7.349 -0.0196 -0.3176 -0.4166
 3088SOL     OW20896   2.869   0.476  15.459 -0.4076 -0.8763  0.7226
 3088SOL    HW120897   2.807   0.442  15.394  0.3735 -0.7707 -0.0834
 3088SOL    HW220898   2.946   0.424  15.435  1.3011  1.2884  1.4235
 3089SOL     OW20899   2.856   3.301   8.865 -0.5712  0.5466 -0.4880
 3089SOL    HW120900   2.942   3.259   8.860  0.0776  1.7968  0.1529
 3089SOL    HW220901   2.863   3.386   8.822  1.4495 -0.5170 -2.2468
 3090SOL     OW20902   4.216   1.928  14.659 -0.0337 -0.2013  0.2415
 3090SOL    HW120903   4.260   1.882  14.730 -1.1054 -0.0469  0.9905
 3090SOL    HW220904   4.287   1.973  14.614 -0.4879 -1.0242 -1.3068
 3091SOL     OW20905   0.595   2.735   3.833 -0.1324  0.0608 -0.4089
 3091SOL    HW120906   0.504   2.740   3.863 -0.3285 -1.0712 -0.8136
 3091SOL    HW220907   0.582   2.711   3.741  0.6702  0.1548 -0.5452
 3092SOL     OW20908   0.388   3.958   7.526 -0.5820 -0.1983  0.8285
 3092SOL    HW120909   0.433   4.035   7.561  0.4917  0.6923 -2.4789
 3092SOL    HW220910   0.389   3.980   7.432 -0.6440  1.5462  1.2306
 3093SOL     OW20911   2.705   0.792   3.606  0.1264 -0.5511 -0.1187
 3093SOL    HW120912   2.741   0.825   3.524 -0.7482 -0.9493 -0.6623
 3093SOL    HW220913   2.753   0.853   3.662  2.1894 -2.6041  0.3501
 3094SOL     OW20914   0.431   1.589  17.624  0.5562 -0.3991 -0.0649
 3094SOL    HW120915   0.505   1.642  17.595 -1.4657  1.2289 -2.2756
 3094SOL    HW220916   0.401   1.561  17.537 -0.9482  0.3157  0.2285
 3095SOL     OW20917   3.763   2.312   5.483 -0.3610 -0.5784  0.3994
 3095SOL    HW120918   3.842   2.337   5.436 -1.3226  2.3226  0.2865
 3095SOL    HW220919   3.737   2.403   5.497 -2.7901 -0.9338 -1.7784
 3096SOL     OW20920   4.276   2.352  12.527 -0.8477  0.1290 -0.1752
 3096SOL    HW120921   4.280   2.299  12.606 -0.0965  0.1743 -0.1867
 3096SOL    HW220922   4.187   2.329  12.500 -0.7790  1.1476 -1.2810
 3097SOL     OW20923   0.273   4.048  11.900 -0.4509 -0.5795  0.1689
 3097SOL    HW120924   0.307   4.075  11.985 -1.9742  0.2399  0.5176
 3097SOL    HW220925   0.275   3.952  11.903  0.4003 -0.5562  0.3370
 3098SOL     OW20926   0.497   4.503   8.994  0.5411 -0.3194 -0.3408
 3098SOL    HW120927   0.565   4.437   8.982  0.4639  0.0656 -2.8860
 3098SOL    HW220928   0.446   4.493   8.913  1.0232  0.7914 -0.7921
 3099SOL     OW20929   0.603   2.344   2.209  0.1320 -0.1523  0.0771
 3099SOL    HW120930   0.537   2.335   2.141  0.2346 -1.6298  0.1643
 3099SOL    HW220931   0.610   2.255   2.245 -1.8972 -0.6877 -0.8344
 3100SOL     OW20932   1.229   1.436   9.042  0.1395 -0.6163 -0.1621
 3100SOL    HW120933   1.208   1.527   9.067  0.8241 -0.7197  0.8085
 3100SOL    HW220934   1.317   1.429   9.080  1.3539  2.8854 -2.2114
 3101SOL     OW20935   4.079   2.673   2.618  0.5251 -0.2402 -0.1040
 3101SOL    HW120936   4.157   2.625   2.643 -0.0125  0.5156  2.9675
 3101SOL    HW220937   4.017   2.601   2.607 -1.3829  1.4451 -0.5324
 3102SOL     OW20938   1.704   1.671   1.629  0.7639  0.3433 -0.5940
 3102SOL    HW120939   1.609   1.663   1.628  1.0132 -2.9091  1.8196
 3102SOL    HW220940   1.730   1.675   1.721  0.6722 -0.4966 -0.5301
 3103SOL     OW20941   3.470   3.787   4.310  0.0274  0.0170  0.0636
 3103SOL    HW120942   3.451   3.699   4.342  0.0065 -0.8580 -2.3066
 3103SOL    HW220943   3.382   3.820   4.292 -1.2400 -2.4610  1.7974
 3104SOL     OW20944   4.232   4.372  16.095  0.4121 -0.0310  0.3564
 3104SOL    HW120945   4.193   4.431  16.160  0.7058  0.3422  0.1953
 3104SOL    HW220946   4.192   4.404  16.014 -0.2672  0.1595  0.7734
 3105SOL     OW20947   2.016   1.209   4.421  0.4710 -0.1485 -0.2841
 3105SOL    HW120948   1.977   1.163   4.495 -1.5125  2.4680  0.3061
 3105SOL    HW220949   2.100   1.168   4.438  0.2745 -0.3432  0.1976
 3106SOL     OW20950   1.967   3.211   4.865 -0.1475 -0.1638  0.0186
 3106SOL    HW120951   2.025   3.155   4.917  0.0467  1.3803  1.4598
 3106SOL    HW220952   1.894   3.237   4.920  0.5868 -2.1378  1.9082
 3107SOL     OW20953   3.862   0.276  12.807  0.1656  0.8108 -0.4553
 3107SOL    HW120954   3.932   0.324  12.852 -1.2610  1.0715  1.4510
 3107SOL    HW220955   3.876   0.184  12.832 -0.1781  0.6669 -0.8016
 3108SOL     OW20956   3.341   3.219   5.359 -0.5506 -0.8168 -0.0028
 3108SOL    HW120957   3.434   3.243   5.355 -0.3692 -1.7799 -1.4639
 3108SOL    HW220958   3.312   3.302   5.320 -0.4013 -0.2947  0.9901
 3109SOL     OW20959   0.663   2.589   9.139 -0.1771 -0.2773  0.2729
 3109SOL    HW120960   0.689   2.655   9.074 -0.7104 -0.5662 -0.2286
 3109SOL    HW220961   0.693   2.639   9.215 -0.7328 -0.2370  0.4661
 3110SOL     OW20962   0.301   2.695   3.168 -0.4356  0.2390 -0.2813
 3110SOL    HW120963   0.209   2.675   3.151 -0.3468 -0.0055 -0.4917
 3110SOL    HW220964   0.294   2.704   3.263  3.7724  3.1638 -0.2722
 3111SOL     OW20965   0.489   0.608  10.182  0.6396  0.3064  0.0848
 3111SOL    HW120966   0.516   0.590  10.092 -0.9059  0.8134 -0.4645
 3111SOL    HW220967   0.467   0.700  10.168 -1.5566 -0.2603 -0.1434
 3112SOL     OW20968   2.701   3.507   9.441 -0.3575  0.2496 -0.3367
 3112SOL    HW120969   2.728   3.594   9.411 -1.9188  0.5579 -0.8451
 3112SOL    HW220970   2.631   3.525   9.504 -0.0235 -0.8014  0.3351
 3113SOL     OW20971   0.221   0.747   1.626 -0.2811 -0.2034 -0.3288
 3113SOL    HW120972   0.158   0.715   1.561 -0.7501 -3.4984  1.7476
 3113SOL    HW220973   0.209   0.679   1.691  0.1151 -0.5502 -0.6204
 3114SOL     OW20974   2.731   4.131   4.667  0.1019 -0.1652  0.2679
 3114SOL    HW120975   2.792   4.080   4.721 -1.3309 -1.2881  0.8223
 3114SOL    HW220976   2.661   4.067   4.652 -0.8700  1.1081 -0.6576
 3115SOL     OW20977   3.953   3.614   8.415  0.8519  0.0343 -0.0489
 3115SOL    HW120978   3.923   3.526   8.433  3.2592 -1.4562 -3.2127
 3115SOL    HW220979   3.969   3.614   8.320  2.3019 -0.3885  0.1924
 3116SOL     OW20980   1.883   1.812   0.479 -0.3546 -0.1465  0.5153
 3116SOL    HW120981   1.964   1.863   0.485 -0.1357 -0.3694 -0.4972
 3116SOL    HW220982   1.916   1.722   0.471  0.3572  0.2494 -1.0185
 3117SOL     OW20983   0.372   2.711   6.353 -0.1552 -0.2538  0.3322
 3117SOL    HW120984   0.315   2.785   6.375  0.6181  0.3001  0.4835
 3117SOL    HW220985   0.434   2.714   6.425 -0.4596 -1.1824  0.6307
 3118SOL     OW20986   3.227   0.383   0.899 -0.1472 -0.1675 -0.1756
 3118SOL    HW120987   3.199   0.332   0.822 -2.7224 -0.9075  1.2532
 3118SOL    HW220988   3.264   0.317   0.958  0.4698  1.3822  1.1590
 3119SOL     OW20989   0.425   4.224   9.553  0.2629 -0.4956 -0.2985
 3119SOL    HW120990   0.459   4.230   9.464  0.2610  1.9419 -0.1339
 3119SOL    HW220991   0.492   4.175   9.601  1.9506 -0.0468 -2.2262
 3120SOL     OW20992   3.315   3.178  11.349 -0.9101  0.0773 -0.2501
 3120SOL    HW120993   3.284   3.258  11.306  0.6945 -0.2986 -2.0894
 3120SOL    HW220994   3.390   3.214  11.396 -1.2443 -0.9591  1.0889
 3121SOL     OW20995   0.724   2.957  12.942  0.3190 -0.7009 -0.0200
 3121SOL    HW120996   0.702   3.046  12.915  0.7087 -1.2974 -2.3714
 3121SOL    HW220997   0.729   2.905  12.861  0.5428 -2.4222  1.1042
 3122SOL     OW20998   4.451   1.475  10.989  0.2664 -0.4971  0.6053
 3122SOL    HW120999   4.474   1.542  11.053  2.5411  0.4753 -1.2177
 3122SOL    HW221000   4.496   1.398  11.023 -0.0718 -2.1160 -2.5513
 3123SOL     OW21001   4.599   1.197   0.842  0.0716  0.5736  0.8555
 3123SOL    HW121002   4.577   1.288   0.819 -0.3556  0.2626  0.0265
 3123SOL    HW221003   4.580   1.198   0.936 -0.5015 -0.6635  0.7510
 3124SOL     OW21004   2.580   0.082   5.167  0.4396 -0.4287  0.2505
 3124SOL    HW121005   2.567   0.148   5.099  3.4878 -0.5883 -0.4932
 3124SOL    HW221006   2.674   0.066   5.158  1.0116  2.9161  0.4694
 3125SOL     OW21007   4.538   2.402  15.224 -0.0114  0.9181  0.1260
 3125SOL    HW121008   4.598   2.471  15.252  1.6545 -1.0300  1.3075
 3125SOL    HW221009   4.604   2.336  15.204  2.5889  3.1528  1.2468
 3126SOL     OW21010   3.991   3.158   9.754 -0.8732  0.8174  0.1287
 3126SOL    HW121011   4.026   3.097   9.819 -0.3924 -0.7529 -1.5794
 3126SOL    HW221012   4.060   3.223   9.761  1.5116 -1.6441 -0.1593
 3127SOL     OW21013   1.468   3.322   9.459  0.3912 -0.0117  0.3742
 3127SOL    HW121014   1.527   3.346   9.387 -1.2881  2.3788 -0.2236
 3127SOL    HW221015   1.491   3.375   9.535 -1.2323  0.2112  0.6945
 3128SOL     OW21016   1.262   4.208   9.879 -0.3496  0.5626 -0.6341
 3128SOL    HW121017   1.204   4.228   9.806 -0.4327  0.4532 -0.5990
 3128SOL    HW221018   1.337   4.178   9.829 -1.7574 -1.0689 -1.7760
 3129SOL     OW21019   0.976   4.306   3.762 -0.1324  0.1885 -0.2135
 3129SOL    HW121020   0.899   4.356   3.738 -0.1288 -0.3665 -1.3449
 3129SOL    HW221021   1.006   4.276   3.677 -0.7598 -0.1035 -0.3305
 3130SOL     OW21022   3.132   1.339   5.186  0.3071 -0.2982  0.4644
 3130SOL    HW121023   3.224   1.357   5.204  0.2827  0.2921  0.0036
 3130SOL    HW221024   3.099   1.319   5.274  1.3418 -0.7763  0.7468
 3131SOL     OW21025   3.952   0.578   4.752 -0.0854 -0.7949  0.0965
 3131SOL    HW121026   3.870   0.560   4.705 -0.6859 -0.4236  0.9913
 3131SOL    HW221027   3.987   0.649   4.698 -3.6988  0.9163 -0.0097
 3132SOL     OW21028   3.085   4.217   6.127  0.1369  0.3342  0.2703
 3132SOL    HW121029   3.056   4.269   6.052  1.9400 -0.1950 -0.8052
 3132SOL    HW221030   3.007   4.171   6.155  1.0836 -2.0881 -1.1047
 3133SOL     OW21031   1.269   0.949   8.908  0.6529  0.1045  0.1192
 3133SOL    HW121032   1.249   1.029   8.957  0.2747 -0.4389  0.8512
 3133SOL    HW221033   1.219   0.887   8.961 -1.6171 -0.0067 -2.1371
 3134SOL     OW21034   1.709   1.155  10.723  0.0975 -0.4689  0.2567
 3134SOL    HW121035   1.716   1.220  10.653  1.3458  0.1400  0.9288
 3134SOL    HW221036   1.681   1.219  10.789  2.1520  1.6447 -0.9186
 3135SOL     OW21037   3.403   1.811   0.155 -0.2647  0.2683 -0.3573
 3135SOL    HW121038   3.399   1.897   0.111 -1.7627  0.1547 -0.4643
 3135SOL    HW221039   3.399   1.755   0.078  1.5883 -1.0715  0.5365
 3136SOL     OW21040   4.271   2.648   5.241  0.5667 -0.3313  0.4777
 3136SOL    HW121041   4.194   2.679   5.289 -0.2347  0.0504 -1.0434
 3136SOL    HW221042   4.245   2.558   5.223  1.1108 -0.4346  0.2074
 3137SOL     OW21043   3.217   1.544   2.755  0.0265 -0.0061 -0.1993
 3137SOL    HW121044   3.180   1.481   2.817 -1.4241  0.2336 -0.8287
 3137SOL    HW221045   3.279   1.490   2.706 -1.1228 -1.7944  0.3045
 3138SOL     OW21046   3.452   2.235   8.760  0.3929 -0.2314 -0.2407
 3138SOL    HW121047   3.419   2.152   8.727 -1.5904 -0.5931  2.6141
 3138SOL    HW221048   3.546   2.228   8.741  0.8357 -1.1391  2.2592
 3139SOL     OW21049   4.132   2.920   6.893  0.0344  0.0869  0.7464
 3139SOL    HW121050   4.195   2.987   6.921  1.4923 -1.5561  1.3975
 3139SOL    HW221051   4.164   2.849   6.949  1.1810  0.6509  0.8164
 3140SOL     OW21052   0.344   1.173  17.003  0.0108 -0.2292 -0.0577
 3140SOL    HW121053   0.293   1.189  16.924  1.2650 -1.6157 -1.1556
 3140SOL    HW221054   0.394   1.097  16.973  0.1852  0.0191 -0.3918
 3141SOL     OW21055   4.358   1.514   4.819  0.4328 -0.0811  0.0096
 3141SOL    HW121056   4.312   1.566   4.753 -1.7202 -0.9181  0.8636
 3141SOL    HW221057   4.379   1.582   4.883 -0.0100  1.4713 -1.5100
 3142SOL     OW21058   2.733   0.404   3.729  0.3692  0.3843 -0.1163
 3142SOL    HW121059   2.729   0.381   3.636 -0.6420 -3.8871  0.9989
 3142SOL    HW221060   2.756   0.320   3.770 -0.9298  0.5212  0.9185
 3143SOL     OW21061   0.255   3.470   4.504 -0.4295  0.3593  0.8647
 3143SOL    HW121062   0.252   3.565   4.490  0.1203  0.5746  2.1899
 3143SOL    HW221063   0.179   3.448   4.450  1.4973 -1.4747 -1.0785
 3144SOL     OW21064   1.272   0.448  16.197  0.4741  0.2870 -0.8449
 3144SOL    HW121065   1.348   0.391  16.207 -0.5395 -0.6893  1.1063
 3144SOL    HW221066   1.230   0.408  16.120 -0.7907  1.3638 -0.7129
 3145SOL     OW21067   0.138   4.241   5.669 -0.1671  0.1822 -0.4458
 3145SOL    HW121068   0.103   4.153   5.680 -0.4033  0.5605  1.7100
 3145SOL    HW221069   0.222   4.243   5.715 -1.0245  0.4651  1.0972
 3146SOL     OW21070   3.289   0.586   2.189  0.0128 -0.2020 -0.0864
 3146SOL    HW121071   3.199   0.600   2.218 -0.3286 -0.7905 -0.8574
 3146SOL    HW221072   3.310   0.505   2.235  0.0794  0.3882  0.9060
 3147SOL     OW21073   3.829   2.121   4.031  0.4182  0.1374 -0.1701
 3147SOL    HW121074   3.773   2.102   3.955  0.6533  1.7934 -0.7559
 3147SOL    HW221075   3.752   2.139   4.085  0.7255 -1.7441  0.8911
 3148SOL     OW21076   3.267   1.961   3.634 -0.5608  0.2110  0.1244
 3148SOL    HW121077   3.228   1.995   3.714 -0.0087  1.1566 -0.0100
 3148SOL    HW221078   3.311   1.879   3.658  0.6313  0.5312 -0.9523
 3149SOL     OW21079   0.111   2.083   6.046 -0.1716 -0.1702 -0.0525
 3149SOL    HW121080   0.084   2.003   6.001  0.7751 -0.2544 -0.4689
 3149SOL    HW221081   0.029   2.121   6.077  1.3988  2.3758  1.0025
 3150SOL     OW21082   1.538   3.166   5.168 -0.7747  0.0634  0.1565
 3150SOL    HW121083   1.508   3.252   5.198  0.6033 -0.3656  2.7101
 3150SOL    HW221084   1.454   3.120   5.166 -0.7382 -0.0734  1.7936
 3151SOL     OW21085   4.188   2.521   4.840 -0.3863 -0.0561 -0.0854
 3151SOL    HW121086   4.151   2.606   4.814 -0.0212 -1.0812 -3.9193
 3151SOL    HW221087   4.282   2.541   4.832 -0.5388  0.9754  0.6672
 3152SOL     OW21088   0.046   0.484   2.520 -0.0119  0.0514 -0.8250
 3152SOL    HW121089   4.711   0.436   2.481 -2.0956  3.1593 -0.6855
 3152SOL    HW221090   0.114   0.481   2.452 -1.2182 -0.4081 -2.0261
 3153SOL     OW21091   1.717   3.790   4.966 -0.2735  0.3251 -0.3806
 3153SOL    HW121092   1.794   3.838   4.935  0.1493 -0.2624 -0.2445
 3153SOL    HW221093   1.668   3.859   5.010 -1.5490  1.2925 -3.2926
 3154SOL     OW21094   1.061   3.121  11.020 -0.2936 -0.4428  0.2400
 3154SOL    HW121095   1.071   3.153  11.110  1.4836 -0.2319 -0.0232
 3154SOL    HW221096   1.073   3.029  11.045 -0.2424  0.5763  4.0190
 3155SOL     OW21097   3.654   4.705   5.558  0.2586 -0.2538  0.2766
 3155SOL    HW121098   3.652   0.035   5.491 -2.1983  1.1864  1.8328
 3155SOL    HW221099   3.584   4.728   5.618 -1.1951  0.8587 -1.8549
 3156SOL     OW21100   3.428   0.974   5.049 -0.1551 -0.5299 -0.3176
 3156SOL    HW121101   3.348   0.940   5.008 -1.5965  1.5081  0.8145
 3156SOL    HW221102   3.481   0.894   5.043  0.5371 -0.0236 -0.8622
 3157SOL     OW21103   2.215   3.922   8.080  0.0972  0.1137 -0.5409
 3157SOL    HW121104   2.126   3.917   8.114  0.9401  0.2308  1.7064
 3157SOL    HW221105   2.241   3.831   8.064  1.1610  1.0332 -4.0956
 3158SOL     OW21106   0.609   3.942   1.850 -0.3990  0.6263 -0.3027
 3158SOL    HW121107   0.562   3.966   1.930 -0.1716 -1.2096  0.3956
 3158SOL    HW221108   0.556   3.986   1.784 -0.3511  1.0307 -0.0735
 3159SOL     OW21109   0.068   3.343   2.923  0.0155  0.5993 -0.0877
 3159SOL    HW121110   0.082   3.260   2.879 -1.3212  0.2100  0.2206
 3159SOL    HW221111   0.057   3.312   3.013 -1.4737  0.3187 -0.3679
 3160SOL     OW21112   2.072   0.703  14.738 -0.4611  0.3063 -0.2438
 3160SOL    HW121113   1.993   0.756  14.736 -0.6153  0.1299  1.2848
 3160SOL    HW221114   2.079   0.669  14.648  1.4857 -1.5349  0.5873
 3161SOL     OW21115   4.711   3.043  14.785 -0.5887 -0.0721 -0.2046
 3161SOL    HW121116   4.643   3.097  14.745  0.0576  2.3619  2.0286
 3161SOL    HW221117   0.034   3.051  14.712  1.4376 -2.2799  1.2472
 3162SOL     OW21118   1.559   2.177   7.657  0.3515  0.0234 -0.4533
 3162SOL    HW121119   1.503   2.255   7.661 -3.5955 -2.8236 -0.8362
 3162SOL    HW221120   1.564   2.154   7.750 -1.1034 -1.5451 -0.7749
 3163SOL     OW21121   0.059   1.598  10.726  0.7092  0.3070  0.1080
 3163SOL    HW121122   0.031   1.684  10.696 -0.3222 -0.3519 -0.7885
 3163SOL    HW221123   4.715   1.553  10.742  2.2386 -2.7341 -0.6379
 3164SOL     OW21124   0.093   3.271   2.416  0.5618  0.3214  0.0859
 3164SOL    HW121125   0.001   3.298   2.418  0.9685  1.8672 -1.4528
 3164SOL    HW221126   0.104   3.217   2.338  0.1912  0.8484 -0.3344
 3165SOL     OW21127   2.166   1.172  12.979 -0.2463 -0.3307 -0.1624
 3165SOL    HW121128   2.227   1.105  12.948 -0.5461 -0.4691 -0.4502
 3165SOL    HW221129   2.108   1.119  13.033 -0.8666  0.8231  0.2993
 3166SOL     OW21130   4.605   1.332   3.834  0.1791 -0.0610 -1.1370
 3166SOL    HW121131   4.546   1.322   3.908  0.9840 -2.1927 -0.7789
 3166SOL    HW221132   4.644   1.245   3.829 -0.2785 -0.2392 -1.5835
 3167SOL     OW21133   1.147   0.444  10.629 -0.2169 -0.2853  0.0441
 3167SOL    HW121134   1.177   0.526  10.590  1.7283 -0.6879  0.6531
 3167SOL    HW221135   1.131   0.472  10.720 -0.9475 -1.5258  0.2959
 3168SOL     OW21136   0.964   2.918   3.073 -0.6402 -0.1216  0.5483
 3168SOL    HW121137   1.049   2.931   3.116 -0.9513  3.1296  0.1778
 3168SOL    HW221138   0.905   2.965   3.132 -1.2490 -1.1399  0.7346
 3169SOL     OW21139   0.059   1.405   2.308 -0.0838 -0.3877 -0.2454
 3169SOL    HW121140   0.035   1.497   2.314  0.3451 -0.3274  0.5876
 3169SOL    HW221141   0.089   1.397   2.399 -0.3266 -0.6899 -0.1917
 3170SOL     OW21142   3.859   0.561   4.181 -0.1985 -0.2914 -0.0177
 3170SOL    HW121143   3.914   0.504   4.236  0.6994  0.9214  0.3439
 3170SOL    HW221144   3.921   0.596   4.117 -0.3647 -1.6761 -0.9376
 3171SOL     OW21145   0.187   4.269  14.071  0.4715  0.1040  0.2668
 3171SOL    HW121146   0.091   4.273  14.068  0.4433 -3.1076 -2.2443
 3171SOL    HW221147   0.204   4.259  13.978 -1.0915  1.2664 -0.1484
 3172SOL     OW21148   3.054   3.516  15.434 -0.6053  0.0668  0.7143
 3172SOL    HW121149   3.069   3.421  15.434 -1.7109 -0.1142  1.6757
 3172SOL    HW221150   3.102   3.549  15.358 -0.9703 -3.4051 -1.0277
 3173SOL     OW21151   3.145   3.455   8.007 -0.1151  0.2844 -0.1049
 3173SOL    HW121152   3.151   3.467   7.912  1.7674 -0.4303 -0.0770
 3173SOL    HW221153   3.066   3.401   8.004  0.9209 -1.2905  1.3170
 3174SOL     OW21154   0.202   1.129   6.198  0.3387 -0.5266 -0.4736
 3174SOL    HW121155   0.242   1.124   6.111  1.1887 -1.0838 -0.0518
 3174SOL    HW221156   0.124   1.181   6.183  1.0414  0.6494 -0.0841
 3175SOL     OW21157   0.365   3.060  10.000 -0.1466  0.4068 -0.2815
 3175SOL    HW121158   0.305   2.987  10.017  1.6690 -1.1123 -0.4951
 3175SOL    HW221159   0.302   3.129   9.976 -0.3712  0.6188  0.8793
 3176SOL     OW21160   2.831   3.143  12.179 -0.3783 -0.5179  0.1014
 3176SOL    HW121161   2.868   3.199  12.111 -1.7828 -0.2135 -0.4064
 3176SOL    HW221162   2.876   3.172  12.258 -2.0859 -0.0194  0.8801
 3177SOL     OW21163   2.501   1.537   5.005  0.1392  0.2923  0.0585
 3177SOL    HW121164   2.508   1.473   5.076 -2.0694 -1.1804 -1.0691
 3177SOL    HW221165   2.419   1.507   4.966 -1.1511  2.4935  1.0766
 3178SOL     OW21166   4.037   3.734   9.081  0.3903  0.0502 -0.6680
 3178SOL    HW121167   3.952   3.777   9.067 -0.5127 -1.2387  0.8318
 3178SOL    HW221168   4.068   3.802   9.140  0.5491  0.5729 -1.3441
 3179SOL     OW21169   1.581   1.542  14.434  0.4191 -0.2390 -0.3200
 3179SOL    HW121170   1.665   1.574  14.466 -0.0657 -0.4063  1.1269
 3179SOL    HW221171   1.548   1.504  14.515 -0.6772 -2.8059 -1.9735
 3180SOL     OW21172   1.078   3.465  12.909  0.7276  0.1350  0.8673
 3180SOL    HW121173   1.131   3.392  12.877  0.0652  1.5373 -3.4294
 3180SOL    HW221174   1.007   3.465  12.846 -0.6407 -0.4812  2.4120
 3181SOL     OW21175   0.145   4.067   2.307  0.2885 -0.2970  0.6259
 3181SOL    HW121176   0.185   4.096   2.225  1.0389 -0.0158  1.0937
 3181SOL    HW221177   0.067   4.123   2.303  0.1942 -0.3615  1.6301
 3182SOL     OW21178   2.245   0.462   5.452  0.8858  0.6352  0.1176
 3182SOL    HW121179   2.183   0.516   5.401  1.2652  2.6914  1.8345
 3182SOL    HW221180   2.299   0.420   5.385  0.9738  1.1309 -0.1275
 3183SOL     OW21181   0.485   2.945   1.216 -0.1525  0.1992 -0.0069
 3183SOL    HW121182   0.486   3.033   1.253  1.2098 -0.6024  1.8793
 3183SOL    HW221183   0.447   2.971   1.132 -0.1405  1.3708  0.3539
 3184SOL     OW21184   2.078   0.374   4.123  0.1347 -0.4220  0.0825
 3184SOL    HW121185   2.133   0.307   4.083 -0.1070 -0.5253 -0.0761
 3184SOL    HW221186   2.148   0.440   4.122  0.0460 -0.3178  0.7649
 3185SOL     OW21187   4.265   4.156  16.253 -0.1476 -0.5559 -0.6688
 3185SOL    HW121188   4.269   4.236  16.200 -0.2580  0.5968  1.0516
 3185SOL    HW221189   4.356   4.126  16.244  0.7302  1.8178  0.1252
 3186SOL     OW21190   1.238   3.980   6.783  0.4914 -0.0890 -0.0173
 3186SOL    HW121191   1.332   3.981   6.799  0.5685  2.3560 -0.5195
 3186SOL    HW221192   1.210   4.069   6.807  1.0476 -0.4355  1.8839
 3187SOL     OW21193   1.361   2.939   7.871  0.3901 -0.1948  0.0311
 3187SOL    HW121194   1.398   2.863   7.916  0.6049  0.0384  0.2493
 3187SOL    HW221195   1.434   3.001   7.874  1.1335 -0.9992 -1.2950
 3188SOL     OW21196   0.424   0.298   4.257  0.0350 -0.3296  0.4346
 3188SOL    HW121197   0.377   0.229   4.303  0.7033 -0.5249  0.8224
 3188SOL    HW221198   0.356   0.364   4.239  0.3939  1.2476  4.6681
 3189SOL     OW21199   2.827   4.204  11.766  0.2196  0.2783  0.5979
 3189SOL    HW121200   2.751   4.256  11.792 -0.2969  0.7096 -1.8058
 3189SOL    HW221201   2.807   4.201  11.673 -0.8168 -0.2862  0.8330
 3190SOL     OW21202   1.531   2.492   5.037 -0.1880  0.4167 -0.0172
 3190SOL    HW121203   1.441   2.494   5.072 -0.5907  0.2083 -1.0490
 3190SOL    HW221204   1.582   2.492   5.118 -1.5077 -0.5271  0.8152
 3191SOL     OW21205   1.570   0.232   4.350  0.6297  0.2374 -0.1550
 3191SOL    HW121206   1.592   0.171   4.420  0.6100 -0.8228 -1.0674
 3191SOL    HW221207   1.648   0.240   4.296  0.7573  2.1132  0.3052
 3192SOL     OW21208   2.697   2.874   4.621 -0.6845  0.4161 -0.3087
 3192SOL    HW121209   2.790   2.858   4.638 -0.7991 -3.8014 -3.7171
 3192SOL    HW221210   2.665   2.880   4.711  1.2982 -1.5172  0.5374
 3193SOL     OW21211   4.656   3.799   0.607  0.9829  0.1376 -0.1272
 3193SOL    HW121212   4.651   3.875   0.665  1.9832 -1.4319  2.0367
 3193SOL    HW221213   4.730   3.830   0.555 -0.7282  2.3512 -1.2157
 3194SOL     OW21214   1.815   0.145   9.229  0.0476  0.2245 -0.3354
 3194SOL    HW121215   1.871   0.199   9.173 -0.2879  0.2000 -0.6977
 3194SOL    HW221216   1.879   0.077   9.249 -0.5042  0.3811  1.9710
 3195SOL     OW21217   0.741   0.051  14.256 -0.3342 -0.3895  0.2047
 3195SOL    HW121218   0.680   0.111  14.298  0.8654  1.0917 -0.1672
 3195SOL    HW221219   0.731   0.085  14.166 -0.6489 -2.5435 -0.5701
 3196SOL     OW21220   0.518   4.493   7.907 -0.0781 -0.3254 -0.2321
 3196SOL    HW121221   0.433   4.511   7.868 -1.3557 -1.4012  2.0387
 3196SOL    HW221222   0.541   4.579   7.943  0.2324 -0.2879 -0.5191
 3197SOL     OW21223   0.747   1.532  10.105 -0.2731 -0.3924  0.0331
 3197SOL    HW121224   0.704   1.608  10.065 -0.7781  0.0089  1.3345
 3197SOL    HW221225   0.730   1.542  10.199 -0.4473 -0.0825 -0.0340
 3198SOL     OW21226   1.879   3.067   8.105  0.2220  0.1757  0.2428
 3198SOL    HW121227   1.944   3.040   8.040  1.5033  0.4636  1.3785
 3198SOL    HW221228   1.854   3.154   8.074 -2.0688  0.6533  3.4343
 3199SOL     OW21229   2.995   4.440  11.777 -0.3138 -0.0308 -0.3932
 3199SOL    HW121230   2.999   4.496  11.854  1.0467 -1.1778  0.3695
 3199SOL    HW221231   2.901   4.425  11.765 -0.3847 -0.4362  0.6988
 3200SOL     OW21232   2.722   2.004   8.422 -0.1337  0.0290  0.3873
 3200SOL    HW121233   2.645   2.052   8.453  0.9800  1.2420  1.2818
 3200SOL    HW221234   2.781   2.019   8.495 -0.8973  0.4719  0.9099
 3201SOL     OW21235   2.680   1.590   3.874 -0.2738  0.0038  0.8198
 3201SOL    HW121236   2.673   1.508   3.922 -0.1604 -0.6645 -0.3103
 3201SOL    HW221237   2.775   1.591   3.861 -0.7214  0.2142 -2.3594
 3202SOL     OW21238   2.999   1.182   7.800  0.1907 -0.4203  0.3376
 3202SOL    HW121239   3.049   1.231   7.865  3.5863 -3.1561 -0.2046
 3202SOL    HW221240   3.066   1.187   7.732  0.2174 -1.4262  0.2844
 3203SOL     OW21241   1.758   0.205   7.032 -0.2949  0.1848  0.0420
 3203SOL    HW121242   1.704   0.272   6.990 -1.9127 -1.1770 -0.0613
 3203SOL    HW221243   1.843   0.247   7.017 -0.1815 -0.1357 -0.2108
 3204SOL     OW21244   0.618   1.315   8.829 -0.6707 -0.2469  0.1543
 3204SOL    HW121245   0.534   1.273   8.846 -0.4342 -1.1778 -0.9830
 3204SOL    HW221246   0.599   1.396   8.877  0.3738 -0.0239  0.1994
 3205SOL     OW21247   4.631   1.011  10.077  0.5122  0.2543 -0.1726
 3205SOL    HW121248   4.623   1.106  10.065  1.5040  0.6234  2.1041
 3205SOL    HW221249   4.725   1.005  10.092  0.2694 -1.3383  0.6932
 3206SOL     OW21250   2.111   1.616   1.464  0.5364 -0.0994  0.2774
 3206SOL    HW121251   2.027   1.588   1.501  1.2244 -1.5604  0.7478
 3206SOL    HW221252   2.158   1.535   1.482 -0.7381 -0.8281  0.3897
 3207SOL     OW21253   1.385   0.870  14.067  0.0444  0.1883  0.5517
 3207SOL    HW121254   1.326   0.801  14.038  2.0635 -1.5199  0.5293
 3207SOL    HW221255   1.382   0.938  14.000 -0.6111 -0.2996  0.0876
 3208SOL     OW21256   0.812   4.114   4.718  0.0103  0.1428  0.0822
 3208SOL    HW121257   0.806   4.133   4.812  0.8277 -0.1520  0.1975
 3208SOL    HW221258   0.761   4.190   4.689 -0.6016  0.5319  2.1335
 3209SOL     OW21259   1.802   1.764   8.098 -0.0275  0.6264  0.4294
 3209SOL    HW121260   1.841   1.686   8.137 -0.8979 -0.4620 -0.8830
 3209SOL    HW221261   1.884   1.792   8.057 -0.7699 -0.2214 -1.6198
 3210SOL     OW21262   3.727   1.849  12.361 -0.1635  0.1344 -0.2452
 3210SOL    HW121263   3.771   1.904  12.426  0.6967 -0.7317 -0.0952
 3210SOL    HW221264   3.672   1.794  12.417  0.0070  1.0215  0.7916
 3211SOL     OW21265   1.742   2.591  15.747  0.3920  0.2625 -0.0924
 3211SOL    HW121266   1.714   2.594  15.838  1.2762  2.1357  0.1077
 3211SOL    HW221267   1.837   2.602  15.753  0.2851  1.7488 -1.2154
 3212SOL     OW21268   1.072   1.510   2.749 -0.1145  0.4994  0.0085
 3212SOL    HW121269   1.136   1.541   2.813 -0.4627  1.6088 -0.1813
 3212SOL    HW221270   1.009   1.454   2.794 -0.2022  1.1274  0.6633
 3213SOL     OW21271   0.785   2.846   5.728  0.0830  0.3214  0.4310
 3213SOL    HW121272   0.863   2.884   5.687 -0.3797 -0.1255 -0.8787
 3213SOL    HW221273   0.715   2.901   5.691  0.2822  0.9223  0.9537
 3214SOL     OW21274   2.430   1.447   5.550 -0.3091 -0.2736 -0.1729
 3214SOL    HW121275   2.457   1.462   5.641 -1.4714  0.2561  0.0924
 3214SOL    HW221276   2.423   1.351   5.550  0.7680 -0.3538 -1.1108
 3215SOL     OW21277   1.851   0.954   7.949  0.5379  0.6762 -0.3179
 3215SOL    HW121278   1.847   1.046   7.922  3.1251  0.6798 -0.7137
 3215SOL    HW221279   1.932   0.949   7.999 -0.5401 -0.8102  1.2544
 3216SOL     OW21280   0.505   0.232   6.686  0.2649 -0.5167 -0.1618
 3216SOL    HW121281   0.492   0.141   6.659  2.6155 -0.9427  0.1386
 3216SOL    HW221282   0.598   0.232   6.709  0.5726 -1.2305 -1.4188
 3217SOL     OW21283   1.278   3.549  11.489 -0.0961  0.4074  0.1387
 3217SOL    HW121284   1.220   3.612  11.446 -0.6898 -1.1432 -1.3266
 3217SOL    HW221285   1.224   3.471  11.483 -1.3186  1.3936 -1.5191
 3218SOL     OW21286   0.197   4.577   8.459  0.7922 -0.2744 -0.3624
 3218SOL    HW121287   0.250   4.512   8.505 -1.4094  0.2267  2.8927
 3218SOL    HW221288   0.243   4.579   8.375  0.8360 -0.3559 -0.3397
 3219SOL     OW21289   1.646   1.609   5.138  0.1375 -0.1305 -0.0226
 3219SOL    HW121290   1.717   1.633   5.198 -0.5805 -0.7640  1.0850
 3219SOL    HW221291   1.692   1.634   5.058 -0.6082 -0.9243 -0.6961
 3220SOL     OW21292   3.508   3.498   3.307 -0.0534  0.5093 -0.6136
 3220SOL    HW121293   3.559   3.510   3.387  0.3737  1.5467 -1.0420
 3220SOL    HW221294   3.418   3.529   3.320 -0.2711 -1.0400  1.5739
 3221SOL     OW21295   1.854   2.241   6.254 -0.8441 -0.6726  0.2233
 3221SOL    HW121296   1.766   2.277   6.268  0.1971  1.4081  1.4089
 3221SOL    HW221297   1.917   2.312   6.269  0.2242 -1.9100  1.4715
 3222SOL     OW21298   1.125   4.565   7.765  0.2342  0.7471 -0.2166
 3222SOL    HW121299   1.166   4.492   7.718 -0.8891  0.4419 -0.7416
 3222SOL    HW221300   1.193   4.567   7.832 -0.2446  1.9933  0.2286
 3223SOL     OW21301   3.103   0.251  14.331 -0.1594  0.4145  0.3974
 3223SOL    HW121302   3.189   0.209  14.335 -0.0767  0.3160 -2.5292
 3223SOL    HW221303   3.060   0.197  14.264 -0.3812  1.6587 -0.4686
 3224SOL     OW21304   4.005   1.754   4.468 -0.2744 -0.3368 -0.1192
 3224SOL    HW121305   3.979   1.831   4.417 -1.7111 -1.0732 -0.4990
 3224SOL    HW221306   3.918   1.736   4.503  0.2889  2.8883  2.9311
 3225SOL     OW21307   1.315   3.043   4.901  0.3378  0.0548  0.1683
 3225SOL    HW121308   1.333   2.950   4.912 -0.7452 -0.3427 -1.3719
 3225SOL    HW221309   1.403   3.074   4.878  0.0125 -0.7467 -2.1494
 3226SOL     OW21310   2.700   3.874   4.555 -0.1046 -0.0261 -0.2895
 3226SOL    HW121311   2.687   3.856   4.462 -0.6294 -1.2222  0.0192
 3226SOL    HW221312   2.702   3.784   4.586  0.0527 -0.2252 -0.8849
 3227SOL     OW21313   2.314   4.401   6.490 -0.0513 -0.3886 -0.4698
 3227SOL    HW121314   2.347   4.486   6.519  1.5603 -0.9799 -0.5243
 3227SOL    HW221315   2.282   4.425   6.403  0.9331 -0.9263 -0.9821
 3228SOL     OW21316   4.208   2.761  13.001 -0.6771 -0.5738  0.1822
 3228SOL    HW121317   4.212   2.789  12.909  0.1990  2.5657  1.1917
 3228SOL    HW221318   4.162   2.834  13.041  1.2530 -0.1130  1.5908
 3229SOL     OW21319   2.992   3.249   1.379 -0.1013  0.8046 -0.7150
 3229SOL    HW121320   2.961   3.160   1.396  0.8968  1.0513  2.3354
 3229SOL    HW221321   3.022   3.267   1.468  2.8010 -0.0638 -1.5067
 3230SOL     OW21322   3.571   1.097   8.013  0.6576  1.0521  0.3957
 3230SOL    HW121323   3.628   1.144   8.074 -1.2941  0.9668  2.2786
 3230SOL    HW221324   3.492   1.082   8.065  0.7817 -0.6923  0.0843
 3231SOL     OW21325   4.491   3.513  17.658  0.3347 -0.7324 -0.7027
 3231SOL    HW121326   4.408   3.527  17.705  1.2122 -1.8757  1.1855
 3231SOL    HW221327   4.468   3.550  17.573 -0.0749  1.1457  0.2150
 3232SOL     OW21328   0.358   3.680   6.102 -0.5885 -0.0142  0.2379
 3232SOL    HW121329   0.359   3.722   6.188 -0.9379  0.0619  0.2064
 3232SOL    HW221330   0.306   3.600   6.107 -0.1084  0.0538  5.6850
 3233SOL     OW21331   0.605   2.323  15.433 -0.0247 -0.1401 -0.5468
 3233SOL    HW121332   0.510   2.317  15.446  0.2006 -3.1848 -0.1760
 3233SOL    HW221333   0.629   2.241  15.389 -0.8324  0.1673 -1.5507
 3234SOL     OW21334   0.573   3.456   4.734  0.1708  0.0657 -0.3291
 3234SOL    HW121335   0.598   3.365   4.748 -2.5975 -0.2538  2.3784
 3234SOL    HW221336   0.483   3.470   4.763  0.2128  0.0158 -0.1744
 3235SOL     OW21337   2.729   4.700   0.534 -0.1065 -0.6838 -0.0754
 3235SOL    HW121338   2.636   4.690   0.517 -0.4825 -1.0399  2.2284
 3235SOL    HW221339   2.733   0.047   0.577 -1.3361 -0.6500 -0.0374
 3236SOL     OW21340   3.392   2.412   8.140 -0.3418  0.6561  0.7149
 3236SOL    HW121341   3.299   2.409   8.160 -0.6930  2.2779 -0.7321
 3236SOL    HW221342   3.419   2.409   8.232  1.4478 -0.0645  0.1781
 3237SOL     OW21343   4.736   1.653   9.024  0.2213  1.0249  0.4261
 3237SOL    HW121344   4.665   1.637   8.962  0.3756 -1.8493  1.0331
 3237SOL    HW221345   0.022   1.565   9.051 -1.0409  0.0867 -1.5231
 3238SOL     OW21346   3.794   2.701   9.460 -0.1185 -0.0031 -0.3333
 3238SOL    HW121347   3.716   2.646   9.455  1.1422 -1.7045 -1.2519
 3238SOL    HW221348   3.815   2.712   9.552  1.0088 -2.0900 -0.3410
 3239SOL     OW21349   1.220   4.122   1.093  0.1304  0.7606 -0.3092
 3239SOL    HW121350   1.194   4.155   1.179  0.9531  0.6934 -0.0360
 3239SOL    HW221351   1.313   4.106   1.109  0.0017  0.2358 -0.0867
 3240SOL     OW21352   0.729   1.304   2.384 -0.0631  0.5062  0.5720
 3240SOL    HW121353   0.682   1.305   2.301  2.7677  0.3027 -1.0559
 3240SOL    HW221354   0.659   1.280   2.444  0.8679 -0.5672  1.2247
 3241SOL     OW21355   0.243   1.722   2.459 -0.2393 -0.0681  1.0830
 3241SOL    HW121356   0.218   1.704   2.368  0.2188 -2.0496  1.3410
 3241SOL    HW221357   0.247   1.817   2.457 -0.3706 -0.0976 -0.4403
 3242SOL     OW21358   3.533   0.364  11.002 -0.1300 -0.0749 -0.8284
 3242SOL    HW121359   3.583   0.439  10.969 -2.9199  0.7750 -3.0940
 3242SOL    HW221360   3.604   0.308  11.035 -0.2753  2.2526  3.4802
 3243SOL     OW21361   0.357   2.414  17.227  0.5284 -0.7374  0.2437
 3243SOL    HW121362   0.400   2.361  17.294  1.9296  0.4932  0.3286
 3243SOL    HW221363   0.415   2.381  17.159  1.1014  1.6253 -0.4181
 3244SOL     OW21364   3.759   1.717   3.901  0.3955  0.0601 -0.6349
 3244SOL    HW121365   3.741   1.806   3.872 -0.9870 -0.3264 -0.9602
 3244SOL    HW221366   3.839   1.703   3.851  0.0250  0.7419 -1.4095
 3245SOL     OW21367   4.614   0.229   1.423 -0.1605  0.0061 -0.4084
 3245SOL    HW121368   4.621   0.164   1.493 -1.0722  0.9815  0.5788
 3245SOL    HW221369   4.623   0.310   1.474  0.8690  1.7312 -3.3637
 3246SOL     OW21370   2.021   3.202  10.300  0.0780  0.3176  0.4056
 3246SOL    HW121371   2.092   3.256  10.337  1.3259  0.1680 -1.7869
 3246SOL    HW221372   2.016   3.257  10.222 -0.9139  1.5648  1.3362
 3247SOL     OW21373   2.987   2.946   4.475  0.2628 -0.1124  0.2471
 3247SOL    HW121374   3.075   2.984   4.486  0.6681 -0.6866 -1.0716
 3247SOL    HW221375   2.924   3.017   4.485  3.0598  2.6311 -1.3979
 3248SOL     OW21376   2.911   0.437   6.694 -0.0831  0.3619 -0.0817
 3248SOL    HW121377   2.883   0.430   6.603  2.0044  2.3362 -0.8764
 3248SOL    HW221378   2.986   0.496   6.686  2.0902 -2.0288  2.7853
 3249SOL     OW21379   0.498   2.481   4.063 -0.0939  0.1566 -0.2043
 3249SOL    HW121380   0.426   2.419   4.071 -0.1764  0.2720 -0.0488
 3249SOL    HW221381   0.443   2.558   4.050  0.0938  0.6482  1.9229
 3250SOL     OW21382   3.179   1.855   6.224 -0.1090  0.4965 -0.3926
 3250SOL    HW121383   3.210   1.939   6.258  2.2242  0.2157 -1.8160
 3250SOL    HW221384   3.111   1.847   6.292  0.2253  0.2130 -0.0953
 3251SOL     OW21385   0.646   2.122   5.491  0.1576 -0.6425  0.1583
 3251SOL    HW121386   0.609   2.037   5.515  1.4109 -1.3133 -0.2957
 3251SOL    HW221387   0.728   2.131   5.539  1.0977  2.5653 -1.9939
 3252SOL     OW21388   4.367   3.550  15.609 -0.3437  0.1445  0.3536
 3252SOL    HW121389   4.426   3.597  15.550 -0.2139  0.1241  0.4679
 3252SOL    HW221390   4.334   3.624  15.659  1.3764 -0.3031  2.1768
 3253SOL     OW21391   1.004   1.820  12.549 -0.1296 -0.1002 -0.3220
 3253SOL    HW121392   1.055   1.901  12.555 -1.5787  0.7662  0.3573
 3253SOL    HW221393   0.996   1.797  12.642 -1.7417 -2.0406 -0.9407
 3254SOL     OW21394   4.016   3.424   2.941 -0.1453 -0.5501  0.0107
 3254SOL    HW121395   4.015   3.450   3.033  1.5320  1.7162 -0.5976
 3254SOL    HW221396   4.107   3.397   2.925  1.1091  1.8390  3.1283
 3255SOL     OW21397   0.497   2.719  17.615 -0.4622  0.8278 -0.2686
 3255SOL    HW121398   0.455   2.686  17.536  0.4417  1.2120 -0.9098
 3255SOL    HW221399   0.429   2.694  17.677 -2.0515  2.0414 -1.5308
 3256SOL     OW21400   2.650   0.710   5.575  0.3727 -0.7392 -0.0506
 3256SOL    HW121401   2.726   0.656   5.552  0.5025 -1.2159  1.4924
 3256SOL    HW221402   2.693   0.772   5.634  0.4951 -1.3797  0.5387
 3257SOL     OW21403   4.162   1.408   4.059  0.6803 -0.1656 -0.2092
 3257SOL    HW121404   4.148   1.481   4.119 -1.8209 -1.2814  0.5545
 3257SOL    HW221405   4.248   1.421   4.020  0.5273 -0.5934 -0.6860
 3258SOL     OW21406   3.310   0.544   9.012 -0.4680  0.5114  0.6135
 3258SOL    HW121407   3.244   0.528   8.945  2.0128 -0.0105 -1.7268
 3258SOL    HW221408   3.353   0.458   9.022  2.9210  2.2062  0.6904
 3259SOL     OW21409   0.513   2.755   5.374 -0.0304 -0.1807  0.1255
 3259SOL    HW121410   0.466   2.783   5.295 -0.2676  0.3939  0.4692
 3259SOL    HW221411   0.601   2.775   5.344 -0.1088  1.2863  0.8422
 3260SOL     OW21412   1.185   1.347   3.485  0.3411  0.4363 -0.2003
 3260SOL    HW121413   1.184   1.299   3.403  0.9245 -1.4769  0.9239
 3260SOL    HW221414   1.247   1.413   3.453  1.5123 -1.4069 -1.7365
 3261SOL     OW21415   4.237   1.857   6.500  0.4249  0.7180  0.6048
 3261SOL    HW121416   4.317   1.908   6.486  0.6791 -0.1651 -1.2058
 3261SOL    HW221417   4.213   1.853   6.593 -0.9996 -0.4432  0.1908
 3262SOL     OW21418   2.230   2.160  11.462  0.1979  0.7010 -0.3704
 3262SOL    HW121419   2.305   2.177  11.405  0.4554 -1.0053 -0.5291
 3262SOL    HW221420   2.264   2.077  11.496 -3.0470 -1.1838 -1.6710
 3263SOL     OW21421   4.367   2.378   3.206  0.0758 -0.0736 -0.4052
 3263SOL    HW121422   4.435   2.445   3.197 -0.0792  0.0172 -0.9009
 3263SOL    HW221423   4.309   2.437   3.253  0.5744 -1.5999  2.1185
 3264SOL     OW21424   0.579   1.948   3.738  0.9319 -0.6789 -0.4154
 3264SOL    HW121425   0.670   1.961   3.765  0.5353 -0.3037  0.7416
 3264SOL    HW221426   0.550   1.875   3.793 -1.0358  0.6002  0.2597
 3265SOL     OW21427   4.595   0.964   5.573 -0.2634 -0.6223  0.3540
 3265SOL    HW121428   4.606   1.027   5.502  0.8972  1.4869  2.4114
 3265SOL    HW221429   4.646   1.006   5.642  0.3878  0.0578 -0.5327
 3266SOL     OW21430   2.532   0.091   7.766 -0.0950  0.0400 -0.3808
 3266SOL    HW121431   2.556   0.068   7.856  2.3740  0.1391 -1.0010
 3266SOL    HW221432   2.475   0.166   7.783  0.5190  0.4875 -0.2623
 3267SOL     OW21433   4.586   2.199   4.498 -0.2103 -0.5070  0.0429
 3267SOL    HW121434   4.621   2.256   4.566 -0.7410  0.0028 -0.1119
 3267SOL    HW221435   4.627   2.118   4.530 -0.4653 -0.6582 -0.0046
 3268SOL     OW21436   3.559   3.042   6.538  0.7945  0.2911 -0.0344
 3268SOL    HW121437   3.543   3.120   6.485 -1.1538 -1.2174 -1.6921
 3268SOL    HW221438   3.474   2.997   6.544  0.4029  0.9434 -0.7467
 3269SOL     OW21439   2.949   0.028   4.458  0.4145  0.0046  0.2623
 3269SOL    HW121440   3.020   0.091   4.448  1.3089 -0.9254  0.7078
 3269SOL    HW221441   2.892   0.063   4.526 -0.8011 -0.5066 -0.4831
 3270SOL     OW21442   0.124   4.045   6.736  0.4131 -0.1755  1.0268
 3270SOL    HW121443   0.159   4.100   6.806 -0.3593 -0.7130  1.8186
 3270SOL    HW221444   0.195   4.029   6.673 -0.0915 -0.8941  0.6385
 3271SOL     OW21445   0.939   0.152   9.334  0.2292  0.8590 -0.0039
 3271SOL    HW121446   1.028   0.162   9.367 -0.4037 -0.7942  2.2020
 3271SOL    HW221447   0.889   0.118   9.408 -2.2106 -0.1813 -2.1402
 3272SOL     OW21448   1.608   4.058  10.786  0.0241 -0.2798 -0.4664
 3272SOL    HW121449   1.593   3.964  10.783 -1.8538 -0.0670  2.1486
 3272SOL    HW221450   1.699   4.064  10.814 -0.2882  0.7255  0.3361
 3273SOL     OW21451   2.852   3.978  12.093  0.2906  0.4540  0.3020
 3273SOL    HW121452   2.770   3.994  12.046  1.8349  1.7512 -1.9276
 3273SOL    HW221453   2.880   3.899  12.047  3.4543  1.3452  0.6988
 3274SOL     OW21454   1.879   2.275   4.286 -0.3485  0.7997 -0.2680
 3274SOL    HW121455   1.806   2.289   4.226 -1.6226 -0.5046  0.9765
 3274SOL    HW221456   1.945   2.335   4.250  2.8627 -3.1052 -0.7950
 3275SOL     OW21457   4.674   4.226   2.262 -0.4905 -0.4464  0.5501
 3275SOL    HW121458   4.665   4.228   2.167  0.7335 -1.7376  0.4101
 3275SOL    HW221459   4.590   4.256   2.297 -0.6379 -0.7478  0.4492
 3276SOL     OW21460   2.630   3.457   3.373  0.1983  0.1462 -0.7142
 3276SOL    HW121461   2.639   3.523   3.441  0.8244 -0.0869 -0.5628
 3276SOL    HW221462   2.630   3.512   3.294  1.1352 -0.6919 -1.3034
 3277SOL     OW21463   3.428   3.365   5.698 -0.9288  0.7894 -0.1134
 3277SOL    HW121464   3.375   3.409   5.765 -0.8526 -1.3455  1.3505
 3277SOL    HW221465   3.368   3.297   5.666 -1.4389 -0.3053  3.1153
 3278SOL     OW21466   4.109   0.272  16.945 -0.2886  0.2780  0.5472
 3278SOL    HW121467   4.019   0.302  16.932 -0.6745 -1.6627 -1.2087
 3278SOL    HW221468   4.121   0.332  17.019 -3.3443  0.3968  0.9505
 3279SOL     OW21469   1.190   4.382   1.223 -0.3687 -0.0863 -0.0411
 3279SOL    HW121470   1.148   4.466   1.240 -0.7587 -0.2914  0.0147
 3279SOL    HW221471   1.179   4.328   1.302 -1.2066 -0.3217 -0.3222
 3280SOL     OW21472   1.294   3.483   1.340  0.3612 -0.5360 -0.2010
 3280SOL    HW121473   1.218   3.444   1.383 -0.3567  2.6479  1.4394
 3280SOL    HW221474   1.354   3.411   1.323  0.2473 -0.8928  0.9435
 3281SOL     OW21475   3.691   0.152   7.167 -0.0067 -0.6046 -0.2588
 3281SOL    HW121476   3.694   0.133   7.261  1.1201 -3.5622 -0.9077
 3281SOL    HW221477   3.753   0.224   7.161 -0.8080  0.2639  1.7245
 3282SOL     OW21478   0.514   4.415  15.258  0.0366 -0.4306  0.5087
 3282SOL    HW121479   0.601   4.444  15.230 -0.6750  0.6924 -0.5108
 3282SOL    HW221480   0.477   4.362  15.187 -0.4235  0.3792  0.1509
 3283SOL     OW21481   2.583   3.212   2.183 -0.7663  0.5837 -0.3617
 3283SOL    HW121482   2.643   3.269   2.232 -0.2977 -0.2259  0.0119
 3283SOL    HW221483   2.639   3.173   2.116 -3.0034  0.4504 -2.1375
 3284SOL     OW21484   1.134   3.582   8.496 -0.3318 -0.8763  0.2412
 3284SOL    HW121485   1.060   3.623   8.452 -0.7338 -1.0542  0.7544
 3284SOL    HW221486   1.164   3.523   8.426 -0.4380  0.1164 -0.6407
 3285SOL     OW21487   0.089   4.229  11.157 -0.0279  0.3850  0.0927
 3285SOL    HW121488   0.110   4.144  11.120 -1.1564  1.4075 -2.9172
 3285SOL    HW221489   0.166   4.253  11.208  1.0666 -2.3270 -0.3300
 3286SOL     OW21490   2.610   2.327  14.253 -0.4368  0.3590 -0.4697
 3286SOL    HW121491   2.644   2.240  14.232 -3.2481 -0.9875  0.5085
 3286SOL    HW221492   2.683   2.385  14.231 -0.2436  0.5209  0.5973
 3287SOL     OW21493   1.150   3.482   3.691  0.7774 -0.7613  0.4161
 3287SOL    HW121494   1.102   3.417   3.640  0.4305 -0.2493  0.0860
 3287SOL    HW221495   1.084   3.473   3.760 -1.3250  1.4770 -1.3302
 3288SOL     OW21496   3.274   3.983  10.246 -0.1458  0.0921  0.2100
 3288SOL    HW121497   3.326   3.984  10.166  0.4408 -1.9239  0.5667
 3288SOL    HW221498   3.280   4.077  10.265 -0.8866 -0.4771  3.2998
 3289SOL     OW21499   3.976   1.103   7.247 -0.6881  0.1323 -0.1788
 3289SOL    HW121500   4.050   1.069   7.196 -0.4392  0.7271 -0.2090
 3289SOL    HW221501   3.957   1.180   7.195  0.9056 -0.6100 -1.8896
 3290SOL     OW21502   0.860   0.937  10.849 -0.4377 -0.0514  0.4030
 3290SOL    HW121503   0.899   0.886  10.920  0.6335 -0.1509 -0.2458
 3290SOL    HW221504   0.843   0.866  10.787  0.4576  0.5496 -0.5441
 3291SOL     OW21505   1.318   1.190   8.559 -0.6162  0.3023 -0.3423
 3291SOL    HW121506   1.277   1.201   8.645  1.0632  0.1371  0.4856
 3291SOL    HW221507   1.385   1.256   8.575 -1.9486  1.9005 -1.3581
 3292SOL     OW21508   0.803   2.494   8.371 -0.1833  0.0503  0.0584
 3292SOL    HW121509   0.766   2.407   8.387 -0.6168  0.4735  1.3740
 3292SOL    HW221510   0.888   2.464   8.339  0.2037  0.3084  0.8347
 3293SOL     OW21511   1.470   4.002   8.325 -0.6738 -0.2735 -0.6385
 3293SOL    HW121512   1.404   3.947   8.281  0.4176 -0.1053 -2.4657
 3293SOL    HW221513   1.545   3.946   8.342  0.0186  1.1939  1.1325
 3294SOL     OW21514   3.333   2.123  11.992  0.2505 -0.1476 -0.6608
 3294SOL    HW121515   3.324   2.028  11.983  1.9297 -0.3430 -0.3464
 3294SOL    HW221516   3.395   2.124  12.065  0.2876 -0.2537 -0.6911
 3295SOL     OW21517   3.427   1.392   1.770 -0.4998  0.2721  0.1788
 3295SOL    HW121518   3.491   1.393   1.841  0.1272 -0.8841 -0.3749
 3295SOL    HW221519   3.400   1.302   1.785  1.5922 -0.4283 -0.3964
 3296SOL     OW21520   0.871   0.400   7.268  0.9650  0.3160  0.0086
 3296SOL    HW121521   0.897   0.348   7.192  1.5246  3.2558 -1.8312
 3296SOL    HW221522   0.941   0.386   7.331  2.5520  0.6593 -1.6630
 3297SOL     OW21523   1.453   0.995   0.435 -0.0731  0.7190 -0.2931
 3297SOL    HW121524   1.462   1.084   0.400  0.1335  1.1969  0.9673
 3297SOL    HW221525   1.358   0.982   0.433 -0.1231  0.9849  0.2383
 3298SOL     OW21526   1.951   2.188   5.781  0.0994  0.3257  0.7747
 3298SOL    HW121527   1.924   2.133   5.708  0.8354 -0.4982  1.1299
 3298SOL    HW221528   1.949   2.126   5.854  2.0494  1.1849  1.5566
 3299SOL     OW21529   4.582   0.401   9.378  0.1509  0.0484  0.7231
 3299SOL    HW121530   4.567   0.310   9.352  2.1887  0.0659 -0.4706
 3299SOL    HW221531   4.541   0.444   9.303 -0.2716 -0.8497  0.4386
 3300SOL     OW21532   0.801   4.347   1.153  0.2595 -0.1631  0.2122
 3300SOL    HW121533   0.877   4.347   1.095 -0.9846 -0.4690 -1.4288
 3300SOL    HW221534   0.836   4.277   1.208  1.4604  1.2977  1.3141
 3301SOL     OW21535   2.130   4.077  10.542  0.2132  0.1732  0.7002
 3301SOL    HW121536   2.200   4.138  10.567 -0.0073  1.1453 -1.0154
 3301SOL    HW221537   2.176   4.034  10.470 -3.4946  0.4907 -1.8574
 3302SOL     OW21538   3.411   2.966   8.201  0.1846  0.3845 -0.0702
 3302SOL    HW121539   3.414   3.010   8.287 -2.1502 -0.4450  0.4195
 3302SOL    HW221540   3.503   2.939   8.198 -0.0657 -0.4144 -0.5772
 3303SOL     OW21541   4.173   1.851   8.554 -0.0724  0.6355 -0.3998
 3303SOL    HW121542   4.138   1.938   8.574 -0.3447  0.4577 -0.1070
 3303SOL    HW221543   4.102   1.818   8.499 -0.3660 -1.5461  1.3304
 3304SOL     OW21544   0.429   2.701   5.112 -0.2085 -0.2788 -0.0756
 3304SOL    HW121545   0.354   2.652   5.145 -0.4319  0.1861  0.0982
 3304SOL    HW221546   0.448   2.642   5.039 -0.6322  1.8060 -1.8780
 3305SOL     OW21547   2.684   3.024   4.367 -0.1151  0.0441 -0.3236
 3305SOL    HW121548   2.671   2.996   4.457  1.1040  3.7401  1.0192
 3305SOL    HW221549   2.681   3.119   4.384 -1.6524  0.2082 -1.5424
 3306SOL     OW21550   3.931   1.308   7.055  0.2627  0.3387  0.3599
 3306SOL    HW121551   4.021   1.337   7.038 -0.1031  0.2101 -1.9124
 3306SOL    HW221552   3.893   1.319   6.968 -1.1560 -1.7030  0.7326
 3307SOL     OW21553   4.738   0.852   1.921  0.5824  0.2908  0.1409
 3307SOL    HW121554   0.079   0.877   1.967  1.0936  0.3853 -0.7914
 3307SOL    HW221555   0.020   0.867   1.829  0.5852 -0.9574 -0.0591
 3308SOL     OW21556   4.432   3.061   3.441  0.4650 -0.1975 -0.1664
 3308SOL    HW121557   4.439   3.156   3.448  0.1004 -0.1231 -0.8079
 3308SOL    HW221558   4.351   3.041   3.394 -0.7389  0.5275  1.5772
 3309SOL     OW21559   1.322   1.945   3.707  0.1167 -0.5376  0.0008
 3309SOL    HW121560   1.401   1.967   3.658 -0.8349  0.4569 -1.0773
 3309SOL    HW221561   1.361   1.953   3.793  0.6279 -1.2928 -0.1587
 3310SOL     OW21562   3.242   1.304  10.260 -0.4895  0.1917 -0.1234
 3310SOL    HW121563   3.162   1.309  10.313  0.9035  1.1401  1.8668
 3310SOL    HW221564   3.308   1.263  10.316  1.0278  0.3866 -1.7607
 3311SOL     OW21565   2.471   3.491   1.876  0.1385 -0.0824 -0.0252
 3311SOL    HW121566   2.416   3.484   1.954  0.8715 -1.3703  0.3714
 3311SOL    HW221567   2.562   3.480   1.902 -0.1167  2.3213  1.8616
 3312SOL     OW21568   3.067   2.651   1.754  0.0199  0.3515 -0.2547
 3312SOL    HW121569   3.138   2.605   1.708 -0.6076 -0.9377  0.0586
 3312SOL    HW221570   3.014   2.671   1.677  2.5705  0.3632 -2.0463
 3313SOL     OW21571   0.499   1.758   0.254  0.0554  0.4249  0.1070
 3313SOL    HW121572   0.486   1.690   0.187  1.7066  3.5599 -3.3782
 3313SOL    HW221573   0.554   1.814   0.199  0.5371  0.1891  0.3543
 3314SOL     OW21574   2.529   4.239   9.404 -0.2916 -0.3115 -0.3299
 3314SOL    HW121575   2.530   4.278   9.491  0.7856 -0.9335 -0.0624
 3314SOL    HW221576   2.516   4.316   9.348  0.9109  0.9465  1.1105
 3315SOL     OW21577   2.303   3.549   6.247  0.2898 -0.0517 -0.1596
 3315SOL    HW121578   2.354   3.546   6.328  0.8703 -2.3150 -0.5929
 3315SOL    HW221579   2.271   3.638   6.261 -2.2520 -1.1625  1.0954
 3316SOL     OW21580   4.442   4.639   1.935  0.1748  0.3377  0.2526
 3316SOL    HW121581   4.397   4.716   1.900  2.7585  0.8129 -2.0171
 3316SOL    HW221582   4.530   4.672   1.953  0.6540 -0.2854 -0.9596
 3317SOL     OW21583   2.306   4.009   6.519 -0.6708 -0.3333 -0.4194
 3317SOL    HW121584   2.226   4.012   6.572 -0.0962 -1.0748  0.5036
 3317SOL    HW221585   2.349   4.091   6.543  0.2760 -0.3002 -2.2714
 3318SOL     OW21586   1.933   1.287   5.237  0.2494  0.5380 -0.5359
 3318SOL    HW121587   1.951   1.274   5.330 -1.6420  2.8514  0.1378
 3318SOL    HW221588   1.861   1.227   5.217  2.1232 -1.5322 -1.1734
 3319SOL     OW21589   3.657   3.674   3.610  0.4920  0.6902  0.4063
 3319SOL    HW121590   3.637   3.674   3.704  0.5633 -0.2783  0.4256
 3319SOL    HW221591   3.595   3.738   3.576  0.5884  0.7143  0.2751
 3320SOL     OW21592   4.336   4.281  11.980  0.5200 -0.1286 -0.0617
 3320SOL    HW121593   4.296   4.268  11.894 -3.2443  0.0616  1.6797
 3320SOL    HW221594   4.263   4.307  12.036  0.4119  0.3025 -0.4010
 3321SOL     OW21595   3.352   3.529   4.786  0.1961 -0.2981  0.3006
 3321SOL    HW121596   3.361   3.582   4.866 -1.1467 -0.2330  0.4208
 3321SOL    HW221597   3.446   3.512   4.784  0.2056  0.0024 -1.4211
 3322SOL     OW21598   3.695   1.660   8.250  0.3346  0.4248  0.1134
 3322SOL    HW121599   3.770   1.600   8.252 -0.9641 -1.2115  0.2741
 3322SOL    HW221600   3.733   1.732   8.300 -0.3339  1.2462 -0.5642
 3323SOL     OW21601   2.066   4.558   9.854 -0.4397 -0.1902  0.3464
 3323SOL    HW121602   2.122   4.501   9.906  1.9991  0.7108 -1.3143
 3323SOL    HW221603   2.081   4.514   9.770  2.2272  0.7839  0.3185
 3324SOL     OW21604   1.011   2.898   7.425  0.7540  0.0632  0.4369
 3324SOL    HW121605   0.937   2.874   7.481 -0.4587  0.6273 -0.9255
 3324SOL    HW221606   1.087   2.892   7.483  0.8457 -0.5647  0.2468
 3325SOL     OW21607   1.687   0.998  17.316 -0.0885 -0.0698 -0.4017
 3325SOL    HW121608   1.748   1.064  17.349  1.2568 -1.5932  0.1639
 3325SOL    HW221609   1.675   1.039  17.231  0.2446 -0.4091 -0.6131
 3326SOL     OW21610   1.756   2.844  17.690 -0.4724 -0.2629 -0.0014
 3326SOL    HW121611   1.762   2.748  17.682 -1.9414 -0.4365  0.9838
 3326SOL    HW221612   1.669   2.856  17.652 -0.4182 -0.4295 -0.1849
 3327SOL     OW21613   4.025   0.599   2.789 -1.1570 -0.5986  0.2804
 3327SOL    HW121614   4.037   0.618   2.882  0.5580  1.8838 -0.4644
 3327SOL    HW221615   3.972   0.520   2.800 -0.6171 -1.0605 -0.4392
 3328SOL     OW21616   3.376   1.853  15.551 -0.3618 -0.3730  0.1333
 3328SOL    HW121617   3.390   1.946  15.568  0.8340 -0.2304 -1.6561
 3328SOL    HW221618   3.286   1.849  15.583 -0.2918  1.0168  0.4850
 3329SOL     OW21619   1.869   4.355  11.055  0.0652  0.3537  0.2153
 3329SOL    HW121620   1.903   4.276  11.097 -2.2807  0.6702  2.6694
 3329SOL    HW221621   1.820   4.412  11.114 -1.4668 -0.5205 -0.2297
 3330SOL     OW21622   2.763   3.282   0.342  0.0983 -1.0167 -0.0723
 3330SOL    HW121623   2.773   3.255   0.251 -1.3025 -3.2114  0.4387
 3330SOL    HW221624   2.683   3.334   0.352  0.8069  0.2680 -1.0647
 3331SOL     OW21625   4.711   3.533  11.620  0.0060  0.0988 -0.3742
 3331SOL    HW121626   0.009   3.500  11.538  1.4043  0.3729  0.1289
 3331SOL    HW221627   0.034   3.501  11.686  0.7627  2.6974  0.1672
 3332SOL     OW21628   3.588   1.639   2.907 -0.0273  0.1908  0.0819
 3332SOL    HW121629   3.503   1.681   2.894 -0.4329 -0.6070  0.1542
 3332SOL    HW221630   3.565   1.547   2.918 -0.6449  0.0020 -2.8286
 3333SOL     OW21631   2.817   0.021   6.272 -0.0953 -0.2544  0.0823
 3333SOL    HW121632   2.863   0.105   6.275 -3.0241  1.3720 -0.0727
 3333SOL    HW221633   2.872   4.700   6.323  1.7671 -0.8498 -2.6198
 3334SOL     OW21634   0.101   2.828   5.170  0.2492 -0.0587  0.3403
 3334SOL    HW121635   0.073   2.744   5.207 -0.3708 -0.8462 -1.8921
 3334SOL    HW221636   0.068   2.886   5.238 -2.1233 -2.3485  1.1656
 3335SOL     OW21637   4.039   1.777   7.834  0.2881  0.6128  0.1031
 3335SOL    HW121638   4.121   1.732   7.815  0.4332  0.7335  0.4325
 3335SOL    HW221639   4.072   1.836   7.903  0.4246  1.6251 -0.8300
 3336SOL     OW21640   3.528   1.484   4.546 -0.0640 -0.2996  0.4770
 3336SOL    HW121641   3.611   1.500   4.500 -0.7099  1.8056  0.0339
 3336SOL    HW221642   3.558   1.455   4.632  0.8033 -1.3718 -0.1789
 3337SOL     OW21643   1.163   3.254   7.678  0.7305  0.4496 -0.8855
 3337SOL    HW121644   1.145   3.173   7.725 -2.8440  2.3167  0.9066
 3337SOL    HW221645   1.074   3.267   7.646  0.5741 -0.6673 -0.9126
 3338SOL     OW21646   1.729   3.146  10.320 -0.4895  0.3634 -0.4687
 3338SOL    HW121647   1.746   3.217  10.382  0.0898 -1.0615  1.0201
 3338SOL    HW221648   1.815   3.105  10.317  0.2285  2.1661 -3.5372
 3339SOL     OW21649   1.847   3.119   4.609  0.2018 -0.8724 -0.2105
 3339SOL    HW121650   1.929   3.088   4.570 -0.3316 -0.0300 -1.9998
 3339SOL    HW221651   1.871   3.178   4.680  1.9467 -1.3110 -0.4355
 3340SOL     OW21652   2.343   4.069   3.582  0.3649  0.3001 -0.0536
 3340SOL    HW121653   2.424   4.112   3.554 -1.5232  2.2448 -2.4330
 3340SOL    HW221654   2.351   3.978   3.556 -0.2840  0.0770  0.5415
 3341SOL     OW21655   3.191   2.660  10.854  0.1568  0.7998 -0.6129
 3341SOL    HW121656   3.264   2.684  10.797  1.0320  1.6663  0.8739
 3341SOL    HW221657   3.207   2.569  10.878 -0.7767  0.6722 -0.4844
 3342SOL     OW21658   3.093   1.816   9.806 -0.0219 -0.1854 -0.3860
 3342SOL    HW121659   3.072   1.854   9.891  1.3040 -0.6814  0.1556
 3342SOL    HW221660   3.137   1.734   9.828  0.5171  0.7597  2.0269
 3343SOL     OW21661   3.295   1.491  14.748  0.5672  0.3306 -0.6261
 3343SOL    HW121662   3.259   1.411  14.786 -0.7905  0.7575 -0.9882
 3343SOL    HW221663   3.322   1.468  14.659  2.0082  1.8002 -0.5644
 3344SOL     OW21664   0.432   1.866  14.800  0.1800 -0.4757 -0.2154
 3344SOL    HW121665   0.475   1.887  14.717  0.7522 -1.1027 -0.0810
 3344SOL    HW221666   0.431   1.771  14.790 -2.7864 -0.3213 -1.4001
 3345SOL     OW21667   2.761   2.305  11.071 -0.0040 -0.0655  0.0227
 3345SOL    HW121668   2.804   2.240  11.127  0.1603  0.8174  0.9256
 3345SOL    HW221669   2.695   2.254  11.025  2.9456 -1.8452 -2.2067
 3346SOL     OW21670   1.971   2.764  14.239 -0.1984 -0.0188 -0.0669
 3346SOL    HW121671   2.025   2.837  14.209  1.4433 -0.6697  1.3086
 3346SOL    HW221672   1.896   2.784  14.182  0.2478  0.0245 -0.6384
 3347SOL     OW21673   4.086   1.872   3.574 -0.2809 -0.6904  0.5162
 3347SOL    HW121674   4.135   1.792   3.552 -2.5475 -1.4515 -1.7761
 3347SOL    HW221675   4.103   1.923   3.495 -0.8207 -0.8935  0.2665
 3348SOL     OW21676   1.473   3.890   9.422 -0.1159 -1.0005  0.3919
 3348SOL    HW121677   1.388   3.850   9.439 -0.7611  0.5472  0.7877
 3348SOL    HW221678   1.467   3.892   9.327  0.6254  0.5420  0.3787
 3349SOL     OW21679   4.054   3.274   2.398 -0.1167 -0.1192  0.5461
 3349SOL    HW121680   4.076   3.252   2.489 -2.7868  1.0747  1.4920
 3349SOL    HW221681   3.964   3.306   2.400 -0.3978 -0.9264  0.7814
 3350SOL     OW21682   0.808   4.092   9.375 -0.3036  0.3750  0.1532
 3350SOL    HW121683   0.841   4.070   9.288  0.0019  0.2014  0.3131
 3350SOL    HW221684   0.845   4.018   9.422  2.0848  0.5497 -1.4652
 3351SOL     OW21685   0.574   1.950  14.583 -0.1858 -0.2723 -0.5195
 3351SOL    HW121686   0.505   2.011  14.557 -1.2875 -0.7294  1.3407
 3351SOL    HW221687   0.652   2.005  14.593  0.7193 -1.8447  1.1225
 3352SOL     OW21688   0.393   0.578   9.893  0.5673  0.1085  0.7924
 3352SOL    HW121689   0.299   0.583   9.912  0.2596  0.9178 -0.9203
 3352SOL    HW221690   0.406   0.652   9.834 -0.3530  0.4424  1.0152
 3353SOL     OW21691   4.530   3.004  12.917 -0.5142  0.5495  0.1072
 3353SOL    HW121692   4.483   2.951  12.980  0.1326 -0.4999 -0.2936
 3353SOL    HW221693   4.462   3.016  12.851 -0.0440 -1.3170 -0.7096
 3354SOL     OW21694   0.327   2.520   4.353  0.1581  0.3615 -0.3426
 3354SOL    HW121695   0.247   2.471   4.334  0.3057  1.1644 -2.9888
 3354SOL    HW221696   0.390   2.450   4.369  0.4446  0.8205  0.5659
 3355SOL     OW21697   1.541   1.681   8.090  0.1005  0.2234  0.2668
 3355SOL    HW121698   1.625   1.726   8.094  1.4476 -2.3801  1.6959
 3355SOL    HW221699   1.556   1.597   8.047  1.7249 -0.1581  1.6101
 3356SOL     OW21700   2.323   0.628   4.493  0.3675 -0.3732 -0.1788
 3356SOL    HW121701   2.309   0.547   4.542  3.2655 -0.3626  0.6761
 3356SOL    HW221702   2.326   0.691   4.565  0.2496  0.8525 -1.2479
 3357SOL     OW21703   0.728   0.825  13.476 -0.1361  0.3186 -0.2615
 3357SOL    HW121704   0.729   0.879  13.397  0.1172  1.1756  0.3361
 3357SOL    HW221705   0.635   0.823  13.497 -0.5733  1.9871 -2.0709
 3358SOL     OW21706   2.402   0.521   9.009  0.2026 -0.4221  0.0152
 3358SOL    HW121707   2.492   0.534   8.979  0.6541 -0.9929  1.1362
 3358SOL    HW221708   2.387   0.600   9.060  0.0298 -0.6531  0.3177
 3359SOL     OW21709   2.927   1.409   9.874  0.1840  0.1410 -0.8916
 3359SOL    HW121710   3.000   1.458   9.837 -0.4606  0.8157 -1.2821
 3359SOL    HW221711   2.920   1.337   9.811 -2.4495 -1.1695  0.9085
 3360SOL     OW21712   1.473   3.034   0.807  0.2804 -0.7768 -0.1301
 3360SOL    HW121713   1.400   3.057   0.748  0.9303 -2.1268 -1.4381
 3360SOL    HW221714   1.504   2.951   0.773 -2.4201 -1.5868 -0.6225
 3361SOL     OW21715   0.072   1.496   8.051 -0.1669 -0.2466 -0.5712
 3361SOL    HW121716   4.737   1.534   8.099 -1.2263 -0.7357 -1.8039
 3361SOL    HW221717   0.152   1.529   8.092 -0.8679 -0.7551  1.2166
 3362SOL     OW21718   2.333   4.298  17.469 -0.1119  0.2562  0.6512
 3362SOL    HW121719   2.352   4.214  17.511  2.4275  0.7068  0.3681
 3362SOL    HW221720   2.420   4.336  17.460 -0.3372  0.7840  0.7009
 3363SOL     OW21721   3.049   0.300   4.241 -0.2105 -0.4582 -0.8861
 3363SOL    HW121722   2.990   0.362   4.283 -0.7147  0.4595 -2.9375
 3363SOL    HW221723   3.095   0.263   4.317 -0.4038  0.0615 -0.5153
 3364SOL     OW21724   1.738   4.731   9.853  0.0708  0.6000 -0.1864
 3364SOL    HW121725   1.660   0.003   9.908  0.1323  0.5698 -0.0918
 3364SOL    HW221726   1.708   0.048   9.781  2.2454 -0.5439 -1.9544
 3365SOL     OW21727   2.032   0.159   7.332  0.1058 -0.0930 -0.3408
 3365SOL    HW121728   2.088   0.175   7.407  1.9193 -2.4380 -1.1951
 3365SOL    HW221729   1.961   0.107   7.371  2.0318 -2.1115  0.4529
 3366SOL     OW21730   3.210   0.556   5.078  0.1997  0.1081  0.2591
 3366SOL    HW121731   3.249   0.476   5.113 -0.7463 -0.6511 -0.4248
 3366SOL    HW221732   3.278   0.623   5.085 -0.2344  0.6644 -0.7434
 3367SOL     OW21733   1.348   0.849  10.281  0.6330 -0.1342 -0.0822
 3367SOL    HW121734   1.428   0.810  10.244 -0.0892 -0.7904 -0.9301
 3367SOL    HW221735   1.285   0.832  10.212 -0.1204  2.8892 -0.1526
 3368SOL     OW21736   0.775   2.306  14.015 -0.2356 -0.3084 -0.0035
 3368SOL    HW121737   0.816   2.388  13.988 -1.7512  0.5145  0.1973
 3368SOL    HW221738   0.683   2.311  13.990 -0.6655 -0.4183  1.6112
 3369SOL     OW21739   4.059   4.560   3.683 -0.1061  0.2737  0.4089
 3369SOL    HW121740   4.074   4.469   3.709  1.4140  0.4255  0.0381
 3369SOL    HW221741   4.147   4.598   3.681  0.1677 -0.3311  0.8197
 3370SOL     OW21742   2.975   2.375   3.970 -0.3140 -0.4972 -0.5435
 3370SOL    HW121743   2.967   2.466   3.999  1.3073 -0.0035 -1.6731
 3370SOL    HW221744   2.881   2.357   3.966 -0.5116  0.7192 -1.3671
 3371SOL     OW21745   3.131   3.180   6.517 -0.5859 -0.7220  0.3461
 3371SOL    HW121746   3.096   3.254   6.568  1.9807 -0.2008  1.3751
 3371SOL    HW221747   3.061   3.166   6.454  0.0622 -1.9734 -0.0863
 3372SOL     OW21748   2.397   2.925  16.131 -0.3147 -0.0701 -0.1492
 3372SOL    HW121749   2.369   3.010  16.167  0.2276  0.4224 -0.8982
 3372SOL    HW221750   2.465   2.895  16.191 -0.8519 -0.1670  0.4169
 3373SOL     OW21751   1.972   1.932   5.215  0.1800  0.5163 -0.1748
 3373SOL    HW121752   1.887   1.964   5.186 -0.3476 -0.3697  0.4275
 3373SOL    HW221753   2.016   1.930   5.129 -1.6846 -0.1295 -1.1102
 3374SOL     OW21754   4.094   3.265   7.847 -0.2884 -0.8054  0.6284
 3374SOL    HW121755   4.041   3.192   7.813  0.4560 -0.6383 -0.8923
 3374SOL    HW221756   4.026   3.330   7.868  0.8340  0.8093 -0.7956
 3375SOL     OW21757   0.875   1.792  17.587 -0.6562 -0.2526 -0.2962
 3375SOL    HW121758   0.837   1.867  17.541 -1.3128  0.8221  1.9752
 3375SOL    HW221759   0.951   1.778  17.531 -1.0047 -2.5872 -0.1569
 3376SOL     OW21760   1.634   4.045  10.005 -0.0771 -0.4518 -0.2052
 3376SOL    HW121761   1.589   4.066   9.923  1.4080  0.8948 -0.6904
 3376SOL    HW221762   1.567   4.033  10.072 -0.4583 -1.2586 -0.7335
 3377SOL     OW21763   4.376   0.947   2.851 -0.5883 -0.4079 -0.5279
 3377SOL    HW121764   4.287   0.982   2.858 -0.7776 -1.0347  0.1145
 3377SOL    HW221765   4.409   0.983   2.768 -0.5188 -0.0621 -0.3506
 3378SOL     OW21766   3.770   0.529   3.537 -0.5878 -0.4116 -0.4881
 3378SOL    HW121767   3.700   0.470   3.511 -1.2929 -0.8583  2.4778
 3378SOL    HW221768   3.823   0.470   3.591  1.6236  3.0856  1.2031
 3379SOL     OW21769   0.276   1.153   1.474  0.0558 -1.2082  0.2278
 3379SOL    HW121770   0.358   1.198   1.494 -0.2313 -0.8675  0.6284
 3379SOL    HW221771   0.219   1.229   1.487 -0.8791 -2.6336  4.4554
 3380SOL     OW21772   1.645   3.237   6.360  0.0545  0.7909 -0.6066
 3380SOL    HW121773   1.722   3.180   6.361 -0.3694  0.1839 -1.8223
 3380SOL    HW221774   1.625   3.223   6.267 -1.4428 -0.7477 -0.0478
 3381SOL     OW21775   0.611   2.536   7.721 -0.2165  0.6885  0.1365
 3381SOL    HW121776   0.656   2.592   7.784 -3.1300  0.5665  2.3268
 3381SOL    HW221777   0.547   2.509   7.787  0.8866  0.9120  1.2846
 3382SOL     OW21778   2.963   3.266   0.805  0.5402  0.2602 -0.5184
 3382SOL    HW121779   3.017   3.224   0.739  0.3338 -0.5163 -0.1860
 3382SOL    HW221780   3.024   3.328   0.846  1.2030 -1.1424  0.6043
 3383SOL     OW21781   1.746   2.011   6.624 -0.7615  0.4376 -0.3595
 3383SOL    HW121782   1.659   2.036   6.593 -2.0776 -1.1941  2.0090
 3383SOL    HW221783   1.732   1.983   6.714  1.5159  2.5121  0.6303
 3384SOL     OW21784   3.960   0.472   5.021 -0.0042 -0.2323  0.0269
 3384SOL    HW121785   3.998   0.543   4.968  0.8096 -0.1272  0.7536
 3384SOL    HW221786   3.888   0.459   4.959 -0.9518  1.0692  0.8397
 3385SOL     OW21787   2.185   2.101   2.117  0.3829  0.4414 -0.3484
 3385SOL    HW121788   2.178   2.049   2.037  1.6866  0.8187 -0.7069
 3385SOL    HW221789   2.153   2.187   2.091  0.9880  0.5934 -0.5874
 3386SOL     OW21790   4.694   3.891   2.051  0.3478  0.0585  0.5172
 3386SOL    HW121791   4.620   3.839   2.083 -0.3640 -0.7646 -2.4561
 3386SOL    HW221792   4.658   3.978   2.062 -1.1762 -0.5518  0.2833
 3387SOL     OW21793   3.919   1.599   7.413 -0.4840 -0.2235  1.0434
 3387SOL    HW121794   3.865   1.527   7.381 -0.8880  0.8035 -0.6306
 3387SOL    HW221795   3.865   1.679   7.405 -1.3981 -0.8279  1.1562
 3388SOL     OW21796   2.923   1.672   4.256 -0.3909  0.3788  0.8285
 3388SOL    HW121797   2.894   1.593   4.302  1.6320 -0.8191  0.0829
 3388SOL    HW221798   2.881   1.737   4.312  0.6349 -0.0486  2.0953
 3389SOL     OW21799   2.275   0.584   7.030 -0.1455 -0.7555 -0.2907
 3389SOL    HW121800   2.346   0.630   7.074 -0.3916 -0.9886  0.3506
 3389SOL    HW221801   2.216   0.647   6.988 -0.3819  1.5535  3.4470
 3390SOL     OW21802   1.331   2.833   7.299 -0.5428 -0.1090  0.5641
 3390SOL    HW121803   1.282   2.751   7.292 -1.4893  0.3455  1.7366
 3390SOL    HW221804   1.286   2.872   7.373 -0.4933 -0.4382  0.7674
 3391SOL     OW21805   0.777   0.516   5.615 -0.1398  0.4114 -0.3657
 3391SOL    HW121806   0.865   0.480   5.626  0.0269  0.5322 -1.2691
 3391SOL    HW221807   0.754   0.542   5.704  0.1491  1.9854 -0.7670
 3392SOL     OW21808   1.469   3.039   4.344  0.0961 -0.2357 -0.5669
 3392SOL    HW121809   1.445   3.118   4.392  1.0542 -0.3233  0.0596
 3392SOL    HW221810   1.499   2.980   4.414  1.8022  2.3496  0.8774
 3393SOL     OW21811   2.574   3.634   3.168  0.5448  0.1992 -0.6640
 3393SOL    HW121812   2.554   3.714   3.218  0.5801 -1.1839  1.5327
 3393SOL    HW221813   2.490   3.621   3.124 -0.6650 -0.5136  1.8739
 3394SOL     OW21814   3.960   1.543   1.569 -0.2142 -0.6500 -0.2570
 3394SOL    HW121815   3.905   1.485   1.622 -0.0236 -2.2753 -1.8388
 3394SOL    HW221816   4.019   1.475   1.536  0.1137 -0.1801 -0.6388
 3395SOL     OW21817   4.140   3.197  14.809  0.0135  1.0063  0.2738
 3395SOL    HW121818   4.080   3.256  14.764 -0.5486 -0.0215 -0.3362
 3395SOL    HW221819   4.077   3.164  14.873 -0.8623  0.7864 -0.6947
 3396SOL     OW21820   2.130   2.287  15.631  0.0981 -0.1635 -0.0666
 3396SOL    HW121821   2.157   2.323  15.547  0.0111  0.2639  0.0913
 3396SOL    HW221822   2.035   2.291  15.626  0.1597  3.9195  2.6860
 3397SOL     OW21823   1.668   1.804   4.655 -0.2922 -0.0873  0.2575
 3397SOL    HW121824   1.685   1.729   4.711  3.6311 -1.3829 -2.6483
 3397SOL    HW221825   1.590   1.849   4.689  0.1075  0.1512  0.8584
 3398SOL     OW21826   2.204   2.898   3.518 -0.5610  0.1075 -0.9485
 3398SOL    HW121827   2.172   2.845   3.591 -1.4288 -0.6813 -1.8834
 3398SOL    HW221828   2.262   2.833   3.478 -1.1318 -0.6413 -0.5553
 3399SOL     OW21829   4.030   1.080  17.627 -0.2055 -0.2043 -0.3538
 3399SOL    HW121830   4.108   1.129  17.603  0.0614  0.6667  2.3098
 3399SOL    HW221831   3.995   1.130  17.701  1.2270  1.5570 -0.8778
 3400SOL     OW21832   1.344   4.428   8.544  0.3870  0.2019 -0.0916
 3400SOL    HW121833   1.287   4.497   8.578 -0.6216 -0.1531 -1.0806
 3400SOL    HW221834   1.422   4.484   8.537  1.3029 -0.7816  2.1706
 3401SOL     OW21835   4.691   0.748   7.185  0.0722  0.7930 -0.0139
 3401SOL    HW121836   4.703   0.705   7.101  1.0822  2.1174 -0.5440
 3401SOL    HW221837   4.598   0.769   7.183 -0.3926 -1.6759 -4.4841
 3402SOL     OW21838   2.843   1.383   6.040 -0.6644 -0.1303 -0.8498
 3402SOL    HW121839   2.900   1.427   6.103 -2.2391  0.9720 -0.2170
 3402SOL    HW221840   2.905   1.319   6.005 -1.4251  0.1411 -2.6849
 3403SOL     OW21841   4.555   2.650  16.883 -0.0414  0.4093  0.1553
 3403SOL    HW121842   4.638   2.661  16.836 -0.5635 -0.1451 -0.8945
 3403SOL    HW221843   4.571   2.585  16.951  4.0009  0.2044 -0.9815
 3404SOL     OW21844   3.198   0.999  15.292  0.0345 -0.3855  0.4014
 3404SOL    HW121845   3.186   1.090  15.265 -0.8193 -0.7524 -0.4322
 3404SOL    HW221846   3.282   1.008  15.339 -0.2120 -0.5905  0.8794
 3405SOL     OW21847   0.245   4.521   5.991  0.1619  0.1061  0.0950
 3405SOL    HW121848   0.176   4.461   6.018 -2.1951  2.3473 -0.9301
 3405SOL    HW221849   0.201   4.590   5.942 -0.4780  1.5035  2.6700
 3406SOL     OW21850   0.833   1.371   3.862 -0.1012 -0.1176  0.1769
 3406SOL    HW121851   0.774   1.444   3.845 -0.8522 -0.6519  0.4933
 3406SOL    HW221852   0.856   1.353   3.771  0.2199  2.5968 -0.2622
 3407SOL     OW21853   1.854   0.210   8.147 -0.2483 -0.1264 -0.1122
 3407SOL    HW121854   1.843   0.305   8.144  1.2396  0.0235 -0.7308
 3407SOL    HW221855   1.793   0.177   8.082  0.6951 -0.0313 -1.0525
 3408SOL     OW21856   1.360   3.331  14.509 -0.1719 -0.6786  0.3074
 3408SOL    HW121857   1.316   3.293  14.585 -0.1991  2.5268  1.8977
 3408SOL    HW221858   1.341   3.264  14.443 -3.4600 -0.6024  1.1635
 3409SOL     OW21859   4.627   0.224   5.185  0.0628  0.3416 -0.8072
 3409SOL    HW121860   4.583   0.192   5.106  0.9327  1.7032 -1.8525
 3409SOL    HW221861   4.548   0.251   5.231 -0.3629  0.2713 -1.4928
 3410SOL     OW21862   2.909   0.266  13.951 -0.0902 -0.2823 -0.0738
 3410SOL    HW121863   2.969   0.293  13.882  0.9369  0.5165  1.1296
 3410SOL    HW221864   2.870   0.350  13.974 -0.6528  0.1469 -2.5926
 3411SOL     OW21865   4.689   4.406   9.495  0.3031 -0.2227 -0.2052
 3411SOL    HW121866   4.670   4.366   9.580  0.6511  0.4586  0.1938
 3411SOL    HW221867   4.735   4.331   9.456 -1.7329 -2.9120  2.5688
 3412SOL     OW21868   4.534   2.557   7.859  0.1170 -0.8556 -0.2018
 3412SOL    HW121869   4.599   2.601   7.913 -1.7900  0.5226  0.9799
 3412SOL    HW221870   4.555   2.565   7.766  0.2998 -0.3402 -0.1120
 3413SOL     OW21871   4.135   2.450   1.819 -0.0950  0.0135 -0.0334
 3413SOL    HW121872   4.140   2.368   1.867 -0.5592  0.6629  1.1430
 3413SOL    HW221873   4.134   2.417   1.729  0.5057  0.7313 -0.3036
 3414SOL     OW21874   4.256   2.397  16.582 -0.1182 -0.0389  0.1537
 3414SOL    HW121875   4.275   2.489  16.568 -0.6274  0.5854  3.5478
 3414SOL    HW221876   4.327   2.371  16.642  0.2517 -0.3025 -0.3879
 3415SOL     OW21877   2.917   4.687   3.754 -0.4493 -0.3681  0.3535
 3415SOL    HW121878   2.913   0.002   3.675  3.2513  0.4161  0.6777
 3415SOL    HW221879   2.857   4.616   3.731 -0.4731 -0.5759  1.0322
 3416SOL     OW21880   1.618   0.197   7.760 -0.6125  0.6455  0.0857
 3416SOL    HW121881   1.528   0.192   7.727 -0.8872 -0.4143  0.9735
 3416SOL    HW221882   1.599   0.204   7.854  0.7374 -0.7382  0.4603
 3417SOL     OW21883   0.546   0.324   5.180 -0.1790  0.0018 -0.0933
 3417SOL    HW121884   0.574   0.344   5.269  2.1105 -0.5474 -0.6894
 3417SOL    HW221885   0.452   0.340   5.180 -0.1441  0.2419  1.0198
 3418SOL     OW21886   3.901   2.903  17.331 -0.2966 -0.6856  0.3191
 3418SOL    HW121887   3.992   2.931  17.321 -0.0311 -1.3298  0.9801
 3418SOL    HW221888   3.863   2.991  17.337  1.2943  0.0117  0.2216
 3419SOL     OW21889   3.526   0.895   7.485 -0.1395  0.2948  0.2250
 3419SOL    HW121890   3.442   0.922   7.449 -0.5476  0.1905  1.1135
 3419SOL    HW221891   3.502   0.829   7.550 -0.0368  0.1398  0.1066
 3420SOL     OW21892   0.422   1.973  11.261  0.6728  0.0939  0.0529
 3420SOL    HW121893   0.393   2.056  11.223  1.0211 -0.6088 -1.7812
 3420SOL    HW221894   0.343   1.920  11.272  0.2889  0.3564 -1.4464
 3421SOL     OW21895   3.818   1.533   0.324  0.6941  0.0463  0.0722
 3421SOL    HW121896   3.802   1.567   0.235 -1.3719 -0.3019  0.3060
 3421SOL    HW221897   3.732   1.552   0.363 -0.0282 -0.3531 -1.2979
 3422SOL     OW21898   3.642   3.501   2.301  0.0888 -0.0906 -0.2792
 3422SOL    HW121899   3.629   3.505   2.206  0.5424  1.0276 -0.2930
 3422SOL    HW221900   3.643   3.591   2.335 -0.3994  0.5671 -2.0090
 3423SOL     OW21901   0.861   1.557   0.149 -0.2739  0.0854  0.2939
 3423SOL    HW121902   0.866   1.469   0.111  2.0520 -0.7632  2.5565
 3423SOL    HW221903   0.802   1.547   0.224 -1.0663  4.1815  0.1986
 3424SOL     OW21904   0.202   3.496   8.141 -0.2417 -0.1707  0.3427
 3424SOL    HW121905   0.128   3.440   8.162  0.8089 -0.3465  3.6022
 3424SOL    HW221906   0.247   3.458   8.217 -0.2698 -0.9954 -0.0487
 3425SOL     OW21907   0.537   4.517   9.522 -0.0218 -0.1653 -0.3744
 3425SOL    HW121908   0.541   4.520   9.426 -0.1097 -1.4616 -0.4259
 3425SOL    HW221909   0.595   4.445   9.546  0.3671  0.8104  1.5823
 3426SOL     OW21910   2.371   4.037  17.678  0.2593 -0.9654  0.2131
 3426SOL    HW121911   2.424   4.074  17.748  0.6955 -0.2409 -0.5095
 3426SOL    HW221912   2.298   4.011  17.734  0.0258 -1.3883 -0.2802
 3427SOL     OW21913   3.119   4.242   3.631  0.3523 -0.7347 -0.0585
 3427SOL    HW121914   3.112   4.216   3.722 -1.4288 -0.2620 -0.0724
 3427SOL    HW221915   3.211   4.221   3.614  0.0661 -2.0922  0.1223
 3428SOL     OW21916   2.756   3.533   1.914 -0.4740  0.3601 -0.0876
 3428SOL    HW121917   2.831   3.591   1.904  0.2305 -1.0411 -2.8950
 3428SOL    HW221918   2.788   3.455   1.869  0.8892  0.9471 -0.1274
 3429SOL     OW21919   0.217   3.195   0.371 -0.1922  0.0980 -0.2158
 3429SOL    HW121920   0.209   3.272   0.428 -1.7713 -0.2541  0.0519
 3429SOL    HW221921   0.307   3.206   0.343 -1.0573  4.1663 -1.3810
 3430SOL     OW21922   3.973   0.333   4.296  0.5331 -0.5028  0.0770
 3430SOL    HW121923   4.040   0.341   4.364 -0.4998  1.9731  0.8122
 3430SOL    HW221924   3.897   0.332   4.356 -0.1081  0.2794 -0.7248
 3431SOL     OW21925   1.390   1.374  11.669  0.1391 -0.0223 -0.5699
 3431SOL    HW121926   1.387   1.370  11.765  0.6563 -2.1474 -0.6532
 3431SOL    HW221927   1.482   1.350  11.659  0.8509  1.2775  2.6136
 3432SOL     OW21928   0.691   1.548  10.375 -0.2360  0.0643  0.7355
 3432SOL    HW121929   0.639   1.553  10.455 -1.9007 -0.4625 -0.3128
 3432SOL    HW221930   0.738   1.469  10.401  2.0767  1.2108  0.0862
 3433SOL     OW21931   3.970   0.814   8.834  0.2998  0.0969 -0.3267
 3433SOL    HW121932   3.921   0.889   8.802  0.3207  0.1239 -0.2957
 3433SOL    HW221933   3.910   0.783   8.902 -0.9025  1.1415 -0.9148
 3434SOL     OW21934   0.975   1.409   7.053  0.6060  0.9051  0.2448
 3434SOL    HW121935   0.892   1.383   7.093  0.2327 -0.1636 -1.2262
 3434SOL    HW221936   1.033   1.393   7.128 -0.6929 -0.6059  0.9379
 3435SOL     OW21937   1.120   4.273   7.672 -0.0655 -0.5011  0.0868
 3435SOL    HW121938   1.147   4.270   7.764 -0.1403  0.0036  0.1232
 3435SOL    HW221939   1.211   4.267   7.643 -0.1237  4.2843 -1.0745
 3436SOL     OW21940   3.626   1.113   1.392 -0.2384  0.6058  0.2685
 3436SOL    HW121941   3.551   1.162   1.426 -0.0798  1.5150 -0.6922
 3436SOL    HW221942   3.585   1.050   1.332  3.0117 -0.2044 -1.0982
 3437SOL     OW21943   1.323   4.733   8.960  0.6816  0.3278  0.0294
 3437SOL    HW121944   1.276   0.035   9.033 -3.3178 -3.1879 -0.5750
 3437SOL    HW221945   1.409   0.034   8.972  0.7799  0.2031 -0.2691
 3438SOL     OW21946   1.665   1.299   9.619 -0.4410 -0.0632 -0.3380
 3438SOL    HW121947   1.750   1.344   9.625  0.5638 -1.5747 -2.7823
 3438SOL    HW221948   1.687   1.218   9.665  1.1672 -0.0788 -1.1197
 3439SOL     OW21949   1.649   2.152   0.818  0.3227 -0.0188 -0.1737
 3439SOL    HW121950   1.641   2.239   0.780  1.8426 -0.3015 -1.1594
 3439SOL    HW221951   1.577   2.097   0.784  0.5311 -0.6925  0.4657
 3440SOL     OW21952   2.949   1.161   6.800 -0.2036 -0.1134  0.8348
 3440SOL    HW121953   2.976   1.072   6.821  1.2208  0.9496  3.4629
 3440SOL    HW221954   3.029   1.185   6.752 -0.5750 -1.7334 -0.5943
 3441SOL     OW21955   2.978   1.750   3.983  0.6205  0.3390 -0.0983
 3441SOL    HW121956   2.979   1.740   4.079 -1.1820  3.2632  0.2499
 3441SOL    HW221957   2.957   1.660   3.959  0.6471  0.8127 -1.8545
 3442SOL     OW21958   1.626   4.412   4.434  0.2099 -0.2062  0.0005
 3442SOL    HW121959   1.570   4.335   4.431  0.0393 -0.0700 -0.3816
 3442SOL    HW221960   1.680   4.393   4.357 -0.3971  0.0865 -0.4991
 3443SOL     OW21961   0.339   0.164   6.192  0.2109 -0.0773 -0.0378
 3443SOL    HW121962   0.421   0.116   6.180 -1.2574 -2.2185 -1.4978
 3443SOL    HW221963   0.345   0.189   6.285  1.8488 -0.9208  0.0835
 3444SOL     OW21964   3.636   1.074   2.830  0.0523 -0.3672 -0.6251
 3444SOL    HW121965   3.661   1.098   2.741  0.9379 -0.4454 -0.3928
 3444SOL    HW221966   3.589   0.992   2.815 -0.3669 -0.4815  1.2805
 3445SOL     OW21967   0.220   2.736   0.384 -0.2896  0.0469 -0.3813
 3445SOL    HW121968   0.236   2.694   0.299 -1.1699  1.7606 -1.3764
 3445SOL    HW221969   0.126   2.722   0.388 -0.3260  0.2776 -0.4381
 3446SOL     OW21970   1.419   3.551   5.510  0.6292  0.0119 -0.5888
 3446SOL    HW121971   1.505   3.545   5.552  0.7165  0.3310 -0.7181
 3446SOL    HW221972   1.399   3.626   5.566  0.8677  0.3554 -0.9601
 3447SOL     OW21973   3.522   3.279   7.425  0.0635  0.4171  0.6537
 3447SOL    HW121974   3.475   3.208   7.381 -1.0764  1.5222  0.1065
 3447SOL    HW221975   3.576   3.226   7.484 -0.8482  1.7987  2.7244
 3448SOL     OW21976   4.389   4.318  12.728  0.1586  0.0449  0.1163
 3448SOL    HW121977   4.320   4.254  12.708  0.9419 -0.8126  0.1227
 3448SOL    HW221978   4.347   4.402  12.710 -0.0168 -0.8113 -3.4750
 3449SOL     OW21979   3.887   4.493   8.959  0.0485  1.1325 -0.2012
 3449SOL    HW121980   3.911   4.583   8.983 -0.2206  0.9935  0.5758
 3449SOL    HW221981   3.963   4.454   9.001 -0.4047  2.5953  1.9600
 3450SOL     OW21982   1.306   1.061  12.043  0.1037  0.3207 -0.1721
 3450SOL    HW121983   1.251   0.993  12.081 -0.5193  1.1827  0.4815
 3450SOL    HW221984   1.386   1.052  12.094  1.1816  1.1045 -1.7458
 3451SOL     OW21985   4.734   4.244   1.122  0.8437 -0.7027  0.1716
 3451SOL    HW121986   4.697   4.331   1.139  0.8834 -0.6151 -0.1837
 3451SOL    HW221987   4.719   4.249   1.027 -2.6606 -0.9980  0.7186
 3452SOL     OW21988   0.395   4.321  14.213 -0.0875 -0.3316  0.4181
 3452SOL    HW121989   0.368   4.403  14.253 -0.7785 -0.2780 -0.1634
 3452SOL    HW221990   0.309   4.285  14.191  0.5164 -3.3633  3.1577
 3453SOL     OW21991   0.634   2.726  13.066 -0.0751 -0.3134 -0.3698
 3453SOL    HW121992   0.554   2.706  13.018 -0.9370  1.9543  0.1171
 3453SOL    HW221993   0.659   2.811  13.029 -2.1782  1.3613  2.0258
 3454SOL     OW21994   1.739   2.069  12.517 -0.0296 -0.0454  0.3199
 3454SOL    HW121995   1.699   2.008  12.455  0.0733 -0.0408  0.2500
 3454SOL    HW221996   1.744   2.022  12.600 -0.1456 -1.2136 -0.3300
 3455SOL     OW21997   1.764   2.014   4.118  0.1123  0.1137 -0.3073
 3455SOL    HW121998   1.834   2.008   4.183 -1.4262  0.8704  1.4525
 3455SOL    HW221999   1.687   2.015   4.176  1.5998  0.8601  1.6620
 3456SOL     OW22000   3.719   3.593  17.060  0.0282  0.5815  0.3717
 3456SOL    HW122001   3.727   3.591  16.965 -1.1109 -1.8720  0.3139
 3456SOL    HW222002   3.747   3.683  17.071  2.2923  0.3036 -3.2230
 3457SOL     OW22003   4.625   3.124  13.226  0.1652  0.2996 -0.7026
 3457SOL    HW122004   4.658   3.145  13.139 -0.5831  1.8390 -0.6093
 3457SOL    HW222005   4.657   3.190  13.288  0.0242 -0.5930  0.3299
 3458SOL     OW22006   3.459   0.717   2.377  0.6126  0.2962 -0.3060
 3458SOL    HW122007   3.416   0.705   2.292  2.0353  0.7193 -1.0783
 3458SOL    HW222008   3.522   0.645   2.376  1.0917  0.7365 -2.4645
 3459SOL     OW22009   4.470   0.314  13.083 -0.0079 -0.0887 -0.8724
 3459SOL    HW122010   4.561   0.327  13.111 -0.5059  0.1096  0.6853
 3459SOL    HW222011   4.474   0.232  13.034  1.3355  0.1052 -1.0943
 3460SOL     OW22012   4.424   0.310   8.318 -0.2484 -0.3279 -0.5160
 3460SOL    HW122013   4.369   0.284   8.244  0.0988  1.8347 -1.5319
 3460SOL    HW222014   4.476   0.381   8.281  0.6240 -1.1312 -0.8201
 3461SOL     OW22015   1.296   3.178   1.587  0.6561  0.6484 -0.2098
 3461SOL    HW122016   1.384   3.189   1.553  0.0980 -0.2734 -1.9287
 3461SOL    HW222017   1.309   3.152   1.679  0.8694 -2.1673 -1.0294
 3462SOL     OW22018   4.598   1.776   2.831  0.0617 -0.1717 -0.4867
 3462SOL    HW122019   4.637   1.852   2.874 -2.5569 -0.7306  2.8113
 3462SOL    HW222020   4.645   1.787   2.747  0.8427  1.4180  0.1504
 3463SOL     OW22021   2.011   2.014   2.459  0.2230 -0.0578 -0.1343
 3463SOL    HW122022   2.007   1.988   2.367 -2.3526 -0.2519  0.0428
 3463SOL    HW222023   1.920   2.032   2.480 -0.2203 -1.5533 -0.8291
 3464SOL     OW22024   4.461   4.043  15.840 -0.1468  0.1894  0.2159
 3464SOL    HW122025   4.450   4.113  15.903 -0.0568 -0.0051  0.4483
 3464SOL    HW222026   4.536   4.077  15.792  1.3530  0.2109  2.5902
 3465SOL     OW22027   3.445   0.303  13.250  0.1294 -0.1388 -0.3107
 3465SOL    HW122028   3.377   0.369  13.261 -0.9638 -1.7880  2.8358
 3465SOL    HW222029   3.425   0.251  13.328 -0.2806 -0.5203 -0.6676
 3466SOL     OW22030   3.015   2.340   5.715  0.0074  0.5484 -0.6165
 3466SOL    HW122031   2.962   2.347   5.794  1.2472 -0.0474  0.2736
 3466SOL    HW222032   3.075   2.265   5.726  1.6347  1.8501 -0.6767
 3467SOL     OW22033   3.611   1.334   2.897  0.4128  0.3448  0.0647
 3467SOL    HW122034   3.592   1.250   2.854 -0.9549 -0.8321  2.9264
 3467SOL    HW222035   3.682   1.363   2.840 -1.0000  0.0931 -1.8140
 3468SOL     OW22036   3.697   4.583   4.853 -0.2769 -1.2773  0.0939
 3468SOL    HW122037   3.640   4.512   4.824 -0.1021 -1.6760  0.7304
 3468SOL    HW222038   3.777   4.529   4.855  0.1769 -0.5137  3.1655
 3469SOL     OW22039   2.046   0.459   0.914 -0.0822  0.3383 -0.6603
 3469SOL    HW122040   2.085   0.486   0.998 -1.7555  2.4039 -0.5617
 3469SOL    HW222041   1.955   0.438   0.933  0.6021  0.2132  2.4960
 3470SOL     OW22042   1.804   2.850   3.653 -0.0714 -0.1325 -0.1650
 3470SOL    HW122043   1.883   2.833   3.706  0.1289  0.7211 -0.1965
 3470SOL    HW222044   1.730   2.848   3.714  0.1459  0.5864  0.1203
 3471SOL     OW22045   0.336   4.483   4.336  0.1220 -0.2159  0.3471
 3471SOL    HW122046   0.262   4.473   4.396  0.8360  0.7156  1.3744
 3471SOL    HW222047   0.391   4.544   4.386  0.5599 -0.1667 -0.1934
 3472SOL     OW22048   0.002   4.385   6.727 -0.0513  0.5256  1.1585
 3472SOL    HW122049   0.092   4.389   6.694  0.2295  0.4710  1.9000
 3472SOL    HW222050   4.689   4.448   6.677 -0.4833 -0.3904  0.4407
 3473SOL     OW22051   1.609   3.364   8.164  0.1849  0.2456  0.1479
 3473SOL    HW122052   1.598   3.459   8.157  0.2210  0.0958 -1.9438
 3473SOL    HW222053   1.701   3.350   8.143  0.0105 -0.5850 -0.0798
 3474SOL     OW22054   1.701   0.895  14.021 -0.2449 -0.1369 -0.4235
 3474SOL    HW122055   1.670   0.963  13.961  0.0706  1.3177  1.0635
 3474SOL    HW222056   1.707   0.950  14.099  0.2655 -0.5863 -0.1450
 3475SOL     OW22057   2.382   2.595  17.468  0.0633  0.1676  0.2242
 3475SOL    HW122058   2.412   2.513  17.507 -1.0697 -1.6654 -2.7567
 3475SOL    HW222059   2.375   2.643  17.551  0.7970  2.8270 -1.2461
 3476SOL     OW22060   0.481   0.564   3.133  0.1615 -0.4105  0.3095
 3476SOL    HW122061   0.532   0.565   3.214  1.0169 -0.5014 -0.2263
 3476SOL    HW222062   0.404   0.587   3.183  0.0421  0.4276 -0.2591
 3477SOL     OW22063   1.579   0.910   4.890  0.1282 -0.5603 -0.7325
 3477SOL    HW122064   1.595   0.855   4.813 -1.4636 -1.8619 -0.1507
 3477SOL    HW222065   1.531   0.983   4.850  0.8263 -0.1884 -0.8888
 3478SOL     OW22066   1.304   2.908   1.542 -0.0008  0.3748  0.1961
 3478SOL    HW122067   1.370   2.892   1.474  2.0541  1.9059  1.8430
 3478SOL    HW222068   1.294   3.003   1.534 -0.8624  0.4303  1.9486
 3479SOL     OW22069   2.735   1.278   1.963  0.2091 -0.2486  0.6145
 3479SOL    HW122070   2.800   1.208   1.963  0.6438  0.1600  1.4133
 3479SOL    HW222071   2.758   1.328   2.041 -0.8048  1.6823 -0.3307
 3480SOL     OW22072   3.863   3.954   5.494 -0.0507  0.0384  0.0564
 3480SOL    HW122073   3.958   3.962   5.499  0.0863 -2.8348  1.7647
 3480SOL    HW222074   3.846   3.897   5.569  1.5297 -1.3390 -0.6062
 3481SOL     OW22075   0.858   1.016   3.587 -0.7899 -0.1246 -0.1217
 3481SOL    HW122076   0.770   1.054   3.592  0.2779  2.2820  0.5856
 3481SOL    HW222077   0.913   1.092   3.607  1.4196 -1.0401 -2.5784
 3482SOL     OW22078   2.509   3.941   7.120 -0.4258 -0.5006 -0.1092
 3482SOL    HW122079   2.584   3.992   7.089  0.1808 -1.6197 -0.4877
 3482SOL    HW222080   2.514   3.869   7.056  0.8070 -0.9901  0.5389
 3483SOL     OW22081   2.950   3.880   2.139  0.1757 -0.9179  0.1618
 3483SOL    HW122082   2.997   3.855   2.218 -2.5474 -0.4709  1.9407
 3483SOL    HW222083   2.892   3.940   2.186 -0.3384 -2.9496  2.1505
 3484SOL     OW22084   3.159   3.539   7.747  0.0432  0.1346  0.0993
 3484SOL    HW122085   3.225   3.532   7.678 -1.9550  0.2318 -1.8224
 3484SOL    HW222086   3.095   3.595   7.703  0.4948  1.6600  1.4117
 3485SOL     OW22087   0.856   4.451   2.290  0.2651  0.3823 -0.2455
 3485SOL    HW122088   0.789   4.407   2.342 -0.4145 -0.7531 -2.0813
 3485SOL    HW222089   0.791   4.500   2.239 -0.3618 -0.6686 -0.4671
 3486SOL     OW22090   0.181   1.920   6.537 -0.1218 -0.5372 -0.4629
 3486SOL    HW122091   0.190   1.952   6.448 -0.0565 -0.8929 -0.5867
 3486SOL    HW222092   0.208   1.829   6.521 -0.4124 -0.7780  0.3828
 3487SOL     OW22093   0.691   4.365   3.906 -0.0786 -0.5818 -0.2270
 3487SOL    HW122094   0.689   4.364   3.810  0.3508  0.5488 -0.2434
 3487SOL    HW222095   0.636   4.443   3.915  0.3543 -0.2104 -0.7738
 3488SOL     OW22096   2.463   4.425   5.573  0.2160 -0.2564  0.3377
 3488SOL    HW122097   2.404   4.500   5.582 -0.4528 -0.8806  1.1303
 3488SOL    HW222098   2.417   4.355   5.620 -0.8085  1.5792  2.0662
 3489SOL     OW22099   0.827   4.733   6.932  0.0182 -0.1096 -0.0022
 3489SOL    HW122100   0.832   4.671   7.005 -1.2270  0.9082  0.9663
 3489SOL    HW222101   0.827   4.677   6.855  2.3820  0.2236 -0.2552
 3490SOL     OW22102   3.499   3.692  12.049  0.0546 -0.1573  0.7761
 3490SOL    HW122103   3.552   3.623  12.011  1.0129 -0.4874  2.7367
 3490SOL    HW222104   3.421   3.690  11.993 -0.3973 -1.5041  1.4522
 3491SOL     OW22105   1.781   0.027   8.553  0.2735 -0.0194 -0.1735
 3491SOL    HW122106   1.767   0.043   8.647  0.8445 -0.2668 -0.0448
 3491SOL    HW222107   1.794   0.119   8.528  0.4547  0.4135  1.4608
 3492SOL     OW22108   3.821   1.626   6.344 -0.1086  0.3829 -0.7293
 3492SOL    HW122109   3.895   1.686   6.333  0.4722  0.1756  2.2095
 3492SOL    HW222110   3.845   1.568   6.272  2.4158  1.9019 -1.1007
 3493SOL     OW22111   3.103   1.471   4.565  0.2443 -0.0418  0.2384
 3493SOL    HW122112   3.024   1.439   4.522  1.4095  0.3434 -2.2046
 3493SOL    HW222113   3.139   1.524   4.493 -1.1070 -0.0141 -0.4135
 3494SOL     OW22114   0.102   0.720   5.077  0.0045  0.5519 -0.3876
 3494SOL    HW122115   0.153   0.800   5.086  2.8744 -1.3028 -0.3616
 3494SOL    HW222116   0.170   0.658   5.052 -1.4508 -2.6567  3.7007
 3495SOL     OW22117   3.624   2.565   0.362 -0.3668  0.3136 -0.2547
 3495SOL    HW122118   3.676   2.550   0.283 -0.2945  1.1914 -0.3814
 3495SOL    HW222119   3.660   2.490   0.409  0.6430  0.4154 -0.8702
 3496SOL     OW22120   1.168   0.534   9.434  0.0178 -0.0153 -0.0417
 3496SOL    HW122121   1.139   0.443   9.428 -2.9995  0.9396  0.0647
 3496SOL    HW222122   1.248   0.536   9.382 -0.5340  0.7797 -0.8551
 3497SOL     OW22123   1.772   4.472  11.283 -0.3896 -0.2102 -0.8842
 3497SOL    HW122124   1.681   4.450  11.306 -1.6294  2.1938 -3.4533
 3497SOL    HW222125   1.767   4.562  11.251 -1.7719 -1.1903 -3.5057
 3498SOL     OW22126   3.053   3.293   0.185  0.5310  0.3001 -0.0175
 3498SOL    HW122127   2.968   3.337   0.173 -0.7199 -1.8343  1.1535
 3498SOL    HW222128   3.025   3.204   0.162  2.5480 -0.6238  1.2056
 3499SOL     OW22129   3.062   2.313   6.446 -0.5710 -0.2802 -0.3288
 3499SOL    HW122130   3.031   2.390   6.493  2.2697 -1.0425  2.8005
 3499SOL    HW222131   3.055   2.347   6.356 -0.2983  2.8459  0.8528
 3500SOL     OW22132   3.815   2.357   6.590 -0.8523 -0.4452 -0.6455
 3500SOL    HW122133   3.774   2.435   6.554  2.1004  1.8174  0.8782
 3500SOL    HW222134   3.904   2.391   6.597 -0.6885 -1.0675  0.3903
 3501SOL     OW22135   0.018   4.479   2.365  0.2455 -0.0011  0.0353
 3501SOL    HW122136   0.010   4.441   2.452  0.7004  1.0272  0.5173
 3501SOL    HW222137   4.729   4.409   2.305  0.7324  0.7722 -1.1101
 3502SOL     OW22138   1.615   1.103   3.855 -0.6436 -0.0114 -0.3581
 3502SOL    HW122139   1.690   1.079   3.800 -0.1733 -0.6457  0.5579
 3502SOL    HW222140   1.566   1.139   3.781  2.0049 -0.6707 -2.4215
 3503SOL     OW22141   3.433   2.215   2.368 -0.1703 -0.4060  0.4923
 3503SOL    HW122142   3.356   2.203   2.313  1.0640  0.1623 -1.3732
 3503SOL    HW222143   3.403   2.281   2.431  0.3630  0.0458  0.2839
 3504SOL     OW22144   2.528   1.855   9.096 -0.2489 -0.2019  0.0249
 3504SOL    HW122145   2.486   1.773   9.071  1.4328 -0.7348 -1.0869
 3504SOL    HW222146   2.482   1.916   9.038 -1.4329  0.6569  1.8937
 3505SOL     OW22147   1.848   1.545   2.232  0.0562 -0.6376  0.4320
 3505SOL    HW122148   1.924   1.601   2.242 -1.7991  1.8372  0.7249
 3505SOL    HW222149   1.891   1.479   2.178  0.9601  0.2906  0.0138
 3506SOL     OW22150   4.546   1.981   8.910 -0.5382 -0.6549 -0.4145
 3506SOL    HW122151   4.626   1.993   8.961 -2.0457  1.1543  1.5307
 3506SOL    HW222152   4.492   2.034   8.969  1.7675  0.1855  0.9385
 3507SOL     OW22153   3.439   3.063  17.256  0.3956 -0.5555 -0.2371
 3507SOL    HW122154   3.517   3.089  17.306 -1.3582 -0.4871  2.4689
 3507SOL    HW222155   3.381   3.139  17.252 -2.3073 -2.6364 -0.2152
 3508SOL     OW22156   0.057   1.039  16.876 -0.4216  0.0550  0.3677
 3508SOL    HW122157   0.117   1.004  16.810 -1.6306  0.0937 -0.7596
 3508SOL    HW222158   4.710   1.021  16.836 -0.6528  1.1884  0.3700
 3509SOL     OW22159   1.141   4.532   3.181  0.5709 -0.3482 -0.3979
 3509SOL    HW122160   1.108   4.489   3.101  0.4107  0.8957 -1.0052
 3509SOL    HW222161   1.114   4.623   3.166 -1.0563 -0.8152 -0.3487
 3510SOL     OW22162   3.242   3.919   3.627 -0.5829 -0.2645 -0.2403
 3510SOL    HW122163   3.202   3.917   3.714 -0.9087 -2.0221 -0.4141
 3510SOL    HW222164   3.301   3.844   3.637 -1.4202 -1.0020 -0.7841
 3511SOL     OW22165   1.727   1.425   2.434  0.2384 -0.0459 -0.7716
 3511SOL    HW122166   1.737   1.331   2.450 -0.9185 -0.2891 -1.4262
 3511SOL    HW222167   1.768   1.448   2.351 -0.4128 -2.2789 -1.7263
 3512SOL     OW22168   4.517   3.911   7.429 -0.3409  0.5251 -0.5522
 3512SOL    HW122169   4.549   3.975   7.366  3.4326 -0.8459 -0.0162
 3512SOL    HW222170   4.441   3.953   7.470 -1.6889 -0.6931 -1.8328
 3513SOL     OW22171   4.057   1.941   0.110 -0.0006  0.4701  0.6627
 3513SOL    HW122172   4.146   1.973   0.096 -0.0556 -0.0316 -0.8634
 3513SOL    HW222173   4.071   1.928   0.204 -0.9432 -2.8069  0.3348
 3514SOL     OW22174   3.988   0.613   7.959 -0.8304  0.3263 -0.5625
 3514SOL    HW122175   3.985   0.517   7.963 -2.7623  0.4513  1.0005
 3514SOL    HW222176   3.972   0.634   7.867  1.8010 -2.4676 -1.6580
 3515SOL     OW22177   4.384   2.149  15.061  0.2648  0.3959 -0.0854
 3515SOL    HW122178   4.317   2.082  15.050 -2.7354  2.9248  2.9691
 3515SOL    HW222179   4.444   2.132  14.988  0.7058 -1.5487  0.7185
 3516SOL     OW22180   3.990   4.727   9.034 -0.1011 -0.2500 -0.0251
 3516SOL    HW122181   3.986   0.084   9.044 -1.7795 -0.4361  1.1493
 3516SOL    HW222182   4.079   4.725   8.999 -0.2161 -0.9443 -0.2705
 3517SOL     OW22183   0.299   2.905   0.626 -0.0314  0.2708  0.2743
 3517SOL    HW122184   0.225   2.965   0.621  0.2534  0.5501 -0.5462
 3517SOL    HW222185   0.261   2.839   0.568 -0.2692  0.2648  0.4358
 3518SOL     OW22186   0.982   4.513  12.731  0.6013 -0.0233  0.2092
 3518SOL    HW122187   0.935   4.439  12.694 -0.1907  0.0791  1.0230
 3518SOL    HW222188   1.016   4.472  12.810  2.5932 -0.1364 -0.6826
 3519SOL     OW22189   0.068   0.530   9.158  0.7671  0.3004  0.2722
 3519SOL    HW122190   0.068   0.441   9.193 -0.8318 -0.5489 -1.9269
 3519SOL    HW222191   0.070   0.505   9.066  0.4176  1.5024 -0.0520
 3520SOL     OW22192   2.306   3.784   8.470 -0.3419 -0.8295 -0.4347
 3520SOL    HW122193   2.230   3.839   8.454 -1.5817 -3.0729 -2.3573
 3520SOL    HW222194   2.271   3.733   8.544  0.6312 -0.7001  0.1094
 3521SOL     OW22195   1.559   0.132   3.807  0.4731  0.3181 -0.1808
 3521SOL    HW122196   1.568   0.197   3.877  2.9067  0.9429 -1.0645
 3521SOL    HW222197   1.465   0.127   3.791  0.4139 -2.0681  0.8886
 3522SOL     OW22198   2.962   0.001   6.518  0.3212 -0.4881  1.1846
 3522SOL    HW122199   3.052   0.028   6.499 -0.2946 -0.3175 -1.5078
 3522SOL    HW222200   2.951   0.021   6.611  1.1477  1.2961  0.8917
 3523SOL     OW22201   1.851   2.272   5.040  0.2746  0.1279  0.0580
 3523SOL    HW122202   1.838   2.228   4.956 -3.1645  0.3754  0.4580
 3523SOL    HW222203   1.899   2.351   5.015  1.2515 -0.6872 -0.6829
 3524SOL     OW22204   3.119   0.751   7.189  0.0702 -0.2411  0.1799
 3524SOL    HW122205   3.154   0.839   7.173  0.4743 -0.3577  0.4290
 3524SOL    HW222206   3.192   0.694   7.214  1.1573  0.8878 -0.3800
 3525SOL     OW22207   2.526   0.951  10.641  0.0342 -0.2902 -0.3610
 3525SOL    HW122208   2.470   0.889  10.687 -0.4597  0.2858 -0.1812
 3525SOL    HW222209   2.604   0.907  10.608  1.8059  0.5554  2.6442
 3526SOL     OW22210   3.532   1.864   1.805 -0.0780  0.0248 -0.0599
 3526SOL    HW122211   3.470   1.806   1.848  0.0764  1.4697  2.0762
 3526SOL    HW222212   3.616   1.818   1.810  0.2143  0.3460 -1.9282
 3527SOL     OW22213   2.774   2.204   5.829 -0.1939 -0.3858 -0.4473
 3527SOL    HW122214   2.787   2.142   5.901  1.3610 -0.1654 -0.5324
 3527SOL    HW222215   2.777   2.145   5.754  0.3687 -0.3965 -0.4199
 3528SOL     OW22216   0.494   0.758   1.533 -0.0881 -0.5404 -0.9574
 3528SOL    HW122217   0.419   0.773   1.590 -0.1310 -0.5414 -1.0131
 3528SOL    HW222218   0.469   0.679   1.483 -0.3086 -1.5821  0.8050
 3529SOL     OW22219   0.805   0.655   9.745 -0.2217 -0.6668  0.0356
 3529SOL    HW122220   0.863   0.713   9.696 -0.5650 -0.5759 -0.2666
 3529SOL    HW222221   0.825   0.571   9.704 -1.4009 -0.5406 -0.7876
 3530SOL     OW22222   0.094   4.081  15.169 -0.1686 -0.2905 -0.2170
 3530SOL    HW122223   0.084   4.174  15.151  0.7360  0.2372  2.0176
 3530SOL    HW222224   0.033   4.055  15.238 -2.2151  1.2537 -1.4646
 3531SOL     OW22225   4.227   1.173  13.809 -0.2752 -0.0116 -0.7435
 3531SOL    HW122226   4.231   1.149  13.716 -0.9854 -1.4390 -0.4013
 3531SOL    HW222227   4.190   1.096  13.851  1.9496 -0.3538  0.5604
 3532SOL     OW22228   4.518   4.598   7.339  0.3172 -0.5941  0.3978
 3532SOL    HW122229   4.554   4.536   7.276 -0.7403 -2.2908  1.4779
 3532SOL    HW222230   4.524   4.681   7.291 -0.0718  0.0679  1.4739
 3533SOL     OW22231   2.097   0.316   8.459 -0.2525 -0.0051 -0.1508
 3533SOL    HW122232   2.066   0.382   8.521 -1.6619 -0.9775  0.1803
 3533SOL    HW222233   2.184   0.299   8.497 -0.8348  0.1983  1.2696
 3534SOL     OW22234   2.351   1.915  15.937  0.1335  0.3846 -0.0905
 3534SOL    HW122235   2.344   2.006  15.909 -2.8419  0.3017  0.3693
 3534SOL    HW222236   2.287   1.869  15.882 -0.6717  1.6394 -0.2016
 3535SOL     OW22237   2.153   3.822   3.733 -0.0230  0.0965 -0.3198
 3535SOL    HW122238   2.090   3.892   3.718  0.1408  0.6477  1.5803
 3535SOL    HW222239   2.104   3.771   3.799 -1.0054 -2.4159 -2.9891
 3536SOL     OW22240   0.662   4.369  14.301 -0.2812  0.5137 -0.3365
 3536SOL    HW122241   0.575   4.397  14.271  0.2801  0.1240 -2.3184
 3536SOL    HW222242   0.690   4.458  14.321 -0.8652  0.6352 -0.0500
 3537SOL     OW22243   0.113   0.397   5.790  0.7703  0.5345 -0.1479
 3537SOL    HW122244   0.021   0.390   5.764  0.6330 -0.8704  0.7222
 3537SOL    HW222245   0.157   0.331   5.735  1.0004 -0.1745  0.8826
 3538SOL     OW22246   3.057   2.652   7.234 -0.1406 -0.0479  0.2037
 3538SOL    HW122247   2.993   2.684   7.298 -0.4894  2.1605 -1.2370
 3538SOL    HW222248   3.014   2.678   7.152  1.0405  0.6219 -0.1961
 3539SOL     OW22249   0.359   2.118  14.510  0.2824  0.0781  0.2490
 3539SOL    HW122250   0.290   2.142  14.570  0.2494  1.2407 -0.2546
 3539SOL    HW222251   0.303   2.061  14.457  0.0451  1.1569 -0.6689
 3540SOL     OW22252   3.610   4.612  14.664  0.6651 -0.2350 -0.4033
 3540SOL    HW122253   3.642   4.543  14.721  0.2228 -0.5815 -0.5711
 3540SOL    HW222254   3.591   4.556  14.588 -0.7920 -0.9610  0.5078
 3541SOL     OW22255   2.691   0.926   8.964 -0.2246  0.1351  0.3652
 3541SOL    HW122256   2.694   1.014   9.002  2.0319  0.5516 -0.7802
 3541SOL    HW222257   2.728   0.863   9.026 -2.0515  0.1343  1.4600
 3542SOL     OW22258   2.706   0.475   6.520 -0.0680 -0.4981  0.4003
 3542SOL    HW122259   2.678   0.394   6.562  1.0564 -0.8599  0.4585
 3542SOL    HW222260   2.618   0.508   6.502 -0.2785 -1.3450 -0.1435
 3543SOL     OW22261   1.220   0.220  15.649  0.5314  0.4723  0.1803
 3543SOL    HW122262   1.268   0.244  15.569 -0.0024  1.0098  0.0180
 3543SOL    HW222263   1.135   0.263  15.640  0.4069  0.7412  2.7498
 3544SOL     OW22264   0.240   4.410   6.635 -0.3840  0.0130 -0.2894
 3544SOL    HW122265   0.244   4.325   6.591  0.6873  0.4219 -0.9913
 3544SOL    HW222266   0.333   4.429   6.646 -0.6097  0.2111  1.2095
 3545SOL     OW22267   0.192   0.567   1.180 -0.3225 -0.2973  1.0856
 3545SOL    HW122268   0.191   0.619   1.099  1.9407 -1.8102  0.0999
 3545SOL    HW222269   0.232   0.488   1.145  0.5982  0.5851  0.1570
 3546SOL     OW22270   0.717   0.263   7.627  0.4772 -0.3913  0.3137
 3546SOL    HW122271   0.694   0.348   7.588 -3.6087 -0.0894  3.3754
 3546SOL    HW222272   0.695   0.207   7.552  0.1852 -0.9837  0.8482
 3547SOL     OW22273   0.685   2.100  16.719 -0.3393 -0.2139 -0.1011
 3547SOL    HW122274   0.733   2.177  16.690 -2.5594  1.2309  0.0817
 3547SOL    HW222275   0.606   2.106  16.666 -0.4938 -2.0444 -0.0967
 3548SOL     OW22276   3.223   1.691   2.495  0.7129  0.4647 -0.0466
 3548SOL    HW122277   3.140   1.739   2.496  1.5627  1.9230  0.0338
 3548SOL    HW222278   3.283   1.765   2.505  0.9203  0.3770 -0.6400
 3549SOL     OW22279   1.886   2.795   2.058  0.1940 -1.0034  0.2544
 3549SOL    HW122280   1.868   2.756   1.972 -1.9137  1.9545 -0.6377
 3549SOL    HW222281   1.847   2.879   2.034  0.0468 -0.7942  1.2322
 3550SOL     OW22282   0.922   2.422  13.598 -0.7519 -0.4005  0.1922
 3550SOL    HW122283   0.918   2.340  13.648 -2.6124  0.2487  1.1205
 3550SOL    HW222284   1.015   2.437  13.616 -0.3863 -0.5783 -1.6006
 3551SOL     OW22285   0.584   2.132   3.973  0.1837 -0.0163 -0.3180
 3551SOL    HW122286   0.619   2.198   3.913  1.4288 -1.4736 -1.2146
 3551SOL    HW222287   0.667   2.086   3.978 -0.2983 -0.7067  1.1781
 3552SOL     OW22288   4.606   2.990   7.842 -0.3769 -0.4624 -0.2807
 3552SOL    HW122289   4.625   2.996   7.935  4.5688 -0.5967 -1.2862
 3552SOL    HW222290   4.511   2.979   7.845 -0.6444  1.4188 -1.6490
 3553SOL     OW22291   2.923   3.394   9.568 -0.7373 -0.0022 -0.1245
 3553SOL    HW122292   2.981   3.463   9.535  1.2830 -0.1135  3.0754
 3553SOL    HW222293   2.837   3.421   9.538 -1.3584 -0.5371  1.1675
 3554SOL     OW22294   0.229   2.505   4.971  0.4172 -0.3488 -0.1047
 3554SOL    HW122295   0.236   2.518   5.065  0.6420  0.0597 -0.1772
 3554SOL    HW222296   0.170   2.431   4.958 -1.5912  0.7820  2.5897
 3555SOL     OW22297   3.650   2.837   6.719 -0.4157  0.2038  0.4671
 3555SOL    HW122298   3.738   2.811   6.690  0.5758  3.6161  0.4778
 3555SOL    HW222299   3.621   2.885   6.642 -0.0064 -0.3638 -0.0405
 3556SOL     OW22300   3.447   3.775   4.624 -0.8132 -0.4709  0.1760
 3556SOL    HW122301   3.383   3.733   4.567 -0.7111 -1.5144  0.8244
 3556SOL    HW222302   3.483   3.706   4.679 -2.3719 -2.4507 -1.2962
 3557SOL     OW22303   3.803   3.814   2.066 -0.1090 -0.2419 -0.3890
 3557SOL    HW122304   3.744   3.739   2.067 -1.9958  1.2328 -0.7831
 3557SOL    HW222305   3.787   3.848   1.978 -0.2573  1.8065  0.4400
 3558SOL     OW22306   3.012   3.401  15.078 -0.0220  0.0703 -0.1968
 3558SOL    HW122307   2.990   3.489  15.048  2.5031  0.0003 -2.2590
 3558SOL    HW222308   3.103   3.411  15.105  0.6232 -0.6809 -2.0726
 3559SOL     OW22309   0.030   0.597   7.757 -0.1407 -0.2019 -0.8747
 3559SOL    HW122310   0.045   0.663   7.825 -0.6507 -2.0348  1.0057
 3559SOL    HW222311   0.115   0.555   7.751  0.0516 -0.2542  2.2008
 3560SOL     OW22312   4.486   0.438   5.450  0.0259  0.2523  0.1163
 3560SOL    HW122313   4.547   0.492   5.400  0.1132  0.1493  0.1123
 3560SOL    HW222314   4.416   0.439   5.384  1.5072 -0.2547 -1.4759
 3561SOL     OW22315   0.193   2.740  17.636  0.3394 -0.2476 -0.4191
 3561SOL    HW122316   0.102   2.768  17.650 -0.6028 -3.6142  0.1736
 3561SOL    HW222317   0.224   2.802  17.569  1.8130  1.1833  1.6015
 3562SOL     OW22318   2.644   4.167   4.983  0.0434 -0.4876  0.4226
 3562SOL    HW122319   2.731   4.168   4.944 -0.9235  2.3809 -1.6339
 3562SOL    HW222320   2.656   4.083   5.028 -1.7812 -2.8415 -3.5221
 3563SOL     OW22321   0.609   3.740   4.750 -0.7156 -0.1675  0.2657
 3563SOL    HW122322   0.619   3.650   4.719 -0.0687  0.1186 -0.3566
 3563SOL    HW222323   0.625   3.788   4.669 -1.5055  1.1601  0.9062
 3564SOL     OW22324   3.363   2.423   0.297  0.1823 -0.2247  0.9294
 3564SOL    HW122325   3.449   2.444   0.334  0.7886 -0.7477 -0.2060
 3564SOL    HW222326   3.374   2.343   0.246  0.9746 -0.3609  1.3084
 3565SOL     OW22327   1.458   1.420   3.104  0.3729  0.1205 -0.1837
 3565SOL    HW122328   1.484   1.511   3.112  0.6740 -0.0477  0.8316
 3565SOL    HW222329   1.493   1.390   3.021  2.8227  1.7885  0.2678
 3566SOL     OW22330   4.280   0.794   1.759  0.5992  0.7800  0.1299
 3566SOL    HW122331   4.202   0.750   1.793  0.9916 -0.9089 -1.0996
 3566SOL    HW222332   4.350   0.754   1.811  0.4216 -0.0398 -0.2596
 3567SOL     OW22333   4.558   0.229  10.872  0.6316  0.2110 -0.0394
 3567SOL    HW122334   4.635   0.204  10.821  0.6419  0.5500 -0.1896
 3567SOL    HW222335   4.606   0.259  10.949 -0.5758 -0.9997  1.1747
 3568SOL     OW22336   1.261   4.021   1.552 -0.0850  0.2706  0.4237
 3568SOL    HW122337   1.344   4.065   1.566 -0.1496  0.1208  1.3124
 3568SOL    HW222338   1.283   3.936   1.591 -1.8069 -0.7400 -0.7733
 3569SOL     OW22339   3.898   3.462   5.170 -0.0436 -0.2340 -0.3086
 3569SOL    HW122340   3.817   3.498   5.134 -0.6550  0.3359  1.6649
 3569SOL    HW222341   3.953   3.509   5.106 -1.1679  0.7953 -0.5226
 3570SOL     OW22342   0.237   1.790   0.373 -0.4726 -0.0847  0.3655
 3570SOL    HW122343   0.230   1.706   0.418  0.9395 -0.6832 -0.5677
 3570SOL    HW222344   0.320   1.775   0.328  1.9432  4.2294  3.3821
 3571SOL     OW22345   0.930   1.094   3.305  0.4366 -0.3702  0.8501
 3571SOL    HW122346   0.960   1.004   3.314 -1.5030 -1.2091 -1.0755
 3571SOL    HW222347   0.973   1.114   3.221 -0.7637  1.6385  0.7009
 3572SOL     OW22348   0.500   1.061  10.876  0.3131 -0.0967 -0.5642
 3572SOL    HW122349   0.495   1.136  10.817 -3.3339 -0.1402 -0.2828
 3572SOL    HW222350   0.417   1.019  10.854 -0.4901  0.4519  1.4972
 3573SOL     OW22351   3.654   4.375   5.090  0.9130  0.1278  1.1198
 3573SOL    HW122352   3.707   4.349   5.015 -0.8703 -0.1019 -0.0304
 3573SOL    HW222353   3.628   4.462   5.061  1.4983  0.2364  0.9130
 3574SOL     OW22354   0.766   2.133   7.471  0.2549  0.0756 -0.5540
 3574SOL    HW122355   0.794   2.224   7.458  2.0134 -0.3105  0.6020
 3574SOL    HW222356   0.721   2.104   7.392  1.4438  0.3958 -1.3508
 3575SOL     OW22357   3.505   3.316   8.357 -0.0497  0.2262 -0.0286
 3575SOL    HW122358   3.518   3.358   8.441  0.7443 -0.1817  0.0476
 3575SOL    HW222359   3.494   3.223   8.376 -1.1227  0.7431  1.7926
 3576SOL     OW22360   2.623   1.736   8.326  0.3093 -0.5880  0.1329
 3576SOL    HW122361   2.644   1.821   8.365 -1.7499  0.5587 -1.2466
 3576SOL    HW222362   2.674   1.681   8.386  0.2578  2.1804  2.7239
 3577SOL     OW22363   0.238   0.350   7.827  0.5508  0.0703 -0.3595
 3577SOL    HW122364   0.257   0.261   7.800  0.6125 -0.6898  2.1919
 3577SOL    HW222365   0.302   0.406   7.783  1.9402 -0.6479  0.7472
 3578SOL     OW22366   3.525   2.676  15.093 -0.4953  0.6209  0.3637
 3578SOL    HW122367   3.605   2.639  15.130 -0.9872 -1.8930 -1.1046
 3578SOL    HW222368   3.471   2.684  15.171  0.1939  0.7518  0.8359
 3579SOL     OW22369   0.807   2.474   9.440  0.3755  0.7236  0.2615
 3579SOL    HW122370   0.752   2.400   9.417  1.3754 -0.1903  0.8405
 3579SOL    HW222371   0.841   2.448   9.526 -3.1928 -1.2628  1.0368
 3580SOL     OW22372   3.833   0.873  10.170  0.4621 -0.9471  0.0346
 3580SOL    HW122373   3.794   0.924  10.100  3.0926 -0.0916 -0.7954
 3580SOL    HW222374   3.881   0.800  10.131  0.0145 -1.5899  0.6893
 3581SOL     OW22375   0.461   2.967  15.813  0.1352  0.6309 -0.0368
 3581SOL    HW122376   0.478   3.046  15.762 -0.3737  0.5011 -0.4029
 3581SOL    HW222377   0.547   2.924  15.801  0.4363  0.9248  1.0776
 3582SOL     OW22378   1.617   3.764   3.714  0.4212  0.0228  0.7585
 3582SOL    HW122379   1.630   3.697   3.648 -0.3588  0.1363  0.4919
 3582SOL    HW222380   1.631   3.708   3.790  1.1249 -0.6974  0.1070
 3583SOL     OW22381   1.598   1.233   2.647 -0.1622 -0.0814 -0.7663
 3583SOL    HW122382   1.606   1.328   2.657  3.4329 -0.6494  1.7320
 3583SOL    HW222383   1.602   1.212   2.553 -1.1973  0.8828 -1.0302
 3584SOL     OW22384   0.807   4.159  11.141 -0.0866 -0.0627  0.6201
 3584SOL    HW122385   0.715   4.174  11.119 -0.4981  0.5788  2.7394
 3584SOL    HW222386   0.832   4.225  11.206 -0.4566 -0.4186  1.1248
 3585SOL     OW22387   3.262   1.039   6.921 -0.4256  0.2431 -0.2929
 3585SOL    HW122388   3.254   0.980   6.846 -0.2804 -1.9269  1.4150
 3585SOL    HW222389   3.337   1.086   6.884 -1.5154  1.5595 -0.8587
 3586SOL     OW22390   3.003   1.506   6.297  0.6412  0.5725 -0.1029
 3586SOL    HW122391   3.003   1.438   6.364 -1.8021  0.0556 -0.6322
 3586SOL    HW222392   2.983   1.590   6.340  2.2238  0.6626  0.4601
 3587SOL     OW22393   4.058   1.324   7.750  0.5056  0.7521 -0.4200
 3587SOL    HW122394   4.083   1.404   7.703  0.9886 -0.0701 -1.5540
 3587SOL    HW222395   4.027   1.270   7.678 -0.3264 -0.3385  0.7534
 3588SOL     OW22396   1.578   1.729  16.745  0.4454 -0.1854  0.0058
 3588SOL    HW122397   1.580   1.647  16.694  0.5627 -0.9139  1.1765
 3588SOL    HW222398   1.671   1.744  16.757  0.3739 -0.1147  0.4606
 3589SOL     OW22399   4.314   4.143   3.935  0.3942  0.2163 -0.1730
 3589SOL    HW122400   4.371   4.097   3.873 -2.1757 -1.9924 -0.9251
 3589SOL    HW222401   4.379   4.183   3.993 -2.9063  1.9914  2.2920
 3590SOL     OW22402   2.286   2.973  12.693  0.1620  0.3863  0.5181
 3590SOL    HW122403   2.373   3.013  12.690  0.7122 -0.8056  0.6753
 3590SOL    HW222404   2.298   2.899  12.752  0.2268 -0.2954 -0.3462
 3591SOL     OW22405   2.053   0.770  11.685 -0.2209  0.6013  0.0687
 3591SOL    HW122406   2.117   0.834  11.716  0.0607  0.1177  0.4841
 3591SOL    HW222407   1.999   0.831  11.635 -3.4947 -1.3665  1.2019
 3592SOL     OW22408   2.307   4.406   1.764  0.3498  0.1416  0.0143
 3592SOL    HW122409   2.238   4.455   1.809 -1.2085 -2.6337  0.6174
 3592SOL    HW222410   2.374   4.374   1.823  0.8333  0.0058 -0.6046
 3593SOL     OW22411   2.421   1.588   4.149  0.3550  0.5026  0.5176
 3593SOL    HW122412   2.369   1.622   4.222 -2.5705 -1.1921 -0.8081
 3593SOL    HW222413   2.383   1.506   4.119  0.4530  1.0670 -1.1625
 3594SOL     OW22414   0.949   0.609  17.230 -0.2867  0.7273  0.8501
 3594SOL    HW122415   0.889   0.538  17.252  0.3995  0.3899  1.6284
 3594SOL    HW222416   0.978   0.631  17.318  2.2164  1.0669 -0.0540
 3595SOL     OW22417   0.228   2.218   3.313 -0.4047 -0.3928 -0.1271
 3595SOL    HW122418   0.180   2.226   3.231 -2.1492  0.2634  0.9441
 3595SOL    HW222419   0.202   2.300   3.356 -2.3026 -1.6875  1.1759
 3596SOL     OW22420   4.478   0.886   5.930 -0.1057  0.3071 -0.4102
 3596SOL    HW122421   4.466   0.980   5.943 -0.0116  0.1908  0.5014
 3596SOL    HW222422   4.573   0.881   5.920 -0.1830  1.3009 -1.6961
 3597SOL     OW22423   4.693   3.296  13.443  0.2602  0.7657 -0.1722
 3597SOL    HW122424   0.021   3.361  13.463  1.7359 -0.2106 -1.9541
 3597SOL    HW222425   4.642   3.303  13.523 -1.1483 -2.0875 -0.8132
 3598SOL     OW22426   0.953   3.188   8.260 -0.5053  0.4836 -0.1385
 3598SOL    HW122427   0.862   3.209   8.239  0.2531  1.2029 -2.7215
 3598SOL    HW222428   0.994   3.222   8.180 -0.0960  0.7615  0.1883
 3599SOL     OW22429   1.583   4.264   9.806  0.0358  0.6388  0.9512
 3599SOL    HW122430   1.559   4.345   9.759 -0.5637  1.1036  2.0486
 3599SOL    HW222431   1.599   4.203   9.735 -1.7848  1.1351  0.0945
 3600SOL     OW22432   3.528   0.964   4.483  0.1807 -0.3685  0.6970
 3600SOL    HW122433   3.523   0.977   4.388 -3.1841  1.9954  1.2034
 3600SOL    HW222434   3.520   1.055   4.510  1.7080  0.1989 -0.7941
 3601SOL     OW22435   1.767   4.407   2.385  1.0334  0.4705  0.2888
 3601SOL    HW122436   1.738   4.421   2.295  0.2746 -0.4810  0.3856
 3601SOL    HW222437   1.683   4.389   2.426  1.2401 -2.1958 -0.4610
 3602SOL     OW22438   4.199   2.774   6.055 -0.2258 -0.3571 -0.3642
 3602SOL    HW122439   4.172   2.709   6.120 -0.0637  1.9874  2.0593
 3602SOL    HW222440   4.123   2.800   6.001  0.8188 -0.2509 -1.7849
 3603SOL     OW22441   4.088   1.822   2.759 -0.4804 -0.1890  0.1352
 3603SOL    HW122442   4.031   1.883   2.807 -0.9223  0.2102 -0.8899
 3603SOL    HW222443   4.175   1.858   2.778 -1.3094  0.4547  2.7857
 3604SOL     OW22444   2.169   2.504   7.731  0.5282 -0.2136  0.4359
 3604SOL    HW122445   2.156   2.468   7.818  0.4667  1.1071  0.9659
 3604SOL    HW222446   2.091   2.471   7.687  2.6718 -1.5636 -2.3352
 3605SOL     OW22447   2.082   1.900  16.915 -0.0771  0.4129 -0.4426
 3605SOL    HW122448   2.138   1.826  16.939 -1.5761  0.8433  4.4974
 3605SOL    HW222449   2.114   1.922  16.828 -1.0531 -1.6957 -1.3204
 3606SOL     OW22450   2.247   0.948   0.101  0.1161  0.7697  0.1300
 3606SOL    HW122451   2.226   0.991   0.184  0.6112  1.6442 -0.2085
 3606SOL    HW222452   2.205   0.865   0.124 -0.6044  0.6719 -1.5196
 3607SOL     OW22453   1.707   4.719   9.539 -0.0608  0.2222 -0.7033
 3607SOL    HW122454   1.628   0.031   9.558 -0.5680 -0.6344 -0.5143
 3607SOL    HW222455   1.674   4.655   9.475 -0.2224 -0.1322 -0.2736
 3608SOL     OW22456   3.210   1.588   8.629 -0.1728 -0.2322  0.2007
 3608SOL    HW122457   3.237   1.666   8.677 -0.6180 -1.0709  1.8086
 3608SOL    HW222458   3.214   1.627   8.542  0.9387  1.6004  1.0732
 3609SOL     OW22459   3.076   0.389   3.321 -0.5475  0.3037  0.6621
 3609SOL    HW122460   3.132   0.462   3.295 -1.5550  0.6099 -0.6465
 3609SOL    HW222461   2.990   0.425   3.299 -0.9515 -0.3414  1.1910
 3610SOL     OW22462   4.022   2.898   8.318  0.2514 -0.0954  0.4564
 3610SOL    HW122463   4.000   2.986   8.349  0.0536  0.2489 -0.6892
 3610SOL    HW222464   4.010   2.908   8.224 -2.2096  0.9241  0.8855
 3611SOL     OW22465   1.722   3.256  17.694  0.3167 -0.4634 -0.1201
 3611SOL    HW122466   1.674   3.295   0.015  1.0225  2.2900 -1.1477
 3611SOL    HW222467   1.732   3.327  17.631 -1.5459  0.5223  0.6956
 3612SOL     OW22468   1.885   4.556   5.942 -0.4281  0.2036  0.3507
 3612SOL    HW122469   1.859   4.632   5.994  0.9051  1.5455 -0.9319
 3612SOL    HW222470   1.939   4.597   5.874  0.3948 -0.7544  0.4378
 3613SOL     OW22471   4.450   0.834   7.244 -0.1884 -0.3000  0.0294
 3613SOL    HW122472   4.391   0.909   7.247  0.2887  0.0775  0.0678
 3613SOL    HW222473   4.472   0.814   7.335 -1.4443 -0.3538  0.3158
 3614SOL     OW22474   1.799   3.079   1.748 -0.1070  0.1704 -0.6461
 3614SOL    HW122475   1.880   3.122   1.777 -1.2421  1.5001  0.5984
 3614SOL    HW222476   1.739   3.079   1.823  0.7701  2.1262  0.0492
 3615SOL     OW22477   2.730   2.075   2.794 -0.0265  0.1885  0.2576
 3615SOL    HW122478   2.734   2.096   2.887  0.3667 -0.1732  0.3211
 3615SOL    HW222479   2.639   2.097   2.771 -0.0606 -1.6468 -1.4078
 3616SOL     OW22480   4.626   4.504   7.571  0.2125 -0.7186 -0.1732
 3616SOL    HW122481   4.589   4.532   7.488 -0.9028  3.5873  1.7641
 3616SOL    HW222482   4.703   4.457   7.540  0.4863 -0.3301 -0.0826
 3617SOL     OW22483   0.738   2.893  16.587 -0.2647  0.3642  0.1260
 3617SOL    HW122484   0.767   2.906  16.677 -3.5885 -0.7013  1.3491
 3617SOL    HW222485   0.661   2.949  16.579  0.1149  1.1865  2.2349
 3618SOL     OW22486   3.037   1.399  11.695 -0.5306  0.0526  0.6116
 3618SOL    HW122487   3.022   1.440  11.780 -1.6523  0.4052  0.2535
 3618SOL    HW222488   2.950   1.404  11.654 -0.4837 -3.4608  0.0863
 3619SOL     OW22489   0.005   3.544   2.753 -0.6459  0.5661  0.2568
 3619SOL    HW122490   0.025   3.470   2.811 -1.4254  0.3006  0.1803
 3619SOL    HW222491   0.092   3.573   2.726 -0.9656 -0.2041 -1.5425
 3620SOL     OW22492   1.620   0.872   5.258 -0.5340  0.1933 -0.0261
 3620SOL    HW122493   1.582   0.795   5.301 -0.1862 -0.8413 -1.5528
 3620SOL    HW222494   1.538   0.917   5.239 -0.4215  0.0333 -0.9071
 3621SOL     OW22495   3.915   2.672   7.943 -0.1534 -0.0006 -0.1831
 3621SOL    HW122496   3.973   2.611   7.898  1.9094  0.4341  1.8988
 3621SOL    HW222497   3.917   2.625   8.026 -0.0047  1.7189  0.7950
 3622SOL     OW22498   1.622   1.599   0.895 -0.3935 -0.2770  0.1787
 3622SOL    HW122499   1.589   1.562   0.977  1.9502 -1.3185  0.6570
 3622SOL    HW222500   1.617   1.521   0.840 -0.7493  0.9025 -1.4793
 3623SOL     OW22501   4.103   1.453   4.460  0.1962  0.6220  0.1578
 3623SOL    HW122502   4.109   1.540   4.499  0.5886 -0.3133  2.1725
 3623SOL    HW222503   4.011   1.447   4.436 -0.4341 -3.1305  3.4517
 3624SOL     OW22504   2.327   1.927  10.234  1.0078 -0.6805 -1.2075
 3624SOL    HW122505   2.403   1.871  10.216  0.6999 -0.7591 -2.2447
 3624SOL    HW222506   2.358   2.015  10.256  0.0345 -0.4071 -0.9137
 3625SOL     OW22507   4.053   3.517   8.934  0.0751  0.1732 -0.0104
 3625SOL    HW122508   4.132   3.483   8.976  0.5030 -0.7058 -1.5308
 3625SOL    HW222509   4.037   3.593   8.991  1.2747  1.3108 -1.2014
 3626SOL     OW22510   1.675   4.178  16.062 -0.2129 -0.2067 -0.5509
 3626SOL    HW122511   1.612   4.134  16.119  0.4957  0.5780  0.8426
 3626SOL    HW222512   1.720   4.248  16.109  1.3625 -1.1145 -0.7127
 3627SOL     OW22513   0.852   0.464  10.740  0.5124  0.0983  0.5694
 3627SOL    HW122514   0.778   0.524  10.755 -0.0112 -0.1385 -1.0061
 3627SOL    HW222515   0.909   0.488  10.813  2.1374 -0.7687 -0.4226
 3628SOL     OW22516   3.100   1.000   3.830 -0.3075  0.3730  0.1965
 3628SOL    HW122517   3.135   0.957   3.752 -0.3713  1.7207 -0.5725
 3628SOL    HW222518   3.175   0.994   3.890 -0.5643  0.6954  0.5528
 3629SOL     OW22519   1.735   3.582   4.282  0.4489  0.4111 -0.3827
 3629SOL    HW122520   1.712   3.494   4.250 -0.2989 -0.2853  2.0435
 3629SOL    HW222521   1.815   3.604   4.234 -0.8502  1.4405 -2.0667
 3630SOL     OW22522   3.716   4.522  10.860 -0.7052  0.0502 -0.3187
 3630SOL    HW122523   3.768   4.548  10.783  1.1268 -2.0368  0.2091
 3630SOL    HW222524   3.637   4.576  10.859  0.1725  1.3297 -0.0829
 3631SOL     OW22525   0.609   4.514   9.266 -0.1772  0.3742  0.0165
 3631SOL    HW122526   0.680   4.562   9.223 -0.8917 -0.7311 -2.4133
 3631SOL    HW222527   0.536   4.528   9.205  0.2724 -0.1262 -0.6342
 3632SOL     OW22528   3.895   4.336   4.049  0.1355 -0.0029 -0.2277
 3632SOL    HW122529   3.942   4.363   4.127 -1.0032  0.6295  0.2370
 3632SOL    HW222530   3.816   4.390   4.052  0.5943  0.4543  3.1852
 3633SOL     OW22531   0.125   4.275   3.653 -0.3958  0.2005 -0.3326
 3633SOL    HW122532   0.141   4.224   3.733 -0.2888 -0.8604 -1.0309
 3633SOL    HW222533   0.052   4.324   3.691  0.1334  0.2434  0.6579
 3634SOL     OW22534   3.371   0.368   7.116  0.0453 -0.0349  0.1498
 3634SOL    HW122535   3.315   0.403   7.046  0.0299 -2.3218 -0.9754
 3634SOL    HW222536   3.383   0.282   7.077 -2.4630 -1.6127  2.9255
 3635SOL     OW22537   1.103   2.261   5.077 -0.0320 -0.3797  0.2107
 3635SOL    HW122538   1.118   2.317   5.153  0.1991 -0.1805  0.0234
 3635SOL    HW222539   1.103   2.325   5.005  0.3881 -0.6568 -0.0427
 3636SOL     OW22540   4.683   1.235   6.172  0.6305 -0.1364  0.5338
 3636SOL    HW122541   4.675   1.329   6.184  1.8067  0.0515 -0.0878
 3636SOL    HW222542   4.675   1.195   6.258  0.2025  1.1331  1.0768
 3637SOL     OW22543   0.732   4.329   1.840  0.1740  0.3017  0.1229
 3637SOL    HW122544   0.828   4.333   1.837  0.2641  0.8535  3.4530
 3637SOL    HW222545   0.720   4.253   1.896  1.0604 -1.2422 -1.7813
 3638SOL     OW22546   3.427   0.042   2.277 -0.6072  0.0693 -0.1167
 3638SOL    HW122547   3.498   0.012   2.219  1.4244  2.6488  1.0563
 3638SOL    HW222548   3.433   4.726   2.355  1.1429  1.6613  0.8317
 3639SOL     OW22549   2.701   2.777   6.581  0.3541 -0.7249  0.4719
 3639SOL    HW122550   2.630   2.841   6.574  0.0260 -1.0909  0.4454
 3639SOL    HW222551   2.777   2.828   6.555  0.5944 -0.8794  0.8602
 3640SOL     OW22552   2.301   2.725  12.875  1.2979  0.2038 -0.2358
 3640SOL    HW122553   2.206   2.721  12.875  1.3217 -0.2833 -0.0462
 3640SOL    HW222554   2.324   2.642  12.834 -2.6666 -1.4971  1.0365
 3641SOL     OW22555   4.327   1.551   6.978  0.2763 -0.5324  0.0559
 3641SOL    HW122556   4.303   1.612   7.048 -0.2235 -0.9671  0.2623
 3641SOL    HW222557   4.241   1.529   6.943 -0.3459 -2.0988  2.6244
 3642SOL     OW22558   2.556   1.771   5.613 -0.2404 -0.3145 -0.5573
 3642SOL    HW122559   2.464   1.788   5.633  0.3239  1.3139  0.6502
 3642SOL    HW222560   2.578   1.848   5.561  1.0459 -1.8116 -2.1965
 3643SOL     OW22561   2.228   2.483  14.146  0.5603 -0.4200  0.7356
 3643SOL    HW122562   2.301   2.545  14.151  1.6988 -1.6641 -0.6176
 3643SOL    HW222563   2.179   2.507  14.225  0.5507 -1.6414  1.1104
 3644SOL     OW22564   3.543   2.700   5.146  0.0088  0.5458 -0.4318
 3644SOL    HW122565   3.519   2.781   5.191 -1.3605  0.9109 -1.7976
 3644SOL    HW222566   3.460   2.694   5.098 -1.0221  1.4964  1.2471
 3645SOL     OW22567   1.289   0.177   8.429  0.1460 -0.2342 -0.1445
 3645SOL    HW122568   1.342   0.097   8.434 -0.8085 -0.6878  2.7541
 3645SOL    HW222569   1.293   0.203   8.520 -0.3377 -1.7689  0.3145
 3646SOL     OW22570   4.138   4.233   7.597  0.2800  0.7402 -0.6723
 3646SOL    HW122571   4.089   4.314   7.589 -2.0619 -0.8139 -2.1592
 3646SOL    HW222572   4.084   4.198   7.527  1.6010 -1.8907 -0.3973
 3647SOL     OW22573   1.270   3.429   8.323  0.8085 -0.2438 -0.1552
 3647SOL    HW122574   1.302   3.465   8.241  1.7638 -1.3249 -0.2472
 3647SOL    HW222575   1.302   3.340   8.317  1.4581 -0.1756  2.2705
 3648SOL     OW22576   2.586   2.841  12.871 -0.3339 -0.2608  0.3772
 3648SOL    HW122577   2.518   2.795  12.823 -0.9450  1.0630 -0.0361
 3648SOL    HW222578   2.638   2.879  12.800  0.8809 -1.3105  0.6935
 3649SOL     OW22579   0.085   2.036  17.521  0.1452 -0.3769  0.0391
 3649SOL    HW122580   0.097   1.975  17.449 -1.1324 -2.9676  2.0318
 3649SOL    HW222581   0.046   2.109  17.474  1.6975  0.2925 -0.2104
 3650SOL     OW22582   4.045   4.669   6.530 -0.1331 -0.8106 -0.5428
 3650SOL    HW122583   3.964   4.698   6.573  0.6767 -0.8880  1.0491
 3650SOL    HW222584   4.106   4.698   6.598 -0.6777 -0.4684 -0.2038
 3651SOL     OW22585   1.622   3.925   9.669 -0.5805 -0.6928 -0.3391
 3651SOL    HW122586   1.571   3.880   9.737  0.4879  0.2011  1.0410
 3651SOL    HW222587   1.570   3.924   9.589 -1.1768 -3.9151  0.0688
 3652SOL     OW22588   2.810   3.346  11.028 -0.5791  0.6851  0.1835
 3652SOL    HW122589   2.791   3.369  11.119  0.5820  0.5687  0.4512
 3652SOL    HW222590   2.901   3.321  11.042 -1.1333 -1.4772 -0.1156
 3653SOL     OW22591   2.127   2.805   4.992 -0.5866 -0.6846  0.4275
 3653SOL    HW122592   2.133   2.711   4.979 -2.1207 -0.7257 -0.0075
 3653SOL    HW222593   2.036   2.820   4.967 -0.3642 -0.9170 -0.5417
 3654SOL     OW22594   3.520   4.503  16.536 -0.2931 -0.0384 -0.2495
 3654SOL    HW122595   3.571   4.537  16.463  0.8951  1.3752  1.2433
 3654SOL    HW222596   3.481   4.425  16.496 -2.7941  0.6424  0.8479
 3655SOL     OW22597   4.198   2.363  11.429 -0.0458  0.0095 -0.0746
 3655SOL    HW122598   4.128   2.307  11.463 -1.2760  0.1478 -2.4029
 3655SOL    HW222599   4.154   2.447  11.423  1.3614  0.7715  0.1733
 3656SOL     OW22600   0.811   1.303   4.470  0.2841  0.1562 -0.4398
 3656SOL    HW122601   0.836   1.393   4.490  1.2033 -0.2480  0.1862
 3656SOL    HW222602   0.725   1.320   4.431  0.1613  2.3495  0.7562
 3657SOL     OW22603   2.829   4.433  10.977 -0.4450 -0.0006 -0.0617
 3657SOL    HW122604   2.795   4.497  10.915  0.1499  0.2076 -0.1714
 3657SOL    HW222605   2.755   4.371  10.976 -0.6105  0.1711  1.3699
 3658SOL     OW22606   2.497   2.054   3.606  0.3014  0.2859 -0.1916
 3658SOL    HW122607   2.540   1.976   3.641  0.9905  0.6750 -0.1503
 3658SOL    HW222608   2.560   2.122   3.632 -0.2914  0.6625  0.2604
 3659SOL     OW22609   0.612   1.303  11.691 -0.7436  0.2146 -0.0061
 3659SOL    HW122610   0.692   1.343  11.726  0.2002 -0.8875 -0.8942
 3659SOL    HW222611   0.639   1.231  11.633  1.9118  1.4899 -0.3498
 3660SOL     OW22612   3.377   1.933   9.925  0.0841  0.7716  0.0069
 3660SOL    HW122613   3.351   1.851   9.967 -2.6262  0.2299 -2.6741
 3660SOL    HW222614   3.294   1.972   9.896  1.0434  4.2057  1.8127
 3661SOL     OW22615   1.884   4.013  10.302  0.1857  0.0022 -0.2356
 3661SOL    HW122616   1.955   3.949  10.286  1.0758  1.0028 -0.2690
 3661SOL    HW222617   1.855   3.981  10.388  1.4337  1.0667  0.5746
 3662SOL     OW22618   2.798   2.560   4.316 -0.1408 -0.0046 -0.3115
 3662SOL    HW122619   2.743   2.639   4.315 -0.2318 -0.0637  0.2021
 3662SOL    HW222620   2.879   2.606   4.293 -0.2907 -0.2700 -1.3586
 3663SOL     OW22621   2.242   2.984   4.829  0.4146  0.2791  0.2941
 3663SOL    HW122622   2.206   2.912   4.881  2.1083  0.7970  2.1961
 3663SOL    HW222623   2.202   2.962   4.745  1.8081  2.7869 -1.0224
 3664SOL     OW22624   1.319   1.738   4.658  0.6206 -0.1143  0.4161
 3664SOL    HW122625   1.381   1.811   4.655 -1.3026  1.5908  1.7087
 3664SOL    HW222626   1.237   1.784   4.640  0.3055 -0.9434 -0.2575
 3665SOL     OW22627   0.036   2.692  11.622 -0.6082 -0.6585  0.3271
 3665SOL    HW122628   0.007   2.620  11.566 -0.5579 -0.6223  0.2540
 3665SOL    HW222629   0.070   2.648  11.700  0.6251  0.9819  0.7303
 3666SOL     OW22630   0.350   0.947   3.047  0.1835 -0.3184 -0.1021
 3666SOL    HW122631   0.323   1.017   2.988  0.3580 -1.2014 -1.2308
 3666SOL    HW222632   0.271   0.892   3.045 -0.2523  0.3214 -0.4837
 3667SOL     OW22633   3.686   3.749   8.604  0.8278  0.4366  0.0009
 3667SOL    HW122634   3.609   3.805   8.616 -0.1724 -0.5838 -1.5593
 3667SOL    HW222635   3.755   3.808   8.633 -0.6591  0.7507  2.9798
 3668SOL     OW22636   1.287   1.248   3.247 -0.1846 -0.4432  0.0998
 3668SOL    HW122637   1.215   1.238   3.184 -0.0934 -0.0526 -0.0712
 3668SOL    HW222638   1.347   1.290   3.185  3.4814  0.1016  4.0342
 3669SOL     OW22639   0.188   3.080   5.701  0.3920  0.0546  0.3737
 3669SOL    HW122640   0.179   2.989   5.728  2.3255  0.5185  2.5988
 3669SOL    HW222641   0.138   3.115   5.775 -0.4436  1.0203 -0.6412
 3670SOL     OW22642   2.382   1.824   7.561 -0.5937 -0.1033 -0.2047
 3670SOL    HW122643   2.334   1.901   7.530  2.8424  2.0440 -0.2904
 3670SOL    HW222644   2.338   1.791   7.639 -0.0162 -1.8138 -0.6067
 3671SOL     OW22645   2.019   4.219   2.365  0.3407  0.3618  0.1289
 3671SOL    HW122646   2.002   4.255   2.278  1.8057  1.1250  0.1486
 3671SOL    HW222647   1.929   4.211   2.396 -0.3785 -0.6082 -2.2130
 3672SOL     OW22648   1.158   4.472   4.238  0.4518 -0.7388  0.5160
 3672SOL    HW122649   1.205   4.397   4.275 -1.3228 -1.0708  2.1483
 3672SOL    HW222650   1.127   4.431   4.157  1.0303 -0.3441  0.0992
 3673SOL     OW22651   0.623   0.897   6.346 -0.2749  0.2029  0.5540
 3673SOL    HW122652   0.530   0.877   6.356 -0.2909  0.0445  0.0649
 3673SOL    HW222653   0.625   0.976   6.293 -1.3755 -1.0799 -1.3805
 3674SOL     OW22654   4.142   3.179  14.030 -0.2741 -0.4869 -0.0084
 3674SOL    HW122655   4.145   3.254  14.091 -3.4917 -1.0949  0.8810
 3674SOL    HW222656   4.215   3.203  13.973 -1.0573 -0.1404 -0.8633
 3675SOL     OW22657   3.327   2.693   3.807  0.3547 -0.7737  0.2526
 3675SOL    HW122658   3.329   2.667   3.899  0.3947  0.8911  0.7374
 3675SOL    HW222659   3.268   2.769   3.814  1.1828  0.1866 -2.9994
 3676SOL     OW22660   4.534   0.860  13.654  0.0339 -0.3051 -0.6791
 3676SOL    HW122661   4.592   0.867  13.730 -1.5258 -0.4162  0.5090
 3676SOL    HW222662   4.448   0.854  13.696  0.1811 -1.0345 -0.4808
 3677SOL     OW22663   0.878   1.062   7.452 -0.0983 -0.0217  0.1348
 3677SOL    HW122664   0.789   1.061   7.417  1.0599 -1.1663 -2.8042
 3677SOL    HW222665   0.893   1.153   7.476 -0.0470 -0.1033  0.4092
 3678SOL     OW22666   2.052   0.621  13.237  0.5506 -0.4904 -0.1845
 3678SOL    HW122667   1.959   0.617  13.256  0.5296  2.2920  0.3525
 3678SOL    HW222668   2.087   0.566  13.306  2.7234  0.1377 -0.7685
 3679SOL     OW22669   3.350   1.628   5.839  0.2049  0.0675  0.1951
 3679SOL    HW122670   3.388   1.633   5.927  2.3981  1.2175 -0.8145
 3679SOL    HW222671   3.260   1.642   5.869  0.1953 -0.3132  0.3488
 3680SOL     OW22672   2.606   3.239   3.101 -0.1969  0.0480  0.0145
 3680SOL    HW122673   2.676   3.267   3.042  0.3419 -2.3166 -0.4372
 3680SOL    HW222674   2.651   3.203   3.177  0.6192 -1.4043 -1.1573
 3681SOL     OW22675   4.209   4.065   8.431 -0.1183 -0.2096  0.1906
 3681SOL    HW122676   4.265   3.987   8.437 -0.0963 -0.1020  1.5879
 3681SOL    HW222677   4.123   4.027   8.449 -0.0092 -0.1745  0.7925
 3682SOL     OW22678   0.250   2.924   2.650  0.2701  0.2759  0.1099
 3682SOL    HW122679   0.282   2.936   2.560  2.6024  0.7898  1.0184
 3682SOL    HW222680   0.321   2.871   2.686  0.2020 -0.5387 -0.9461
 3683SOL     OW22681   3.766   0.533   1.691  0.4585  0.0098  0.0593
 3683SOL    HW122682   3.757   0.490   1.776 -0.8444 -2.2969 -1.2568
 3683SOL    HW222683   3.675   0.547   1.666  0.8246 -1.8368 -2.2140
 3684SOL     OW22684   1.461   4.263   3.883  0.6613 -0.1088  0.0948
 3684SOL    HW122685   1.444   4.254   3.789  2.5802  0.9998 -0.3536
 3684SOL    HW222686   1.405   4.188   3.906 -1.7478  0.5574 -3.5386
 3685SOL     OW22687   2.274   2.017   8.504  0.1961 -0.3263  0.5129
 3685SOL    HW122688   2.343   1.960   8.540 -2.0231 -0.3784  4.7116
 3685SOL    HW222689   2.238   2.055   8.584 -0.5122 -0.6910  0.3675
 3686SOL     OW22690   3.150   2.027   7.003 -0.1757  0.1541 -0.1024
 3686SOL    HW122691   3.180   1.971   6.932  0.0927  0.8234 -0.5133
 3686SOL    HW222692   3.140   2.108   6.954 -0.3467 -0.5742 -1.2823
 3687SOL     OW22693   4.689   1.790   1.965 -0.0343 -0.0548  0.1020
 3687SOL    HW122694   4.653   1.705   1.990  0.1099  0.0332  0.6284
 3687SOL    HW222695   0.026   1.756   1.917 -0.1521  1.5127 -1.1960
 3688SOL     OW22696   1.208   0.594   9.902  0.1554  0.0025 -0.2120
 3688SOL    HW122697   1.136   0.538   9.931  1.4267 -1.7307 -0.3939
 3688SOL    HW222698   1.188   0.618   9.812 -1.5229  0.4976  0.2834
 3689SOL     OW22699   1.671   1.587   3.637  0.3960 -0.3772 -0.4350
 3689SOL    HW122700   1.715   1.524   3.695 -1.2286  0.3474  1.5858
 3689SOL    HW222701   1.721   1.666   3.653 -2.0406  1.0008  0.3625
 3690SOL     OW22702   1.218   2.172   2.073 -0.2251 -0.1520 -0.0030
 3690SOL    HW122703   1.234   2.080   2.053 -0.4899 -0.0276 -0.7941
 3690SOL    HW222704   1.293   2.210   2.026  1.8285 -1.8564  1.9433
 3691SOL     OW22705   4.441   1.301   5.737  0.2700 -0.0531 -0.0045
 3691SOL    HW122706   4.382   1.366   5.698  1.2822  1.6155  1.2282
 3691SOL    HW222707   4.530   1.337   5.739  1.0638 -2.1099  1.5878
 3692SOL     OW22708   1.376   3.533   8.777 -0.0470  0.2907  0.4232
 3692SOL    HW122709   1.393   3.628   8.773  1.5301 -0.0154 -0.0390
 3692SOL    HW222710   1.464   3.498   8.789  0.2350  0.7035 -0.4192
 3693SOL     OW22711   4.183   1.887   4.834 -1.3767  0.0011 -0.1634
 3693SOL    HW122712   4.239   1.946   4.884  0.1656 -0.8287 -0.9058
 3693SOL    HW222713   4.181   1.820   4.902 -1.2972  0.8224  0.6446
 3694SOL     OW22714   0.179   1.166   5.200 -0.1881 -0.3318  0.2491
 3694SOL    HW122715   0.092   1.201   5.179  0.0255  0.9935  1.6122
 3694SOL    HW222716   0.174   1.128   5.287  2.2368  0.1228  0.5790
 3695SOL     OW22717   1.924   0.316   2.427  0.6417 -0.0025  0.3937
 3695SOL    HW122718   1.862   0.388   2.415 -0.4622 -0.8687  0.8639
 3695SOL    HW222719   1.973   0.321   2.345 -0.4409 -3.4619 -0.4634
 3696SOL     OW22720   2.044   3.955  16.929  0.2569 -0.3913 -0.9646
 3696SOL    HW122721   1.979   3.978  16.996 -0.8470 -2.7971 -1.2266
 3696SOL    HW222722   2.001   4.004  16.860  2.5823  0.7071 -1.6344
 3697SOL     OW22723   2.268   1.848   5.562 -0.6235  0.2163  0.5402
 3697SOL    HW122724   2.277   1.941   5.583  1.9751 -0.1202  0.8931
 3697SOL    HW222725   2.178   1.841   5.596 -0.1631 -2.0936  1.2995
 3698SOL     OW22726   1.358   4.635   4.173  0.2304 -0.7151 -0.3484
 3698SOL    HW122727   1.277   4.585   4.182  1.5607 -2.8043  0.2043
 3698SOL    HW222728   1.328   4.725   4.160  0.8365 -0.1075  2.5413
 3699SOL     OW22729   2.282   2.640   4.709  0.1147 -0.2858  0.0398
 3699SOL    HW122730   2.237   2.691   4.642  0.4894  0.7413  0.5692
 3699SOL    HW222731   2.352   2.597   4.661 -0.4241 -2.3548  1.0695
 3700SOL     OW22732   3.296   1.864  11.900  0.0886 -0.3891  0.2068
 3700SOL    HW122733   3.282   1.823  11.814 -1.3467 -1.5670  0.9871
 3700SOL    HW222734   3.277   1.790  11.958 -2.8082  0.1157 -0.0777
 3701SOL     OW22735   4.239   2.690   4.057  0.1714 -0.5717 -0.5299
 3701SOL    HW122736   4.232   2.672   4.151 -2.6032  0.7977 -0.5088
 3701SOL    HW222737   4.249   2.606   4.011 -1.2965 -0.2353 -1.4453
 3702SOL     OW22738   4.237   2.247   3.007 -0.2602 -0.0306 -0.9231
 3702SOL    HW122739   4.291   2.286   2.938 -1.4586  0.1123 -1.7847
 3702SOL    HW222740   4.279   2.293   3.079  0.2850  0.1715 -1.3689
 3703SOL     OW22741   3.531   1.378   4.815  0.1999  0.0700 -0.3313
 3703SOL    HW122742   3.460   1.443   4.811  0.4167  0.2443 -1.2929
 3703SOL    HW222743   3.539   1.373   4.910  0.0306 -1.2840 -0.3868
 3704SOL     OW22744   0.591   0.814  13.828 -0.7364  0.0961  0.0308
 3704SOL    HW122745   0.527   0.816  13.899 -2.5240 -1.3245 -1.5464
 3704SOL    HW222746   0.672   0.843  13.870 -0.9717  1.5327 -0.4821
 3705SOL     OW22747   3.225   4.141   7.718 -0.7776 -0.1002 -0.5815
 3705SOL    HW122748   3.152   4.167   7.660 -0.7854  4.1525  1.3545
 3705SOL    HW222749   3.241   4.047   7.703 -1.5941 -0.3370  0.0091
 3706SOL     OW22750   1.847   4.253   4.679 -0.1892  0.1722  0.0206
 3706SOL    HW122751   1.804   4.212   4.604 -1.0101 -1.0765  1.1643
 3706SOL    HW222752   1.919   4.190   4.685 -1.3751 -1.1493  0.5731
 3707SOL     OW22753   2.672   0.213   1.578 -0.2267  0.5828 -0.3116
 3707SOL    HW122754   2.631   0.130   1.600 -0.7374  0.6330 -1.0793
 3707SOL    HW222755   2.638   0.268   1.648  0.8742 -0.4885  1.0421
 3708SOL     OW22756   1.082   0.505  16.005 -0.5399  0.6385  0.4384
 3708SOL    HW122757   1.051   0.593  16.026 -2.8551  0.0008 -0.2672
 3708SOL    HW222758   1.169   0.516  15.965 -1.3530  0.7162 -1.3091
 3709SOL     OW22759   2.930   4.212   5.617  0.1211  0.1097 -0.2364
 3709SOL    HW122760   2.951   4.274   5.547 -0.2226 -1.0351 -1.3749
 3709SOL    HW222761   2.974   4.133   5.585  0.5056  1.2732 -2.5817
 3710SOL     OW22762   2.765   3.252   4.484  0.0553  0.3345  0.2359
 3710SOL    HW122763   2.691   3.272   4.541  0.1029 -0.2572  0.5084
 3710SOL    HW222764   2.830   3.225   4.550 -0.4667  0.3505  0.7569
 3711SOL     OW22765   2.844   4.282  15.238  0.0161  1.1034 -0.2070
 3711SOL    HW122766   2.754   4.279  15.207  0.0217 -0.4973 -0.0609
 3711SOL    HW222767   2.828   4.306  15.329  2.5498 -2.3272  1.1677
 3712SOL     OW22768   2.604   2.707   4.409  0.0404  0.4876  0.1207
 3712SOL    HW122769   2.515   2.742   4.398 -0.1361  0.5934  1.8747
 3712SOL    HW222770   2.641   2.754   4.484  2.0591 -1.1911  0.1531
 3713SOL     OW22771   3.489   2.193   7.017  0.4749  0.8338  0.1718
 3713SOL    HW122772   3.445   2.277   7.014  2.1163  1.7103  0.3808
 3713SOL    HW222773   3.494   2.166   6.925  1.4483 -1.6036  0.9342
 3714SOL     OW22774   2.365   0.540  15.192  0.0805  0.0215  0.0983
 3714SOL    HW122775   2.364   0.635  15.200  0.6931  0.3827 -4.1836
 3714SOL    HW222776   2.301   0.523  15.123 -1.1835  1.5974  0.8958
 3715SOL     OW22777   1.504   3.077   9.093  0.0252  0.0423  0.4174
 3715SOL    HW122778   1.454   3.005   9.055  0.3642  0.1975 -0.3060
 3715SOL    HW222779   1.436   3.124   9.142 -0.6575 -1.3210  0.7897
 3716SOL     OW22780   1.935   3.297  17.123 -0.1210  0.5161 -0.2568
 3716SOL    HW122781   2.014   3.298  17.176  0.8514 -2.3113 -1.6706
 3716SOL    HW222782   1.885   3.230  17.169 -0.6554 -0.6423 -2.5307
 3717SOL     OW22783   3.205   3.654   0.399 -0.1298 -0.6884  0.2198
 3717SOL    HW122784   3.146   3.584   0.426  0.3332 -2.3121 -2.9822
 3717SOL    HW222785   3.283   3.653   0.455 -0.0627 -2.5258  0.0847
 3718SOL     OW22786   4.454   1.651   2.450  0.0090  0.3499 -0.1739
 3718SOL    HW122787   4.360   1.665   2.451  0.0418  0.6222 -1.3763
 3718SOL    HW222788   4.467   1.745   2.437 -0.7048  0.3402 -0.9788
 3719SOL     OW22789   1.798   3.305   3.678  0.1863  0.1326 -0.0683
 3719SOL    HW122790   1.827   3.218   3.651 -1.0846 -0.1007 -0.6710
 3719SOL    HW222791   1.721   3.270   3.724 -0.7543 -0.6296 -2.2182
 3720SOL     OW22792   0.255   0.948  10.847  0.4429  0.0011 -0.0591
 3720SOL    HW122793   0.161   0.953  10.866  0.2975 -2.6437 -0.2074
 3720SOL    HW222794   0.250   0.938  10.752  1.7453 -0.3494 -0.0917
 3721SOL     OW22795   0.524   4.174   9.010  0.2812  0.3964 -0.0870
 3721SOL    HW122796   0.535   4.092   8.963  0.4566  0.1954  0.3019
 3721SOL    HW222797   0.565   4.240   8.953  0.1182 -1.2704 -2.1293
 3722SOL     OW22798   3.884   2.204   1.741 -0.3522  0.7195  0.3346
 3722SOL    HW122799   3.847   2.279   1.787 -0.1479  2.3453 -2.1553
 3722SOL    HW222800   3.864   2.148   1.815 -1.3790  0.8769  0.1790
 3723SOL     OW22801   2.264   0.907   1.422  0.1703  0.3905 -0.0565
 3723SOL    HW122802   2.339   0.946   1.378  1.1357 -0.9317  0.4108
 3723SOL    HW222803   2.220   0.855   1.355  3.7275 -2.9245  0.1266
 3724SOL     OW22804   2.556   2.751  11.751  0.1320 -0.3287  0.3459
 3724SOL    HW122805   2.581   2.802  11.828 -0.2143 -1.9654  1.5445
 3724SOL    HW222806   2.643   2.718  11.729  1.1730  0.7188  2.9308
 3725SOL     OW22807   4.647   1.052  17.672  0.3310  0.2061 -0.2290
 3725SOL    HW122808   4.617   1.111  17.741  0.0593  0.6010 -0.6862
 3725SOL    HW222809   4.702   0.982  17.705  2.9714  2.0751 -0.6772
 3726SOL     OW22810   1.287   3.572  14.491  0.3269 -0.0272 -0.0715
 3726SOL    HW122811   1.251   3.564  14.403 -2.6134  1.3746  1.0231
 3726SOL    HW222812   1.321   3.482  14.500 -0.1222 -0.2116 -0.2425
 3727SOL     OW22813   3.558   0.779  15.134  0.5580  0.0443 -0.0250
 3727SOL    HW122814   3.603   0.830  15.202 -0.1719  1.6334 -0.7234
 3727SOL    HW222815   3.632   0.787  15.073 -0.5472  2.6290 -1.0337
 3728SOL     OW22816   2.172   0.725   1.950 -0.3643  0.0688 -0.1171
 3728SOL    HW122817   2.180   0.732   1.855  0.9994 -1.0677 -0.0870
 3728SOL    HW222818   2.143   0.815   1.966  2.6000  1.0071  0.0363
 3729SOL     OW22819   0.750   0.618   4.981  0.2224  0.4266 -0.3816
 3729SOL    HW122820   0.778   0.689   4.925 -0.6197 -0.6639 -2.1905
 3729SOL    HW222821   0.661   0.649   4.999 -0.2472 -1.3921  0.5416
 3730SOL     OW22822   2.496   0.471   4.693  0.1203 -0.1091 -0.4858
 3730SOL    HW122823   2.534   0.397   4.644  1.4471  1.9382 -2.5707
 3730SOL    HW222824   2.572   0.528   4.685  0.2479  0.0878  2.1634
 3731SOL     OW22825   1.057   1.626  17.725  0.4378 -0.6732 -0.1713
 3731SOL    HW122826   1.037   1.714  17.691 -0.1893  0.1148  2.2628
 3731SOL    HW222827   0.998   1.626   0.047 -1.8258 -0.9390 -1.9522
 3732SOL     OW22828   2.737   1.400   5.760 -0.0224  0.5026  0.2307
 3732SOL    HW122829   2.759   1.493   5.758 -1.3979  0.8258  1.0044
 3732SOL    HW222830   2.783   1.381   5.841  0.1893 -1.3298 -0.3060
 3733SOL     OW22831   1.278   4.705   2.959 -0.0936 -0.0173  0.0980
 3733SOL    HW122832   1.252   4.737   3.046 -0.5683 -0.1449 -0.0016
 3733SOL    HW222833   1.349   4.644   2.980 -1.2643 -1.3869  0.1191
 3734SOL     OW22834   0.485   1.248   1.655  0.2354  0.5489  0.2945
 3734SOL    HW122835   0.410   1.244   1.714  0.6783  0.5721  0.8652
 3734SOL    HW222836   0.531   1.170   1.687  2.6482  1.6643 -0.4969
 3735SOL     OW22837   1.365   2.971   8.200  0.1210 -0.1506  0.0793
 3735SOL    HW122838   1.285   2.919   8.202 -0.8218  1.3344  0.6770
 3735SOL    HW222839   1.421   2.899   8.170  1.0058 -0.1329  1.7005
 3736SOL     OW22840   3.236   0.581   1.108  0.2961 -0.1785  0.0349
 3736SOL    HW122841   3.144   0.599   1.088  0.3594 -0.9437 -0.9406
 3736SOL    HW222842   3.263   0.535   1.029  1.6571  0.2463  0.2620
 3737SOL     OW22843   4.543   0.456   4.292 -0.7187 -0.4392  0.6371
 3737SOL    HW122844   4.521   0.366   4.269 -1.8501  0.0801 -0.2504
 3737SOL    HW222845   4.639   0.446   4.290 -0.7894 -0.7132 -1.1245
 3738SOL     OW22846   1.556   1.404   3.497 -0.2027 -0.0490  0.0180
 3738SOL    HW122847   1.589   1.471   3.556 -1.3317  0.3034  0.2639
 3738SOL    HW222848   1.477   1.449   3.464  1.0493  1.5409 -0.8414
 3739SOL     OW22849   2.318   2.840   4.077 -0.5957 -0.2690  0.1686
 3739SOL    HW122850   2.390   2.813   4.019  1.2040  2.5497  1.1205
 3739SOL    HW222851   2.247   2.778   4.055 -0.5680 -0.0591 -0.5207
 3740SOL     OW22852   0.348   0.321   7.313 -0.1610  0.7316  0.0300
 3740SOL    HW122853   0.442   0.325   7.330 -0.0436  0.4998 -0.5807
 3740SOL    HW222854   0.342   0.369   7.231  1.5160 -0.3230 -0.7028
 3741SOL     OW22855   2.026   0.076   8.337  0.0600  0.1359  0.7109
 3741SOL    HW122856   1.941   0.102   8.301 -0.4924 -0.2719  1.7241
 3741SOL    HW222857   2.056   0.156   8.381 -0.6145  0.6261  0.2781
 3742SOL     OW22858   0.946   0.050   0.800 -0.6802  0.4558  0.2724
 3742SOL    HW122859   0.965   0.035   0.893 -1.5690  1.7951  0.6613
 3742SOL    HW222860   1.037   0.044   0.772 -0.6716  2.8436 -0.1935
 3743SOL     OW22861   1.971   4.607   7.059  0.3224 -0.2868 -0.0765
 3743SOL    HW122862   1.966   4.663   6.981  2.1656 -1.1588 -0.8403
 3743SOL    HW222863   2.062   4.632   7.078  0.1427 -0.1843  0.6438
 3744SOL     OW22864   4.388   2.115   9.065 -0.3496  0.1287  0.0680
 3744SOL    HW122865   4.419   2.204   9.046 -1.6764  0.7096  0.6250
 3744SOL    HW222866   4.436   2.113   9.148 -0.0630 -1.3759 -0.1312
 3745SOL     OW22867   0.371   0.320  10.134  0.9654 -0.4261 -0.1896
 3745SOL    HW122868   0.451   0.267  10.128 -0.0480 -2.0033  0.2491
 3745SOL    HW222869   0.406   0.395  10.085 -0.7650  0.8513  0.5494
 3746SOL     OW22870   4.723   0.411   6.952 -0.2408 -0.1163  0.0702
 3746SOL    HW122871   4.690   0.377   7.035  1.8847  0.2575  1.0814
 3746SOL    HW222872   4.688   0.339   6.900 -0.0265  1.9177 -2.8894
 3747SOL     OW22873   1.959   2.116   0.023 -0.7489 -0.4896  0.2582
 3747SOL    HW122874   1.885   2.175   0.008  0.5360  0.6184 -1.6436
 3747SOL    HW222875   2.031   2.176   0.041 -1.0234 -0.4789  1.3188
 3748SOL     OW22876   2.280   3.444   7.462  0.1326  0.6529 -0.0415
 3748SOL    HW122877   2.229   3.366   7.485 -0.9825  1.5487  0.5090
 3748SOL    HW222878   2.369   3.410   7.467 -0.0543  0.4577  2.2909
 3749SOL     OW22879   4.115   4.409   4.278  0.0556  0.0581  0.0669
 3749SOL    HW122880   4.160   4.356   4.344 -1.3546 -1.0020  0.1696
 3749SOL    HW222881   4.184   4.435   4.216  0.0900 -1.7973 -0.6525
 3750SOL     OW22882   3.869   1.270   5.476  0.4243  0.1800 -0.1398
 3750SOL    HW122883   3.834   1.292   5.563  0.1562  0.8424 -0.4103
 3750SOL    HW222884   3.828   1.334   5.418 -1.1280 -1.0727 -0.4121
 3751SOL     OW22885   0.648   3.824   5.770  0.4356  0.3793  0.4266
 3751SOL    HW122886   0.659   3.729   5.761  0.6283  0.5225 -0.8384
 3751SOL    HW222887   0.738   3.853   5.781  0.2280  0.9426  0.6734
 3752SOL     OW22888   2.651   0.532   8.880  0.1029  0.3543 -0.3731
 3752SOL    HW122889   2.729   0.567   8.836 -1.9153  4.0138 -1.0239
 3752SOL    HW222890   2.668   0.568   8.967 -0.7210 -1.0505  0.3439
 3753SOL     OW22891   1.449   4.633   4.445  0.2582 -0.0292 -0.1697
 3753SOL    HW122892   1.499   4.552   4.455 -1.0583 -0.6770  1.1491
 3753SOL    HW222893   1.436   4.634   4.350  0.1094  1.1158 -0.1306
 3754SOL     OW22894   2.733   1.390  10.743  0.4196 -0.6820  0.1344
 3754SOL    HW122895   2.663   1.383  10.678  2.7251 -2.4482 -2.1901
 3754SOL    HW222896   2.741   1.308  10.792  1.3578  0.1238  1.3246
 3755SOL     OW22897   3.226   0.516   4.783 -0.1444 -0.0331  0.0988
 3755SOL    HW122898   3.256   0.426   4.794  3.8373  1.0825 -1.5624
 3755SOL    HW222899   3.208   0.533   4.875  2.1201  2.6984  0.0361
 3756SOL     OW22900   1.139   3.802   8.129 -0.3505  0.4302  0.5633
 3756SOL    HW122901   1.142   3.868   8.198  1.1651 -0.2734  1.1509
 3756SOL    HW222902   1.045   3.805   8.111 -0.5875  0.7089  1.8481
 3757SOL     OW22903   0.787   1.119   1.286  0.7588  0.7165  0.5489
 3757SOL    HW122904   0.744   1.045   1.329  1.1799  1.2257  1.8505
 3757SOL    HW222905   0.770   1.181   1.357 -0.0471  2.4856 -1.1993
 3758SOL     OW22906   2.831   4.066   8.773  0.1411  0.5314 -0.1109
 3758SOL    HW122907   2.856   4.009   8.699 -0.0961  0.8115 -0.4038
 3758SOL    HW222908   2.763   4.122   8.736 -2.6327 -0.4837  3.4384
 3759SOL     OW22909   2.395   0.630   5.944  0.1024 -0.0712 -0.0534
 3759SOL    HW122910   2.390   0.716   5.904 -1.4287  0.8172  2.0704
 3759SOL    HW222911   2.371   0.567   5.876 -0.9536  1.3206 -0.9459
 3760SOL     OW22912   3.687   3.095   7.544  0.0098  0.0306  0.8397
 3760SOL    HW122913   3.654   3.005   7.547  3.3297 -1.2087 -0.7852
 3760SOL    HW222914   3.678   3.122   7.635 -0.1156  0.1068  0.8054
 3761SOL     OW22915   4.476   4.364   8.120  0.1871  0.3873 -0.0968
 3761SOL    HW122916   4.461   4.453   8.089  1.5175  1.1118  1.3547
 3761SOL    HW222917   4.398   4.312   8.101  0.9445 -0.3951 -1.1019
 3762SOL     OW22918   0.353   2.467  11.221  0.3990 -0.3835 -0.3435
 3762SOL    HW122919   0.310   2.382  11.216  1.3779 -0.9035  0.1405
 3762SOL    HW222920   0.327   2.502  11.306  1.4834  1.1155 -0.6189
 3763SOL     OW22921   2.880   3.260  14.880 -0.2774  0.0412  0.3155
 3763SOL    HW122922   2.898   3.336  14.824 -0.8746 -0.5916 -0.7311
 3763SOL    HW222923   2.935   3.294  14.951 -0.4587  1.9902 -0.4718
 3764SOL     OW22924   1.448   4.576   0.728  0.1318 -0.1506 -0.3440
 3764SOL    HW122925   1.491   4.608   0.649 -1.0380  1.1291 -0.4662
 3764SOL    HW222926   1.513   4.613   0.788 -0.2275  2.1165 -1.3423
 3765SOL     OW22927   0.636   1.689  14.663 -0.3139  0.1099  0.3005
 3765SOL    HW122928   0.624   1.782  14.644 -1.9837 -0.2586 -0.5036
 3765SOL    HW222929   0.681   1.666  14.582  0.3125  0.3366  0.5904
 3766SOL     OW22930   4.451   3.703   4.093  0.3718 -0.1309  0.0923
 3766SOL    HW122931   4.473   3.647   4.018  0.3320  0.6684 -0.5195
 3766SOL    HW222932   4.502   3.782   4.074 -0.7876  0.3059 -1.1764
 3767SOL     OW22933   0.907   2.965   2.806  0.5935 -0.0644  0.8034
 3767SOL    HW122934   0.813   2.982   2.805  0.9461  1.8568  1.2616
 3767SOL    HW222935   0.915   2.940   2.898  1.8600  0.0192  0.7094
 3768SOL     OW22936   0.984   2.558   3.654  0.3029 -0.1455 -0.7752
 3768SOL    HW122937   0.973   2.492   3.722 -2.5075 -0.6875 -1.7331
 3768SOL    HW222938   1.073   2.540   3.623  0.5277 -3.3641  1.7584
 3769SOL     OW22939   4.308   3.598  10.510 -0.0489  0.1050 -0.3943
 3769SOL    HW122940   4.255   3.645  10.574  1.1828  0.9363  0.0264
 3769SOL    HW222941   4.309   3.509  10.544 -0.2589 -0.1346 -1.0298
 3770SOL     OW22942   3.079   3.349  11.044 -0.0212 -1.0349  0.2738
 3770SOL    HW122943   3.149   3.372  11.105  0.6708 -1.5453 -0.3367
 3770SOL    HW222944   3.125   3.362  10.961  0.1510  2.4929  0.8936
 3771SOL     OW22945   2.676   0.297  10.241  0.2490 -0.1678  0.1736
 3771SOL    HW122946   2.656   0.278  10.332 -1.7560 -0.0687 -0.2297
 3771SOL    HW222947   2.600   0.346  10.210  1.9735  1.0414 -2.1748
 3772SOL     OW22948   3.419   3.529   4.338 -0.0534  0.4036  0.5669
 3772SOL    HW122949   3.453   3.441   4.355  0.6072  0.3065 -1.2653
 3772SOL    HW222950   3.324   3.519   4.337  0.3185 -2.8690 -1.8559
 3773SOL     OW22951   1.213   2.736   2.428  0.5018  0.1450  0.4862
 3773SOL    HW122952   1.304   2.752   2.453  0.2198  0.8918  1.0281
 3773SOL    HW222953   1.156   2.753   2.503  0.8304 -0.5093  0.8860
 3774SOL     OW22954   3.356   2.805  17.147  0.2658 -0.3349  0.8755
 3774SOL    HW122955   3.436   2.838  17.107  0.4299 -0.0401  1.4485
 3774SOL    HW222956   3.332   2.877  17.206 -3.2624 -0.7411 -0.0845
 3775SOL     OW22957   4.718   1.559   3.701  0.0480  0.0479  0.6563
 3775SOL    HW122958   0.008   1.578   3.791 -0.7194 -0.3801  0.9862
 3775SOL    HW222959   4.697   1.470   3.727 -0.9951 -0.4081 -1.7824
 3776SOL     OW22960   2.999   1.456   8.001  0.4714 -0.2102  0.1717
 3776SOL    HW122961   2.917   1.474   8.046  0.2309 -1.6337  0.2898
 3776SOL    HW222962   3.048   1.422   8.077  1.3853 -0.2450 -0.4294
 3777SOL     OW22963   2.431   4.734  13.029  0.3306  0.2406  0.0161
 3777SOL    HW122964   2.445   4.676  12.954 -0.5415  0.2474 -0.1480
 3777SOL    HW222965   2.521   0.008  13.060  0.8912  0.0721 -1.5301
 3778SOL     OW22966   1.111   3.537   3.233 -0.1233  0.4066 -0.0377
 3778SOL    HW122967   1.118   3.612   3.293  1.0295  1.8529 -2.0051
 3778SOL    HW222968   1.194   3.538   3.187 -0.1329  1.5839 -0.0347
 3779SOL     OW22969   1.241   1.450   7.750 -0.4717  0.1803  0.3256
 3779SOL    HW122970   1.259   1.381   7.687 -0.2033 -0.3696  1.0111
 3779SOL    HW222971   1.318   1.508   7.751 -2.2060  2.5108 -0.3754
 3780SOL     OW22972   2.661   2.131  12.800 -0.4961  0.1706 -0.9913
 3780SOL    HW122973   2.654   2.218  12.840 -0.1224 -0.7716  1.1551
 3780SOL    HW222974   2.581   2.133  12.748 -1.5867 -1.9599  0.6116
 3781SOL     OW22975   0.638   2.269   3.203 -0.3867 -0.3849 -0.6230
 3781SOL    HW122976   0.658   2.282   3.296 -1.5162 -0.5072 -0.3676
 3781SOL    HW222977   0.578   2.341   3.187 -0.3188 -0.1356  0.2437
 3782SOL     OW22978   1.356   3.112   0.559  0.3660  0.7555 -0.0588
 3782SOL    HW122979   1.294   3.062   0.507 -1.3425  3.0805 -0.2498
 3782SOL    HW222980   1.296   3.162   0.614  1.4807  0.7189  1.2010
 3783SOL     OW22981   4.142   4.479   4.581 -0.3949 -0.2458  0.1470
 3783SOL    HW122982   4.136   4.388   4.608 -1.2196 -0.4420 -0.6745
 3783SOL    HW222983   4.170   4.517   4.664 -0.6634  0.6040 -0.1463
 3784SOL     OW22984   1.436   2.402   5.734 -0.3157  0.1366  0.4018
 3784SOL    HW122985   1.509   2.376   5.790 -1.0298  0.0577  1.2832
 3784SOL    HW222986   1.460   2.338   5.667  0.3950 -0.3734  1.1425
 3785SOL     OW22987   4.062   2.064   1.159 -0.1056 -0.0109  0.0614
 3785SOL    HW122988   4.109   1.984   1.139 -0.0561  0.5160 -1.9488
 3785SOL    HW222989   4.120   2.102   1.225  2.2745  0.1820 -2.1409
 3786SOL     OW22990   3.760   4.355  14.303 -0.2090  0.3471 -0.2856
 3786SOL    HW122991   3.715   4.328  14.223  1.3332  1.3860 -1.5090
 3786SOL    HW222992   3.833   4.293  14.301 -2.5598 -2.3952 -1.6468
 3787SOL     OW22993   3.749   3.761   4.214  0.1144 -0.1577 -0.4059
 3787SOL    HW122994   3.686   3.723   4.276  0.6885  0.9813  0.8926
 3787SOL    HW222995   3.822   3.798   4.263  1.0634 -0.8879 -1.2687
 3788SOL     OW22996   4.176   4.719   6.748  0.4023 -0.5142 -0.4306
 3788SOL    HW122997   4.173   4.633   6.790  4.7779  0.2368  1.4736
 3788SOL    HW222998   4.205   0.036   6.819 -0.7709  1.7275 -1.7156
 3789SOL     OW22999   1.577   2.675   2.079  0.0107 -0.1879 -0.1844
 3789SOL    HW123000   1.563   2.769   2.076  2.2323  0.2349  2.9059
 3789SOL    HW223001   1.492   2.643   2.047  0.8265 -1.5267 -1.0038
 3790SOL     OW23002   1.920   1.641   4.364 -0.1418 -0.1657 -0.0404
 3790SOL    HW123003   1.976   1.578   4.319 -3.1268 -2.3337 -0.7546
 3790SOL    HW223004   1.958   1.725   4.338  0.7501 -1.0783 -1.6568
 3791SOL     OW23005   3.230   3.766   6.926 -0.5453  0.4840  0.4347
 3791SOL    HW123006   3.296   3.742   6.861 -0.0064 -0.1187  1.1947
 3791SOL    HW223007   3.266   3.738   7.011  0.2693  0.0164 -0.0635
 3792SOL     OW23008   4.540   0.706   2.346  0.1660  0.1078 -0.0980
 3792SOL    HW123009   4.454   0.742   2.322  0.3237  1.2870  1.1235
 3792SOL    HW223010   4.587   0.776   2.391 -1.0999  0.7205  0.2740
 3793SOL     OW23011   3.373   2.408   9.881 -0.4579 -0.2334 -0.0425
 3793SOL    HW123012   3.334   2.371   9.802  1.0707 -1.7009 -0.1208
 3793SOL    HW223013   3.295   2.406   9.936 -1.1293 -0.8289 -1.0070
 3794SOL     OW23014   0.598   4.557   7.056 -0.3691 -0.2122 -0.1650
 3794SOL    HW123015   0.678   4.584   7.100  0.6712  1.1897 -2.8832
 3794SOL    HW223016   0.574   4.632   7.001 -3.2382 -1.6824 -0.9320
 3795SOL     OW23017   0.333   1.595   7.886  0.3363 -0.0915 -0.2262
 3795SOL    HW123018   0.268   1.578   7.817 -2.7396  1.8616  2.1813
 3795SOL    HW223019   0.359   1.504   7.902  2.2738  0.4252 -0.5260
 3796SOL     OW23020   0.924   1.546   5.048  0.5517 -0.0403  0.0037
 3796SOL    HW123021   1.010   1.533   5.008  0.8134  1.6530  0.0480
 3796SOL    HW223022   0.909   1.640   5.037 -1.0853  0.0851  3.4530
 3797SOL     OW23023   4.231   3.490   3.354  0.0246 -0.0871  0.1249
 3797SOL    HW123024   4.253   3.567   3.301  2.1933 -1.3015 -0.7153
 3797SOL    HW223025   4.238   3.423   3.286 -1.1667 -1.4821  1.3767
 3798SOL     OW23026   2.748   3.211  17.580 -0.4525 -0.1303  0.2933
 3798SOL    HW123027   2.765   3.276  17.513  1.1369 -0.1887  0.6366
 3798SOL    HW223028   2.779   3.250  17.662  1.5239 -2.4119  0.6463
 3799SOL     OW23029   1.614   1.776   4.383 -0.1991 -0.3587  0.4364
 3799SOL    HW123030   1.634   1.781   4.476 -1.6776  0.3800  0.7195
 3799SOL    HW223031   1.676   1.709   4.356 -0.7742 -1.0170  0.7600
 3800SOL     OW23032   3.523   1.554   3.296 -0.2198 -0.2043 -0.3003
 3800SOL    HW123033   3.570   1.612   3.237  0.7419 -1.2901 -0.6154
 3800SOL    HW223034   3.553   1.472   3.256 -2.6051 -0.8788 -0.6860
 3801SOL     OW23035   2.791   0.455   4.077  0.0663 -0.8334  0.7470
 3801SOL    HW123036   2.813   0.362   4.080 -0.4713 -1.0625 -1.9851
 3801SOL    HW223037   2.746   0.463   4.161 -0.6315 -0.3198  0.3279
 3802SOL     OW23038   0.191   1.945   3.204  0.0680  0.0048  0.1542
 3802SOL    HW123039   0.213   1.933   3.297  1.4013  0.4465 -0.1157
 3802SOL    HW223040   0.239   2.027   3.198  2.8252 -1.7403 -1.5248
 3803SOL     OW23041   3.459   1.181   6.718  0.2096  0.5546 -0.0069
 3803SOL    HW123042   3.489   1.167   6.628 -2.5462 -1.3781 -0.6279
 3803SOL    HW223043   3.517   1.252   6.746 -0.2268  0.3927  1.3081
 3804SOL     OW23044   3.418   0.525  15.078 -0.0824 -0.0976 -0.1203
 3804SOL    HW123045   3.464   0.454  15.122  0.5076  1.7674  2.1932
 3804SOL    HW223046   3.473   0.602  15.091 -0.2587  0.2587 -1.4387
 3805SOL     OW23047   2.607   3.720   7.375 -0.4467  0.4322  0.0170
 3805SOL    HW123048   2.597   3.695   7.466  1.5341  0.3616  0.2203
 3805SOL    HW223049   2.647   3.807   7.381  2.2263 -0.5877 -2.5666
 3806SOL     OW23050   0.099   0.540  17.155  0.0882  0.2154 -0.5881
 3806SOL    HW123051   0.175   0.508  17.204  1.5587  3.1153 -0.9452
 3806SOL    HW223052   0.138   0.620  17.118 -1.1561  1.1302  0.0757
 3807SOL     OW23053   2.853   3.532   0.749  0.4102 -0.2794 -0.6755
 3807SOL    HW123054   2.946   3.538   0.769  0.0675  0.6885  0.6712
 3807SOL    HW223055   2.853   3.441   0.720 -0.5742 -0.1305 -1.1494
 3808SOL     OW23056   3.566   2.123   3.797  0.0025  0.0098 -0.3829
 3808SOL    HW123057   3.569   2.066   3.720  0.6618 -0.1438 -0.2406
 3808SOL    HW223058   3.521   2.200   3.762  1.1221  2.1655  2.9706
 3809SOL     OW23059   1.712   1.012   3.422 -0.3378  0.2931 -0.3257
 3809SOL    HW123060   1.668   0.933   3.392 -1.5267  0.3097  1.3694
 3809SOL    HW223061   1.799   0.998   3.385 -1.0607 -0.8385 -1.6153
 3810SOL     OW23062   1.955   3.867   2.841  0.1477 -0.3498 -0.0981
 3810SOL    HW123063   1.885   3.818   2.885  0.5403  0.2622  1.2039
 3810SOL    HW223064   1.911   3.942   2.800  0.1360 -1.6464 -2.4930
 3811SOL     OW23065   2.959   1.772   9.183 -0.2547  0.0419 -0.5048
 3811SOL    HW123066   2.888   1.835   9.193 -0.6366 -0.7454  1.7167
 3811SOL    HW223067   2.931   1.719   9.108 -1.1889  0.2284 -0.2928
 3812SOL     OW23068   0.135   0.925  17.455 -0.4666  0.1476  0.0691
 3812SOL    HW123069   0.112   0.975  17.533 -0.1503 -1.4749  1.1998
 3812SOL    HW223070   0.047   0.910  17.422 -0.8546  1.0167  0.7085
 3813SOL     OW23071   2.608   1.760   4.059 -0.4854  0.7389  0.2709
 3813SOL    HW123072   2.655   1.711   3.992 -0.1599  0.1035  0.9558
 3813SOL    HW223073   2.559   1.688   4.100  1.0751 -0.7802 -0.5203
 3814SOL     OW23074   1.093   2.496   6.778  0.1844 -0.6036  0.1782
 3814SOL    HW123075   1.025   2.463   6.837  0.3912  0.3540  0.9544
 3814SOL    HW223076   1.048   2.531   6.700  1.0865  2.4992  1.0386
 3815SOL     OW23077   0.486   1.505   9.000 -0.1074 -0.0760 -0.3922
 3815SOL    HW123078   0.469   1.453   9.079 -0.0797  1.7314  0.8091
 3815SOL    HW223079   0.407   1.485   8.951 -0.1651 -0.9536  0.0548
 3816SOL     OW23080   3.219   0.853   4.155 -0.0602 -0.2982 -0.5448
 3816SOL    HW123081   3.295   0.795   4.162  0.8232  1.3788  3.6593
 3816SOL    HW223082   3.264   0.923   4.109  0.0194 -0.0404 -0.0682
 3817SOL     OW23083   1.358   0.942  14.678  0.7338 -0.5613 -0.9314
 3817SOL    HW123084   1.440   0.985  14.652 -0.5247  4.0755  2.6779
 3817SOL    HW223085   1.359   0.956  14.773  0.4740 -0.1593 -0.9869
 3818SOL     OW23086   1.144   1.829   6.917 -0.1569  0.4880 -0.7917
 3818SOL    HW123087   1.174   1.827   7.008  0.5716  3.1447 -0.9775
 3818SOL    HW223088   1.104   1.916   6.914  1.8248  1.3687 -1.3031
 3819SOL     OW23089   2.297   3.971   4.717  0.4686 -0.5630 -0.0671
 3819SOL    HW123090   2.269   3.970   4.808 -1.9123 -2.1207 -0.8245
 3819SOL    HW223091   2.360   4.042   4.729  0.1887  0.0417 -2.2609
 3820SOL     OW23092   1.014   0.105   6.609  0.2619  0.2887  0.3737
 3820SOL    HW123093   1.088   0.157   6.640  0.5326 -0.2734  0.6831
 3820SOL    HW223094   0.950   0.174   6.592 -1.3432 -1.1942  0.4129
 3821SOL     OW23095   2.081   1.589   2.005 -0.1767  0.0950  0.1140
 3821SOL    HW123096   2.109   1.525   1.940 -1.1528  3.1633 -3.2840
 3821SOL    HW223097   2.145   1.567   2.073  0.4522 -2.0107 -1.1713
 3822SOL     OW23098   0.008   3.511   6.456  0.4235  0.3292  0.2642
 3822SOL    HW123099   0.062   3.559   6.393 -0.7043  3.0103  1.3640
 3822SOL    HW223100   0.026   3.423   6.424  0.9406  0.3947  0.3838
 3823SOL     OW23101   3.365   4.117   8.835  0.8226 -0.4498  0.1078
 3823SOL    HW123102   3.331   4.198   8.873 -0.9515 -0.7516 -0.8195
 3823SOL    HW223103   3.319   4.113   8.752 -0.0334  2.0019  0.4624
 3824SOL     OW23104   4.111   3.554   2.248 -0.1951 -0.2726 -0.4467
 3824SOL    HW123105   4.192   3.545   2.199 -0.0247  1.7910 -0.5312
 3824SOL    HW223106   4.087   3.462   2.242 -2.7178  0.3627 -0.3526
 3825SOL     OW23107   0.568   3.156   5.253 -0.3006  0.4582 -0.4239
 3825SOL    HW123108   0.477   3.130   5.234  0.1756 -3.1948  2.3108
 3825SOL    HW223109   0.605   3.165   5.166 -0.4105  1.2862 -0.3799
 3826SOL     OW23110   4.311   4.422   1.616 -0.2832  0.0941 -0.4891
 3826SOL    HW123111   4.285   4.426   1.524  1.5290  1.8809 -0.9272
 3826SOL    HW223112   4.237   4.463   1.661 -1.1888 -1.4238 -0.5888
 3827SOL     OW23113   3.726   1.005   8.535  0.8365 -0.1586  0.6525
 3827SOL    HW123114   3.782   0.991   8.612  0.0884  0.2139  1.2664
 3827SOL    HW223115   3.792   1.041   8.476 -0.7866  2.3140  0.3634
 3828SOL     OW23116   3.459   4.222   5.972  0.4730  0.5501 -0.2846
 3828SOL    HW123117   3.432   4.203   6.062 -0.1257  2.6725 -0.0089
 3828SOL    HW223118   3.457   4.318   5.974 -0.0155  0.5299  0.3341
 3829SOL     OW23119   0.796   4.693   9.153  0.1525  0.2600  0.3547
 3829SOL    HW123120   0.732   0.022   9.131 -0.6193  0.1287  2.1970
 3829SOL    HW223121   0.860   0.013   9.194  0.7092 -0.8306  1.0413
 3830SOL     OW23122   2.887   0.738   4.430  0.5735 -0.0856  0.0275
 3830SOL    HW123123   2.889   0.788   4.348  0.1088 -1.6447 -0.9283
 3830SOL    HW223124   2.908   0.798   4.501 -0.4304  1.5927 -1.0900
 3831SOL     OW23125   1.259   0.360  17.686  0.2936 -0.6792  0.1012
 3831SOL    HW123126   1.276   0.325   0.021  2.3116  1.0852  0.4217
 3831SOL    HW223127   1.180   0.314  17.659 -0.1875 -0.1192  0.5422
 3832SOL     OW23128   3.527   3.878   3.479  0.3152 -0.1027 -0.1771
 3832SOL    HW123129   3.512   3.858   3.387  1.7300 -1.3637 -0.1345
 3832SOL    HW223130   3.598   3.942   3.469  1.0081 -1.0953 -1.6477
 3833SOL     OW23131   3.898   1.485   2.191 -0.5135 -0.3668  0.1681
 3833SOL    HW123132   3.839   1.415   2.218  0.5833 -0.9088  1.1459
 3833SOL    HW223133   3.980   1.435   2.199 -0.1484  0.2166  0.0509
 3834SOL     OW23134   1.760   2.000   3.306 -0.2910  0.8008 -0.3139
 3834SOL    HW123135   1.843   1.997   3.257 -0.4504  0.9293 -0.5903
 3834SOL    HW223136   1.706   2.054   3.248 -3.2520 -1.5358  0.2899
 3835SOL     OW23137   2.409   1.497   3.182  0.3053 -0.3293 -0.1150
 3835SOL    HW123138   2.451   1.574   3.142  1.5176 -0.7941  0.2443
 3835SOL    HW223139   2.398   1.529   3.271 -0.5669  0.6705 -0.5831
 3836SOL     OW23140   2.732   1.974  14.115  0.2226  0.3942  0.1067
 3836SOL    HW123141   2.789   2.049  14.132  0.1027  0.2577  1.0917
 3836SOL    HW223142   2.646   2.015  14.104 -1.4215 -3.0068  0.4178
 3837SOL     OW23143   2.916   0.197   3.438  0.0068  0.2113 -0.1265
 3837SOL    HW123144   2.975   0.258   3.394  1.0148 -0.4725  0.2802
 3837SOL    HW223145   2.836   0.250   3.430  0.1624  0.0605 -2.5822
 3838SOL     OW23146   1.550   2.545   5.442  0.1619  0.2690  0.0178
 3838SOL    HW123147   1.499   2.620   5.412  1.8178  1.4223  0.0857
 3838SOL    HW223148   1.556   2.563   5.536  0.1816 -0.8349  0.2245
 3839SOL     OW23149   1.422   2.200   8.326 -1.2035  0.1803  0.0792
 3839SOL    HW123150   1.470   2.248   8.394 -1.3468 -0.1989  0.4443
 3839SOL    HW223151   1.351   2.166   8.380 -0.2717 -2.9472 -0.7159
 3840SOL     OW23152   2.990   4.199   7.582 -0.0288  0.2342 -0.0241
 3840SOL    HW123153   2.963   4.136   7.515 -0.8255 -0.2575  0.7689
 3840SOL    HW223154   2.912   4.241   7.619 -0.3048 -0.0813 -0.2381
 3841SOL     OW23155   2.730   0.738  16.922  0.0778  0.6449  0.1918
 3841SOL    HW123156   2.713   0.644  16.923  1.2441  0.4277  0.4440
 3841SOL    HW223157   2.712   0.781  17.006 -2.4129 -1.8422  0.8890
 3842SOL     OW23158   0.770   4.016   2.506  0.2719 -0.1833  0.1575
 3842SOL    HW123159   0.731   4.021   2.419  1.5313  1.5906 -0.3172
 3842SOL    HW223160   0.696   3.989   2.561 -1.2694  2.0772 -0.8150
 3843SOL     OW23161   0.927   3.846   5.791  0.0299  0.7848  0.2284
 3843SOL    HW123162   0.965   3.895   5.718  1.9594  0.3147  0.9139
 3843SOL    HW223163   0.977   3.889   5.861  0.1934 -0.1072  0.6497
 3844SOL     OW23164   1.074   0.223   8.265  0.1685 -0.2818  0.0693
 3844SOL    HW123165   1.132   0.170   8.319 -0.4742 -1.4712 -0.4021
 3844SOL    HW223166   1.134   0.296   8.253  0.9648 -0.9934 -0.2822
 3845SOL     OW23167   1.263   4.252  17.578 -0.3337  0.2254 -0.2603
 3845SOL    HW123168   1.219   4.221  17.499  1.2328 -1.5952 -0.4264
 3845SOL    HW223169   1.322   4.177  17.583  0.1302  0.6180  0.2436
 3846SOL     OW23170   2.595   1.463   3.648  0.3687  0.1312  0.6314
 3846SOL    HW123171   2.626   1.514   3.723  1.4888 -1.6027  1.3645
 3846SOL    HW223172   2.678   1.440   3.606  0.1559 -1.3485  1.0221
 3847SOL     OW23173   0.385   2.720   2.919 -0.5418 -0.1686 -0.1818
 3847SOL    HW123174   0.379   2.625   2.910  1.0744 -0.3336  0.5884
 3847SOL    HW223175   0.345   2.725   3.006 -1.1206 -1.7685 -0.3416
 3848SOL     OW23176   2.349   3.304  11.376  0.3204  0.6681 -0.4204
 3848SOL    HW123177   2.265   3.339  11.405  1.1423  1.8370  0.5030
 3848SOL    HW223178   2.370   3.343  11.291  2.4674 -1.8654 -1.0615
 3849SOL     OW23179   1.521   2.811   7.093  0.0777  0.3184  0.8128
 3849SOL    HW123180   1.436   2.826   7.052  0.3826  0.5784  0.2825
 3849SOL    HW223181   1.495   2.800   7.184  1.8335  1.0518  1.3949
 3850SOL     OW23182   1.355   4.502  15.331  0.0922  0.1308 -0.2954
 3850SOL    HW123183   1.425   4.565  15.316  1.6633 -1.4317  0.4430
 3850SOL    HW223184   1.308   4.554  15.396  1.9747 -0.1878  1.3227
 3851SOL     OW23185   0.479   0.673   7.243 -0.2275 -0.1745 -0.4509
 3851SOL    HW123186   0.450   0.764   7.236 -2.4318 -0.8996 -0.6924
 3851SOL    HW223187   0.399   0.634   7.208 -0.3595  0.6655 -1.0934
 3852SOL     OW23188   0.096   2.674  16.185 -0.7546  0.1651  0.0548
 3852SOL    HW123189   0.153   2.646  16.114  0.2898  0.7918  0.6418
 3852SOL    HW223190   0.048   2.593  16.203 -1.8273  0.5109 -1.2988
 3853SOL     OW23191   4.335   1.059   6.867 -0.0890  0.3077 -0.1479
 3853SOL    HW123192   4.350   0.991   6.800  1.5097  1.1919 -0.6943
 3853SOL    HW223193   4.292   1.124   6.812  0.1073  1.0504  0.5983
 3854SOL     OW23194   0.836   2.087  11.622 -0.1274  0.1542  0.2438
 3854SOL    HW123195   0.896   2.019  11.593  0.3817  0.4290  0.6678
 3854SOL    HW223196   0.750   2.046  11.607  0.6249 -0.9442 -1.0090
 3855SOL     OW23197   4.365   1.022   1.527 -0.3625 -0.1782 -0.1824
 3855SOL    HW123198   4.332   0.932   1.526  2.7773 -1.3184 -1.0290
 3855SOL    HW223199   4.447   1.006   1.574 -1.0265 -2.1293  0.2925
 3856SOL     OW23200   3.696   2.832   4.175 -0.1074  0.1135  0.1469
 3856SOL    HW123201   3.600   2.829   4.175 -0.1250  1.4157  1.7896
 3856SOL    HW223202   3.725   2.918   4.147 -0.7710  0.0174 -0.8557
 3857SOL     OW23203   3.920   3.653  12.689  0.1007 -0.3487  0.3287
 3857SOL    HW123204   3.846   3.604  12.724  0.6326 -1.8143 -0.5705
 3857SOL    HW223205   3.980   3.579  12.681 -0.1614 -0.4840 -0.3752
 3858SOL     OW23206   3.368   4.664  15.800 -0.0427 -0.4681 -0.2374
 3858SOL    HW123207   3.297   4.713  15.842 -0.7034 -1.2547 -0.4353
 3858SOL    HW223208   3.343   4.657  15.708 -0.8341 -2.4280  0.1209
 3859SOL     OW23209   0.102   2.808   5.844 -0.8550  0.3929 -0.3288
 3859SOL    HW123210   0.177   2.778   5.792  0.2282  0.5530  1.1632
 3859SOL    HW223211   0.140   2.866   5.909  0.7399  2.1373 -2.8016
 3860SOL     OW23212   3.819   3.124   6.212 -0.1714  0.2764  0.2306
 3860SOL    HW123213   3.791   3.214   6.228 -0.8471  0.2210 -0.6219
 3860SOL    HW223214   3.782   3.107   6.125 -0.1971  0.5385  0.1915
 3861SOL     OW23215   3.548   3.809   7.607 -0.0804 -0.0946 -0.1795
 3861SOL    HW123216   3.620   3.851   7.653 -0.6599 -0.5572  1.1469
 3861SOL    HW223217   3.572   3.844   7.521 -0.0766  2.7976  1.0023
 3862SOL     OW23218   4.659   2.279   3.437  0.3689  0.0932  0.3768
 3862SOL    HW123219   4.621   2.259   3.523 -0.2310 -1.1265 -0.1763
 3862SOL    HW223220   4.691   2.368   3.446  1.2966 -0.3033  1.0615
 3863SOL     OW23221   0.948   0.151   4.505  0.0364  0.2405 -0.2326
 3863SOL    HW123222   0.918   0.183   4.590 -3.1541 -0.5646 -1.0418
 3863SOL    HW223223   1.042   0.134   4.510  0.6381  3.5147 -1.0311
 3864SOL     OW23224   4.638   1.643   8.199 -0.0372 -0.4595  0.5395
 3864SOL    HW123225   4.689   1.696   8.260  1.1745 -0.5174 -0.4273
 3864SOL    HW223226   4.572   1.702   8.164 -0.8821 -0.9343  1.3318
 3865SOL     OW23227   1.564   2.019   2.800 -0.2794  0.3138  0.2244
 3865SOL    HW123228   1.494   1.983   2.745  0.2763  3.0639 -2.2862
 3865SOL    HW223229   1.567   2.098   2.747 -1.8353 -1.0983 -1.9442
 3866SOL     OW23230   0.422   0.954  12.857  0.2398  0.2267 -0.3349
 3866SOL    HW123231   0.447   1.046  12.847 -2.3951  0.7805 -1.8142
 3866SOL    HW223232   0.360   0.957  12.930 -0.6189 -0.7785 -1.0163
 3867SOL     OW23233   0.774   2.420   5.290  0.1815 -0.0339 -0.3420
 3867SOL    HW123234   0.705   2.353   5.289 -2.7278  2.9654 -0.0985
 3867SOL    HW223235   0.786   2.419   5.195 -0.0769  2.2969 -0.3956
 3868SOL     OW23236   2.427   1.269   3.563  0.1870 -0.5477  0.0151
 3868SOL    HW123237   2.371   1.334   3.605 -1.4633 -0.6458 -1.9801
 3868SOL    HW223238   2.513   1.304   3.585 -0.1004 -0.1490  0.5014
 3869SOL     OW23239   2.790   0.036   1.791  0.0788 -0.0641  0.2025
 3869SOL    HW123240   2.783   0.025   1.886 -1.2386 -1.8650 -0.0993
 3869SOL    HW223241   2.792   0.131   1.783 -0.6859  0.0682  1.6072
 3870SOL     OW23242   2.501   0.406   6.966  0.6226  0.2143 -0.5205
 3870SOL    HW123243   2.431   0.442   7.019  1.1004 -0.2679  0.4301
 3870SOL    HW223244   2.481   0.312   6.974 -0.8799  0.5064 -0.7700
 3871SOL     OW23245   2.415   3.100  14.891  0.2120  0.1842 -0.0600
 3871SOL    HW123246   2.378   3.012  14.893 -2.9475  1.5065  0.4401
 3871SOL    HW223247   2.509   3.084  14.886 -0.2069 -1.7601 -1.7480
 3872SOL     OW23248   1.029   2.921   5.584 -0.0995 -0.3786  0.0818
 3872SOL    HW123249   1.065   2.997   5.540  0.5643 -0.9694 -0.4033
 3872SOL    HW223250   1.111   2.880   5.613 -0.3683 -2.8076 -2.6607
 3873SOL     OW23251   2.559   0.366   1.767 -0.4178  0.2616  0.0363
 3873SOL    HW123252   2.509   0.447   1.767 -0.3943  0.2763 -0.0082
 3873SOL    HW223253   2.518   0.319   1.839  1.8294  0.1128  1.2383
 3874SOL     OW23254   3.100   1.381   6.922  0.3718  0.6730 -0.7132
 3874SOL    HW123255   3.142   1.366   6.837 -0.9616 -0.5171 -1.1549
 3874SOL    HW223256   3.019   1.334   6.900 -0.1473  1.1828  0.0700
 3875SOL     OW23257   4.302   4.656  12.150  0.1762  0.3891 -0.0334
 3875SOL    HW123258   4.292   4.610  12.067  0.5417 -2.0553  1.2638
 3875SOL    HW223259   4.395   4.674  12.143  0.8199 -1.8794  2.7531
 3876SOL     OW23260   0.757   0.933   3.939 -0.5086 -0.2566 -0.4638
 3876SOL    HW123261   0.673   0.888   3.944 -1.6936  2.1982  1.3774
 3876SOL    HW223262   0.726   1.023   3.926 -0.2003  0.3254  2.9541
 3877SOL     OW23263   0.551   0.487   8.933  0.1000 -0.0953  0.4898
 3877SOL    HW123264   0.513   0.472   9.019  0.5421  0.3605  0.7694
 3877SOL    HW223265   0.516   0.418   8.878 -3.3636  3.2901 -1.5327
 3878SOL     OW23266   1.912   0.076   3.401  0.0497 -0.5309  0.3179
 3878SOL    HW123267   1.873   0.116   3.480  0.2297  0.0418  0.1160
 3878SOL    HW223268   1.931   0.157   3.353 -1.9593 -1.2638 -1.7006
 3879SOL     OW23269   3.741   3.358   9.931  0.5448  0.2556 -0.2816
 3879SOL    HW123270   3.661   3.307   9.918  2.0922 -1.6205 -2.2713
 3879SOL    HW223271   3.805   3.297   9.894 -0.5724 -0.8324 -0.4110
 3880SOL     OW23272   1.054   1.255   8.406  0.4014  0.3287  0.3128
 3880SOL    HW123273   1.131   1.289   8.453  1.2208 -1.0576 -0.0052
 3880SOL    HW223274   1.033   1.187   8.471 -2.8881  0.6622 -0.4433
 3881SOL     OW23275   0.169   4.243   7.648  0.6626 -0.0339 -0.3171
 3881SOL    HW123276   0.115   4.279   7.718 -2.3404 -1.9494 -1.6723
 3881SOL    HW223277   0.132   4.286   7.571  0.1492  1.3797  0.7278
 3882SOL     OW23278   1.401   3.313   7.995  0.3763 -0.0116 -0.0076
 3882SOL    HW123279   1.441   3.338   7.912 -0.8584 -0.1878 -0.6495
 3882SOL    HW223280   1.476   3.329   8.052 -1.0758 -0.4117  2.0042
 3883SOL     OW23281   2.421   4.063   2.281  0.1671  0.1484 -0.0212
 3883SOL    HW123282   2.410   4.074   2.375 -0.6173 -1.6111  0.0862
 3883SOL    HW223283   2.504   4.110   2.271  0.0158  0.5518  0.6294
 3884SOL     OW23284   3.526   3.150  11.159  0.0492  0.1784 -0.3922
 3884SOL    HW123285   3.488   3.185  11.240 -1.1402 -0.7408 -0.5483
 3884SOL    HW223286   3.616   3.171  11.183  0.0924 -0.4949  0.0476
 3885SOL     OW23287   1.080   1.279   9.640  0.1912  0.0080 -0.0733
 3885SOL    HW123288   1.043   1.272   9.552 -0.0953  1.7259 -0.0881
 3885SOL    HW223289   1.005   1.246   9.690 -1.0816  2.1088 -0.5991
 3886SOL     OW23290   1.432   2.140  12.675  0.2130  0.0795 -0.1581
 3886SOL    HW123291   1.491   2.100  12.739  0.7797  0.6470 -0.3422
 3886SOL    HW223292   1.392   2.060  12.639  1.5723 -0.7735  0.2288
 3887SOL     OW23293   0.494   2.238   1.263  0.1607  0.5234  0.3960
 3887SOL    HW123294   0.407   2.237   1.305  1.0883 -4.3133  2.2112
 3887SOL    HW223295   0.478   2.303   1.195  0.2163  1.1406  0.9712
 3888SOL     OW23296   2.477   2.222   2.726 -0.0561 -0.1676 -0.8020
 3888SOL    HW123297   2.513   2.291   2.671 -1.7275  0.4958 -1.0688
 3888SOL    HW223298   2.390   2.212   2.687 -1.9060 -0.0083  3.2643
 3889SOL     OW23299   3.561   0.554   6.723  0.0832  0.3155 -0.1097
 3889SOL    HW123300   3.486   0.494   6.724 -0.9520  1.5806 -2.3487
 3889SOL    HW223301   3.536   0.625   6.664 -1.7606 -0.5909 -0.4174
 3890SOL     OW23302   2.136   2.490   2.320 -0.0860 -0.3030 -0.3168
 3890SOL    HW123303   2.222   2.532   2.326  0.2807 -1.4195  2.0784
 3890SOL    HW223304   2.082   2.554   2.273  0.4069 -0.0535 -0.5352
 3891SOL     OW23305   3.693   3.047   3.983  0.1568  0.1073  0.4826
 3891SOL    HW123306   3.761   3.060   3.917 -0.4610  1.4756  0.1172
 3891SOL    HW223307   3.621   3.031   3.922 -0.0978 -0.8431  1.0320
 3892SOL     OW23308   1.788   0.249   8.739  0.2657 -0.2295  0.2126
 3892SOL    HW123309   1.850   0.298   8.685 -0.1262  0.6532  0.5701
 3892SOL    HW223310   1.760   0.314   8.802 -1.7606 -1.7680  0.9067
 3893SOL     OW23311   0.550   2.423  14.430 -0.3025 -0.2610  0.1174
 3893SOL    HW123312   0.612   2.375  14.486 -0.8579  0.1503  1.0847
 3893SOL    HW223313   0.516   2.488  14.492 -1.2842 -0.2178 -0.4682
 3894SOL     OW23314   0.809   0.050   8.828 -0.2659 -0.1866 -0.0017
 3894SOL    HW123315   0.784   0.126   8.880 -1.1279 -0.9035  0.6467
 3894SOL    HW223316   0.772   4.726   8.890 -0.2638  0.6441  0.8408
 3895SOL     OW23317   1.969   2.092   7.923  0.2429  0.2254  0.0860
 3895SOL    HW123318   1.898   2.045   7.879 -0.4107 -0.2408  1.6432
 3895SOL    HW223319   1.925   2.177   7.928  0.2864  0.2303  0.3932
 3896SOL     OW23320   3.468   1.848   7.546 -0.1982 -0.1427  0.5322
 3896SOL    HW123321   3.544   1.894   7.583  0.0428  0.4272 -0.6520
 3896SOL    HW223322   3.488   1.770   7.597  2.5838  0.3215  0.1478
 3897SOL     OW23323   4.679   4.652   8.219  0.1640  0.0084 -0.4456
 3897SOL    HW123324   4.706   4.738   8.187  2.8268 -0.7134 -0.1947
 3897SOL    HW223325   0.026   4.609   8.223  0.0778 -0.1974 -0.8850
 3898SOL     OW23326   4.246   1.264  10.370 -0.1151  0.5090  0.1081
 3898SOL    HW123327   4.214   1.183  10.332  1.7676  0.0377 -0.4627
 3898SOL    HW223328   4.338   1.241  10.381 -0.6722 -1.4475  0.6635
 3899SOL     OW23329   0.901   0.682   7.645  0.0892  0.2819 -0.0082
 3899SOL    HW123330   0.846   0.757   7.667 -0.0146  0.8480 -2.1937
 3899SOL    HW223331   0.983   0.715   7.681  0.3798  1.5546 -1.8778
 3900SOL     OW23332   3.251   4.508   3.732 -0.0830 -0.1319 -0.1198
 3900SOL    HW123333   3.245   4.451   3.655  2.1972 -0.4256 -0.0689
 3900SOL    HW223334   3.339   4.490   3.765 -0.0486  0.1353 -0.0636
 3901SOL     OW23335   2.601   0.047   6.447  0.3633 -0.0356 -0.2249
 3901SOL    HW123336   2.667   0.020   6.382  0.4250 -0.2304 -0.0789
 3901SOL    HW223337   2.523   0.058   6.393  1.0367 -2.5582 -1.7356
 3902SOL     OW23338   3.475   1.232   7.328 -0.6300 -0.3136  0.6283
 3902SOL    HW123339   3.500   1.152   7.375  0.8850  0.2307  0.7671
 3902SOL    HW223340   3.455   1.289   7.402  1.3083  0.1608  0.7951
 3903SOL     OW23341   2.484   2.039   5.284 -0.3974 -0.0028 -0.2698
 3903SOL    HW123342   2.522   2.125   5.266 -0.9454  0.0176 -1.3141
 3903SOL    HW223343   2.548   2.010   5.348  0.9340  2.4667 -0.4675
 3904SOL     OW23344   0.276   0.315   5.176  0.2474 -0.2009  0.1463
 3904SOL    HW123345   0.231   0.263   5.243 -0.4009 -3.1847 -2.6190
 3904SOL    HW223346   0.270   0.262   5.097  2.0053 -0.4649  0.1986
 3905SOL     OW23347   2.100   0.687  17.644 -0.1761 -0.7667  0.4581
 3905SOL    HW123348   2.064   0.685  17.555 -0.1437 -1.3431  0.4618
 3905SOL    HW223349   2.067   0.770  17.679 -0.7106 -0.9230  0.3195
 3906SOL     OW23350   4.481   2.539   2.376  0.7455 -0.3446 -0.1072
 3906SOL    HW123351   4.487   2.506   2.466  2.1906  0.4715  0.1045
 3906SOL    HW223352   4.414   2.486   2.335  0.7974  0.9196 -1.8212
 3907SOL     OW23353   2.811   2.860   3.188 -0.6215  0.2466  0.7060
 3907SOL    HW123354   2.820   2.937   3.132  0.9850 -0.8150 -0.5089
 3907SOL    HW223355   2.784   2.900   3.270 -0.5342 -1.0705  1.3793
 3908SOL     OW23356   1.977   0.589   6.174 -0.0811  0.0017 -0.7228
 3908SOL    HW123357   1.977   0.626   6.086  0.9271 -0.2036 -0.8021
 3908SOL    HW223358   1.973   0.665   6.231 -1.3938 -1.2968  0.9296
 3909SOL     OW23359   4.196   1.936   3.061 -0.3822  0.5306  0.7363
 3909SOL    HW123360   4.251   1.886   3.001 -0.5593  0.9141  0.2494
 3909SOL    HW223361   4.208   2.030   3.048 -1.4696  0.4853 -0.7172
 3910SOL     OW23362   0.542   4.699   2.642 -0.3685 -0.0312  0.0272
 3910SOL    HW123363   0.579   4.669   2.559 -2.0284 -1.1306 -0.3436
 3910SOL    HW223364   0.601   0.032   2.661 -2.7961  1.7287  0.8838
 3911SOL     OW23365   3.527   0.451  16.952 -0.1290  0.0795 -0.0079
 3911SOL    HW123366   3.549   0.531  16.904 -2.1465 -0.1689 -1.3430
 3911SOL    HW223367   3.433   0.440  16.939 -0.2175  0.1965  0.5547
 3912SOL     OW23368   1.497   2.409   7.232  0.1788  0.5680 -0.1044
 3912SOL    HW123369   1.489   2.313   7.231  2.0383  0.3763  4.1616
 3912SOL    HW223370   1.588   2.422   7.258  0.1740 -0.3971  0.3953
 3913SOL     OW23371   3.875   0.146   6.271 -0.3826  0.1252 -0.2109
 3913SOL    HW123372   3.884   0.239   6.248  0.9383  0.0708  0.1146
 3913SOL    HW223373   3.948   0.114   6.218 -1.0343  1.0490 -1.6807
 3914SOL     OW23374   1.810   1.414   1.996  0.1904  0.7341  0.4734
 3914SOL    HW123375   1.770   1.342   1.948 -2.5693  0.8239  2.6274
 3914SOL    HW223376   1.902   1.389   1.996 -0.1677 -0.6475  1.6238
 3915SOL     OW23377   0.850   4.550   9.446 -0.5311 -0.1276 -0.0296
 3915SOL    HW123378   0.796   4.482   9.486  1.6215 -1.6373  0.2942
 3915SOL    HW223379   0.796   4.577   9.372  1.6335 -1.5106 -2.1439
 3916SOL     OW23380   0.572   3.849   5.371  0.7522 -0.1877 -0.0527
 3916SOL    HW123381   0.666   3.827   5.372  0.7600 -0.1028  1.3487
 3916SOL    HW223382   0.535   3.762   5.355  0.0399  0.0324  0.4311
 3917SOL     OW23383   2.742   2.508  10.036  0.0126 -0.0490  0.1640
 3917SOL    HW123384   2.824   2.485  10.080  0.1133  2.0194  1.0619
 3917SOL    HW223385   2.728   2.601  10.051 -0.3846 -0.1548  0.4512
 3918SOL     OW23386   1.728   2.472  16.456 -0.6344  0.4333 -0.7102
 3918SOL    HW123387   1.787   2.517  16.517  1.3738  0.5251 -2.7175
 3918SOL    HW223388   1.768   2.386  16.461  0.2354  0.9321  1.2419
 3919SOL     OW23389   3.663   3.636   2.898  0.6920  0.5658 -0.2830
 3919SOL    HW123390   3.683   3.558   2.847  0.3277  0.0394  0.3829
 3919SOL    HW223391   3.614   3.687   2.833  1.6250  1.0836 -0.5833
 3920SOL     OW23392   3.602   4.172   5.647  0.3683  0.5869 -0.0281
 3920SOL    HW123393   3.602   4.156   5.741  1.2415  1.1434  0.0645
 3920SOL    HW223394   3.693   4.150   5.629  0.0624 -0.2464 -0.5744
 3921SOL     OW23395   2.833   1.200  12.347  0.1040 -0.4688  0.4637
 3921SOL    HW123396   2.850   1.139  12.419  0.3746 -0.6164  0.2764
 3921SOL    HW223397   2.853   1.143  12.272  0.5009 -1.9753  1.7052
 3922SOL     OW23398   2.669   0.006  10.556 -0.3095 -0.0485 -0.0999
 3922SOL    HW123399   2.663   0.009  10.461 -1.7824  0.0787 -0.0067
 3922SOL    HW223400   2.662   0.100  10.573 -0.4689 -0.0071 -0.3998
 3923SOL     OW23401   2.625   2.103   7.537 -0.4972 -0.0946 -0.0944
 3923SOL    HW123402   2.563   2.163   7.578  0.8682  0.2583  1.4270
 3923SOL    HW223403   2.706   2.143   7.566 -0.0688 -0.9343 -0.1283
 3924SOL     OW23404   2.942   3.153   1.647  0.5492  0.3056  0.5494
 3924SOL    HW123405   2.986   3.120   1.726  0.7654  0.9457  0.7000
 3924SOL    HW223406   2.900   3.230   1.686 -1.7747 -0.1704 -1.0186
 3925SOL     OW23407   3.971   3.946   4.916 -0.0055  0.1489  0.5469
 3925SOL    HW123408   3.970   3.943   5.012  0.7461 -1.7002  0.4953
 3925SOL    HW223409   3.877   3.957   4.907 -0.1078 -0.3011  1.0740
 3926SOL     OW23410   1.582   0.186   9.718 -0.3475  0.1533 -0.2803
 3926SOL    HW123411   1.508   0.216   9.664  0.3545 -1.2668 -2.0559
 3926SOL    HW223412   1.588   0.246   9.792  0.9583  1.5790 -1.5395
 3927SOL     OW23413   0.018   3.441   4.813  0.0445 -0.4666  0.2144
 3927SOL    HW123414   4.689   3.439   4.744 -2.3933 -0.1046  2.5849
 3927SOL    HW223415   0.029   3.349   4.836  0.5029 -0.9153 -1.8440
 3928SOL     OW23416   0.278   0.448   7.069  0.2739  0.0979 -0.1551
 3928SOL    HW123417   0.199   0.426   7.018 -1.1805  0.1143  2.0877
 3928SOL    HW223418   0.232   0.507   7.128  1.2251  2.3123 -1.6495
 3929SOL     OW23419   1.831   0.870   6.575  0.1052 -0.4327  0.1121
 3929SOL    HW123420   1.905   0.813   6.595 -1.1062 -1.9942  0.1382
 3929SOL    HW223421   1.762   0.809   6.549  0.2344 -0.7022  0.3968
 3930SOL     OW23422   3.204   4.450   2.413  0.2237  0.1132 -0.3596
 3930SOL    HW123423   3.124   4.431   2.462  1.1777  1.6046  1.7263
 3930SOL    HW223424   3.239   4.361   2.418  1.1706  0.3846 -2.1220
 3931SOL     OW23425   2.667   1.180   4.385 -0.9293  0.0699  0.1797
 3931SOL    HW123426   2.646   1.122   4.312 -0.1646 -0.9959  0.8028
 3931SOL    HW223427   2.671   1.260   4.334  0.7611  0.0335  0.2430
 3932SOL     OW23428   3.838   1.598   7.958 -0.3432  0.3287  0.0624
 3932SOL    HW123429   3.884   1.648   7.890 -0.6827 -1.3699 -1.3923
 3932SOL    HW223430   3.856   1.654   8.034 -0.0472  3.6845 -2.4856
 3933SOL     OW23431   0.952   4.604  11.757  0.0494  0.1584 -0.2555
 3933SOL    HW123432   1.013   4.672  11.729  0.6516 -0.7950 -1.2447
 3933SOL    HW223433   1.020   4.551  11.799  0.7147 -0.6319 -2.3384
 3934SOL     OW23434   3.453   3.346   6.976  0.2644  0.1731 -0.1133
 3934SOL    HW123435   3.525   3.289   6.950 -0.1673 -0.0781 -0.7620
 3934SOL    HW223436   3.499   3.429   6.989  2.5710 -1.1066 -0.2079
 3935SOL     OW23437   0.287   2.286  10.888  0.4612  0.2175 -0.4571
 3935SOL    HW123438   0.284   2.255  10.797 -4.1330 -1.1255  0.1502
 3935SOL    HW223439   0.337   2.368  10.888 -0.1449  0.5899  2.7485
 3936SOL     OW23440   4.323   1.500   1.667  0.7111  0.5342  0.5786
 3936SOL    HW123441   4.291   1.421   1.710  1.2031  0.8555  1.5319
 3936SOL    HW223442   4.254   1.541   1.616  0.7067  0.4949  0.5522
 3937SOL     OW23443   2.436   1.282   7.983 -0.4709  0.4518  0.1574
 3937SOL    HW123444   2.497   1.287   8.057 -1.9038  0.0014  1.3777
 3937SOL    HW223445   2.485   1.235   7.916 -1.1687 -0.8575  0.5611
 3938SOL     OW23446   3.962   4.159   9.150 -0.3619  0.3536  0.2106
 3938SOL    HW123447   3.979   4.196   9.063 -0.4838  0.9584  0.4463
 3938SOL    HW223448   3.982   4.224   9.217  0.9572  1.6903 -1.4637
 3939SOL     OW23449   2.961   3.775   9.479  0.6214  0.2293 -0.6649
 3939SOL    HW123450   3.038   3.737   9.437 -0.5362 -1.2473 -1.4366
 3939SOL    HW223451   2.952   3.730   9.564 -1.2228 -1.0121 -1.5137
 3940SOL     OW23452   3.673   2.177   7.862 -0.0132  0.1865  0.0066
 3940SOL    HW123453   3.580   2.161   7.848  0.0122 -0.4904  0.5842
 3940SOL    HW223454   3.676   2.270   7.841  2.0323 -0.0263 -0.6403
 3941SOL     OW23455   1.271   0.218   8.697 -0.0017  0.3217  0.5174
 3941SOL    HW123456   1.346   0.210   8.757 -0.5489  0.1574  1.1785
 3941SOL    HW223457   1.191   0.213   8.750  0.3412 -0.8765  0.9244
 3942SOL     OW23458   1.756   3.990   6.488  0.0345  0.2299  0.7009
 3942SOL    HW123459   1.787   4.008   6.399 -4.3281 -1.9241 -1.2619
 3942SOL    HW223460   1.749   4.079   6.522 -0.2195  0.7975 -0.8397
 3943SOL     OW23461   2.602   1.794   6.840 -0.0487 -0.1416  0.0879
 3943SOL    HW123462   2.619   1.714   6.791 -2.3755 -1.6266  1.7003
 3943SOL    HW223463   2.570   1.744   6.915  0.9531 -0.9103 -0.0052
 3944SOL     OW23464   4.333   0.253  10.720 -1.2860  0.1998 -0.3447
 3944SOL    HW123465   4.390   0.270  10.645 -0.8726  1.2829  0.2089
 3944SOL    HW223466   4.408   0.240  10.779 -1.0543 -0.0046 -0.6885
 3945SOL     OW23467   0.527   0.037   6.899  0.0523  0.5900 -0.6829
 3945SOL    HW123468   0.559   0.065   6.813  0.3778 -2.6015 -1.6027
 3945SOL    HW223469   0.509   0.126   6.932 -0.3032 -0.5882  2.3169
 3946SOL     OW23470   1.593   3.032   2.730 -0.1505  0.2416 -0.8195
 3946SOL    HW123471   1.662   2.971   2.701 -0.9887 -0.1570 -1.9639
 3946SOL    HW223472   1.518   2.976   2.710  0.7996 -0.6947 -1.7595
 3947SOL     OW23473   0.457   3.585   0.220  0.1582 -0.4225  0.1696
 3947SOL    HW123474   0.543   3.576   0.261  0.5966  1.5872 -0.3180
 3947SOL    HW223475   0.465   3.560   0.128 -0.6584 -3.3240  0.8788
 3948SOL     OW23476   4.200   3.289   6.104  0.2446 -0.5199 -0.3591
 3948SOL    HW123477   4.212   3.292   6.199  0.0822  1.5695 -0.4149
 3948SOL    HW223478   4.196   3.384   6.093 -2.5452 -0.6111 -0.2960
 3949SOL     OW23479   1.929   0.021   5.315  0.1341 -0.3190 -0.4557
 3949SOL    HW123480   1.873   0.065   5.251  0.0372 -1.6475 -1.2677
 3949SOL    HW223481   1.994   0.091   5.321 -0.1742  0.0521 -1.3675
 3950SOL     OW23482   1.879   4.611   1.975  0.0258 -0.6030 -0.0164
 3950SOL    HW123483   1.917   4.692   1.941 -1.9023  0.6859  0.8814
 3950SOL    HW223484   1.876   4.637   2.067  2.5300 -1.4279  0.3010
 3951SOL     OW23485   4.513   2.433   5.124  0.1279 -0.3345 -0.4005
 3951SOL    HW123486   4.429   2.439   5.170  1.0260 -0.5550  1.2573
 3951SOL    HW223487   4.504   2.378   5.046  0.9236 -0.4756 -0.3928
 3952SOL     OW23488   2.415   3.339   1.450 -0.7249  1.1569 -0.0915
 3952SOL    HW123489   2.490   3.280   1.449 -1.3131  0.4016  0.4133
 3952SOL    HW223490   2.353   3.292   1.506  0.9712  1.0585  1.7071
 3953SOL     OW23491   0.536   1.607   8.239  0.0876  0.6424 -0.3332
 3953SOL    HW123492   0.474   1.566   8.180 -1.0893  1.9052  0.0271
 3953SOL    HW223493   0.617   1.577   8.198 -1.3520  0.3378 -2.9067
 3954SOL     OW23494   4.678   3.674   3.552 -0.0917  0.1543  0.0932
 3954SOL    HW123495   4.670   3.709   3.463  1.8270  0.5432  0.0811
 3954SOL    HW223496   4.707   3.584   3.541  1.8134  0.7085  0.5441
 3955SOL     OW23497   4.390   3.300   7.785 -0.3264  0.3470  0.3983
 3955SOL    HW123498   4.295   3.295   7.794 -0.2772  0.1175  0.8084
 3955SOL    HW223499   4.397   3.270   7.695 -1.1413 -0.9991  0.7761
 3956SOL     OW23500   0.023   2.558   2.857 -0.5532  0.3431  0.7079
 3956SOL    HW123501   0.058   2.573   2.770 -2.7539 -2.0131 -0.5992
 3956SOL    HW223502   0.067   2.475   2.877  1.0303  1.0868  0.2072
 3957SOL     OW23503   1.224   0.617   1.447 -0.1833 -0.8595  0.1954
 3957SOL    HW123504   1.160   0.565   1.497 -1.9028  0.1270 -0.9727
 3957SOL    HW223505   1.226   0.699   1.495 -1.6313  0.5137 -2.0618
 3958SOL     OW23506   2.723   0.358  15.255 -0.4133  0.3492 -0.8442
 3958SOL    HW123507   2.712   0.401  15.170  0.7305  0.5253 -0.8929
 3958SOL    HW223508   2.754   0.269  15.240  3.6050  1.4432  1.2090
 3959SOL     OW23509   2.169   1.196   7.894  0.0679  0.0511  1.1826
 3959SOL    HW123510   2.109   1.137   7.941 -0.9745  0.4583  0.3653
 3959SOL    HW223511   2.243   1.193   7.954  2.0390 -2.1405 -1.3628
 3960SOL     OW23512   1.801   3.260   2.360  0.0084  0.2812 -0.5156
 3960SOL    HW123513   1.863   3.211   2.306  0.9610 -1.2483  1.9968
 3960SOL    HW223514   1.857   3.323   2.405  1.0558  0.2291 -1.7367
 3961SOL     OW23515   0.056   3.876  17.562  0.1525  0.7818  0.1792
 3961SOL    HW123516   0.108   3.878  17.642 -0.0476 -1.3020  0.3618
 3961SOL    HW223517   0.053   3.782  17.544  0.6829  1.0667 -1.3967
 3962SOL     OW23518   4.108   3.495   6.267 -0.4375 -0.4468 -0.5844
 3962SOL    HW123519   4.016   3.501   6.243 -0.1251  3.2681 -0.8763
 3962SOL    HW223520   4.105   3.500   6.363 -1.7403 -0.4992 -0.6287
 3963SOL     OW23521   4.133   0.121   8.395 -0.0717  0.2340  0.4253
 3963SOL    HW123522   4.176   0.159   8.472 -1.8422  0.5502  1.2605
 3963SOL    HW223523   4.144   0.030   8.420 -0.2018 -1.3429 -5.4069
 3964SOL     OW23524   4.395   1.179   1.295  0.3263 -0.0671  0.6052
 3964SOL    HW123525   4.300   1.165   1.290  0.4887 -0.4283 -1.6599
 3964SOL    HW223526   4.408   1.106   1.355  0.2953 -2.1833 -1.9381
 3965SOL     OW23527   1.875   4.093  16.753 -0.2539  0.0787 -0.3526
 3965SOL    HW123528   1.815   4.168  16.747 -0.4242 -0.0508 -0.2452
 3965SOL    HW223529   1.926   4.114  16.674  0.4789  1.2195  0.4194
 3966SOL     OW23530   1.949   2.911  15.451 -0.1562 -0.3561  0.9001
 3966SOL    HW123531   2.032   2.915  15.499 -0.6703 -1.1156  1.8616
 3966SOL    HW223532   1.931   3.003  15.437 -0.4171 -0.7378 -1.1606
 3967SOL     OW23533   4.554   2.291   3.709 -0.2810  0.6506  0.0521
 3967SOL    HW123534   4.617   2.273   3.778  2.0042 -0.0958 -2.2417
 3967SOL    HW223535   4.533   2.197   3.706 -0.1514  0.6853 -2.4943
 3968SOL     OW23536   3.086   2.123   9.501  0.2257 -0.1001 -0.1062
 3968SOL    HW123537   3.058   2.138   9.411  2.5914 -0.1339 -0.8610
 3968SOL    HW223538   3.076   2.029   9.517  1.2903 -0.3960 -1.1439
 3969SOL     OW23539   3.402   4.720   0.116 -0.0595 -0.5378 -0.5662
 3969SOL    HW123540   3.321   0.011   0.157  0.6275 -0.5263  0.7635
 3969SOL    HW223541   3.419   4.630   0.145 -0.8325 -0.5615 -0.2067
 3970SOL     OW23542   4.424   1.547   9.045 -0.0024 -0.1546 -0.1221
 3970SOL    HW123543   4.440   1.504   9.129  2.2687 -1.2950 -1.1227
 3970SOL    HW223544   4.339   1.509   9.024 -1.0450  0.8403  2.3742
 3971SOL     OW23545   4.402   4.614   4.091  0.0235 -0.4684  0.4997
 3971SOL    HW123546   4.461   4.543   4.063 -1.4589 -1.3909 -0.2620
 3971SOL    HW223547   4.457   4.692   4.083  0.9614 -1.1856 -0.1185
 3972SOL     OW23548   3.625   4.650   2.502  0.4997  0.1953  0.2138
 3972SOL    HW123549   3.586   4.563   2.515 -1.0227  0.6935 -0.9990
 3972SOL    HW223550   3.616   4.680   2.592 -0.1192  1.8392 -0.4040
 3973SOL     OW23551   4.008   4.213   2.762  0.0656 -0.5162 -0.2910
 3973SOL    HW123552   4.022   4.129   2.805  1.1945 -0.3894 -0.4252
 3973SOL    HW223553   4.041   4.187   2.676  2.5081 -0.2391  0.5576
 3974SOL     OW23554   0.677   1.146   6.967 -0.4849  0.6300  0.4762
 3974SOL    HW123555   0.695   1.240   6.966 -0.8050  0.6869 -0.1981
 3974SOL    HW223556   0.592   1.152   6.924 -0.6571 -0.8283  0.6172
 3975SOL     OW23557   3.561   2.422   3.731  0.9198 -0.4840 -0.4291
 3975SOL    HW123558   3.544   2.485   3.801  0.6993 -1.5009  0.4272
 3975SOL    HW223559   3.556   2.482   3.656  1.7466  1.3441  0.9842
 3976SOL     OW23560   2.963   1.156  16.344  0.4874 -0.7992  0.3276
 3976SOL    HW123561   2.868   1.154  16.335  0.2519 -0.2532  2.7819
 3976SOL    HW223562   2.988   1.128  16.256 -0.0816  0.5259 -0.2491
 3977SOL     OW23563   3.158   1.547  10.888  0.3225  0.3861  0.0205
 3977SOL    HW123564   3.079   1.550  10.834  0.5372 -2.9726 -0.5356
 3977SOL    HW223565   3.139   1.615  10.952 -2.7413 -0.0727 -0.3858
 3978SOL     OW23566   2.370   0.217   2.323  0.1112 -0.0857  0.4402
 3978SOL    HW123567   2.310   0.204   2.250 -2.4360  0.0588  2.4751
 3978SOL    HW223568   2.347   0.147   2.385  0.2944  0.2624  0.9076
 3979SOL     OW23569   4.076   0.724  11.335 -0.3741 -0.2223  0.6785
 3979SOL    HW123570   4.012   0.692  11.271 -0.6498 -1.3856  1.5427
 3979SOL    HW223571   4.020   0.785  11.383 -2.5218  0.2618 -2.4311
 3980SOL     OW23572   0.638   3.584  17.529  0.0890  0.0675  0.0301
 3980SOL    HW123573   0.671   3.671  17.551 -0.3084  0.5822 -1.3849
 3980SOL    HW223574   0.712   3.531  17.558  1.2220  2.2096  1.0656
 3981SOL     OW23575   1.099   1.793  15.699  0.0901 -0.8097 -0.2980
 3981SOL    HW123576   1.085   1.741  15.778  0.4371  0.5038  0.6373
 3981SOL    HW223577   1.154   1.740  15.643  2.1691  0.6866  0.3415
 3982SOL     OW23578   1.460   0.078  13.730  0.3897  0.1599 -0.1236
 3982SOL    HW123579   1.369   0.088  13.701  0.2057  0.9211  0.7205
 3982SOL    HW223580   1.492   0.167  13.743 -1.2012  0.7200 -0.0784
 3983SOL     OW23581   0.129   1.539   7.694  0.0051 -0.1375 -0.2204
 3983SOL    HW123582   0.103   1.524   7.603 -0.7176  1.2419 -0.2406
 3983SOL    HW223583   0.064   1.482   7.736  0.7556 -0.6113  0.2904
 3984SOL     OW23584   2.662   2.419   3.011 -0.5896  0.5840  0.2215
 3984SOL    HW123585   2.572   2.391   3.026 -0.4906  0.5040  0.6454
 3984SOL    HW223586   2.653   2.442   2.918  0.7856  1.1726  0.2271
 3985SOL     OW23587   2.592   1.645  16.660  0.1359 -0.3472 -0.0975
 3985SOL    HW123588   2.651   1.574  16.637  2.0234  0.2086  2.9373
 3985SOL    HW223589   2.589   1.622  16.753 -2.0101  0.4382  0.0346
 3986SOL     OW23590   3.844   3.977   2.562  0.3599 -0.0555 -0.6945
 3986SOL    HW123591   3.826   3.955   2.653 -0.6631  1.0129 -0.6307
 3986SOL    HW223592   3.922   3.927   2.538 -0.6995 -2.0745  0.1100
 3987SOL     OW23593   1.633   1.083   2.170  0.5514 -0.8628  0.1175
 3987SOL    HW123594   1.660   1.165   2.127 -0.4162 -1.7208 -2.1412
 3987SOL    HW223595   1.614   1.107   2.260  0.8156  3.3031 -0.9303
 3988SOL     OW23596   3.055   1.448  14.241 -0.4114 -0.0877 -0.7400
 3988SOL    HW123597   3.139   1.467  14.198  0.3663 -1.2277  0.2473
 3988SOL    HW223598   2.996   1.424  14.170 -2.6089  0.8373  0.7892
 3989SOL     OW23599   3.837   2.783   3.693  0.1004 -0.2638  0.5092
 3989SOL    HW123600   3.756   2.742   3.661  0.3564 -0.5716  0.2437
 3989SOL    HW223601   3.864   2.706   3.743 -0.1863  0.8610  2.3943
 3990SOL     OW23602   0.708   2.488  17.676  0.1678 -0.2911 -0.3366
 3990SOL    HW123603   0.688   2.449   0.008  0.9244  0.1671  0.0500
 3990SOL    HW223604   0.633   2.546  17.659 -1.8854 -2.3461  1.6456
 3991SOL     OW23605   3.376   3.668   6.387 -0.1673  0.1272  0.2515
 3991SOL    HW123606   3.344   3.579   6.399  0.7902 -0.2829 -0.2725
 3991SOL    HW223607   3.305   3.714   6.433 -1.7131 -1.6294 -0.3859
 3992SOL     OW23608   2.734   2.146   0.981 -0.0002 -0.1111 -0.1505
 3992SOL    HW123609   2.812   2.184   0.940  0.7045 -0.0282  1.2750
 3992SOL    HW223610   2.709   2.070   0.928  0.5104 -0.1148 -0.3974
 3993SOL     OW23611   4.100   0.555  15.884  0.2379 -0.3704 -0.7213
 3993SOL    HW123612   4.093   0.650  15.896  0.4358 -0.1305 -2.4949
 3993SOL    HW223613   4.195   0.551  15.876  0.2750  0.8678 -0.9453
 3994SOL     OW23614   1.167   3.477   7.186  0.5348 -0.7502 -0.2805
 3994SOL    HW123615   1.150   3.442   7.273 -1.3539 -2.5748 -1.3866
 3994SOL    HW223616   1.198   3.399   7.140  1.1837  0.0361 -1.1757
 3995SOL     OW23617   2.285   3.630   5.079 -0.0327  0.0543  0.0871
 3995SOL    HW123618   2.360   3.680   5.047 -0.1520  0.4676  0.4605
 3995SOL    HW223619   2.326   3.551   5.114 -0.8272 -0.2204  0.3984
 3996SOL     OW23620   2.690   0.227   6.623 -0.5243  0.2320  1.2233
 3996SOL    HW123621   2.781   0.203   6.611 -0.8239 -0.1118 -0.3006
 3996SOL    HW223622   2.653   0.156   6.571 -1.6300  0.1978  2.0407
 3997SOL     OW23623   3.548   3.733   5.254  0.2606 -0.0945  0.7475
 3997SOL    HW123624   3.512   3.746   5.342  0.3585  0.1940  0.7438
 3997SOL    HW223625   3.616   3.799   5.245  0.9825 -0.6621  2.1288
 3998SOL     OW23626   3.054   1.352   4.082  0.5538 -0.0155  0.6249
 3998SOL    HW123627   3.131   1.368   4.027  0.2439 -0.3106  0.1072
 3998SOL    HW223628   2.988   1.414   4.051  1.0779  0.0376 -0.3671
 3999SOL     OW23629   4.123   3.596   2.539  0.3679 -0.2811  0.0296
 3999SOL    HW123630   4.101   3.519   2.592 -0.4198 -0.6930 -0.9040
 3999SOL    HW223631   4.126   3.562   2.450 -0.2794 -1.2719  0.3843
 4000SOL     OW23632   3.312   3.661  14.971 -0.6146  0.5132  0.0921
 4000SOL    HW123633   3.220   3.633  14.962 -0.5197  0.2261  0.0071
 4000SOL    HW223634   3.319   3.608  15.051 -0.3408  1.6055  0.7886
 4001SOL     OW23635   2.275   2.854   8.019  0.3768  0.0237 -0.1259
 4001SOL    HW123636   2.348   2.821   8.071 -0.4476 -1.9324 -0.2093
 4001SOL    HW223637   2.259   2.930   8.075  1.0776 -0.3609  0.5952
 4002SOL     OW23638   2.664   4.205   5.681  0.3393 -0.0160  0.1666
 4002SOL    HW123639   2.691   4.294   5.659  1.4563  0.1479  2.2286
 4002SOL    HW223640   2.754   4.173   5.683  0.4906  0.3163 -1.0290
 4003SOL     OW23641   3.462   0.218   3.741 -0.0654  0.5026  0.3830
 4003SOL    HW123642   3.529   0.196   3.805 -0.5596 -1.0265  0.3860
 4003SOL    HW223643   3.434   0.134   3.705  0.2991  0.7867 -0.5751
 4004SOL     OW23644   0.597   4.414   0.134  0.0363 -0.2793  0.0117
 4004SOL    HW123645   0.688   4.396   0.155  0.3491  2.3662  0.9339
 4004SOL    HW223646   0.603   4.507   0.111  1.9845 -0.4279 -0.0381
 4005SOL     OW23647   1.510   2.503  15.676 -0.3146  0.2736  0.3087
 4005SOL    HW123648   1.595   2.527  15.711  1.3190 -3.3611 -1.2170
 4005SOL    HW223649   1.452   2.540  15.743  1.2752 -0.6127  2.1985
 4006SOL     OW23650   3.666   0.122   4.870  0.4318  0.2996  0.0927
 4006SOL    HW123651   3.655   0.140   4.777  1.9997 -1.5981 -0.4738
 4006SOL    HW223652   3.682   0.027   4.869  0.2650  0.2638  0.9605
 4007SOL     OW23653   4.212   3.659  15.129  0.1811  0.1287 -0.2641
 4007SOL    HW123654   4.260   3.739  15.153 -2.8177  0.8875  3.1284
 4007SOL    HW223655   4.188   3.628  15.215  1.7625 -1.5123 -0.4095
 4008SOL     OW23656   4.703   4.702   1.970 -0.1496 -0.0483  0.1045
 4008SOL    HW123657   0.046   0.006   1.994 -0.0135 -1.0608  1.4443
 4008SOL    HW223658   4.736   4.613   1.958  0.2919 -0.0588  1.4402
 4009SOL     OW23659   2.387   3.791   0.233 -0.6263 -0.1201  0.5838
 4009SOL    HW123660   2.305   3.836   0.251  0.3180  2.7739 -2.2484
 4009SOL    HW223661   2.401   3.761   0.323 -0.6171 -3.2411 -0.4649
 4010SOL     OW23662   4.433   3.968  15.441 -0.1477  0.2319  0.5682
 4010SOL    HW123663   4.376   3.978  15.365  1.8977  2.1109 -0.7235
 4010SOL    HW223664   4.516   4.014  15.427  0.5570 -1.8225 -1.9609
 4011SOL     OW23665   1.053   2.490  10.077 -0.3937  0.6696  0.0634
 4011SOL    HW123666   1.050   2.572  10.027 -1.3815  0.9312  0.5427
 4011SOL    HW223667   0.996   2.518  10.150 -1.5080  1.2194 -1.0136
 4012SOL     OW23668   2.717   4.283   8.519  0.0293 -0.3173 -0.1394
 4012SOL    HW123669   2.705   4.325   8.434 -2.2935  1.7100  1.1931
 4012SOL    HW223670   2.626   4.283   8.551  0.5600 -0.2707  1.3440
 4013SOL     OW23671   4.413   3.703   6.501  0.2721  0.1194  0.1751
 4013SOL    HW123672   4.418   3.750   6.584  1.3662 -0.8255  0.6483
 4013SOL    HW223673   4.475   3.753   6.447  2.1176 -0.3446  1.8658
 4014SOL     OW23674   4.689   2.633   4.792 -0.1475 -0.0126 -0.3421
 4014SOL    HW123675   0.018   2.682   4.839 -0.0697 -1.2030  0.7880
 4014SOL    HW223676   4.617   2.651   4.853  0.9803 -0.3411  1.0904
 4015SOL     OW23677   3.023   1.839  14.216  0.7690  0.0934 -0.6797
 4015SOL    HW123678   2.960   1.887  14.270  0.3080 -1.3701  0.0920
 4015SOL    HW223679   2.990   1.841  14.127  1.7293  2.0622 -0.9909
 4016SOL     OW23680   1.179   0.594   4.062 -0.0597  0.6447  0.1292
 4016SOL    HW123681   1.252   0.533   4.048 -0.1556  0.5225  0.1598
 4016SOL    HW223682   1.104   0.534   4.066 -0.6493  1.3882  0.2157
 4017SOL     OW23683   3.023   1.270   5.415 -0.1767  0.0442 -0.1368
 4017SOL    HW123684   3.052   1.211   5.485  1.9090  1.4367  0.1682
 4017SOL    HW223685   2.941   1.301   5.452  0.9844  1.5144  1.1779
 4018SOL     OW23686   3.710   4.037   8.533  0.7866  0.4118 -0.0719
 4018SOL    HW123687   3.691   4.110   8.592 -0.6661 -2.0596  2.5091
 4018SOL    HW223688   3.805   4.047   8.526  0.8815 -1.5257 -1.7355
 4019SOL     OW23689   4.501   3.216   6.094  0.3012  0.2180 -0.3523
 4019SOL    HW123690   4.410   3.185   6.086  0.3711 -0.5460  1.7142
 4019SOL    HW223691   4.478   3.306   6.118  0.6538  0.7527 -2.0359
 4020SOL     OW23692   2.898   1.257   9.645 -0.6035 -0.1001  0.4402
 4020SOL    HW123693   2.979   1.275   9.597 -0.1983 -0.4745  0.9880
 4020SOL    HW223694   2.886   1.165   9.622  2.0094 -0.1079 -0.9324
 4021SOL     OW23695   3.371   0.571   1.335  0.3844 -0.3210 -0.7115
 4021SOL    HW123696   3.305   0.593   1.269 -1.6851  1.9517  2.0901
 4021SOL    HW223697   3.431   0.517   1.285  0.6792  1.5364 -2.3792
 4022SOL     OW23698   0.580   1.873   5.572  0.2106  0.2555  0.3299
 4022SOL    HW123699   0.610   1.793   5.528  0.8211 -0.0195  1.2663
 4022SOL    HW223700   0.650   1.884   5.635  0.9179  2.1831 -0.8027
 4023SOL     OW23701   2.105   1.834   0.746  0.4711  0.5390  0.0618
 4023SOL    HW123702   2.174   1.876   0.796  0.5252 -1.2892  1.5582
 4023SOL    HW223703   2.029   1.831   0.804 -0.9540  2.3139 -1.7219
 4024SOL     OW23704   4.006   2.326  12.460  0.5456  0.3496  0.1409
 4024SOL    HW123705   3.972   2.408  12.423 -2.6421 -0.2777  1.7256
 4024SOL    HW223706   4.020   2.283  12.376  0.7222 -1.8887  1.3102
 4025SOL     OW23707   4.574   0.727  16.363  0.1348  0.8337 -0.6289
 4025SOL    HW123708   4.557   0.664  16.293 -0.6055  1.4177 -0.9810
 4025SOL    HW223709   4.492   0.720  16.412  0.0448 -1.1052 -1.0278
 4026SOL     OW23710   2.337   0.663   3.555  0.1011  0.5002  0.8699
 4026SOL    HW123711   2.244   0.639   3.554 -0.3020  2.0840  0.5548
 4026SOL    HW223712   2.334   0.756   3.533 -1.1570 -0.3825 -2.7364
 4027SOL     OW23713   1.162   3.210   5.046 -0.1280 -0.2887 -0.1202
 4027SOL    HW123714   1.205   3.136   5.004  0.0929  0.6070 -1.4555
 4027SOL    HW223715   1.165   3.205   5.142  0.0341 -0.2839 -0.1248
 4028SOL     OW23716   0.724   4.324   8.866 -0.2142 -0.5097 -0.0529
 4028SOL    HW123717   0.777   4.389   8.910 -0.3472 -0.1128 -0.4764
 4028SOL    HW223718   0.775   4.297   8.789  1.0206 -1.3878  1.0816
 4029SOL     OW23719   3.749   2.452  16.236 -0.6051  0.6661 -0.2762
 4029SOL    HW123720   3.656   2.473  16.244 -1.2801 -2.5711  0.2882
 4029SOL    HW223721   3.792   2.530  16.269 -2.1948  0.9782  1.0556
 4030SOL     OW23722   3.024   3.642   3.378  0.2278  0.2138 -0.2380
 4030SOL    HW123723   2.973   3.560   3.384  0.8978 -0.2717 -1.2787
 4030SOL    HW223724   2.984   3.697   3.446  1.3328  0.4653  0.2100
 4031SOL     OW23725   3.242   4.210   5.593 -0.2027  0.0771 -0.2529
 4031SOL    HW123726   3.246   4.137   5.654 -1.4981  0.8096  0.7206
 4031SOL    HW223727   3.193   4.275   5.644  3.5287  1.6039  1.3663
 4032SOL     OW23728   4.190   0.755   2.970 -0.4422 -0.3235 -0.1416
 4032SOL    HW123729   4.191   0.849   2.986 -2.1703 -0.2702 -0.3322
 4032SOL    HW223730   4.217   0.760   2.879  0.0596 -2.5687 -0.1178
 4033SOL     OW23731   4.629   1.551   0.798 -0.7363  0.4126  0.0604
 4033SOL    HW123732   4.586   1.613   0.857 -0.3667  0.6537  0.0757
 4033SOL    HW223733   4.707   1.553   0.853 -0.5903 -0.1310 -0.1349
 4034SOL     OW23734   1.565   1.637   2.695 -0.1835 -0.3456 -1.1397
 4034SOL    HW123735   1.642   1.666   2.743 -0.7762  0.0468 -0.4256
 4034SOL    HW223736   1.495   1.669   2.752 -0.3427 -1.8148 -0.4971
 4035SOL     OW23737   3.574   3.244   0.617  0.1587 -0.5769 -0.2676
 4035SOL    HW123738   3.548   3.324   0.663 -3.6666 -1.5860 -0.6662
 4035SOL    HW223739   3.578   3.284   0.530 -1.8413  0.6914  0.2021
 4036SOL     OW23740   4.579   0.277   9.086  0.5653  0.0207  0.1863
 4036SOL    HW123741   4.552   0.236   9.169  0.2264  0.8302  0.4777
 4036SOL    HW223742   4.600   0.202   9.031  0.9589  0.9598 -0.9358
 4037SOL     OW23743   3.856   0.962   1.869  0.4572 -0.1654 -0.4236
 4037SOL    HW123744   3.890   1.020   1.937  0.2992  1.3538 -1.6380
 4037SOL    HW223745   3.763   0.958   1.889  0.0514  0.6787 -2.1123
 4038SOL     OW23746   4.342   0.588   4.462 -0.0357  0.5532 -0.0928
 4038SOL    HW123747   4.408   0.545   4.407  0.5426  0.4343  0.6967
 4038SOL    HW223748   4.380   0.592   4.550 -1.1068  2.0015  0.3217
 4039SOL     OW23749   0.902   2.902   7.992  0.4067  0.1601 -0.1765
 4039SOL    HW123750   0.883   2.836   8.059 -2.6402  1.5826  0.3709
 4039SOL    HW223751   0.859   2.974   8.037  0.9909  1.4988 -1.7659
 4040SOL     OW23752   3.694   4.133   5.894  0.4680 -0.3917  0.0022
 4040SOL    HW123753   3.759   4.198   5.918 -0.4092  0.5664 -0.2243
 4040SOL    HW223754   3.611   4.164   5.929  1.0387  1.6743 -0.5027
 4041SOL     OW23755   3.460   1.618   9.558  0.0733  0.1550  0.2240
 4041SOL    HW123756   3.400   1.693   9.553  1.1664  1.0362  0.3101
 4041SOL    HW223757   3.483   1.628   9.651  0.6345  0.8394  0.0134
 4042SOL     OW23758   3.762   2.725   2.348  0.7851 -0.5892  0.3374
 4042SOL    HW123759   3.857   2.732   2.352  0.8358 -0.5935 -1.0194
 4042SOL    HW223760   3.743   2.688   2.434  1.7366 -0.0329  0.7929
 4043SOL     OW23761   2.401   3.609   2.278 -0.3500  0.2730  0.6125
 4043SOL    HW123762   2.431   3.647   2.196 -0.3830  0.9697  0.9190
 4043SOL    HW223763   2.309   3.630   2.260 -0.2864 -0.6025 -0.7103
 4044SOL     OW23764   4.669   3.783  13.579 -0.0432 -0.2743  0.5140
 4044SOL    HW123765   4.603   3.762  13.513 -1.2910  1.3297  1.2508
 4044SOL    HW223766   4.619   3.756  13.657  0.1723 -1.1772  0.3446
 4045SOL     OW23767   3.689   3.205  12.522 -0.2886 -1.1331 -0.0033
 4045SOL    HW123768   3.726   3.143  12.585 -1.8104  0.0373  2.0105
 4045SOL    HW223769   3.697   3.148  12.445 -0.5906  0.7148 -1.3907
 4046SOL     OW23770   3.570   0.100   2.774 -0.0500  0.3876 -0.0196
 4046SOL    HW123771   3.475   0.089   2.773  0.1730 -1.5539  0.4933
 4046SOL    HW223772   3.593   0.014   2.809 -2.5823 -0.3506 -0.2154
 4047SOL     OW23773   2.586   2.060  16.110 -0.1340  0.2105  0.1993
 4047SOL    HW123774   2.550   1.996  16.048  2.0028  1.6319 -2.4785
 4047SOL    HW223775   2.560   2.145  16.075  2.1074 -0.2850 -2.6562
 4048SOL     OW23776   0.156   0.930   7.104  0.8369  0.0788 -0.2286
 4048SOL    HW123777   0.103   1.010   7.113  0.7017  0.0678 -0.8849
 4048SOL    HW223778   0.081   0.876   7.079  0.5790 -0.0507  0.8301
 4049SOL     OW23779   0.998   0.292   8.759  0.2287  0.2286 -0.0728
 4049SOL    HW123780   0.984   0.381   8.727 -0.2394  0.1443 -0.0991
 4049SOL    HW223781   0.936   0.287   8.832 -0.8553 -1.9615 -1.1401
 4050SOL     OW23782   2.473   4.594   8.245 -0.7503  0.1592 -0.2884
 4050SOL    HW123783   2.493   4.631   8.332 -0.4928  2.7575 -1.4563
 4050SOL    HW223784   2.495   4.501   8.252 -1.2326  0.1545  1.1948
 4051SOL     OW23785   4.401   4.375   1.951  0.3684 -0.3667 -0.2473
 4051SOL    HW123786   4.312   4.356   1.979  1.3029 -1.1178  2.1893
 4051SOL    HW223787   4.413   4.468   1.968  0.3616 -0.4830  0.3846
 4052SOL     OW23788   0.721   3.403   0.899 -0.8941  0.2830 -0.2905
 4052SOL    HW123789   0.677   3.318   0.905 -0.5747  0.3787  3.4147
 4052SOL    HW223790   0.742   3.411   0.992 -0.0233  0.4507 -0.4966
 4053SOL     OW23791   3.557   1.449   2.027  0.1616 -0.2176 -0.1183
 4053SOL    HW123792   3.630   1.511   2.028  1.3006 -1.5545  0.1337
 4053SOL    HW223793   3.597   1.364   2.044  1.8548  0.5877 -0.0976
 4054SOL     OW23794   1.049   0.609  11.921  0.3608 -0.6177  0.1900
 4054SOL    HW123795   0.972   0.623  11.975  1.8901  0.7847  1.9922
 4054SOL    HW223796   1.105   0.549  11.971 -0.6257 -1.5259  0.1944
 4055SOL     OW23797   1.751   1.613   7.535  0.0223 -0.4288 -0.3668
 4055SOL    HW123798   1.732   1.521   7.517  0.4094 -0.2984 -1.3889
 4055SOL    HW223799   1.753   1.614   7.631 -2.3660  1.4260 -0.3620
 4056SOL     OW23800   0.396   1.551   5.574 -0.5373  0.4916 -0.4925
 4056SOL    HW123801   0.350   1.620   5.621  0.3948 -1.0285  2.6585
 4056SOL    HW223802   0.402   1.587   5.486  0.5366 -0.3484 -0.7614
 4057SOL     OW23803   0.568   1.459   9.583 -0.0007 -0.1450  0.0775
 4057SOL    HW123804   0.476   1.462   9.608 -0.2362  0.9878 -0.9856
 4057SOL    HW223805   0.621   1.434   9.659 -2.1792 -2.2135  0.9076
 4058SOL     OW23806   1.455   4.156   2.162 -0.3312 -0.0778  0.3185
 4058SOL    HW123807   1.415   4.170   2.248  1.0702  0.1048  0.9380
 4058SOL    HW223808   1.408   4.214   2.102 -0.6120 -1.4127 -0.7373
 4059SOL     OW23809   3.599   0.695   4.432  0.2138 -0.2625  0.3351
 4059SOL    HW123810   3.523   0.656   4.388  0.7606  0.9243 -1.6386
 4059SOL    HW223811   3.564   0.783   4.444  0.8390  0.1514 -0.9311
 4060SOL     OW23812   4.683   4.733  11.681  0.1592  0.4364 -0.2711
 4060SOL    HW123813   4.656   0.075  11.725 -0.3518  0.3242 -0.3761
 4060SOL    HW223814   4.603   4.683  11.662  0.7409  0.3971 -2.6070
 4061SOL     OW23815   1.640   2.505  15.200  0.1005  0.1839  0.1309
 4061SOL    HW123816   1.627   2.599  15.215  0.8429  0.0564  1.6094
 4061SOL    HW223817   1.685   2.503  15.115 -0.4122  1.1992 -0.1716
 4062SOL     OW23818   4.324   3.046   7.888  0.3003 -0.3714 -0.2898
 4062SOL    HW123819   4.356   3.136   7.893 -2.7943  0.8991 -3.7854
 4062SOL    HW223820   4.252   3.067   7.829 -0.1545 -0.8995  0.0634
 4063SOL     OW23821   3.488   4.710   3.098 -0.4213 -0.2764  0.2810
 4063SOL    HW123822   3.506   0.065   3.091 -0.3823 -0.4607 -1.9552
 4063SOL    HW223823   3.504   4.694   3.191  0.1646 -1.8740 -0.1082
 4064SOL     OW23824   1.851   0.483   7.347  0.3374 -0.3381  0.0081
 4064SOL    HW123825   1.833   0.390   7.336  0.0199 -0.4511  1.4861
 4064SOL    HW223826   1.833   0.529   7.265  1.0063  1.4906  0.8856
 4065SOL     OW23827   2.282   3.372  10.379 -0.2333  0.1559 -0.7190
 4065SOL    HW123828   2.335   3.418  10.314  1.0451 -0.3688 -0.0537
 4065SOL    HW223829   2.322   3.398  10.461 -1.0895 -0.2587 -0.1723
 4066SOL     OW23830   0.130   2.006  16.061  0.2918  0.2243 -0.3517
 4066SOL    HW123831   0.048   2.054  16.052 -0.4573 -0.8725  0.7023
 4066SOL    HW223832   0.127   1.956  15.980  0.2617 -2.2702  1.1893
 4067SOL     OW23833   0.844   0.288  12.654  1.0817 -0.1894  0.4912
 4067SOL    HW123834   0.842   0.201  12.695  2.7887 -0.5276 -0.1481
 4067SOL    HW223835   0.913   0.326  12.709 -0.1339  1.1106  1.1219
 4068SOL     OW23836   4.380   2.511  11.225  0.6650  0.4466 -0.1639
 4068SOL    HW123837   4.309   2.571  11.248  1.3749  0.9981  0.5863
 4068SOL    HW223838   4.365   2.447  11.295  1.6786  0.0356 -0.3251
 4069SOL     OW23839   4.562   1.220  11.045 -0.2669  0.6150  0.1284
 4069SOL    HW123840   4.641   1.259  11.006  0.7374 -0.7887  0.7886
 4069SOL    HW223841   4.497   1.206  10.976 -2.1229 -0.7610  2.1672
 4070SOL     OW23842   4.043   3.541   8.174 -0.0470  0.4229 -0.1675
 4070SOL    HW123843   4.001   3.543   8.088 -0.1031  1.4554 -0.1139
 4070SOL    HW223844   4.081   3.454   8.163 -0.5040  0.2277 -0.2062
 4071SOL     OW23845   0.620   4.116   4.044 -0.1529 -0.2839  0.5509
 4071SOL    HW123846   0.619   4.211   4.049 -0.9200 -0.3035  0.9230
 4071SOL    HW223847   0.643   4.102   3.952  1.4669  3.8128  0.3537
 4072SOL     OW23848   1.890   1.536   0.719  0.7227  0.1982 -0.7186
 4072SOL    HW123849   1.845   1.504   0.797 -1.3276 -3.2995 -3.3423
 4072SOL    HW223850   1.918   1.623   0.748  1.0904  0.3473 -1.5096
 4073SOL     OW23851   1.301   2.632  12.722  0.1661  0.1109 -0.4470
 4073SOL    HW123852   1.325   2.540  12.734  0.6793  0.3656  0.5358
 4073SOL    HW223853   1.212   2.631  12.688 -0.5547 -3.0715  1.5826
 4074SOL     OW23854   0.786   1.718   2.858 -0.0352 -0.7320 -0.4286
 4074SOL    HW123855   0.832   1.715   2.774 -0.6404 -0.4839 -0.7655
 4074SOL    HW223856   0.710   1.663   2.840 -1.0629 -0.6603  3.7608
 4075SOL     OW23857   2.799   4.468   0.390 -0.2817 -0.0782 -0.6523
 4075SOL    HW123858   2.866   4.427   0.445 -0.6583  1.0298  0.6292
 4075SOL    HW223859   2.775   4.538   0.450 -0.0487  0.7809 -1.5472
 4076SOL     OW23860   2.554   3.130   1.827 -0.4250  0.9696 -0.2021
 4076SOL    HW123861   2.611   3.167   1.894 -0.7311 -0.5024  0.8695
 4076SOL    HW223862   2.498   3.067   1.873  1.5525  0.2728  1.2400
 4077SOL     OW23863   0.350   4.368   8.548 -0.2495  0.5805 -0.2962
 4077SOL    HW123864   0.407   4.384   8.473 -0.1620  2.4015  0.1584
 4077SOL    HW223865   0.369   4.277   8.570  2.1503  0.7740 -1.5289
 4078SOL     OW23866   4.169   0.580  16.683  0.0553  0.4332 -0.4807
 4078SOL    HW123867   4.086   0.534  16.686  0.6081 -0.5659 -0.6572
 4078SOL    HW223868   4.162   0.629  16.765 -1.9266 -0.9754  0.1834
 4079SOL     OW23869   0.430   2.232  16.655 -0.2693  0.0603 -0.1883
 4079SOL    HW123870   0.420   2.214  16.561 -0.1715  2.2719 -0.6226
 4079SOL    HW223871   0.389   2.153  16.691 -2.6958  1.9779  1.2173
 4080SOL     OW23872   4.129   0.887  10.024  0.8301  0.0944  0.1761
 4080SOL    HW123873   4.158   0.831   9.953  1.8177 -1.5951  1.9008
 4080SOL    HW223874   4.215   0.901  10.064 -1.0249  3.8648  2.9576
 4081SOL     OW23875   2.207   0.287  11.821 -0.0393 -0.2936 -0.1730
 4081SOL    HW123876   2.273   0.305  11.888 -0.6910 -0.0710  0.4123
 4081SOL    HW223877   2.197   0.375  11.787 -2.6557 -0.4882  0.0936
 4082SOL     OW23878   2.189   3.531   8.337 -0.6698  0.0483 -0.2612
 4082SOL    HW123879   2.272   3.503   8.377 -1.1188  2.0889  2.1553
 4082SOL    HW223880   2.151   3.559   8.421 -0.0154  0.3347 -0.0574
 4083SOL     OW23881   2.192   1.932   1.909  0.3245 -0.1724 -0.4743
 4083SOL    HW123882   2.224   1.962   1.824 -1.4930 -1.2415 -1.5338
 4083SOL    HW223883   2.265   1.872   1.926 -1.0368 -1.1988  1.7626
 4084SOL     OW23884   3.000   0.938   4.904  0.1424 -0.2536 -0.3023
 4084SOL    HW123885   3.007   1.014   4.962  1.6610 -1.4139  1.0390
 4084SOL    HW223886   3.056   0.878   4.953  1.7082  0.3644 -1.3251
 4085SOL     OW23887   1.100   3.355   6.733 -0.2606 -0.4036 -1.0537
 4085SOL    HW123888   1.059   3.435   6.700 -0.7340 -0.7260 -1.2476
 4085SOL    HW223889   1.194   3.376   6.726 -0.7090  1.8452 -0.2952
 4086SOL     OW23890   1.537   0.112   5.563  0.2384 -0.3521 -0.0950
 4086SOL    HW123891   1.607   0.175   5.581  0.2124 -0.0615 -0.9993
 4086SOL    HW223892   1.536   0.106   5.467  0.5627  1.2098 -0.2099
 4087SOL     OW23893   1.605   4.046   6.978 -0.1901 -0.1407 -0.2557
 4087SOL    HW123894   1.688   4.008   6.951 -0.1999  0.2109 -0.7715
 4087SOL    HW223895   1.641   4.107   7.042  2.4466 -0.8293 -1.1022
 4088SOL     OW23896   3.933   0.358   3.724  0.4962  0.2073  0.1892
 4088SOL    HW123897   3.903   0.276   3.684 -1.4248 -0.1045  2.2222
 4088SOL    HW223898   3.899   0.347   3.813  0.2458  1.4060  0.2380
 4089SOL     OW23899   0.634   2.017   9.188 -0.0466 -0.0469  0.2074
 4089SOL    HW123900   0.562   2.066   9.148 -2.0187 -1.8954  1.4638
 4089SOL    HW223901   0.590   1.984   9.266  0.2023 -0.1054  0.3218
 4090SOL     OW23902   2.113   2.034  16.672  0.0008 -0.3287  0.3409
 4090SOL    HW123903   2.208   2.033  16.666 -0.1338 -1.2915 -1.6610
 4090SOL    HW223904   2.092   2.067  16.585 -2.2815  2.8220  2.0866
 4091SOL     OW23905   1.823   1.457   6.796  0.3879 -0.8355  0.8160
 4091SOL    HW123906   1.902   1.424   6.841  2.0926  2.0808 -0.0213
 4091SOL    HW223907   1.831   1.552   6.801  0.6502 -0.6951 -2.2771
 4092SOL     OW23908   3.716   1.947  17.253  0.5278  0.4973 -0.4526
 4092SOL    HW123909   3.775   1.906  17.189  0.3178 -1.4750  0.6219
 4092SOL    HW223910   3.746   1.908  17.335 -3.0721 -0.6761  0.2903
 4093SOL     OW23911   1.756   3.182   7.702  0.1752 -0.3135 -0.1091
 4093SOL    HW123912   1.794   3.260   7.742 -1.4214  0.3111  0.2052
 4093SOL    HW223913   1.760   3.211   7.611 -1.6694  0.0963 -0.0617
 4094SOL     OW23914   0.123   3.937   5.906 -0.3311 -0.0416 -0.0077
 4094SOL    HW123915   0.096   3.943   5.815 -0.3802  2.2433  0.1420
 4094SOL    HW223916   0.213   3.905   5.894  0.1266  0.6084  1.5948
 4095SOL     OW23917   0.128   4.694   3.349 -0.0425 -0.0641 -0.3397
 4095SOL    HW123918   0.058   4.728   3.405 -0.9064 -2.0688 -0.1988
 4095SOL    HW223919   0.086   4.655   3.272  0.3563  0.0808 -0.6288
 4096SOL     OW23920   2.060   0.334   7.567  0.2183  0.8994 -0.0012
 4096SOL    HW123921   2.023   0.369   7.647  0.2031 -2.9840  1.6726
 4096SOL    HW223922   2.032   0.397   7.500  1.2750  1.7102  0.3281
 4097SOL     OW23923   1.251   3.234   9.332  0.6142 -0.6821 -0.3767
 4097SOL    HW123924   1.312   3.290   9.284 -0.2496 -1.9076 -2.9279
 4097SOL    HW223925   1.293   3.238   9.418  1.6003  0.4154 -0.9155
 4098SOL     OW23926   2.852   3.584  14.469 -0.5385 -0.3572 -0.0389
 4098SOL    HW123927   2.908   3.634  14.409 -1.0697 -1.3658 -1.3896
 4098SOL    HW223928   2.834   3.497  14.432 -2.7488  0.1571 -0.1850
 4099SOL     OW23929   2.038   3.653   2.257 -0.2106 -0.1548 -0.5244
 4099SOL    HW123930   2.030   3.740   2.297  0.4261 -0.9725  1.3934
 4099SOL    HW223931   1.949   3.643   2.224 -0.4182  1.1639 -0.3778
 4100SOL     OW23932   3.829   3.432  17.418 -0.2489  0.4015  0.1078
 4100SOL    HW123933   3.912   3.440  17.371 -0.7017 -1.4707 -0.9809
 4100SOL    HW223934   3.813   3.522  17.447 -0.4047  0.6515 -0.7815
 4101SOL     OW23935   1.093   2.348   0.920 -0.4411  0.0473 -0.0047
 4101SOL    HW123936   1.060   2.269   0.877 -2.3584  0.7836  0.1159
 4101SOL    HW223937   1.185   2.323   0.912 -1.0950 -2.9214  1.6914
 4102SOL     OW23938   3.205   0.164  15.137  0.4880  0.5975 -0.1394
 4102SOL    HW123939   3.179   0.211  15.058  2.4371 -1.6067 -2.1206
 4102SOL    HW223940   3.229   0.078  15.101 -0.9063 -0.5575  1.6853
 4103SOL     OW23941   2.551   2.761  17.319 -0.0307  0.1786 -0.6085
 4103SOL    HW123942   2.512   2.756  17.231  1.1994  0.0629 -1.1436
 4103SOL    HW223943   2.489   2.712  17.374  0.4287 -0.0769 -0.3229
 4104SOL     OW23944   2.498   3.315   4.173  0.2926  0.0430  0.6699
 4104SOL    HW123945   2.474   3.239   4.121  1.3156 -0.9843  1.7253
 4104SOL    HW223946   2.415   3.340   4.215  0.0037 -0.9027  0.6656
 4105SOL     OW23947   0.112   3.962  10.694  0.9512  0.1327 -0.2165
 4105SOL    HW123948   0.077   3.884  10.652  0.1839  0.3343  0.0514
 4105SOL    HW223949   0.166   3.924  10.763  0.4891 -0.9900 -0.4824
 4106SOL     OW23950   0.779   2.676   0.552 -0.1642 -0.2301 -0.4476
 4106SOL    HW123951   0.721   2.741   0.512 -1.5769 -2.9886 -2.9235
 4106SOL    HW223952   0.721   2.600   0.552 -0.2712 -0.1757 -2.8135
 4107SOL     OW23953   3.725   3.045   7.916 -0.0799 -0.3753 -0.0605
 4107SOL    HW123954   3.698   2.978   7.853  0.0352 -1.5431  1.1255
 4107SOL    HW223955   3.666   3.119   7.900  2.1832  0.8450 -2.8205
 4108SOL     OW23956   3.602   0.404  10.680 -0.4679 -0.2493 -0.7969
 4108SOL    HW123957   3.675   0.452  10.720 -0.8478 -1.0779  0.9108
 4108SOL    HW223958   3.640   0.394  10.593 -2.4980  2.6254 -2.0174
 4109SOL     OW23959   4.551   1.295   8.456 -0.3808 -0.1471  0.2697
 4109SOL    HW123960   4.535   1.319   8.365 -3.1807 -0.5778  0.6358
 4109SOL    HW223961   4.495   1.354   8.506  2.3695  1.0148  1.9967
 4110SOL     OW23962   3.380   2.903  13.351 -0.1093  0.0384 -0.1806
 4110SOL    HW123963   3.462   2.945  13.377 -1.2002  2.2034 -0.2289
 4110SOL    HW223964   3.415   2.821  13.319 -0.0467 -0.1167  0.2851
 4111SOL     OW23965   2.484   0.948   6.585 -0.2010  0.2419 -0.1237
 4111SOL    HW123966   2.462   0.993   6.503  0.7988 -1.0397 -1.0806
 4111SOL    HW223967   2.576   0.923   6.577 -0.2598 -0.4437  1.3066
 4112SOL     OW23968   0.911   0.299   1.650 -0.0960  0.6673 -0.5199
 4112SOL    HW123969   0.826   0.257   1.666  1.2254 -2.0889 -0.5996
 4112SOL    HW223970   0.893   0.392   1.635  0.6772  0.6505 -1.5670
 4113SOL     OW23971   3.020   1.103   4.186  0.4069  0.8211 -0.0734
 4113SOL    HW123972   3.101   1.088   4.235 -0.5269  1.8369  1.7999
 4113SOL    HW223973   3.045   1.190   4.153 -4.6006  2.7535  1.1424
 4114SOL     OW23974   3.365   4.222   4.834 -0.1627  0.1056  0.6381
 4114SOL    HW123975   3.300   4.282   4.871 -0.8926 -0.2761 -0.0216
 4114SOL    HW223976   3.310   4.157   4.791 -1.1338  3.0452 -2.5433
 4115SOL     OW23977   2.811   0.319   9.235  0.1594  0.0704  0.2747
 4115SOL    HW123978   2.725   0.279   9.249 -0.1805  0.7534  0.1894
 4115SOL    HW223979   2.857   0.295   9.315  0.2698  2.4666  0.9465
 4116SOL     OW23980   2.484   1.149   7.688  0.2423  0.6852  0.0026
 4116SOL    HW123981   2.470   1.088   7.615  1.1570 -1.3048  1.4788
 4116SOL    HW223982   2.562   1.193   7.654  0.4863 -0.7251 -1.2944
 4117SOL     OW23983   3.586   4.140  16.693 -0.0725 -0.0134  0.0659
 4117SOL    HW123984   3.534   4.171  16.619 -1.7536  2.0768  2.1399
 4117SOL    HW223985   3.570   4.221  16.742  2.2802 -1.5200  3.3272
 4118SOL     OW23986   4.438   0.497   7.156 -0.3083  0.2012  0.7489
 4118SOL    HW123987   4.478   0.416   7.124 -0.2893  1.0001 -1.2451
 4118SOL    HW223988   4.425   0.476   7.249 -0.2379 -1.4803  0.3831
 4119SOL     OW23989   3.712   0.141   7.456 -0.0597  0.1330  0.4225
 4119SOL    HW123990   3.794   0.093   7.468 -1.2078 -1.7792  0.5345
 4119SOL    HW223991   3.732   0.223   7.500  0.8142  2.2113 -3.8277
 4120SOL     OW23992   1.739   2.461  15.452 -0.1338 -0.4324  0.1537
 4120SOL    HW123993   1.652   2.476  15.488  0.4779 -0.7891  1.7508
 4120SOL    HW223994   1.708   2.450  15.362 -0.8010  0.9270  0.2094
 4121SOL     OW23995   2.736   0.031  11.499 -0.2999 -0.2082  0.3484
 4121SOL    HW123996   2.817   4.720  11.511  0.7450  1.8670  1.8933
 4121SOL    HW223997   2.672   4.700  11.484  1.0494 -1.1582 -1.0185
 4122SOL     OW23998   1.740   3.807   3.006 -0.7321  0.3868  0.5053
 4122SOL    HW123999   1.683   3.768   3.072 -0.0717 -0.8478  0.3437
 4122SOL    HW224000   1.742   3.894   3.046 -1.2280  0.9099 -0.6272
 4123SOL     OW24001   1.158   2.236   8.447  0.1973  0.4900 -0.1020
 4123SOL    HW124002   1.103   2.289   8.389  0.9261  0.2211 -1.0475
 4123SOL    HW224003   1.211   2.307   8.484  0.4135  0.3208 -0.0911
 4124SOL     OW24004   1.954   3.695   1.933 -0.3091  0.2218  0.5389
 4124SOL    HW124005   1.929   3.747   2.010  0.5779  0.2065  0.8321
 4124SOL    HW224006   1.935   3.752   1.858 -1.2483 -0.8499 -0.0398
 4125SOL     OW24007   3.257   0.243   5.448 -0.0525  0.3556 -0.1252
 4125SOL    HW124008   3.278   0.167   5.501  0.7416 -0.1606 -1.1811
 4125SOL    HW224009   3.285   0.310   5.510  0.0052  0.9034 -0.7461
 4126SOL     OW24010   1.978   0.626   6.985 -0.0090  0.5118 -0.8108
 4126SOL    HW124011   2.040   0.676   6.931  0.9419  0.2620  0.0491
 4126SOL    HW224012   1.906   0.689   6.987 -0.2061  0.1968  1.5335
 4127SOL     OW24013   4.519   2.025   5.824 -0.0986 -0.6656 -0.1564
 4127SOL    HW124014   4.579   1.980   5.884  0.1196 -0.0140  0.1124
 4127SOL    HW224015   4.577   2.064   5.759  1.4710 -1.5715  0.6986
 4128SOL     OW24016   3.020   4.172   2.400  0.0415  0.6001 -0.4514
 4128SOL    HW124017   2.977   4.167   2.485  2.2804  2.5860  0.7919
 4128SOL    HW224018   3.080   4.102   2.426  0.5641  0.9313 -0.7619
 4129SOL     OW24019   0.263   0.018   4.119 -0.1371 -0.1040  0.3347
 4129SOL    HW124020   0.333   4.700   4.154  0.7905  0.9935  0.2646
 4129SOL    HW224021   0.242   0.079   4.190 -1.6007  0.4595 -0.5889
 4130SOL     OW24022   0.820   0.114   2.479  0.1503  0.0914  0.7308
 4130SOL    HW124023   0.763   0.173   2.528 -1.9710 -1.2328 -0.1406
 4130SOL    HW224024   0.759   0.066   2.423  1.0561  2.0178 -1.9513
 4131SOL     OW24025   2.316   1.686   5.353 -0.2141  0.7359  0.1033
 4131SOL    HW124026   2.311   1.733   5.436  2.2306 -0.6243  1.0431
 4131SOL    HW224027   2.339   1.612   5.409  0.9975 -0.7804 -2.3620
 4132SOL     OW24028   0.223   2.588   8.747  0.5019 -0.3886  0.6744
 4132SOL    HW124029   0.132   2.617   8.748 -0.3176 -2.9478  0.4083
 4132SOL    HW224030   0.256   2.613   8.833  0.0249  0.3418  0.6461
 4133SOL     OW24031   0.229   1.076   9.573 -0.0802  0.1449 -0.0210
 4133SOL    HW124032   0.254   1.001   9.626 -1.2092  0.5283  1.0368
 4133SOL    HW224033   0.158   1.112   9.625 -1.2091  0.0864 -1.5218
 4134SOL     OW24034   0.203   0.753   9.438 -0.1481  0.0011  0.5616
 4134SOL    HW124035   0.118   0.748   9.482  0.7530  0.3220  2.3518
 4134SOL    HW224036   0.167   0.776   9.352 -0.2719 -0.0112  0.6103
 4135SOL     OW24037   2.351   1.290  16.477 -0.1542  0.4160  0.2861
 4135SOL    HW124038   2.373   1.303  16.569 -0.4089  2.3307  0.0860
 4135SOL    HW224039   2.435   1.304  16.433  0.2768 -1.4111  0.5242
 4136SOL     OW24040   2.088   3.701   7.219  0.0533  0.1354 -0.1458
 4136SOL    HW124041   2.116   3.695   7.127 -0.6242  0.4967 -0.3688
 4136SOL    HW224042   2.174   3.696   7.261  0.2440  0.7499 -0.4671
 4137SOL     OW24043   3.996   0.059   4.191  0.2796 -0.3280  0.4501
 4137SOL    HW124044   3.958   0.134   4.237  4.1335 -0.1128  3.2598
 4137SOL    HW224045   4.055   0.019   4.255  3.6826  2.6834 -0.7583
 4138SOL     OW24046   0.817   0.243   8.349 -0.2640  1.0556  0.0616
 4138SOL    HW124047   0.911   0.259   8.336 -0.3793  0.7744 -1.0841
 4138SOL    HW224048   0.808   0.160   8.303 -1.4897 -0.1614  2.5418
 4139SOL     OW24049   4.552   0.199   1.996  0.2842 -0.1657  0.9402
 4139SOL    HW124050   4.489   0.190   1.924  0.4332  2.2889  0.4780
 4139SOL    HW224051   4.602   0.120   1.975 -0.1313 -0.1656 -0.0614
 4140SOL     OW24052   2.828   2.702  11.164  0.3488  0.4628  0.1704
 4140SOL    HW124053   2.790   2.660  11.087 -3.5711  0.0535  2.3136
 4140SOL    HW224054   2.922   2.687  11.158 -0.0827 -1.1831 -2.4172
 4141SOL     OW24055   0.710   2.228   8.512  0.3668  0.8400 -0.1755
 4141SOL    HW124056   0.737   2.140   8.484 -0.5172  0.4533  0.1762
 4141SOL    HW224057   0.622   2.230   8.473  0.5151  0.0012 -0.5712
 4142SOL     OW24058   1.552   4.358  11.397 -0.0690 -0.0872 -1.1266
 4142SOL    HW124059   1.528   4.321  11.312 -1.2987 -1.1740 -0.3240
 4142SOL    HW224060   1.462   4.380  11.421  0.9279  2.9378 -0.2580
 4143SOL     OW24061   3.126   3.182   0.571 -1.0283 -0.3940  0.2268
 4143SOL    HW124062   3.203   3.216   0.526 -0.5703  1.0096  2.1058
 4143SOL    HW224063   3.139   3.090   0.549 -1.7561 -0.0090 -1.8724
 4144SOL     OW24064   2.956   0.876   9.160 -0.4221 -0.1349 -0.2927
 4144SOL    HW124065   2.974   0.849   9.250  1.3739 -1.2464 -0.9939
 4144SOL    HW224066   2.936   0.789   9.124 -2.0211  0.0416  0.1908
 4145SOL     OW24067   2.883   2.849   0.634  0.7668 -0.0197 -0.4070
 4145SOL    HW124068   2.892   2.791   0.559  1.6536  1.0512 -1.1363
 4145SOL    HW224069   2.885   2.933   0.587 -1.8161 -1.2743 -2.7527
 4146SOL     OW24070   1.114   2.429   4.836  0.0473  0.6981 -0.2514
 4146SOL    HW124071   1.068   2.387   4.763 -0.0526  0.3190  0.0263
 4146SOL    HW224072   1.163   2.501   4.796  0.6699 -0.9576 -2.4538
 4147SOL     OW24073   4.201   1.427   5.475  0.2251 -0.0731  0.4277
 4147SOL    HW124074   4.124   1.444   5.421  0.1422  0.9276  0.8543
 4147SOL    HW224075   4.174   1.420   5.566  2.2874  1.4990  1.1836
 4148SOL     OW24076   1.681   1.216   6.832 -0.1120 -0.8795 -0.3570
 4148SOL    HW124077   1.637   1.271   6.896 -0.5910 -1.2384 -0.3777
 4148SOL    HW224078   1.741   1.285   6.804  1.7082 -2.3056 -0.0369
 4149SOL     OW24079   3.426   2.614   6.593 -0.3110 -0.1102  0.0703
 4149SOL    HW124080   3.371   2.691   6.607  1.0896  0.8554  0.2545
 4149SOL    HW224081   3.459   2.594   6.680  1.2990  1.9200 -0.0862
 4150SOL     OW24082   2.478   1.897   8.648 -0.4178  0.4464  0.3270
 4150SOL    HW124083   2.503   1.809   8.678 -2.9388 -0.0917  0.8574
 4150SOL    HW224084   2.470   1.934   8.735 -0.6296 -0.9373  0.8956
 4151SOL     OW24085   1.485   2.290  10.153 -0.3600  0.3933  0.0214
 4151SOL    HW124086   1.465   2.383  10.154 -0.3809  0.3886  0.0514
 4151SOL    HW224087   1.432   2.257  10.225 -1.2279  1.9353  0.0772
 4152SOL     OW24088   1.425   1.321  17.038 -0.5899  0.0831  0.0995
 4152SOL    HW124089   1.393   1.376  16.966 -0.5179  0.3648  0.2804
 4152SOL    HW224090   1.388   1.374  17.108  0.9709 -1.1430  1.8636
 4153SOL     OW24091   1.610   3.831  10.192  0.3501  0.0193 -0.0282
 4153SOL    HW124092   1.677   3.885  10.152  0.3153  0.6882  0.8323
 4153SOL    HW224093   1.656   3.749  10.210  0.8463  0.4691  0.7286
 4154SOL     OW24094   2.186   2.956   2.149  0.3815 -0.1438 -0.2513
 4154SOL    HW124095   2.166   2.964   2.243 -0.9807 -3.7413 -0.2468
 4154SOL    HW224096   2.096   2.961   2.118  0.1309 -0.2707  0.4414
 4155SOL     OW24097   3.645   1.511   5.896 -0.1918  0.1077 -0.1038
 4155SOL    HW124098   3.644   1.567   5.818 -4.5124 -1.2061 -1.0124
 4155SOL    HW224099   3.560   1.468   5.882 -0.3327  0.4106 -0.1817
 4156SOL     OW24100   2.108   2.997   5.311 -0.1265  0.4308  0.3682
 4156SOL    HW124101   2.145   2.958   5.232  1.1586  1.8873  0.2514
 4156SOL    HW224102   2.174   3.062   5.337  1.0843 -0.7559  0.2783
 4157SOL     OW24103   4.703   2.669  11.953  0.1846  0.6403  0.2583
 4157SOL    HW124104   4.727   2.588  11.909  1.2928  0.5948  0.9297
 4157SOL    HW224105   0.046   2.695  11.995  0.7877  1.3587 -1.3373
 4158SOL     OW24106   0.806   0.287   8.958 -0.2274 -0.3954  0.5718
 4158SOL    HW124107   0.739   0.339   8.915  1.4451  0.3079 -1.1670
 4158SOL    HW224108   0.810   0.322   9.047 -0.2132  1.1943 -0.0521
 4159SOL     OW24109   3.047   1.107  16.078  0.0636 -0.2981  0.1755
 4159SOL    HW124110   3.110   1.069  16.018  0.0492 -3.2812  2.0225
 4159SOL    HW224111   2.984   1.151  16.020  1.7123 -0.7254 -1.8981
 4160SOL     OW24112   3.827   0.405   7.185 -0.3334  0.1999 -0.3774
 4160SOL    HW124113   3.749   0.445   7.146 -0.7763 -0.4872 -0.1917
 4160SOL    HW224114   3.818   0.434   7.276  0.3423 -1.7117  0.2938
 4161SOL     OW24115   4.614   4.530   8.801 -0.6406 -0.5087  0.0692
 4161SOL    HW124116   4.574   4.444   8.809 -0.3421 -0.6839 -0.2901
 4161SOL    HW224117   4.624   4.539   8.706  1.4797 -2.2937  0.1293
 4162SOL     OW24118   0.770   0.795   5.526 -0.3721  0.4237  0.5418
 4162SOL    HW124119   0.693   0.796   5.583 -1.3906 -1.3050 -0.7862
 4162SOL    HW224120   0.787   0.701   5.523  0.5553  0.6348 -0.8710
 4163SOL     OW24121   4.533   2.200   7.839  0.0494 -0.1127  0.6916
 4163SOL    HW124122   4.573   2.178   7.755  0.3478  0.4922  0.6702
 4163SOL    HW224123   4.614   2.229   7.882 -0.1561  1.5059 -0.0236
 4164SOL     OW24124   1.676   0.292  14.271 -0.3290 -0.9888  0.5719
 4164SOL    HW124125   1.654   0.376  14.311  0.0413 -0.6362  0.0377
 4164SOL    HW224126   1.594   0.261  14.232 -0.5416 -0.0663  0.2813
 4165SOL     OW24127   1.632   1.153  17.050 -0.0746 -0.2869 -0.3561
 4165SOL    HW124128   1.721   1.189  17.047 -0.9360  1.8030 -0.6141
 4165SOL    HW224129   1.572   1.226  17.036  1.2671  0.6749 -1.0399
 4166SOL     OW24130   0.077   2.244  16.944  0.4322  0.1349  0.7906
 4166SOL    HW124131   0.066   2.212  16.854  0.9392  1.2149  0.3523
 4166SOL    HW224132   0.106   2.331  16.916 -0.8746 -0.0231 -1.0835
 4167SOL     OW24133   2.811   3.122   5.277 -0.3554 -0.6875  0.1786
 4167SOL    HW124134   2.860   3.081   5.205 -1.5460  0.0102 -1.0296
 4167SOL    HW224135   2.869   3.198   5.282 -1.5582  0.1668  1.0929
 4168SOL     OW24136   1.799   3.489   4.601 -0.1407 -0.2819 -0.5260
 4168SOL    HW124137   1.751   3.565   4.570 -2.2101 -0.2614  2.7158
 4168SOL    HW224138   1.858   3.473   4.527  0.2283 -2.3565  0.2160
 4169SOL     OW24139   3.016   3.329   7.091  0.0399  0.0095  1.3218
 4169SOL    HW124140   3.104   3.357   7.117  0.4842  0.9056 -1.2434
 4169SOL    HW224141   3.010   3.248   7.143  1.1614 -1.9357 -1.5668
 4170SOL     OW24142   1.776   2.411   7.267  0.0770 -0.0072 -0.7383
 4170SOL    HW124143   1.856   2.403   7.216  1.1504  0.5530  0.8720
 4170SOL    HW224144   1.795   2.472   7.338 -0.1281  0.1645 -0.8305
 4171SOL     OW24145   0.588   2.815   2.741 -0.0604 -0.5336  0.1621
 4171SOL    HW124146   0.520   2.782   2.799  0.6600 -0.5443  1.0037
 4171SOL    HW224147   0.591   2.907   2.768  1.7937 -0.5357 -0.0468
 4172SOL     OW24148   0.810   3.093   5.363 -0.2394 -0.6435 -0.1773
 4172SOL    HW124149   0.719   3.105   5.337 -0.2300  1.0194  0.5065
 4172SOL    HW224150   0.822   3.186   5.383 -2.8006 -0.4242  0.3978
 4173SOL     OW24151   3.005   4.207  10.362 -0.0578 -0.2896 -0.0910
 4173SOL    HW124152   3.098   4.231  10.367 -0.0176 -0.2974 -0.7638
 4173SOL    HW224153   3.003   4.140  10.430 -0.8143 -1.3435 -1.1611
 4174SOL     OW24154   4.281   1.717   1.955 -0.1060  0.3897 -0.2078
 4174SOL    HW124155   4.347   1.650   1.934 -0.1765  0.4149 -0.5139
 4174SOL    HW224156   4.222   1.680   2.020 -0.3889 -0.2791 -0.8495
 4175SOL     OW24157   4.462   1.387   8.209  0.1906 -0.2936 -0.3636
 4175SOL    HW124158   4.398   1.422   8.272  1.2038 -0.8317  0.9782
 4175SOL    HW224159   4.512   1.467   8.190  1.6556 -0.8677  1.0253
 4176SOL     OW24160   4.118   4.730   5.072 -0.0468 -0.1019 -0.2898
 4176SOL    HW124161   4.203   4.716   5.113  0.4259 -1.9611 -1.8940
 4176SOL    HW224162   4.085   4.643   5.049 -0.9160  0.3546 -0.8032
 4177SOL     OW24163   3.228   1.030   1.640  0.2022  0.5044  0.0721
 4177SOL    HW124164   3.235   1.103   1.579  0.4093 -0.8086 -1.4530
 4177SOL    HW224165   3.292   0.974   1.597 -0.3307  1.1673 -1.5655
 4178SOL     OW24166   4.183   0.435   3.707 -0.0886 -0.0465 -0.4938
 4178SOL    HW124167   4.218   0.390   3.784  0.7829  0.9130 -0.3409
 4178SOL    HW224168   4.091   0.407   3.704  0.0451 -0.5850  0.5391
 4179SOL     OW24169   0.481   4.003   3.300 -0.2561 -0.3991 -0.1379
 4179SOL    HW124170   0.565   4.038   3.330 -1.0891 -0.1153  1.8553
 4179SOL    HW224171   0.433   4.013   3.383 -0.4201 -1.5262 -0.0972
 4180SOL     OW24172   2.186   1.854   3.435  0.3065 -0.0772 -0.3468
 4180SOL    HW124173   2.160   1.845   3.527 -2.0768 -1.1172 -1.1335
 4180SOL    HW224174   2.247   1.780   3.425 -1.1565 -1.5468  1.5962
 4181SOL     OW24175   2.127   3.364   2.762 -0.0717 -0.5443  0.3957
 4181SOL    HW124176   2.105   3.453   2.736  0.7845 -0.8598 -1.3918
 4181SOL    HW224177   2.065   3.354   2.835 -1.1897  0.2654 -0.4359
 4182SOL     OW24178   0.510   4.212   9.278  0.0913 -0.1938  0.6547
 4182SOL    HW124179   0.505   4.201   9.183 -1.0680  0.1071  0.6816
 4182SOL    HW224180   0.593   4.260   9.286  0.4387 -0.5304 -1.0483
 4183SOL     OW24181   2.116   3.111  11.981  0.6661  0.5385 -0.2728
 4183SOL    HW124182   2.113   3.072  12.068 -0.2421 -0.1449 -0.6142
 4183SOL    HW224183   2.037   3.071  11.944  2.2810 -2.6025 -0.2700
 4184SOL     OW24184   0.315   4.361   4.066 -0.8560  0.2819 -0.4812
 4184SOL    HW124185   0.336   4.387   4.156  0.8552  0.1768 -0.8569
 4184SOL    HW224186   0.255   4.289   4.086  0.8040 -2.0330 -3.8729
 4185SOL     OW24187   4.670   1.041  12.063  0.0307 -0.4751 -0.2333
 4185SOL    HW124188   4.659   0.954  12.024  0.0888 -0.3558 -0.5145
 4185SOL    HW224189   4.583   1.058  12.099 -0.9033 -1.1171 -2.1572
 4186SOL     OW24190   2.223   4.592   4.879  0.0607  0.0811  0.3460
 4186SOL    HW124191   2.200   4.503   4.904  2.3128 -0.5748  0.0975
 4186SOL    HW224192   2.268   4.623   4.958  1.1702  0.3817 -0.4068
 4187SOL     OW24193   0.228   3.103   6.984  0.6065 -0.0728 -0.0912
 4187SOL    HW124194   0.258   3.169   6.923 -0.6006  0.2784 -0.2946
 4187SOL    HW224195   0.196   3.151   7.061 -1.0918 -0.3206 -0.6448
 4188SOL     OW24196   4.339   1.561   3.208  0.2680 -0.1807  0.0832
 4188SOL    HW124197   4.380   1.475   3.215  0.4097 -0.0555  0.7035
 4188SOL    HW224198   4.398   1.619   3.256 -0.7598  1.5144 -0.6662
 4189SOL     OW24199   4.267   3.525   0.063  0.1226  0.6608  0.2352
 4189SOL    HW124200   4.260   3.618   0.038  0.1823 -0.1841 -2.9652
 4189SOL    HW224201   4.314   3.546   0.143  2.4354 -1.8133 -0.5083
 4190SOL     OW24202   3.149   2.849   5.157  0.6842  0.2687  0.1678
 4190SOL    HW124203   3.100   2.921   5.118 -0.7266 -0.2570  0.9631
 4190SOL    HW224204   3.089   2.776   5.142  1.1011  0.1103 -0.7377
 4191SOL     OW24205   0.380   2.571  11.639 -0.2014  0.3179  0.9014
 4191SOL    HW124206   0.447   2.638  11.626  0.8031 -0.6766  0.9366
 4191SOL    HW224207   0.415   2.516  11.710 -1.7860 -0.9199  0.7196
 4192SOL     OW24208   4.403   1.138   8.112  0.5486 -0.0003  0.1864
 4192SOL    HW124209   4.308   1.135   8.103  0.4291  1.9771  0.7395
 4192SOL    HW224210   4.410   1.231   8.135  1.0476  0.2727 -1.0505
 4193SOL     OW24211   4.428   2.379   2.883 -0.6457  0.0115 -0.7232
 4193SOL    HW124212   4.466   2.394   2.969  0.1863  0.3385 -1.1472
 4193SOL    HW224213   4.509   2.381   2.831 -1.8123 -0.0172 -2.5570
 4194SOL     OW24214   0.317   3.225   6.195 -0.8328  0.2266 -0.0639
 4194SOL    HW124215   0.336   3.277   6.116 -2.1497 -1.8712 -1.7673
 4194SOL    HW224216   0.266   3.290   6.243 -2.3994  0.3868 -1.8980
 4195SOL     OW24217   0.018   2.197   9.400  0.2082 -0.6868  0.3120
 4195SOL    HW124218   0.031   2.146   9.480  4.1024 -0.9726 -0.5321
 4195SOL    HW224219   0.109   2.215   9.376 -0.2163  1.5511  0.3680
 4196SOL     OW24220   3.861   0.670   4.446 -0.2302 -0.4217  0.0723
 4196SOL    HW124221   3.768   0.694   4.454 -0.4686 -1.2534 -0.2735
 4196SOL    HW224222   3.859   0.637   4.356 -1.3419  1.1704 -0.4893
 4197SOL     OW24223   4.547   3.561   5.467  0.1077  0.3768  0.5372
 4197SOL    HW124224   4.581   3.602   5.387  0.7622  3.2517  2.2861
 4197SOL    HW224225   4.473   3.510   5.435 -0.3167  0.6480  1.0959
 4198SOL     OW24226   1.495   1.841   5.200  0.2386  0.2602  0.3266
 4198SOL    HW124227   1.505   1.752   5.165 -0.3679  2.0478 -4.2735
 4198SOL    HW224228   1.570   1.883   5.157  0.3480 -1.6370 -1.3493
 4199SOL     OW24229   0.553   2.607  15.037  0.3263 -0.2334 -0.1528
 4199SOL    HW124230   0.585   2.594  15.127  0.3950  1.6787  0.1024
 4199SOL    HW224231   0.520   2.697  15.036  0.6692 -0.1189 -0.9080
 4200SOL     OW24232   1.069   4.197   2.767  0.5780  0.7649 -0.6032
 4200SOL    HW124233   1.027   4.153   2.693 -2.1831  0.0455  1.3636
 4200SOL    HW224234   1.033   4.147   2.840  1.2204 -1.7025 -1.9942
 4201SOL     OW24235   1.331   4.073   5.231 -0.7903 -0.3455 -0.3561
 4201SOL    HW124236   1.306   3.983   5.250 -1.0121 -0.1743  0.1774
 4201SOL    HW224237   1.266   4.100   5.166 -0.1421  1.3826 -0.3117
 4202SOL     OW24238   4.738   2.563   5.248 -0.2678 -0.0205 -0.0977
 4202SOL    HW124239   0.007   2.491   5.311 -1.2811 -2.0222 -2.2411
 4202SOL    HW224240   4.671   2.537   5.185 -0.6858 -0.5578  0.5702
 4203SOL     OW24241   3.491   1.931   0.543  0.5434 -0.4753 -0.0161
 4203SOL    HW124242   3.421   1.950   0.481  0.0473  1.2119  1.0697
 4203SOL    HW224243   3.447   1.922   0.628 -0.3026 -0.6456 -0.4719
 4204SOL     OW24244   3.210   0.501   6.951 -0.1546 -0.2617  0.8625
 4204SOL    HW124245   3.124   0.516   6.989 -0.4599  0.6056 -0.1692
 4204SOL    HW224246   3.186   0.519   6.860 -0.1654 -1.7097  0.5863
 4205SOL     OW24247   2.014   2.951  16.191  0.1643  0.0121 -0.2901
 4205SOL    HW124248   1.976   2.894  16.259  0.2700  1.5971  1.1127
 4205SOL    HW224249   2.021   3.034  16.239 -0.8154  0.0709 -0.2513
 4206SOL     OW24250   3.424   2.123   4.690  0.1251 -0.1089 -0.1849
 4206SOL    HW124251   3.467   2.093   4.609 -0.1312  1.6956 -0.9916
 4206SOL    HW224252   3.387   2.038   4.714 -2.9765  1.8644  2.0450
 4207SOL     OW24253   3.770   2.032   2.625  0.5725 -0.1083 -0.2626
 4207SOL    HW124254   3.821   1.993   2.696 -0.0195 -1.8975 -0.8057
 4207SOL    HW224255   3.691   1.980   2.641 -0.9278  1.4807 -2.4062
 4208SOL     OW24256   3.078   1.390   4.905 -1.2742 -0.0415  0.5771
 4208SOL    HW124257   2.994   1.347   4.922 -1.7293  0.4612 -0.4394
 4208SOL    HW224258   3.123   1.358   4.984  0.8846  2.8078  0.5050
 4209SOL     OW24259   0.358   4.412   1.474 -0.0478  0.0368  0.5486
 4209SOL    HW124260   0.262   4.412   1.464 -0.2557  0.2229  2.6244
 4209SOL    HW224261   0.393   4.465   1.402 -1.2275  0.5849  0.3789
 4210SOL     OW24262   1.560   3.889   2.353 -0.2488  0.1703 -0.2433
 4210SOL    HW124263   1.554   3.926   2.265 -0.7205  1.1203  0.1922
 4210SOL    HW224264   1.651   3.917   2.366 -0.3480  0.5787 -0.4520
 4211SOL     OW24265   0.968   1.600   9.866 -0.1091  0.5665 -0.2607
 4211SOL    HW124266   1.019   1.520   9.857 -1.0378 -0.0872  0.3376
 4211SOL    HW224267   0.909   1.582   9.792 -0.3063 -1.4335  0.3840
 4212SOL     OW24268   3.822   3.504   3.463  0.7638  0.1701 -0.0079
 4212SOL    HW124269   3.756   3.555   3.510 -0.1935 -0.3671 -0.7614
 4212SOL    HW224270   3.902   3.543   3.497  0.9296 -1.9685  2.0917
 4213SOL     OW24271   1.965   3.774   8.172 -0.2812 -0.0014 -0.0930
 4213SOL    HW124272   1.946   3.723   8.251 -1.3399  0.2190 -0.2016
 4213SOL    HW224273   1.958   3.706   8.105 -1.6184  1.3669 -1.3456
 4214SOL     OW24274   2.244   0.510   6.758  0.8116 -0.3570  0.0790
 4214SOL    HW124275   2.183   0.581   6.780 -0.5132 -1.6305  0.4575
 4214SOL    HW224276   2.307   0.520   6.830  0.3212 -0.8539  0.5773
 4215SOL     OW24277   2.584   2.558   1.565 -0.1563 -0.4422  0.0002
 4215SOL    HW124278   2.576   2.531   1.473 -2.1792 -2.2390  0.6932
 4215SOL    HW224279   2.673   2.592   1.572  0.0627 -1.3649  1.6909
 4216SOL     OW24280   0.260   1.449  10.785 -0.3821  0.4982 -0.5387
 4216SOL    HW124281   0.208   1.521  10.750 -0.0996  0.2737 -1.4262
 4216SOL    HW224282   0.324   1.504  10.831 -1.2493 -0.9087  2.3276
 4217SOL     OW24283   2.253   4.427  10.374  0.3856  0.0807  0.0969
 4217SOL    HW124284   2.294   4.363  10.433 -1.4795 -0.2520  1.0566
 4217SOL    HW224285   2.291   4.509  10.405  0.9158 -0.0483 -0.2102
 4218SOL     OW24286   0.528   3.662   6.898  0.0427 -0.4830  0.6124
 4218SOL    HW124287   0.607   3.616   6.871 -0.2270 -1.6657  1.8197
 4218SOL    HW224288   0.571   3.724   6.957  1.4918  0.1599 -1.1347
 4219SOL     OW24289   4.690   3.299   8.762  0.1624 -0.1439  0.0230
 4219SOL    HW124290   4.727   3.375   8.716 -1.7701  1.3084  0.8733
 4219SOL    HW224291   0.027   3.240   8.768  0.6452  0.5964  1.2619
 4220SOL     OW24292   4.538   1.605   8.620 -0.0606  0.1382 -0.0865
 4220SOL    HW124293   4.505   1.681   8.573  1.4436 -0.5756 -2.3135
 4220SOL    HW224294   4.524   1.642   8.707 -1.0891 -0.8614  0.1662
 4221SOL     OW24295   3.921   2.518  15.651 -0.0402 -0.5427  0.3437
 4221SOL    HW124296   3.979   2.471  15.710  1.2995 -0.3394 -0.8217
 4221SOL    HW224297   3.979   2.582  15.609 -1.8103  0.3624 -0.7425
 4222SOL     OW24298   1.061   1.696   8.990 -0.5044  0.8543 -0.2446
 4222SOL    HW124299   1.057   1.750   8.911  0.6882  1.8045  0.3405
 4222SOL    HW224300   1.132   1.746   9.031 -0.7758  0.3019  0.8923
 4223SOL     OW24301   0.340   2.907   8.124 -0.7642  0.5316  0.1304
 4223SOL    HW124302   0.279   2.855   8.177  1.6173 -0.3695  1.9697
 4223SOL    HW224303   0.345   2.988   8.176 -1.8468  1.3113 -0.9942
 4224SOL     OW24304   0.455   4.250   3.630 -0.3976 -0.2436 -0.0875
 4224SOL    HW124305   0.392   4.251   3.702  0.5361  1.7400  0.7027
 4224SOL    HW224306   0.429   4.171   3.582  4.0088 -0.6901 -1.6769
 4225SOL     OW24307   3.704   4.530   4.052 -0.1896  0.0242 -0.3340
 4225SOL    HW124308   3.730   4.618   4.025  0.9646 -0.8255 -1.9757
 4225SOL    HW224309   3.638   4.550   4.118  0.5749  1.7651 -0.0959
 4226SOL     OW24310   0.196   3.552   8.493  0.2662  0.4637 -0.0436
 4226SOL    HW124311   0.146   3.562   8.574  0.3652  0.4320  0.0211
 4226SOL    HW224312   0.140   3.590   8.425 -0.1098 -0.0261 -0.0105
 4227SOL     OW24313   3.739   4.026  16.900 -0.1722  0.6159 -0.6811
 4227SOL    HW124314   3.793   4.101  16.876 -1.8359  0.8943 -3.5291
 4227SOL    HW224315   3.654   4.042  16.859 -1.4269 -3.2049  0.3733
 4228SOL     OW24316   4.616   4.079   7.205 -0.2239 -0.0386  0.5009
 4228SOL    HW124317   4.602   4.169   7.175 -0.6401 -0.4919 -0.6451
 4228SOL    HW224318   4.706   4.064   7.175 -1.0411 -0.3939 -1.7111
 4229SOL     OW24319   4.575   0.221   6.161 -0.1217  0.5966 -0.0736
 4229SOL    HW124320   4.585   0.271   6.242 -0.2982  0.5994 -0.0542
 4229SOL    HW224321   4.668   0.213   6.137  0.0774  0.2474  0.8441
 4230SOL     OW24322   2.411   1.118   2.940  0.1891 -0.3406  0.3494
 4230SOL    HW124323   2.440   1.192   2.886 -1.9720 -1.6164 -2.6077
 4230SOL    HW224324   2.442   1.155   3.022  0.9645 -0.4332  0.0959
 4231SOL     OW24325   2.421   3.405   1.178  0.4333  0.3760  0.5197
 4231SOL    HW124326   2.426   3.381   1.270 -0.8601  0.6446  0.6623
 4231SOL    HW224327   2.450   3.326   1.133  0.1491  0.8383 -0.4810
 4232SOL     OW24328   4.324   3.321   6.545  0.2545  0.2069 -0.2270
 4232SOL    HW124329   4.394   3.303   6.481 -0.2205  1.4820 -1.1175
 4232SOL    HW224330   4.311   3.233   6.579 -0.9975  0.1200 -0.9327
 4233SOL     OW24331   2.263   3.711   9.034  0.6132 -0.0017  0.1550
 4233SOL    HW124332   2.176   3.686   9.065  0.5273 -0.5660 -0.5251
 4233SOL    HW224333   2.317   3.673   9.103  1.2110 -2.1316 -1.4624
 4234SOL     OW24334   1.401   2.055   3.381  0.3370  0.1933 -0.2467
 4234SOL    HW124335   1.468   2.091   3.323  1.8105 -1.0284  0.7097
 4234SOL    HW224336   1.320   2.103   3.362 -0.6250 -0.7830  1.3780
 4235SOL     OW24337   0.883   2.781   4.192 -0.4773 -0.7673  0.1528
 4235SOL    HW124338   0.800   2.783   4.239 -0.2233 -1.7270  0.6236
 4235SOL    HW224339   0.862   2.727   4.116  0.3927  0.3018 -0.8538
 4236SOL     OW24340   3.744   1.861   6.893 -0.5458 -0.6160 -0.4091
 4236SOL    HW124341   3.795   1.863   6.812  0.1444  1.0927  0.0572
 4236SOL    HW224342   3.797   1.931   6.932  0.3066 -1.1284 -0.6381
 4237SOL     OW24343   4.312   3.601   2.064 -0.1317 -0.2343  0.5855
 4237SOL    HW124344   4.267   3.651   1.996  1.1983  0.8223  0.4925
 4237SOL    HW224345   4.335   3.520   2.018 -1.7843 -2.3752  3.5175
 4238SOL     OW24346   2.370   3.674  12.550  0.3691  0.1252  0.7388
 4238SOL    HW124347   2.369   3.690  12.644 -2.4065 -1.7995  1.0157
 4238SOL    HW224348   2.314   3.747  12.522  1.2285  0.5411  0.1232
 4239SOL     OW24349   3.630   2.762   5.874 -0.2324  0.1315 -0.1066
 4239SOL    HW124350   3.585   2.840   5.907 -1.3333 -0.9868  1.0483
 4239SOL    HW224351   3.571   2.732   5.805  0.4332 -2.9236  0.6659
 4240SOL     OW24352   1.849   3.501   3.957 -0.0809 -0.3353  0.4912
 4240SOL    HW124353   1.893   3.538   3.880 -0.9692 -0.7019 -0.1897
 4240SOL    HW224354   1.765   3.546   3.954  0.5635  0.7558 -1.4883
 4241SOL     OW24355   2.254   1.391   6.447 -0.0062 -0.1589 -0.2821
 4241SOL    HW124356   2.321   1.443   6.403  1.2183 -1.7151 -0.2993
 4241SOL    HW224357   2.269   1.310   6.398  0.4516 -0.3541  0.1786
 4242SOL     OW24358   0.034   2.139   7.700 -0.1112 -0.0925  0.0487
 4242SOL    HW124359   0.093   2.105   7.633 -1.6854 -1.9337 -0.4055
 4242SOL    HW224360   0.077   2.221   7.725  0.1183  0.0413 -0.7967
 4243SOL     OW24361   4.252   1.079   3.930 -0.7722 -0.4808  0.4363
 4243SOL    HW124362   4.340   1.061   3.963 -0.3915  0.1288 -0.2611
 4243SOL    HW224363   4.196   1.068   4.008  0.3800 -1.0848  1.1874
 4244SOL     OW24364   1.193   4.380   9.284  0.0071 -0.1884 -0.6156
 4244SOL    HW124365   1.144   4.408   9.207 -0.8882 -2.0491 -0.7115
 4244SOL    HW224366   1.212   4.292   9.251  1.8856  0.2315 -0.6430
 4245SOL     OW24367   0.153   1.303  15.771  0.4107 -0.0522 -0.0809
 4245SOL    HW124368   0.178   1.318  15.862  1.4416  0.8399 -0.5184
 4245SOL    HW224369   0.067   1.344  15.765  0.4473  0.2747  1.7610
 4246SOL     OW24370   0.967   4.396   0.172 -0.0316 -0.6115 -0.0969
 4246SOL    HW124371   1.014   4.429   0.248  0.7200 -1.9530  0.0152
 4246SOL    HW224372   0.986   4.302   0.170  1.3502 -0.3739  2.0031
 4247SOL     OW24373   1.260   0.828  10.024 -0.4174 -0.4069 -0.0492
 4247SOL    HW124374   1.236   0.900   9.967 -1.7281 -0.3195  0.6076
 4247SOL    HW224375   1.229   0.755   9.970  0.3021  0.0545 -1.0904
 4248SOL     OW24376   1.007   1.101  10.220 -0.0931 -0.0793 -0.4811
 4248SOL    HW124377   1.060   1.177  10.245  1.1917 -1.3286  0.5627
 4248SOL    HW224378   1.005   1.114  10.125 -0.8830 -0.4520 -0.5124
 4249SOL     OW24379   3.580   3.262   0.025  0.2165 -0.2214  0.0960
 4249SOL    HW124380   3.565   3.347  17.735  0.7841  0.5645  1.4579
 4249SOL    HW224381   3.499   3.251   0.074 -1.4770  0.1902 -2.6240
 4250SOL     OW24382   0.314   4.240   1.708 -0.3156  0.1360  0.0266
 4250SOL    HW124383   0.321   4.314   1.648  3.1256  1.5898  2.2016
 4250SOL    HW224384   0.362   4.169   1.666 -0.1002  0.2100  0.1469
 4251SOL     OW24385   3.019   3.046   2.290 -0.1772  0.9733 -0.4697
 4251SOL    HW124386   3.028   3.057   2.385  2.2589 -0.5848 -0.5165
 4251SOL    HW224387   3.067   3.124   2.262  1.1655  0.1070 -0.5738
 4252SOL     OW24388   1.921   3.451   7.804 -0.8078 -0.0016  0.3545
 4252SOL    HW124389   2.000   3.444   7.750 -1.8575 -2.4873 -0.8896
 4252SOL    HW224390   1.900   3.541   7.828  1.3392  0.3556  0.8536
 4253SOL     OW24391   3.051   2.571   8.894  0.1132  1.1971 -0.0412
 4253SOL    HW124392   3.119   2.507   8.916  0.5444  1.6141 -0.1817
 4253SOL    HW224393   3.020   2.541   8.809  1.0842  0.4469 -0.1261
 4254SOL     OW24394   3.174   3.386  12.264  0.0792 -0.1768 -0.4466
 4254SOL    HW124395   3.186   3.407  12.172  0.9652 -0.7075 -0.4517
 4254SOL    HW224396   3.175   3.291  12.251 -0.8821 -0.3962  1.0109
 4255SOL     OW24397   1.841   2.919   7.029 -0.5294  0.1723 -0.0683
 4255SOL    HW124398   1.841   3.012   7.006  1.4486  0.6151  1.6559
 4255SOL    HW224399   1.766   2.892   6.976  0.8354  0.3099 -2.0794
 4256SOL     OW24400   1.588   3.904   3.274  0.1923 -0.3214  0.3072
 4256SOL    HW124401   1.662   3.861   3.317 -0.8246 -4.1751 -1.8196
 4256SOL    HW224402   1.589   3.984   3.327  1.6817 -0.1091 -0.0408
 4257SOL     OW24403   0.823   0.103   8.073  0.4291 -0.2061 -1.1330
 4257SOL    HW124404   0.889   0.042   8.106 -1.0052 -1.0017  0.2783
 4257SOL    HW224405   0.872   0.135   7.997  2.1464  1.0218  0.4715
 4258SOL     OW24406   3.580   2.655   2.905 -0.5129  0.3555 -0.2577
 4258SOL    HW124407   3.610   2.699   2.984  1.9069  2.6575 -2.4322
 4258SOL    HW224408   3.590   2.561   2.918 -1.7666  0.3841  0.9053
 4259SOL     OW24409   3.753   1.692   4.512  0.1737 -0.5565  1.1879
 4259SOL    HW124410   3.723   1.691   4.603 -0.8362 -1.1662  0.8607
 4259SOL    HW224411   3.686   1.753   4.480  1.5111 -0.4693 -1.4187
 4260SOL     OW24412   4.348   0.138   1.834 -0.3605 -0.1820 -0.8612
 4260SOL    HW124413   4.330   0.215   1.781  2.8592  0.5455 -0.9146
 4260SOL    HW224414   4.263   0.123   1.875 -0.3856 -1.3574 -1.3222
 4261SOL     OW24415   1.416   0.224   3.404 -0.3691 -0.1029  0.0640
 4261SOL    HW124416   1.412   0.217   3.499  3.1065 -1.8365  0.0947
 4261SOL    HW224417   1.497   0.274   3.394  0.3869 -1.9212 -2.8737
 4262SOL     OW24418   3.367   4.185  13.851  0.4380 -0.3671  0.8607
 4262SOL    HW124419   3.279   4.196  13.886 -1.1098 -2.5100 -2.2812
 4262SOL    HW224420   3.376   4.092  13.828 -1.9200 -1.0617  2.8070
 4263SOL     OW24421   2.279   1.617   3.863 -0.0173  0.3951  0.2089
 4263SOL    HW124422   2.259   1.657   3.947  0.8038 -2.1094  1.6023
 4263SOL    HW224423   2.372   1.639   3.865 -0.0226  0.3885  0.5512
 4264SOL     OW24424   0.590   1.407   5.700  0.7306  0.6573  0.0396
 4264SOL    HW124425   0.517   1.443   5.650  0.4386  0.2940  0.2047
 4264SOL    HW224426   0.664   1.421   5.641  1.2348 -0.8432  0.3213
 4265SOL     OW24427   2.577   3.608  12.380 -0.3167 -1.0506 -0.2418
 4265SOL    HW124428   2.650   3.659  12.416  0.1250 -0.5185 -1.8920
 4265SOL    HW224429   2.504   3.647  12.427  1.6157  2.6460 -0.2644
 4266SOL     OW24430   0.041   0.707   6.946 -0.9013 -0.2863 -0.1293
 4266SOL    HW124431   0.070   0.779   6.890 -0.5317 -1.9097 -2.0433
 4266SOL    HW224432   0.107   0.645   6.915  1.3831  3.0632 -1.9917
 4267SOL     OW24433   1.812   0.620   7.631  0.1031 -0.3003 -0.3022
 4267SOL    HW124434   1.718   0.634   7.630  0.2241  0.4872 -0.5831
 4267SOL    HW224435   1.830   0.590   7.542  0.1438  2.1696 -1.1036
 4268SOL     OW24436   4.661   0.808   6.216 -0.3662 -0.0894  0.7560
 4268SOL    HW124437   4.684   0.881   6.157 -1.1577 -1.2518 -0.9948
 4268SOL    HW224438   4.736   0.750   6.202  1.9444  3.1108 -0.1460
 4269SOL     OW24439   2.162   2.096   1.671 -0.2884  0.3923 -0.1885
 4269SOL    HW124440   2.181   2.040   1.595  0.9912  0.6083 -0.0333
 4269SOL    HW224441   2.069   2.080   1.658  0.3005 -2.5118 -0.9224
 4270SOL     OW24442   1.971   4.260  10.709  0.0096 -0.2583 -0.8569
 4270SOL    HW124443   1.908   4.206  10.756  0.3870  1.5891  1.7184
 4270SOL    HW224444   2.024   4.198  10.658 -0.9613 -1.4099 -0.4774
 4271SOL     OW24445   1.882   2.269   6.814 -0.4289  0.1760  0.2689
 4271SOL    HW124446   1.789   2.268   6.792  0.1537  1.3257 -2.2715
 4271SOL    HW224447   1.919   2.216   6.744  2.2547  1.6419  0.5653
 4272SOL     OW24448   2.769   1.143   4.653 -0.0292 -0.2196 -0.2034
 4272SOL    HW124449   2.719   1.141   4.572 -0.0932  0.2599 -0.1748
 4272SOL    HW224450   2.858   1.159   4.621 -0.4085  0.7653 -0.7519
 4273SOL     OW24451   3.341   3.935   0.130 -0.4252  0.2578  0.3327
 4273SOL    HW124452   3.343   4.015   0.183  1.0863  0.1909  0.3561
 4273SOL    HW224453   3.265   3.888   0.164  0.2358 -1.2665 -0.3017
 4274SOL     OW24454   2.364   3.908   9.618 -0.5590  0.3226 -0.3477
 4274SOL    HW124455   2.403   3.892   9.532 -0.9178 -2.3363 -0.0321
 4274SOL    HW224456   2.443   3.895   9.671  0.8432  1.9900 -2.0463
 4275SOL     OW24457   4.628   0.352   8.544 -0.2479 -0.3231  0.3914
 4275SOL    HW124458   4.632   0.377   8.452  3.1919 -0.1495  0.5832
 4275SOL    HW224459   4.571   0.275   8.535 -1.2218  0.5182 -0.5644
 4276SOL     OW24460   0.952   0.549   8.698 -0.1516 -0.5025  0.5616
 4276SOL    HW124461   0.965   0.587   8.612  0.7935 -0.7014  0.6165
 4276SOL    HW224462   0.872   0.586   8.734  0.3078 -0.2620  1.3469
 4277SOL     OW24463   3.092   3.832  13.846  0.3343 -0.3682  0.6223
 4277SOL    HW124464   3.045   3.853  13.765  1.6287 -0.7148 -0.2274
 4277SOL    HW224465   3.047   3.760  13.889 -0.1884  0.6001  1.7122
 4278SOL     OW24466   4.031   0.328   7.925  0.0916 -0.2880  0.2066
 4278SOL    HW124467   4.043   0.254   7.985  0.8052 -0.8031 -0.5653
 4278SOL    HW224468   4.005   0.292   7.841 -0.7345 -0.1067  0.3887
 4279SOL     OW24469   0.877   2.324  15.640  0.1991  0.4445 -0.4777
 4279SOL    HW124470   0.802   2.300  15.585 -1.7598 -1.2436  2.9170
 4279SOL    HW224471   0.837   2.332  15.726  0.5881 -0.3679 -0.2157
 4280SOL     OW24472   3.833   4.076   4.147 -0.0284 -1.0099  0.4734
 4280SOL    HW124473   3.834   4.140   4.076  0.6741 -0.3320  1.0868
 4280SOL    HW224474   3.928   4.071   4.157  0.1442 -0.2882 -0.8470
 4281SOL     OW24475   3.023   3.229  15.353 -0.1110 -0.3470  0.0502
 4281SOL    HW124476   2.973   3.168  15.407 -0.7182 -0.0604 -0.1870
 4281SOL    HW224477   2.964   3.246  15.280 -0.5600  0.8819  0.6990
 4282SOL     OW24478   2.885   2.664   3.029  0.3863 -0.1266 -0.0509
 4282SOL    HW124479   2.864   2.728   3.098 -0.6771  1.8220 -2.1863
 4282SOL    HW224480   2.889   2.594   3.094  0.2834  1.0432  1.2093
 4283SOL     OW24481   1.858   0.727  10.550  0.1942 -0.2490 -0.0112
 4283SOL    HW124482   1.811   0.807  10.525  0.4711 -0.4580 -1.1848
 4283SOL    HW224483   1.847   0.678  10.468  1.2416 -0.8867  0.2350
 4284SOL     OW24484   2.242   2.567  17.082  0.0502  0.3184 -0.1456
 4284SOL    HW124485   2.157   2.571  17.126  0.6138  2.1923  0.7805
 4284SOL    HW224486   2.238   2.486  17.031 -2.3721  1.1267 -1.2449
 4285SOL     OW24487   3.933   4.688  15.527 -0.3565 -0.6453  0.9467
 4285SOL    HW124488   3.935   0.001  15.608  2.1930  0.3357  0.2366
 4285SOL    HW224489   3.985   4.613  15.556 -0.0883 -1.0646 -0.6688
 4286SOL     OW24490   0.910   2.037   3.293  0.3346  0.2884 -0.2196
 4286SOL    HW124491   0.958   2.108   3.334  0.7357 -1.4782  2.3329
 4286SOL    HW224492   0.893   1.977   3.365 -0.0522 -0.3035 -0.7955
 4287SOL     OW24493   4.232   2.332  10.813  0.1152  0.1920 -0.2539
 4287SOL    HW124494   4.139   2.350  10.827  0.3433 -0.6890  2.3779
 4287SOL    HW224495   4.264   2.422  10.820  1.2968 -0.3823  1.8704
 4288SOL     OW24496   0.759   0.495   2.383  0.3465 -0.0343  0.1255
 4288SOL    HW124497   0.728   0.558   2.318 -0.5180 -1.1580 -0.5528
 4288SOL    HW224498   0.709   0.522   2.460  0.9827  0.9747  0.1866
 4289SOL     OW24499   0.405   1.603  10.166  0.4972  0.2723  0.2323
 4289SOL    HW124500   0.496   1.630  10.160  1.1703 -1.3372  3.0870
 4289SOL    HW224501   0.372   1.687  10.198  1.4129  1.3497 -1.7258
 4290SOL     OW24502   2.783   1.294   3.103  0.2729 -0.1983  0.3709
 4290SOL    HW124503   2.823   1.210   3.126 -0.6744 -0.5032  0.9324
 4290SOL    HW224504   2.829   1.354   3.162  1.3536 -0.2711 -0.4027
 4291SOL     OW24505   3.619   1.364   0.787  0.4870  0.2253  0.0583
 4291SOL    HW124506   3.602   1.354   0.881 -0.2034  1.4626  0.0660
 4291SOL    HW224507   3.658   1.450   0.778 -0.0971  0.4565 -0.2736
 4292SOL     OW24508   4.716   1.355   1.067  0.1909 -0.0144  0.2152
 4292SOL    HW124509   0.044   1.402   1.017 -0.9921 -0.1596 -1.5309
 4292SOL    HW224510   4.724   1.393   1.154 -1.6910  2.5066 -0.7078
 4293SOL     OW24511   1.037   2.142  15.494 -0.1712 -0.1042 -0.1524
 4293SOL    HW124512   1.006   2.207  15.556 -3.1293 -1.3526 -0.3168
 4293SOL    HW224513   1.116   2.191  15.471  1.2221 -1.8034  0.9612
 4294SOL     OW24514   0.673   2.125  13.676 -0.0623 -0.0851  0.0150
 4294SOL    HW124515   0.621   2.193  13.633  0.5478  0.8684  0.8098
 4294SOL    HW224516   0.751   2.171  13.705  0.7526 -2.1974  1.2087
 4295SOL     OW24517   1.082   2.114   6.825  0.0789 -0.1628 -0.8318
 4295SOL    HW124518   0.998   2.159   6.813  0.6128  0.2697 -2.9398
 4295SOL    HW224519   1.099   2.082   6.736  1.4933 -1.1371 -0.2045
 4296SOL     OW24520   2.703   3.122   3.322 -0.2685  0.8599 -0.5052
 4296SOL    HW124521   2.635   3.098   3.384  1.4563 -0.8962  0.6839
 4296SOL    HW224522   2.766   3.155   3.386  2.4270  0.6489 -3.0701
 4297SOL     OW24523   0.707   0.542   6.536 -0.4836  0.2760  0.2781
 4297SOL    HW124524   0.655   0.505   6.607  0.1743  0.5144  0.8715
 4297SOL    HW224525   0.633   0.585   6.492 -0.7265 -1.1949 -0.7771
 4298SOL     OW24526   0.580   0.792   3.659 -0.4839 -0.1523  0.0729
 4298SOL    HW124527   0.670   0.761   3.670  1.3100  4.1667 -2.6563
 4298SOL    HW224528   0.593   0.874   3.612  1.8213 -0.8233 -0.4550
 4299SOL     OW24529   0.098   2.759   3.586  0.7706 -0.3685  0.2168
 4299SOL    HW124530   0.011   2.783   3.554  0.2713 -0.2508  1.6762
 4299SOL    HW224531   0.076   2.670   3.613  2.2840 -0.4866  1.0686
 4300SOL     OW24532   4.060   1.406  14.878 -0.1835 -0.6061 -0.2600
 4300SOL    HW124533   4.144   1.411  14.833 -0.8971  3.0824 -1.1977
 4300SOL    HW224534   4.007   1.471  14.832  0.1055 -0.6120 -0.5997
 4301SOL     OW24535   2.391   0.915   3.431  0.3127  0.0150  0.6653
 4301SOL    HW124536   2.475   0.961   3.427  1.6393 -2.4833 -0.1667
 4301SOL    HW224537   2.381   0.875   3.344 -0.5475 -0.3427  0.9328
 4302SOL     OW24538   2.201   4.316   8.447 -0.0874 -0.7418 -0.4768
 4302SOL    HW124539   2.173   4.285   8.361 -3.6782 -0.5818  0.6596
 4302SOL    HW224540   2.206   4.409   8.426  1.3916 -0.4246  1.2085
 4303SOL     OW24541   0.505   2.126   5.180 -0.1314  0.1067  0.0644
 4303SOL    HW124542   0.459   2.191   5.233  0.3969  1.5946 -1.2852
 4303SOL    HW224543   0.452   2.052   5.210 -0.6866 -0.3254 -1.9914
 4304SOL     OW24544   0.151   2.529   3.907  0.1770  0.1573  0.1644
 4304SOL    HW124545   0.191   2.468   3.969  1.9686  1.3991  0.2058
 4304SOL    HW224546   0.063   2.522   3.945 -0.0078 -0.0688 -0.3025
 4305SOL     OW24547   3.445   4.529   6.701  0.4968  0.0844  0.1978
 4305SOL    HW124548   3.404   4.522   6.787  1.7033 -0.2264  0.7591
 4305SOL    HW224549   3.505   4.604   6.704  0.3993  0.3071 -2.8900
 4306SOL     OW24550   4.602   1.892   9.265  0.6489  0.1667 -0.0423
 4306SOL    HW124551   4.566   1.979   9.285 -0.4166 -0.6475  1.5841
 4306SOL    HW224552   4.636   1.906   9.176 -0.7854 -2.3564 -0.9822
 4307SOL     OW24553   4.562   1.622   3.399  0.5673  0.1492  1.0927
 4307SOL    HW124554   4.589   1.577   3.479 -0.9829 -1.3535  0.7621
 4307SOL    HW224555   4.585   1.545   3.347  0.1783  0.6377  0.1908
 4308SOL     OW24556   2.712   2.527   5.178  0.2997  0.1249  0.2456
 4308SOL    HW124557   2.763   2.502   5.101  0.0710  0.1074  0.1000
 4308SOL    HW224558   2.692   2.443   5.219 -0.2837  0.1263 -0.0360
 4309SOL     OW24559   1.381   3.742   8.474  0.2551  0.0597  0.1119
 4309SOL    HW124560   1.457   3.685   8.461 -0.0718 -0.3416  0.0124
 4309SOL    HW224561   1.299   3.694   8.477  0.4854 -0.5110 -2.5696
 4310SOL     OW24562   0.481   3.201  15.663  0.4491 -0.6316  0.4432
 4310SOL    HW124563   0.460   3.277  15.717 -2.6764 -1.8327  0.9261
 4310SOL    HW224564   0.464   3.242  15.579 -1.4881 -2.1912  0.0653
 4311SOL     OW24565   1.716   2.253   2.916 -1.1275 -0.8207 -0.1709
 4311SOL    HW124566   1.687   2.170   2.878  0.3246 -0.5711 -1.8313
 4311SOL    HW224567   1.808   2.260   2.891 -0.1005 -0.7910  3.5371
 4312SOL     OW24568   3.821   4.214   4.400 -0.7268 -0.1609  0.4147
 4312SOL    HW124569   3.782   4.181   4.319 -1.6921  0.5395  0.6035
 4312SOL    HW224570   3.899   4.158   4.398 -2.5600 -2.7687  2.6342
 4313SOL     OW24571   4.595   3.950   5.105 -0.0886  0.1281 -0.0682
 4313SOL    HW124572   4.533   3.933   5.175 -1.6620 -2.7273 -2.1729
 4313SOL    HW224573   4.677   3.979   5.145 -0.0511 -1.6145  1.0642
 4314SOL     OW24574   0.902   1.478  13.539  0.3207  0.1431 -0.4249
 4314SOL    HW124575   0.835   1.515  13.598 -0.4359  0.2632 -1.3516
 4314SOL    HW224576   0.853   1.403  13.506  0.3169  0.3866 -0.9839
 4315SOL     OW24577   0.611   0.805  16.786 -0.7834  0.3013  0.0682
 4315SOL    HW124578   0.553   0.866  16.831 -2.2082 -1.6161  0.8131
 4315SOL    HW224579   0.579   0.716  16.797  0.5129 -0.0383  1.0604
 4316SOL     OW24580   2.863   0.193   2.361  0.0539 -0.7546 -0.3376
 4316SOL    HW124581   2.876   0.235   2.277  1.2044 -0.1937  0.1211
 4316SOL    HW224582   2.779   0.149   2.348 -1.3065  0.9675  2.6497
 4317SOL     OW24583   1.846   0.268   4.233 -0.4033  0.3704  0.1036
 4317SOL    HW124584   1.875   0.181   4.261 -0.4545  0.4868  0.5212
 4317SOL    HW224585   1.917   0.306   4.181 -0.9910  0.4190 -0.6669
 4318SOL     OW24586   2.284   1.621   8.377 -0.1005 -0.4245 -0.6921
 4318SOL    HW124587   2.315   1.578   8.457 -4.3080 -0.8411  0.7111
 4318SOL    HW224588   2.221   1.681   8.417  0.4878 -0.3861  0.1496
 4319SOL     OW24589   4.476   2.375   5.520  0.2746  0.6234  0.4064
 4319SOL    HW124590   4.385   2.401   5.528  0.2498  1.0365 -1.1873
 4319SOL    HW224591   4.515   2.445   5.572  1.0156  0.6351 -0.1677
 4320SOL     OW24592   4.142   4.419   5.062 -0.1902  0.2473  0.0269
 4320SOL    HW124593   4.211   4.438   5.125 -0.7920  1.0522  0.4456
 4320SOL    HW224594   4.105   4.350   5.118 -0.3805  0.0049 -0.3969
 4321SOL     OW24595   0.381   0.989  16.787 -0.0544  0.7151  0.2133
 4321SOL    HW124596   0.303   0.939  16.761 -1.3266  1.5271  2.5179
 4321SOL    HW224597   0.358   1.071  16.744  4.6963  0.9284 -1.9046
 4322SOL     OW24598   4.460   0.275  10.476 -0.1114 -0.1246 -0.2123
 4322SOL    HW124599   4.490   0.363  10.451  0.1054  0.1204  0.9039
 4322SOL    HW224600   4.527   0.221  10.434  1.4362  2.6035 -1.2380
 4323SOL     OW24601   1.315   0.680   8.458 -0.8510  0.0760 -0.1399
 4323SOL    HW124602   1.318   0.586   8.473 -1.1872  0.0053 -0.5449
 4323SOL    HW224603   1.232   0.702   8.500  0.3995  0.2181  2.2699
 4324SOL     OW24604   4.537   1.681   3.907  0.5157 -0.3942  0.7736
 4324SOL    HW124605   4.562   1.633   3.827  1.0533  4.8820 -2.2256
 4324SOL    HW224606   4.544   1.611   3.971  2.8412  2.0795  3.2491
 4325SOL     OW24607   2.589   4.027   9.173  0.4700  0.4948  0.1295
 4325SOL    HW124608   2.545   4.109   9.194  1.2511  1.0229 -0.2674
 4325SOL    HW224609   2.657   4.041   9.239  0.8474  1.2970 -0.4271
 4326SOL     OW24610   2.644   0.256   8.621 -0.0382  0.0449 -0.0454
 4326SOL    HW124611   2.594   0.331   8.652 -0.0144 -0.1884  0.5470
 4326SOL    HW224612   2.727   0.298   8.597  0.1599 -1.1365 -1.4452
 4327SOL     OW24613   0.047   0.665   5.588 -0.5807  0.0235 -0.2856
 4327SOL    HW124614   4.701   0.674   5.546  0.0983 -1.4695 -1.9471
 4327SOL    HW224615   0.073   0.573   5.577 -1.8279 -0.2247 -1.1071
 4328SOL     OW24616   1.788   0.138   5.110 -0.3864 -0.4403  0.3003
 4328SOL    HW124617   1.758   0.080   5.040  0.3574  0.5140 -0.7974
 4328SOL    HW224618   1.821   0.215   5.064 -0.6535 -1.1439 -1.0562
 4329SOL     OW24619   4.641   4.066  10.808  0.0555 -0.0730 -0.7040
 4329SOL    HW124620   4.634   4.020  10.892  1.4315  1.0591  0.0393
 4329SOL    HW224621   4.731   4.047  10.780  0.0364  0.7006 -1.2870
 4330SOL     OW24622   2.114   4.488   9.431 -0.7623 -0.5214 -0.8236
 4330SOL    HW124623   2.085   4.578   9.415 -1.7048 -0.7629 -0.4919
 4330SOL    HW224624   2.034   4.443   9.405 -1.0460  1.0506 -2.6780
 4331SOL     OW24625   4.040   0.620   1.919 -0.3278  0.1319  0.1053
 4331SOL    HW124626   4.062   0.561   1.847  0.7347  0.6866 -0.0292
 4331SOL    HW224627   3.944   0.616   1.915 -0.2663 -0.4640 -0.5726
 4332SOL     OW24628   2.989   0.840   2.105  0.2891 -0.3933  0.0817
 4332SOL    HW124629   2.894   0.852   2.093  0.3623  0.5973  0.4748
 4332SOL    HW224630   2.984   0.746   2.093 -2.1736 -0.1019 -1.2921
 4333SOL     OW24631   1.913   2.714  16.021 -0.3357 -0.3932 -0.0806
 4333SOL    HW124632   1.980   2.760  15.969  0.3298  0.8375  1.8754
 4333SOL    HW224633   1.855   2.790  16.009 -1.0647 -0.7463  1.2389
 4334SOL     OW24634   1.732   2.821   2.622  0.3902 -0.8987 -0.8875
 4334SOL    HW124635   1.818   2.832   2.583  0.3542  1.0774 -0.4361
 4334SOL    HW224636   1.745   2.740   2.671  1.7463 -1.1804 -1.7194
 4335SOL     OW24637   2.081   2.818   3.216  0.0016  0.3512 -0.1598
 4335SOL    HW124638   2.022   2.750   3.247 -1.6734  1.7442 -0.3296
 4335SOL    HW224639   2.141   2.763   3.165  0.5547  1.3192 -0.5514
 4336SOL     OW24640   4.526   2.010   8.074  0.2404  0.4402  0.0301
 4336SOL    HW124641   4.594   2.024   8.008 -1.1010 -0.5132 -1.5576
 4336SOL    HW224642   4.545   2.085   8.130  0.8978 -0.3038  0.8109
 4337SOL     OW24643   4.604   0.088   8.663  0.1565 -0.2386 -0.4866
 4337SOL    HW124644   4.683   0.079   8.610  2.7249  3.8512  2.5857
 4337SOL    HW224645   4.539   0.065   8.596  1.8307  1.1464 -2.5859
 4338SOL     OW24646   1.139   1.903   4.052 -0.1126 -0.0149  0.0924
 4338SOL    HW124647   1.214   1.845   4.041  0.4188  0.8035 -0.6199
 4338SOL    HW224648   1.171   1.950   4.129  0.3084  1.7479 -1.1489
 4339SOL     OW24649   0.062   2.231   3.863  0.6450 -0.1005  0.5285
 4339SOL    HW124650   0.049   2.318   3.899 -1.6939 -0.3921  0.3569
 4339SOL    HW224651   0.154   2.214   3.885  0.7285 -0.9200 -0.4132
 4340SOL     OW24652   4.068   3.944  15.496 -0.0387 -0.5227 -0.4698
 4340SOL    HW124653   3.983   3.939  15.541  0.7882 -0.7003  1.0911
 4340SOL    HW224654   4.127   3.903  15.560  1.4658 -0.3487 -1.7404
 4341SOL     OW24655   0.053   4.602   7.058 -0.2249 -0.6094  0.1272
 4341SOL    HW124656   0.116   4.569   6.994 -1.1106 -1.6532 -0.2193
 4341SOL    HW224657   0.096   4.684   7.080 -0.7560 -0.5694  1.0340
 4342SOL     OW24658   3.455   4.068   6.217 -0.4874 -0.8101 -0.0687
 4342SOL    HW124659   3.402   4.056   6.296 -2.9335  0.3559 -1.5504
 4342SOL    HW224660   3.547   4.065   6.244 -0.6307 -1.1946  0.3740
 4343SOL     OW24661   1.502   0.554   7.335  0.5839  0.4134  0.1997
 4343SOL    HW124662   1.580   0.548   7.280  0.6495  0.7539  0.2542
 4343SOL    HW224663   1.422   0.565   7.283 -0.2161 -2.9338  0.7479
 4344SOL     OW24664   4.094   0.185  13.377  0.0724  0.0801  0.3872
 4344SOL    HW124665   4.075   0.124  13.306  0.4890  1.7548 -1.1520
 4344SOL    HW224666   4.106   0.125  13.450  1.8351 -0.8015 -0.6320
 4345SOL     OW24667   4.333   1.077   5.633 -0.0571  0.2447  0.2975
 4345SOL    HW124668   4.375   1.148   5.681 -1.2080  1.9514 -1.2731
 4345SOL    HW224669   4.399   1.036   5.577 -1.0951 -0.4066 -0.4461
 4346SOL     OW24670   4.652   3.912  12.145  0.2655 -0.7960  0.7803
 4346SOL    HW124671   4.620   4.002  12.150 -1.6819 -1.3926 -1.2192
 4346SOL    HW224672   4.737   3.907  12.190 -0.5829 -2.6524  2.1316
 4347SOL     OW24673   3.042   1.955  11.976 -0.1198 -0.1443  0.8123
 4347SOL    HW124674   3.054   2.020  11.907  1.2037  0.4317  1.5695
 4347SOL    HW224675   3.078   1.880  11.929 -1.3791 -0.1635 -0.1057
 4348SOL     OW24676   0.141   0.563  10.076 -0.1109  0.0628  1.1717
 4348SOL    HW124677   0.185   0.585  10.158  1.6931  0.6675  0.0454
 4348SOL    HW224678   0.123   0.470  10.089  0.4263 -0.6415 -3.0503
 4349SOL     OW24679   0.910   3.254   6.087  0.4166 -0.0765  0.2819
 4349SOL    HW124680   0.906   3.212   6.173 -2.0956 -0.4450  0.0112
 4349SOL    HW224681   0.828   3.221   6.049  0.4596 -1.0145  0.9966
 4350SOL     OW24682   1.736   4.351   3.032  0.2313 -0.2662 -0.0243
 4350SOL    HW124683   1.681   4.298   2.975 -0.3506  0.8464 -0.4911
 4350SOL    HW224684   1.688   4.427   3.065  0.4958  0.6681 -1.8059
 4351SOL     OW24685   4.012   2.012   6.087  0.0318  0.2419 -0.0086
 4351SOL    HW124686   4.099   2.003   6.049 -0.7634 -1.8837 -1.3698
 4351SOL    HW224687   3.978   2.093   6.048  1.1045  0.9679  0.5743
 4352SOL     OW24688   0.142   0.159   1.776  0.4077  0.4309  0.2815
 4352SOL    HW124689   0.191   0.100   1.719  0.8389  0.9159  0.1549
 4352SOL    HW224690   0.050   0.152   1.751  0.1441  0.8935  1.0908
 4353SOL     OW24691   0.185   1.904  14.960 -0.1746 -0.0364  0.2257
 4353SOL    HW124692   0.209   1.876  15.049 -1.3923  0.7515  0.7919
 4353SOL    HW224693   0.271   1.907  14.916  0.1028 -1.4135  0.6553
 4354SOL     OW24694   0.897   4.339   7.252 -0.1452 -0.4815 -0.4430
 4354SOL    HW124695   0.894   4.267   7.314 -2.4245 -1.0976 -1.2591
 4354SOL    HW224696   0.975   4.318   7.201  0.3328  1.0428 -0.3539
 4355SOL     OW24697   3.196   3.831   4.303  0.1775 -0.0368 -0.1905
 4355SOL    HW124698   3.140   3.863   4.373 -1.5845 -1.7866 -0.8034
 4355SOL    HW224699   3.168   3.741   4.288  2.0761 -0.6676 -0.0105
 4356SOL     OW24700   3.613   2.605   6.415  0.1783  0.0275 -0.0499
 4356SOL    HW124701   3.563   2.608   6.334  0.1374  1.3130  0.0261
 4356SOL    HW224702   3.543   2.635   6.474 -1.4030  0.7141 -2.2823
 4357SOL     OW24703   1.753   2.283  17.167 -0.5784 -0.3629 -0.3760
 4357SOL    HW124704   1.844   2.256  17.154  0.0594  0.7283  1.7501
 4357SOL    HW224705   1.740   2.341  17.093  0.2527  0.9937  0.5459
 4358SOL     OW24706   4.607   2.971   0.923 -0.1736 -0.1443 -0.3743
 4358SOL    HW124707   4.654   2.898   0.883 -2.5094 -1.5000 -0.6400
 4358SOL    HW224708   4.613   3.020   0.841  2.1517  2.1111  1.1549
 4359SOL     OW24709   2.232   4.154  10.270  0.1875  0.5314  0.6383
 4359SOL    HW124710   2.141   4.131  10.253  0.5931  0.0563 -0.9039
 4359SOL    HW224711   2.246   4.246  10.249  0.1592 -0.1917 -2.5445
 4360SOL     OW24712   2.722   3.118   0.874 -0.3450  0.1993 -0.7739
 4360SOL    HW124713   2.698   3.184   0.939 -1.7785 -0.4318 -0.6591
 4360SOL    HW224714   2.795   3.168   0.837  0.2672  0.1657  0.4179
 4361SOL     OW24715   3.124   2.430  11.861  0.9451  1.0048 -0.0248
 4361SOL    HW124716   3.078   2.347  11.849 -0.7313  1.9256  0.1079
 4361SOL    HW224717   3.191   2.415  11.928  1.0721 -0.3437 -0.4465
 4362SOL     OW24718   4.253   4.179   8.088  0.4024  0.0375  0.2172
 4362SOL    HW124719   4.183   4.115   8.100  1.1465 -0.8551 -0.1996
 4362SOL    HW224720   4.330   4.123   8.101  0.8065  0.2705 -1.1680
 4363SOL     OW24721   1.467   4.310   5.713 -0.0274  0.3553 -0.1143
 4363SOL    HW124722   1.461   4.387   5.770 -0.6869  2.2651 -2.7787
 4363SOL    HW224723   1.496   4.343   5.629 -0.6586  1.4231  0.0867
 4364SOL     OW24724   2.397   0.611   2.713 -0.1792 -0.2429  0.2728
 4364SOL    HW124725   2.341   0.576   2.643 -1.1674  1.2546  0.3133
 4364SOL    HW224726   2.387   0.543   2.779 -0.8942 -0.2561  0.1558
 4365SOL     OW24727   3.899   2.912   8.073 -0.0034 -0.1963  0.1631
 4365SOL    HW124728   3.900   2.845   8.005  0.7480  0.8601 -0.8682
 4365SOL    HW224729   3.855   2.992   8.043  2.4214  0.3948 -1.7753
 4366SOL     OW24730   4.660   3.839  10.992 -0.0717  0.3975 -0.0558
 4366SOL    HW124731   4.669   3.784  10.913  2.6233 -0.6843  0.9936
 4366SOL    HW224732   4.569   3.821  11.013 -0.3705  0.7145 -1.0836
 4367SOL     OW24733   2.554   3.222   5.238 -0.0153 -0.3849 -0.2584
 4367SOL    HW124734   2.639   3.258   5.265  0.6963 -1.0697 -1.5646
 4367SOL    HW224735   2.570   3.133   5.206 -1.0749 -0.4127 -0.6819
 4368SOL     OW24736   1.786   4.265   8.794 -0.2034  0.4175 -0.2844
 4368SOL    HW124737   1.758   4.334   8.734 -1.3165  0.4815  0.3049
 4368SOL    HW224738   1.874   4.248   8.760  1.1327 -0.1805  3.4801
 4369SOL     OW24739   3.417   2.066   7.908 -0.1021  0.4572  0.0706
 4369SOL    HW124740   3.373   2.082   7.991 -1.0405 -0.3301 -0.2730
 4369SOL    HW224741   3.340   2.035   7.860  1.7129 -2.4460 -0.9761
 4370SOL     OW24742   4.583   4.433   0.071 -0.2238  0.3827 -0.7301
 4370SOL    HW124743   4.631   4.353   0.050 -1.8355 -0.3284 -1.7633
 4370SOL    HW224744   4.566   4.434   0.165 -0.4358 -1.5114 -0.7578
 4371SOL     OW24745   2.193   2.316   5.823  0.1729  0.5389  0.1422
 4371SOL    HW124746   2.207   2.302   5.917 -0.5968 -1.2995 -0.0303
 4371SOL    HW224747   2.109   2.273   5.808 -0.3340  1.7622 -0.5478
 4372SOL     OW24748   0.314   3.425   3.381  0.3277 -0.9138  0.7848
 4372SOL    HW124749   0.342   3.514   3.402 -0.4180 -0.0593 -1.7962
 4372SOL    HW224750   0.350   3.377   3.455  2.7667  0.0634  0.2424
 4373SOL     OW24751   1.066   3.686   9.840 -0.4484  0.1389  0.3495
 4373SOL    HW124752   1.142   3.685   9.781 -0.0453 -1.8596  0.9228
 4373SOL    HW224753   1.116   3.700   9.920 -1.6711  1.5917  0.8681
 4374SOL     OW24754   2.422   2.807   2.846 -0.7650  0.1436 -0.4632
 4374SOL    HW124755   2.506   2.761   2.838 -0.5890 -0.0244  2.1265
 4374SOL    HW224756   2.446   2.892   2.885 -0.9866 -0.3061  0.6523
 4375SOL     OW24757   2.246   3.725  17.727  0.2035 -0.6364 -0.1665
 4375SOL    HW124758   2.175   3.788  17.736  0.5045 -0.4465  0.8385
 4375SOL    HW224759   2.328   3.765   0.002  0.1320 -1.1120  0.7291
 4376SOL     OW24760   0.969   3.409   4.328  0.0594 -0.4924 -0.0872
 4376SOL    HW124761   1.048   3.361   4.305  0.0714  0.5879 -2.3280
 4376SOL    HW224762   0.996   3.433   4.417  1.5597 -1.0782 -0.3908
 4377SOL     OW24763   0.092   1.553   3.988  0.2625 -1.0350  0.3080
 4377SOL    HW124764   0.129   1.640   4.000  0.7730 -0.9722 -1.6819
 4377SOL    HW224765   0.023   1.545   4.054 -0.8830  2.6535 -0.4317
 4378SOL     OW24766   1.739   0.074  12.529  0.0139 -0.1788  0.2557
 4378SOL    HW124767   1.699   0.001  12.577 -2.3467  1.7480  1.2443
 4378SOL    HW224768   1.743   0.029  12.444 -0.5977  2.3675 -1.1330
 4379SOL     OW24769   1.600   3.661   7.411  0.6155  0.3100 -0.1826
 4379SOL    HW124770   1.551   3.681   7.331 -1.7555 -2.0509  0.6931
 4379SOL    HW224771   1.683   3.701   7.383 -0.4844  1.4878 -1.7281
 4380SOL     OW24772   4.520   2.558   3.081 -0.2655  0.1826 -0.3729
 4380SOL    HW124773   4.600   2.598   3.115 -1.4410  2.6861 -0.5919
 4380SOL    HW224774   4.520   2.599   2.995 -0.6107  1.0735  0.0518
 4381SOL     OW24775   4.268   2.814   8.408  0.5588 -0.0615 -0.0776
 4381SOL    HW124776   4.177   2.839   8.388  0.7041 -1.7509 -2.7452
 4381SOL    HW224777   4.302   2.844   8.324 -0.6325 -0.3480 -0.6662
 4382SOL     OW24778   0.907   3.326   7.604  0.2036 -0.1958  0.4532
 4382SOL    HW124779   0.914   3.407   7.553  1.1145  0.1843  1.1929
 4382SOL    HW224780   0.814   3.302   7.603  0.3303 -0.7150  0.9791
 4383SOL     OW24781   3.996   3.716  12.173 -0.2742 -0.1171  0.3731
 4383SOL    HW124782   3.909   3.710  12.211 -0.9718 -1.1386 -1.4207
 4383SOL    HW224783   3.966   3.727  12.083  0.2537 -0.3352  0.1715
 4384SOL     OW24784   0.280   0.251   1.270 -0.5681 -0.3048 -0.0043
 4384SOL    HW124785   0.352   0.314   1.271 -0.4602 -0.4487  1.0641
 4384SOL    HW224786   0.200   0.295   1.299 -0.5332 -0.7496  0.7544
 4385SOL     OW24787   2.364   0.430   3.691  0.0193 -0.4044  0.1353
 4385SOL    HW124788   2.350   0.505   3.632  0.5070 -0.8743 -0.5714
 4385SOL    HW224789   2.430   0.466   3.751 -0.2375 -0.4580  0.4460
 4386SOL     OW24790   1.079   1.328  17.543 -0.2618  0.2409 -0.1930
 4386SOL    HW124791   1.039   1.332  17.630 -2.0096  0.3505 -1.0060
 4386SOL    HW224792   1.095   1.421  17.525 -0.7083 -0.0625 -2.0712
 4387SOL     OW24793   1.789   1.950   7.782 -0.5859 -0.1675 -0.2808
 4387SOL    HW124794   1.699   1.935   7.811 -1.1299  0.8294 -1.4071
 4387SOL    HW224795   1.810   1.862   7.750  0.4158 -0.0537  0.0734
 4388SOL     OW24796   2.591   1.576  12.753  0.2382  0.4390  0.0021
 4388SOL    HW124797   2.638   1.654  12.784  0.1207  1.2283 -1.7726
 4388SOL    HW224798   2.553   1.612  12.672  3.1551  1.6606 -0.8363
 4389SOL     OW24799   0.236   0.038   2.827 -0.3067  0.4325  0.4877
 4389SOL    HW124800   0.231   0.120   2.779  0.3053  0.6139  0.7263
 4389SOL    HW224801   0.244   4.713   2.756  0.4257 -1.4579  2.2387
 4390SOL     OW24802   1.642   3.605  16.371 -0.4020  0.2605 -0.6228
 4390SOL    HW124803   1.565   3.558  16.338 -0.3717 -0.6944  0.7093
 4390SOL    HW224804   1.675   3.645  16.290  0.7961  3.0429  1.2533
 4391SOL     OW24805   1.933   0.317   6.112  0.4922 -0.6558  0.5398
 4391SOL    HW124806   1.877   0.335   6.036 -0.1529 -1.5819  0.7920
 4391SOL    HW224807   1.949   0.404   6.148 -0.2313 -0.7191  1.0200
 4392SOL     OW24808   2.824   2.242  10.473 -0.1417 -0.4323 -0.4768
 4392SOL    HW124809   2.746   2.224  10.420 -0.5423 -0.6433  0.1840
 4392SOL    HW224810   2.895   2.275  10.418  0.8870 -0.6912  0.6990
 4393SOL     OW24811   2.937   1.600   3.555  0.1537 -0.5988  0.3395
 4393SOL    HW124812   2.916   1.619   3.464  1.1491 -1.0661  0.0150
 4393SOL    HW224813   3.032   1.587   3.559 -0.0588 -0.8481  4.4035
 4394SOL     OW24814   4.434   4.579  14.358  0.1004  0.4858 -0.2347
 4394SOL    HW124815   4.434   4.488  14.326  0.0770 -0.4390  2.4587
 4394SOL    HW224816   4.348   4.613  14.335  0.7212  1.7916 -0.6344
 4395SOL     OW24817   4.032   1.070   9.090  0.9241  0.0847 -0.0988
 4395SOL    HW124818   4.054   1.057   9.183 -0.0915 -1.3269 -0.0516
 4395SOL    HW224819   3.938   1.053   9.090  0.7713  0.9551 -1.4902
 4396SOL     OW24820   1.119   4.622   4.654  0.2897  0.9070 -0.1504
 4396SOL    HW124821   1.035   4.653   4.689 -0.6190 -0.5182 -1.0287
 4396SOL    HW224822   1.092   4.646   4.565 -2.1391  0.3060  0.4011
 4397SOL     OW24823   0.792   1.288   4.189  0.4662 -0.1641 -0.2230
 4397SOL    HW124824   0.830   1.244   4.266 -0.5576 -1.8293 -0.6584
 4397SOL    HW224825   0.791   1.380   4.215  1.1033  0.2394 -1.6406
 4398SOL     OW24826   0.995   4.643   1.815  0.2150 -0.2589  0.4566
 4398SOL    HW124827   0.903   4.629   1.792  0.5472  1.1037 -1.6711
 4398SOL    HW224828   1.031   4.554   1.818 -2.7336 -1.5320 -1.8781
 4399SOL     OW24829   1.182   0.156   5.839  0.5476 -0.1384 -0.3989
 4399SOL    HW124830   1.166   0.144   5.933  0.1009 -0.1261 -0.4747
 4399SOL    HW224831   1.276   0.175   5.843  0.6673 -0.1986 -3.1827
 4400SOL     OW24832   0.307   3.498   5.081  0.2452  0.3818  0.2954
 4400SOL    HW124833   0.339   3.430   5.022 -1.4091  0.4294 -0.6626
 4400SOL    HW224834   0.390   3.544   5.081  0.1439  0.5634  0.4164
 4401SOL     OW24835   2.366   4.433   5.902 -0.0030  0.6555 -0.0030
 4401SOL    HW124836   2.316   4.405   5.979 -1.4700  2.0895 -0.4194
 4401SOL    HW224837   2.326   4.386   5.828  0.7037  0.3938 -0.2142
 4402SOL     OW24838   1.131   3.999   0.709  0.1768  0.5201 -0.0318
 4402SOL    HW124839   1.071   4.072   0.725 -0.3741  0.1856 -0.5904
 4402SOL    HW224840   1.215   4.033   0.742  0.1224  1.3861 -0.7885
 4403SOL     OW24841   4.176   3.541   6.573 -0.9808  0.6709 -0.4316
 4403SOL    HW124842   4.246   3.606   6.574  2.1015 -2.6663 -0.5810
 4403SOL    HW224843   4.228   3.461   6.564  0.3631  1.5355 -0.3730
 4404SOL     OW24844   1.203   0.223   2.150  0.4706  0.1658  0.1606
 4404SOL    HW124845   1.175   0.134   2.126  1.4602 -0.0725 -0.1110
 4404SOL    HW224846   1.124   0.274   2.129  1.4470  1.3130 -0.7317
 4405SOL     OW24847   0.074   2.851   1.145 -0.2097 -0.1043  0.3307
 4405SOL    HW124848   0.105   2.776   1.195  1.1169  1.1978  1.4443
 4405SOL    HW224849   0.081   2.822   1.054  1.7864 -1.1327  0.8054
 4406SOL     OW24850   3.139   0.024   2.165  0.7595  0.7263  0.4322
 4406SOL    HW124851   3.209   4.698   2.157  1.0540  0.9657  1.1208
 4406SOL    HW224852   3.148   0.029   2.260  0.3132  1.1964  0.4463
 4407SOL     OW24853   4.660   2.164   7.336  0.4344 -0.1218  0.2110
 4407SOL    HW124854   4.716   2.132   7.265  0.1907  1.8688 -0.8698
 4407SOL    HW224855   4.729   2.219   7.371  0.7094  0.3504 -1.0950
 4408SOL     OW24856   1.166   0.077   5.499  0.0481  0.2505  0.4323
 4408SOL    HW124857   1.187   0.165   5.530  0.9402 -0.0799  0.7871
 4408SOL    HW224858   1.072   0.090   5.509 -0.3021 -0.0638 -2.6877
 4409SOL     OW24859   0.348   1.920  15.486 -0.0738  0.5235 -1.1405
 4409SOL    HW124860   0.295   1.953  15.558  0.7573  1.5789 -1.0242
 4409SOL    HW224861   0.431   1.956  15.515 -0.0373 -1.0254  0.6304
 4410SOL     OW24862   2.454   4.194   4.762 -0.1700  0.4749  0.6960
 4410SOL    HW124863   2.503   4.163   4.838 -1.1350  2.2344  2.0483
 4410SOL    HW224864   2.513   4.260   4.727  1.2117 -1.0359  0.2041
 4411SOL     OW24865   4.516   4.505   4.992  0.2655 -0.2893 -0.0586
 4411SOL    HW124866   4.441   4.466   4.945  2.0173 -3.0099 -0.6215
 4411SOL    HW224867   4.570   4.428   5.010 -0.1403 -0.5546  0.0438
 4412SOL     OW24868   3.720   4.168   4.651 -0.3728  0.0965 -0.2158
 4412SOL    HW124869   3.665   4.100   4.612  1.2918 -2.9512  2.7292
 4412SOL    HW224870   3.767   4.203   4.574  0.7763 -1.5425 -0.2650
 4413SOL     OW24871   2.993   2.824   4.227 -0.2051  0.4584  0.0625
 4413SOL    HW124872   2.943   2.887   4.175 -0.1532 -0.3095 -0.9067
 4413SOL    HW224873   2.991   2.859   4.317 -1.4045  0.4671  0.0281
 4414SOL     OW24874   2.967   0.090   7.795  0.7056 -0.0441  0.3955
 4414SOL    HW124875   3.053   0.055   7.821 -0.2137 -1.9329  0.9236
 4414SOL    HW224876   2.989   0.183   7.792 -0.9057  0.4081  2.4807
 4415SOL     OW24877   0.490   0.277  14.673  0.0693  0.0913 -0.2313
 4415SOL    HW124878   0.527   0.205  14.623 -2.2314 -0.5490 -0.9758
 4415SOL    HW224879   0.407   0.237  14.700  0.6103 -0.9296 -0.0798
 4416SOL     OW24880   1.491   2.829   2.468 -0.4404  0.2002  0.2944
 4416SOL    HW124881   1.562   2.830   2.532 -1.0099 -0.5615  0.9333
 4416SOL    HW224882   1.511   2.755   2.411 -0.6822  0.2595  0.1329
 4417SOL     OW24883   1.478   1.593   6.411 -0.3886  0.1627  0.0456
 4417SOL    HW124884   1.458   1.621   6.500  1.8560  1.2231  0.2171
 4417SOL    HW224885   1.570   1.620   6.411 -0.1153 -0.7564  0.4474
 4418SOL     OW24886   0.975   4.542   4.412 -0.0631  0.1813 -0.1011
 4418SOL    HW124887   0.978   4.463   4.466  0.9990  0.2605 -0.0447
 4418SOL    HW224888   1.031   4.510   4.342 -1.7050 -2.2830 -0.2787
 4419SOL     OW24889   0.128   2.351   2.395  0.7182  0.1655  0.1995
 4419SOL    HW124890   0.192   2.394   2.452  0.4788  0.0303  0.5642
 4419SOL    HW224891   0.135   2.263   2.432 -0.8657 -0.5156 -1.1704
 4420SOL     OW24892   3.079   1.040   6.554 -0.3750  0.0902  0.0836
 4420SOL    HW124893   3.108   0.986   6.480 -0.3399 -2.5905  2.0466
 4420SOL    HW224894   3.124   0.993   6.625  0.3417 -1.2179 -1.2342
 4421SOL     OW24895   4.000   3.971  11.401 -0.3291  0.7599 -0.2656
 4421SOL    HW124896   3.973   3.927  11.482  1.0177  3.1863  1.4889
 4421SOL    HW224897   3.929   3.934  11.349 -0.6069 -1.3966  1.6160
 4422SOL     OW24898   3.124   1.966   5.360 -0.1781 -1.0665  0.0786
 4422SOL    HW124899   3.103   1.913   5.437  3.1714 -1.5647  0.6771
 4422SOL    HW224900   3.045   1.947   5.309 -1.6309  0.0542  1.9105
 4423SOL     OW24901   2.670   0.253   0.915 -0.1329  0.1136 -0.3233
 4423SOL    HW124902   2.611   0.299   0.975 -0.9531 -2.6027  0.9104
 4423SOL    HW224903   2.752   0.240   0.961 -0.1454 -0.0422 -0.3446
 4424SOL     OW24904   2.980   0.091   9.045 -0.0965  0.7227 -0.1953
 4424SOL    HW124905   2.941   0.178   9.046 -1.0970  0.2194  3.8208
 4424SOL    HW224906   3.007   0.082   9.137  0.8158 -0.9519 -0.6230
 4425SOL     OW24907   3.651   2.076  11.780  0.4441 -0.1437  0.0255
 4425SOL    HW124908   3.618   2.057  11.867  2.2084  0.6113  0.8713
 4425SOL    HW224909   3.725   2.137  11.790 -0.3845  0.4173  2.6481
 4426SOL     OW24910   1.749   2.016   2.553  0.2437 -0.3759  0.5439
 4426SOL    HW124911   1.697   1.937   2.535  0.7647 -0.3983 -0.8837
 4426SOL    HW224912   1.733   2.040   2.644  0.2174 -1.0343  0.7166
 4427SOL     OW24913   3.455   3.648   2.609  0.1633  0.0508 -0.1452
 4427SOL    HW124914   3.500   3.565   2.623 -0.8881 -0.6230 -0.7604
 4427SOL    HW224915   3.362   3.626   2.603  0.2952 -0.7134  0.5519
 4428SOL     OW24916   2.225   4.064   2.693 -0.2774 -0.4623  0.0111
 4428SOL    HW124917   2.218   4.131   2.761 -0.0964 -0.1677 -0.2584
 4428SOL    HW224918   2.264   3.991   2.742  0.1043  0.0796  0.5164
 4429SOL     OW24919   4.649   0.735  10.128 -0.0948  0.3620  0.4406
 4429SOL    HW124920   4.644   0.812  10.072 -1.1054  1.3863  1.9478
 4429SOL    HW224921   4.735   0.694  10.116 -1.1134 -1.5504 -0.3112
 4430SOL     OW24922   4.297   3.860   6.769 -0.1129 -0.1320 -0.1849
 4430SOL    HW124923   4.283   3.928   6.704 -0.7264  0.1667  0.2587
 4430SOL    HW224924   4.219   3.885   6.819  0.4575  2.4079 -0.6118
 4431SOL     OW24925   1.964   3.456   7.322 -0.4353  0.3865  0.1438
 4431SOL    HW124926   2.034   3.391   7.318  0.6792  1.5534  0.8454
 4431SOL    HW224927   2.008   3.540   7.309  1.8942 -0.4185  2.9239
 4432SOL     OW24928   3.756   4.661  16.929  0.1922  0.0283 -0.0961
 4432SOL    HW124929   3.676   4.625  16.891  0.7863 -3.1102  1.6022
 4432SOL    HW224930   3.729   4.706  17.009  1.3767  0.2304  0.1900
 4433SOL     OW24931   3.255   0.479  13.310  0.4968 -0.4555 -0.1968
 4433SOL    HW124932   3.179   0.528  13.280  1.2702 -0.3066 -1.8947
 4433SOL    HW224933   3.275   0.532  13.387 -0.9499 -1.7001  1.0313
 4434SOL     OW24934   2.934   2.305  15.482  0.3035  0.5260  0.0615
 4434SOL    HW124935   2.929   2.264  15.396 -0.3044  0.6545  0.0327
 4434SOL    HW224936   2.920   2.223  15.531  2.0163  0.4280  0.3626
 4435SOL     OW24937   0.393   2.917   7.409  0.6742  0.4079  0.0484
 4435SOL    HW124938   0.469   2.972   7.429 -0.1982  1.7513 -0.3687
 4435SOL    HW224939   0.417   2.842   7.463  0.0491  1.3535  1.6226
 4436SOL     OW24940   3.988   1.928   9.937  0.2725  0.1007 -0.2059
 4436SOL    HW124941   3.993   2.024   9.941 -1.4228  0.0413  4.2894
 4436SOL    HW224942   3.932   1.915   9.861  0.2650  1.7962 -0.4929
 4437SOL     OW24943   3.818   1.516   4.855 -0.4991  0.3751 -0.1178
 4437SOL    HW124944   3.816   1.430   4.813  0.1355  0.0494  0.5346
 4437SOL    HW224945   3.796   1.500   4.946  0.4470  0.5554  0.1411
 4438SOL     OW24946   1.626   3.609   6.025  0.1421 -0.3459 -0.1234
 4438SOL    HW124947   1.639   3.693   5.983  1.4750 -0.1336  0.6863
 4438SOL    HW224948   1.629   3.636   6.117 -1.0201  1.2626 -0.5689
 4439SOL     OW24949   3.637   4.477  12.660 -0.0078  0.0206 -0.2220
 4439SOL    HW124950   3.568   4.412  12.653 -0.4688  0.4222  0.5984
 4439SOL    HW224951   3.580   4.552  12.676  2.1863  1.6920 -0.2003
 4440SOL     OW24952   2.166   3.432   8.856 -0.4836 -0.2013 -0.5206
 4440SOL    HW124953   2.183   3.397   8.943  0.9196  2.3732  0.2399
 4440SOL    HW224954   2.245   3.481   8.836  1.0061 -2.1647  0.6228
 4441SOL     OW24955   3.683   0.284   8.364  0.1000  0.2929 -0.5636
 4441SOL    HW124956   3.705   0.200   8.323  0.9424  1.1965 -1.9829
 4441SOL    HW224957   3.635   0.253   8.440 -1.6873 -1.0688 -2.2367
 4442SOL     OW24958   3.228   2.232   6.077 -0.4529  0.5323  0.0791
 4442SOL    HW124959   3.305   2.210   6.025  0.0128 -0.4185  1.1708
 4442SOL    HW224960   3.223   2.160   6.140  0.9618 -0.9711 -1.5406
 4443SOL     OW24961   0.343   3.406  17.111 -0.3751  0.1801  0.1167
 4443SOL    HW124962   0.385   3.490  17.092  0.5057 -0.6716 -1.6472
 4443SOL    HW224963   0.360   3.402  17.205 -0.7583 -0.5694  0.1575
 4444SOL     OW24964   3.408   1.341   0.614 -0.2960  0.1402 -0.2439
 4444SOL    HW124965   3.447   1.377   0.535 -1.2814  2.0338  0.1131
 4444SOL    HW224966   3.490   1.352   0.662 -0.5096 -0.3919  0.2530
 4445SOL     OW24967   2.499   4.101  10.049 -0.1710  0.4882  0.1377
 4445SOL    HW124968   2.551   4.173  10.015 -1.6935  1.6544  0.2594
 4445SOL    HW224969   2.537   4.092  10.137  0.0515  0.3222  0.0218
 4446SOL     OW24970   2.321   0.869  10.800 -0.3332 -0.5780  0.1168
 4446SOL    HW124971   2.230   0.841  10.789 -0.5051  0.1088 -0.2315
 4446SOL    HW224972   2.361   0.783  10.808  1.5974  0.4198  1.1864
 4447SOL     OW24973   2.886   1.605   5.594  0.1497 -0.8427 -0.0301
 4447SOL    HW124974   2.828   1.643   5.659 -0.0173  1.0164 -1.2636
 4447SOL    HW224975   2.820   1.583   5.528  1.0501 -0.0523 -1.1943
 4448SOL     OW24976   0.640   1.573   3.767  0.1038 -0.3747  0.0384
 4448SOL    HW124977   0.721   1.612   3.735  0.5927 -1.5996 -0.2168
 4448SOL    HW224978   0.591   1.650   3.797  2.7866  0.8871  1.1303
 4449SOL     OW24979   2.272   2.186   0.151  0.4010  0.3861  0.0618
 4449SOL    HW124980   2.366   2.190   0.132  0.7513 -1.7156  1.3530
 4449SOL    HW224981   2.267   2.245   0.226 -1.2041 -0.2235  0.4210
 4450SOL     OW24982   3.449   2.900   2.792  0.3547  0.3486  0.4156
 4450SOL    HW124983   3.538   2.930   2.813  0.2820 -0.6062  2.1052
 4450SOL    HW224984   3.463   2.806   2.802  0.1348  0.3781  1.0085
 4451SOL     OW24985   3.272   2.091   9.041  0.8693  0.0692  0.1749
 4451SOL    HW124986   3.320   2.151   9.098  1.7078 -0.7708  0.3554
 4451SOL    HW224987   3.343   2.046   8.995  1.0616  1.4614 -0.8958
 4452SOL     OW24988   4.469   2.119   8.506 -0.0423  0.3515  0.2473
 4452SOL    HW124989   4.425   2.178   8.568 -1.7514 -1.2616  0.5869
 4452SOL    HW224990   4.465   2.168   8.424 -0.5029  1.0885  0.7021
 4453SOL     OW24991   0.413   2.275   2.013  0.3087 -0.0672  0.0678
 4453SOL    HW124992   0.345   2.312   2.070 -1.1735 -1.3233 -0.8664
 4453SOL    HW224993   0.359   2.215   1.962 -0.1908  0.1684  0.3148
 4454SOL     OW24994   0.976   3.885   5.235  0.4385 -0.0788  0.2421
 4454SOL    HW124995   0.929   3.835   5.301  1.1181  0.5255  1.1704
 4454SOL    HW224996   1.032   3.818   5.197 -1.5373 -1.1755 -0.7159
 4455SOL     OW24997   0.711   3.963   7.305  0.5619  0.4933 -0.0760
 4455SOL    HW124998   0.789   4.009   7.335 -0.5152  0.9039  2.0686
 4455SOL    HW224999   0.637   4.020   7.323  0.3141 -0.3757  1.5652
 4456SOL     OW25000   1.660   1.817   7.141  0.0142 -0.3109  0.7175
 4456SOL    HW125001   1.609   1.887   7.182  0.0225 -0.8278  1.5959
 4456SOL    HW225002   1.739   1.862   7.110 -0.5209 -0.2991 -0.6118
 4457SOL     OW25003   2.952   4.582   5.649 -0.0471 -0.0972  0.1188
 4457SOL    HW125004   2.865   4.549   5.668 -0.6124  0.3256 -1.7113
 4457SOL    HW225005   2.960   4.558   5.556 -0.3648 -2.2963  0.6710
 4458SOL     OW25006   2.181   3.779   4.158 -0.9283  0.2354 -0.7663
 4458SOL    HW125007   2.180   3.867   4.196 -2.1694  0.6512 -1.7738
 4458SOL    HW225008   2.194   3.798   4.065 -0.6255 -1.5731 -1.0878
 4459SOL     OW25009   2.039   0.969   8.589  0.0472 -0.5432  0.4739
 4459SOL    HW125010   2.079   0.889   8.555  0.8329  0.7292 -1.5844
 4459SOL    HW225011   2.053   1.031   8.518 -3.1441 -0.7734 -0.3818
 4460SOL     OW25012   3.563   3.628   1.277  0.1881  0.2850 -0.3293
 4460SOL    HW125013   3.478   3.638   1.234 -0.3821 -1.1810  0.4500
 4460SOL    HW225014   3.574   3.715   1.315  0.6508  0.0534  0.0657
 4461SOL     OW25015   2.227   4.260   4.369  0.1261 -0.1580  0.4864
 4461SOL    HW125016   2.315   4.296   4.363  0.8200 -2.2650 -1.8812
 4461SOL    HW225017   2.218   4.256   4.464  3.7073  0.6283  0.8455
 4462SOL     OW25018   2.848   0.600  13.054 -0.0251  0.0617 -0.5500
 4462SOL    HW125019   2.767   0.589  13.104 -1.0310  2.6535 -1.5693
 4462SOL    HW225020   2.826   0.627  12.965 -0.8956 -0.6144 -0.5471
 4463SOL     OW25021   4.514   3.454   8.918  0.1852 -0.6679  0.2979
 4463SOL    HW125022   4.478   3.529   8.872 -1.7224 -2.0621 -0.4873
 4463SOL    HW225023   4.537   3.399   8.843  0.7993 -0.2720  0.1981
 4464SOL     OW25024   1.612   0.195   7.439  1.0463  0.4934  0.3249
 4464SOL    HW125025   1.534   0.234   7.400  2.3639  3.0872  0.2553
 4464SOL    HW225026   1.595   0.228   7.527 -0.5747 -0.0122  0.1889
 4465SOL     OW25027   2.788   1.134  10.847  0.3123  0.0334  0.2923
 4465SOL    HW125028   2.763   1.077  10.920 -0.7431 -0.3619 -0.3766
 4465SOL    HW225029   2.826   1.075  10.782 -1.8328 -1.4856  0.3991
 4466SOL     OW25030   1.082   2.294   6.357  0.1735  0.2906  0.3768
 4466SOL    HW125031   1.078   2.263   6.267  0.9997  1.0532  0.0816
 4466SOL    HW225032   1.016   2.362   6.368  0.3548  0.6522 -0.8474
 4467SOL     OW25033   2.808   2.876   2.399 -0.3120 -0.3114  0.2808
 4467SOL    HW125034   2.843   2.900   2.314 -1.1281  2.5272  0.7450
 4467SOL    HW225035   2.843   2.940   2.461  1.6588  0.6145 -1.7804
 4468SOL     OW25036   1.824   1.090   3.664  0.7995  0.1193 -0.1409
 4468SOL    HW125037   1.915   1.116   3.657  1.1942 -1.6121 -1.3967
 4468SOL    HW225038   1.800   1.059   3.577  1.7398 -2.1111  0.3792
 4469SOL     OW25039   3.205   2.212   1.515 -0.4375 -0.0235  0.2531
 4469SOL    HW125040   3.140   2.162   1.564 -0.3251  0.3042  0.7404
 4469SOL    HW225041   3.213   2.162   1.433 -2.4805  0.1413 -0.0403
 4470SOL     OW25042   3.436   0.865   7.158  0.0658 -0.5108  0.2484
 4470SOL    HW125043   3.524   0.876   7.194  0.2094  0.7620 -0.5029
 4470SOL    HW225044   3.401   0.954   7.159  1.7255  0.1085  1.7689
 4471SOL     OW25045   4.218   4.454  14.189 -0.0721  0.9256 -0.3940
 4471SOL    HW125046   4.170   4.487  14.265 -0.8728 -0.3980 -0.3403
 4471SOL    HW225047   4.177   4.504  14.118  0.3060  2.0966  0.2027
 4472SOL     OW25048   1.673   0.362   5.345 -0.5728 -0.7865 -0.0492
 4472SOL    HW125049   1.730   0.392   5.275 -0.0946  1.1814  1.1948
 4472SOL    HW225050   1.733   0.319   5.406  0.2397  1.4606  0.7315
 4473SOL     OW25051   2.838   3.773   8.167  0.6805  0.1518  0.4079
 4473SOL    HW125052   2.904   3.725   8.217 -0.3109 -0.0944  1.4765
 4473SOL    HW225053   2.868   3.773   8.076  0.7684  0.0938  0.4366
 4474SOL     OW25054   0.730   3.453   5.155 -0.4602 -0.1886  0.1340
 4474SOL    HW125055   0.787   3.471   5.081  0.2037 -0.2756  0.6285
 4474SOL    HW225056   0.721   3.358   5.158 -2.5158  0.0098  0.2166
 4475SOL     OW25057   2.980   4.422   1.933 -0.1586  0.0873 -0.3364
 4475SOL    HW125058   2.959   4.362   2.005  0.6844  0.8925  0.5618
 4475SOL    HW225059   3.075   4.423   1.928 -0.1600  0.2569 -0.3313
 4476SOL     OW25060   0.448   0.169   3.521  0.7521 -0.1417 -0.5988
 4476SOL    HW125061   0.525   0.181   3.465  1.5326  0.8741  0.7070
 4476SOL    HW225062   0.393   0.247   3.509 -1.4825 -1.8159 -1.2949
 4477SOL     OW25063   0.521   3.206   0.248 -0.3148  0.0390 -0.1007
 4477SOL    HW125064   0.554   3.252   0.170  3.1098 -2.3839 -0.0709
 4477SOL    HW225065   0.577   3.249   0.312 -1.1745 -0.2512  0.8342
 4478SOL     OW25066   2.250   1.801  16.721  0.0645 -0.6812  0.0646
 4478SOL    HW125067   2.300   1.751  16.656 -0.7356 -2.3714  0.7540
 4478SOL    HW225068   2.330   1.841  16.756 -1.1911  2.9829 -1.1867
 4479SOL     OW25069   0.052   4.610  16.799 -0.4126  0.2919 -0.3324
 4479SOL    HW125070   4.699   4.624  16.822 -0.6379 -1.4038 -0.2000
 4479SOL    HW225071   0.090   4.695  16.821 -1.0672  0.6359 -0.5151
 4480SOL     OW25072   0.234   1.965   6.284  0.0210 -0.0991  0.4022
 4480SOL    HW125073   0.190   2.021   6.221  0.5478  2.7140  2.5339
 4480SOL    HW225074   0.290   1.916   6.223 -0.2475 -1.3572  1.1651
 4481SOL     OW25075   4.627   2.404   4.691  0.1293  0.9374 -0.0265
 4481SOL    HW125076   4.674   2.363   4.764 -0.0506  1.3008  0.2884
 4481SOL    HW225077   4.657   2.492   4.713 -1.0199  0.9168  1.6156
 4482SOL     OW25078   1.582   1.749   3.409 -0.6752  0.2094 -0.1431
 4482SOL    HW125079   1.613   1.839   3.418 -0.1784 -0.1415  1.7724
 4482SOL    HW225080   1.633   1.704   3.476 -0.8978 -0.6122 -0.5344
 4483SOL     OW25081   0.537   3.388  15.105  0.4498 -0.5774 -0.0536
 4483SOL    HW125082   0.470   3.452  15.128 -0.5323 -0.9374 -1.9223
 4483SOL    HW225083   0.599   3.445  15.060  2.0908 -0.8665  1.8314
 4484SOL     OW25084   2.367   2.030   3.358 -0.3294 -0.5006  0.3902
 4484SOL    HW125085   2.310   1.960   3.388  0.9270 -1.6241  0.1663
 4484SOL    HW225086   2.417   2.038   3.439 -0.6625 -2.1698  0.7462
 4485SOL     OW25087   2.258   2.395   8.328  0.6163  0.4911  0.6798
 4485SOL    HW125088   2.229   2.486   8.319  1.0392  0.4443 -1.1570
 4485SOL    HW225089   2.183   2.342   8.301 -0.2171  0.6409  2.6619
 4486SOL     OW25090   2.167   1.808  10.433  0.0383 -0.0800  0.0486
 4486SOL    HW125091   2.240   1.821  10.372 -1.5469  0.7738 -1.6603
 4486SOL    HW225092   2.205   1.754  10.502  0.0718  0.7023  0.6316
 4487SOL     OW25093   0.491   0.601   6.374  0.2244  0.0427 -1.0825
 4487SOL    HW125094   0.464   0.541   6.304 -2.2210  1.8374 -1.6857
 4487SOL    HW225095   0.403   0.630   6.398  0.4393  0.1188 -0.3838
 4488SOL     OW25096   0.452   1.786   8.935  0.0495  0.6128 -0.2473
 4488SOL    HW125097   0.496   1.703   8.954 -2.3172 -0.6887 -0.4670
 4488SOL    HW225098   0.401   1.757   8.859 -0.4773  2.2924 -0.5373
 4489SOL     OW25099   3.100   1.591  17.068 -0.1968 -0.0998  0.0292
 4489SOL    HW125100   3.100   1.683  17.042 -1.0372  0.5234  2.2548
 4489SOL    HW225101   3.028   1.556  17.016  0.0740 -0.0448 -0.3847
 4490SOL     OW25102   1.124   1.054   4.684  0.2703  0.7881 -0.2993
 4490SOL    HW125103   1.123   1.125   4.619 -1.7455  0.2784 -0.8399
 4490SOL    HW225104   1.188   1.003   4.635  0.3077  1.1713 -0.6486
 4491SOL     OW25105   3.416   0.113   7.053  0.0863 -0.4753 -0.2189
 4491SOL    HW125106   3.407   0.024   7.087  0.1605 -0.4837 -0.2203
 4491SOL    HW225107   3.498   0.133   7.098  0.1991 -1.8626  0.2112
 4492SOL     OW25108   0.322   1.187   6.438  0.3762 -0.3363  0.3995
 4492SOL    HW125109   0.394   1.246   6.413  0.0150 -0.2605 -0.4484
 4492SOL    HW225110   0.285   1.171   6.351  1.4898 -2.3104  0.2821
 4493SOL     OW25111   2.000   1.798  15.414  0.2633 -0.2780  0.0341
 4493SOL    HW125112   2.074   1.741  15.434  1.0423  0.5230 -0.5777
 4493SOL    HW225113   1.940   1.735  15.375 -0.7668  0.0474  1.0797
 4494SOL     OW25114   4.262   0.239   6.090  0.0310 -0.1494  0.1676
 4494SOL    HW125115   4.358   0.246   6.091 -0.1371  2.4086 -2.4096
 4494SOL    HW225116   4.248   0.333   6.100 -2.0266 -0.6044  1.4769
 4495SOL     OW25117   4.201   3.310   1.764  0.3369  0.3158  0.1845
 4495SOL    HW125118   4.133   3.275   1.822  0.9039  0.7335  1.1076
 4495SOL    HW225119   4.222   3.228   1.719  0.0538 -0.5198  1.5649
 4496SOL     OW25120   1.524   4.420  10.036 -0.0441  0.3571  1.0086
 4496SOL    HW125121   1.520   4.361   9.961  0.1654  2.0464 -0.3462
 4496SOL    HW225122   1.566   4.357  10.094 -1.6368  1.7699  3.7122
 4497SOL     OW25123   2.180   4.426  10.061 -0.4989  0.5585 -0.0546
 4497SOL    HW125124   2.205   4.455  10.148  0.9238 -1.2653  0.1454
 4497SOL    HW225125   2.108   4.365  10.075 -0.2871  0.5304  0.8917
 4498SOL     OW25126   0.845   3.541   9.350  0.0655  0.0579  0.2011
 4498SOL    HW125127   0.857   3.448   9.332  2.3708  0.4125 -0.1136
 4498SOL    HW225128   0.859   3.545   9.444 -0.1106 -0.4267  0.2487
 4499SOL     OW25129   4.522   3.334   8.020 -0.0999  0.3182 -0.4992
 4499SOL    HW125130   4.480   3.318   7.935 -0.0316  1.2356 -0.7060
 4499SOL    HW225131   4.522   3.429   8.013  0.4498  0.1958 -2.2483
 4500SOL     OW25132   4.070   1.125   8.110  0.8908 -1.0405  0.1867
 4500SOL    HW125133   4.064   1.035   8.078 -2.4005 -0.9191  0.5198
 4500SOL    HW225134   3.997   1.163   8.062  0.4985 -0.6281  1.1128
 4501SOL     OW25135   4.724   2.302   5.337  0.4074 -0.3862  0.0967
 4501SOL    HW125136   4.663   2.301   5.410  2.7881  0.8432  2.0802
 4501SOL    HW225137   4.671   2.250   5.276 -0.8624  0.8301  0.1548
 4502SOL     OW25138   0.598   0.984  12.594 -0.0076  0.1896 -0.1448
 4502SOL    HW125139   0.619   0.940  12.676  0.7614  0.1194 -0.3802
 4502SOL    HW225140   0.601   1.071  12.632 -1.6886  0.0495  0.3275
 4503SOL     OW25141   2.754   3.265   1.162  0.1148 -0.0841  0.1269
 4503SOL    HW125142   2.845   3.280   1.136  0.4566 -0.1464  1.3072
 4503SOL    HW225143   2.744   3.289   1.254  0.6810 -2.3780  0.7867
 4504SOL     OW25144   3.260   0.975   4.666  0.1922  0.3343  0.3430
 4504SOL    HW125145   3.352   0.959   4.645 -0.5259 -0.3276 -2.3221
 4504SOL    HW225146   3.249   1.067   4.691 -2.6413  0.2081 -0.4806
 4505SOL     OW25147   0.853   0.989   4.578 -0.1131  0.6573  0.1936
 4505SOL    HW125148   0.873   1.076   4.542  1.1867  0.7214  1.0638
 4505SOL    HW225149   0.942   0.972   4.608  0.8171  0.0120 -3.0081
 4506SOL     OW25150   0.663   3.615  14.960 -0.2466  0.2520  0.4045
 4506SOL    HW125151   0.656   3.577  14.873 -0.1388 -0.5240  0.7430
 4506SOL    HW225152   0.573   3.643  14.978 -0.4031  1.3676 -2.1387
 4507SOL     OW25153   3.128   2.800   2.492 -0.3211 -0.3961 -0.3226
 4507SOL    HW125154   3.079   2.869   2.535  2.5148 -0.1698  2.5634
 4507SOL    HW225155   3.111   2.726   2.551  2.2489 -0.3017  0.5425
 4508SOL     OW25156   0.192   4.112   3.869 -0.3521  0.0368 -0.5536
 4508SOL    HW125157   0.279   4.123   3.909 -1.4932 -0.9010  2.1592
 4508SOL    HW225158   0.179   4.019   3.885  1.0649  0.4287  2.7850
 4509SOL     OW25159   0.587   4.271   5.438  0.4657 -0.2587 -0.2149
 4509SOL    HW125160   0.503   4.245   5.400  0.7577  0.5440 -1.3877
 4509SOL    HW225161   0.575   4.215   5.516  0.5808 -2.9772 -2.1377
 4510SOL     OW25162   0.683   0.535   3.365  0.0720 -0.6463  0.5565
 4510SOL    HW125163   0.759   0.577   3.323 -1.6159 -0.1716 -2.0548
 4510SOL    HW225164   0.724   0.512   3.448  0.3103  2.4468  1.3074
 4511SOL     OW25165   3.295   0.280   4.852  0.2604  0.0244  0.0847
 4511SOL    HW125166   3.217   0.275   4.907 -0.0441  2.4355 -0.0930
 4511SOL    HW225167   3.316   0.190   4.829 -0.4466 -0.3462  0.9033
 4512SOL     OW25168   0.793   4.232   4.967 -0.4323  0.4284  0.1885
 4512SOL    HW125169   0.796   4.216   5.061 -1.1651  0.8271  0.2766
 4512SOL    HW225170   0.858   4.302   4.966  1.1747 -1.0627 -0.0416
 4513SOL     OW25171   0.980   1.357  16.848 -0.2749  0.1069  0.4982
 4513SOL    HW125172   1.029   1.287  16.807  0.9327  0.3153  1.6045
 4513SOL    HW225173   0.890   1.326  16.839 -0.5536  0.7353  1.0665
 4514SOL     OW25174   4.720   3.736   6.063 -0.1201 -0.0199 -0.5128
 4514SOL    HW125175   0.020   3.798   6.125  2.7978 -0.0538 -2.3124
 4514SOL    HW225176   0.027   3.763   5.984  1.5398  1.0999  0.8154
 4515SOL     OW25177   3.199   1.318  16.187 -0.0309 -0.9860 -0.1325
 4515SOL    HW125178   3.202   1.297  16.280 -0.1214  1.1389  0.3658
 4515SOL    HW225179   3.149   1.246  16.148 -0.7727 -0.1602 -0.7256
 4516SOL     OW25180   4.192   0.033   7.192 -0.2473 -0.0746 -0.2126
 4516SOL    HW125181   4.162   0.107   7.245 -0.8729 -1.3105  1.1699
 4516SOL    HW225182   4.278   0.024   7.231 -0.2655  1.4952  0.1975
 4517SOL     OW25183   3.827   3.689   6.446 -0.0547  0.3359 -0.1747
 4517SOL    HW125184   3.877   3.770   6.443  0.1183  0.1346 -2.6729
 4517SOL    HW225185   3.741   3.730   6.459  0.2305  0.1724  2.3160
 4518SOL     OW25186   4.456   2.267  11.464  0.1105 -0.4066 -0.3220
 4518SOL    HW125187   4.459   2.270  11.560 -2.0735  2.3499 -0.3341
 4518SOL    HW225188   4.367   2.298  11.447 -1.0150 -3.8941 -0.7426
 4519SOL     OW25189   2.343   1.176   5.645  0.2570 -0.3366 -0.2480
 4519SOL    HW125190   2.326   1.148   5.735 -2.1273  3.5057  0.4709
 4519SOL    HW225191   2.314   1.100   5.594 -1.6562  0.1024  0.2177
 4520SOL     OW25192   1.062   3.216   8.518 -0.2058  0.3943  0.4810
 4520SOL    HW125193   1.030   3.227   8.428 -0.9440 -1.9259  0.4353
 4520SOL    HW225194   1.154   3.191   8.508 -0.2035  0.1010  1.2183
 4521SOL     OW25195   4.519   3.749   2.219  0.2384  0.0413 -0.3313
 4521SOL    HW125196   4.563   3.711   2.296  1.5598 -0.4081 -1.3097
 4521SOL    HW225197   4.467   3.674   2.190  1.3095  0.0001 -2.1545
 4522SOL     OW25198   3.397   1.591  10.286  0.4435  0.5649 -0.0369
 4522SOL    HW125199   3.407   1.514  10.230  2.6140  0.0319  1.0960
 4522SOL    HW225200   3.402   1.561  10.377 -4.5414 -1.0136 -0.3145
 4523SOL     OW25201   4.201   1.086  15.264  0.5904 -0.4963 -0.3636
 4523SOL    HW125202   4.292   1.108  15.285 -0.3909  0.8232  2.4677
 4523SOL    HW225203   4.155   1.166  15.237  0.8726 -0.3526 -0.4231
 4524SOL     OW25204   3.358   3.472   3.056 -0.2241  0.2732 -0.3033
 4524SOL    HW125205   3.448   3.472   3.089  0.0231  2.4010 -0.9900
 4524SOL    HW225206   3.318   3.524   3.125 -1.5925 -1.7724  0.4297
 4525SOL     OW25207   2.720   0.919   2.133  0.1734  0.4513 -0.4994
 4525SOL    HW125208   2.725   0.887   2.223  2.0792 -1.5014 -1.2970
 4525SOL    HW225209   2.670   0.999   2.143  1.2930  1.1142 -0.1465
 4526SOL     OW25210   1.017   3.607  16.325 -0.0114 -0.3052 -0.3051
 4526SOL    HW125211   1.018   3.569  16.413 -1.8157 -0.6535 -0.4307
 4526SOL    HW225212   1.075   3.552  16.271 -1.1979 -1.4873 -0.3801
 4527SOL     OW25213   2.233   4.085   6.079  0.6167  0.0645 -0.2348
 4527SOL    HW125214   2.196   4.071   6.166  0.3425  1.4518 -0.1193
 4527SOL    HW225215   2.164   4.118   6.021  1.0181 -0.8455 -1.2166
 4528SOL     OW25216   0.416   1.926   7.839  0.3080  0.1039  0.5132
 4528SOL    HW125217   0.499   1.891   7.873 -0.0025 -0.0110  1.1368
 4528SOL    HW225218   0.364   1.936   7.918 -0.6329  0.7382 -0.1830
 4529SOL     OW25219   3.850   0.605   6.721  0.0872 -0.2932  0.5954
 4529SOL    HW125220   3.889   0.519   6.737 -1.0257 -0.9645 -0.3831
 4529SOL    HW225221   3.760   0.575   6.727 -0.2438  0.5298 -0.4228
 4530SOL     OW25222   4.501   0.719  14.808  0.1320  0.1719 -0.1630
 4530SOL    HW125223   4.440   0.653  14.840  1.0118 -0.1405  0.8858
 4530SOL    HW225224   4.498   0.694  14.716  0.3246 -1.0437  0.1617
 4531SOL     OW25225   2.430   2.241   9.080 -0.2602  0.3714 -0.0977
 4531SOL    HW125226   2.517   2.207   9.058 -0.9630 -2.9354  2.3205
 4531SOL    HW225227   2.456   2.259   9.170 -1.5609 -0.1520  0.3814
 4532SOL     OW25228   3.891   0.248   6.516  0.1934  0.3645  0.4862
 4532SOL    HW125229   3.871   0.186   6.445 -0.2231 -0.3198  1.2077
 4532SOL    HW225230   3.890   0.325   6.459 -0.1553  0.1763  0.2320
 4533SOL     OW25231   3.901   0.937   1.604  0.0262 -0.1485 -0.3751
 4533SOL    HW125232   3.899   0.949   1.699 -1.6349  0.4412 -0.4859
 4533SOL    HW225233   3.928   0.846   1.598 -1.0748 -0.4590 -0.6822
 4534SOL     OW25234   0.970   2.022   5.153 -0.6286  0.0959 -0.2586
 4534SOL    HW125235   0.894   2.068   5.116  0.2179  1.7340  0.0391
 4534SOL    HW225236   1.034   2.093   5.144 -0.3180 -0.3244 -1.4677
 4535SOL     OW25237   3.900   4.576   5.675 -0.3996 -0.6656 -0.8973
 4535SOL    HW125238   3.814   4.615   5.663  0.0835  1.4399  2.3529
 4535SOL    HW225239   3.952   4.617   5.606  1.8178  0.3687  1.3949
 4536SOL     OW25240   2.466   4.312  13.045 -0.5927  0.2684 -0.4375
 4536SOL    HW125241   2.542   4.363  13.070 -1.9726  2.4495 -0.7503
 4536SOL    HW225242   2.465   4.320  12.949 -0.7800 -2.2505 -0.6526
 4537SOL     OW25243   4.513   3.833   5.730  0.3881  0.2957 -0.6932
 4537SOL    HW125244   4.495   3.786   5.811 -0.8960 -0.2680 -1.2947
 4537SOL    HW225245   4.446   3.901   5.725 -1.3129 -1.4172 -1.4749
 4538SOL     OW25246   1.262   1.650  13.204 -0.6224  0.6110  0.0721
 4538SOL    HW125247   1.294   1.684  13.287  1.2913 -0.5569 -0.1962
 4538SOL    HW225248   1.176   1.622  13.236 -2.0780  2.6518 -2.0035
 4539SOL     OW25249   3.664   3.203   7.142 -0.2577 -0.3159 -0.0366
 4539SOL    HW125250   3.737   3.259   7.114 -1.6268  1.1824 -0.6251
 4539SOL    HW225251   3.623   3.242   7.219  0.2128  1.5318 -0.7338
 4540SOL     OW25252   0.295   3.117  15.155 -0.1449  0.6062 -0.5074
 4540SOL    HW125253   0.245   3.054  15.103 -1.9380  2.3435 -0.8557
 4540SOL    HW225254   0.352   3.149  15.085 -0.5893  0.8064 -0.7715
 4541SOL     OW25255   2.594   1.946   0.820  0.1797 -0.3419  0.0451
 4541SOL    HW125256   2.527   1.940   0.752  0.3543  1.0056 -0.2457
 4541SOL    HW225257   2.669   1.929   0.763 -1.9973  0.6367 -3.1559
 4542SOL     OW25258   3.281   0.821  15.055 -0.2043 -0.5317  0.4710
 4542SOL    HW125259   3.251   0.893  15.110  1.1261  0.3397  0.0596
 4542SOL    HW225260   3.363   0.802  15.101  1.7046  1.4635 -2.0857
 4543SOL     OW25261   3.955   3.595  11.920 -0.8541  0.1316 -0.7934
 4543SOL    HW125262   3.874   3.625  11.879 -0.4870  1.6422 -0.4164
 4543SOL    HW225263   4.025   3.657  11.898 -0.2915 -0.7449 -1.4577
 4544SOL     OW25264   2.041   4.644   5.733  0.3406  0.1333 -0.3373
 4544SOL    HW125265   2.120   4.591   5.738  1.0414  1.1797 -0.2432
 4544SOL    HW225266   2.056   4.697   5.654  0.3251  0.1767 -0.3116
 4545SOL     OW25267   3.423   3.700   5.013  0.2911  0.1373  0.2688
 4545SOL    HW125268   3.337   3.740   5.018  0.7643  1.1145  0.6378
 4545SOL    HW225269   3.466   3.717   5.097  0.4106 -0.5766  0.3546
 4546SOL     OW25270   2.972   1.299  10.107 -0.8037  0.1747  0.4927
 4546SOL    HW125271   2.947   1.317  10.017 -2.3622  0.0967  0.9048
 4546SOL    HW225272   3.068   1.303  10.100 -1.0324  1.9457 -1.5125
 4547SOL     OW25273   4.202   1.319   3.316 -0.2735  0.4858 -0.3862
 4547SOL    HW125274   4.223   1.299   3.225 -1.7098 -0.1317 -0.5737
 4547SOL    HW225275   4.284   1.300   3.362 -0.3958 -2.4326 -1.3650
 4548SOL     OW25276   4.012   0.705   2.541  0.0858 -0.3839  0.1100
 4548SOL    HW125277   4.042   0.668   2.624  2.2570  1.0847 -0.0507
 4548SOL    HW225278   3.944   0.767   2.567 -0.4405 -0.5884 -0.7477
 4549SOL     OW25279   0.349   1.186   4.784  0.9926 -0.2107 -0.0868
 4549SOL    HW125280   0.317   1.275   4.801  3.2601  0.0285  2.9130
 4549SOL    HW225281   0.300   1.166   4.704 -1.0463  3.0658  0.3447
 4550SOL     OW25282   0.440   2.607   2.028  0.0987 -0.0905 -0.1467
 4550SOL    HW125283   0.448   2.514   2.007  0.5017 -0.1070  0.0690
 4550SOL    HW225284   0.496   2.608   2.106 -0.1604  1.2342  0.0308
 4551SOL     OW25285   0.281   1.721   4.778 -0.8283  0.5936 -0.3933
 4551SOL    HW125286   0.276   1.724   4.683 -1.6170  1.0376 -0.3394
 4551SOL    HW225287   0.370   1.750   4.794 -0.9506  0.7815 -0.0301
 4552SOL     OW25288   2.866   4.027   4.860 -0.3453  0.3165 -0.3017
 4552SOL    HW125289   2.879   3.938   4.829  0.5301  0.5456 -0.6080
 4552SOL    HW225290   2.955   4.051   4.885 -0.1494 -0.7320 -0.0165
 4553SOL     OW25291   4.491   2.221  17.063 -0.3916 -0.3761  0.3329
 4553SOL    HW125292   4.514   2.150  17.122 -0.0646 -1.6411 -1.3238
 4553SOL    HW225293   4.577   2.240  17.026 -0.2572 -1.0428  0.3080
 4554SOL     OW25294   0.413   3.308  15.437 -0.2809 -0.1415  0.3333
 4554SOL    HW125295   0.324   3.340  15.423  0.0212  0.6307  0.1865
 4554SOL    HW225296   0.465   3.382  15.407 -2.5922  1.5274  0.3997
 4555SOL     OW25297   1.740   3.021  16.328 -0.4556  0.2707  0.2865
 4555SOL    HW125298   1.653   3.060  16.318 -0.6543  0.2873  1.9756
 4555SOL    HW225299   1.753   2.985  16.241  0.4641  1.0874  0.0934
 4556SOL     OW25300   3.905   1.791  14.740 -0.6575  0.4919  0.8572
 4556SOL    HW125301   3.930   1.872  14.695  1.4561 -0.6013  0.0635
 4556SOL    HW225302   3.812   1.803  14.760 -1.1276 -0.3251 -0.8428
 4557SOL     OW25303   1.226   1.896   8.309 -0.0015 -0.0913  0.1296
 4557SOL    HW125304   1.294   1.873   8.372 -0.4559  0.1132  0.6923
 4557SOL    HW225305   1.256   1.858   8.226  0.6694  0.7333 -0.0010
 4558SOL     OW25306   3.552   0.754   6.539  0.3379  0.3791 -0.0145
 4558SOL    HW125307   3.595   0.815   6.600  0.7388 -1.6229  1.6841
 4558SOL    HW225308   3.601   0.784   6.462  0.0794 -0.0860 -0.3560
 4559SOL     OW25309   1.167   4.246  14.284  0.2015 -0.0019  0.1408
 4559SOL    HW125310   1.201   4.235  14.196 -0.6091  1.2799 -0.3307
 4559SOL    HW225311   1.075   4.270  14.271  0.4593  1.3025  0.7418
 4560SOL     OW25312   3.015   1.952  15.842 -0.2711 -0.2835 -0.1150
 4560SOL    HW125313   3.093   1.968  15.895  0.7722  0.1266 -1.7667
 4560SOL    HW225314   2.954   1.944  15.915 -0.1702  0.1949  0.0217
 4561SOL     OW25315   1.987   0.139   1.924 -0.4990  0.1426 -0.3158
 4561SOL    HW125316   2.032   0.136   1.839  0.3324 -0.1866  0.1306
 4561SOL    HW225317   1.934   0.218   1.920  0.9341  0.9996 -2.2627
 4562SOL     OW25318   3.873   2.441   1.911 -0.0568 -0.1919  0.0358
 4562SOL    HW125319   3.824   2.502   1.966 -1.1528  0.3432 -1.5587
 4562SOL    HW225320   3.965   2.466   1.924  0.1369 -2.2197  2.6836
 4563SOL     OW25321   4.183   4.553   8.105 -0.0101 -0.0675  0.3627
 4563SOL    HW125322   4.269   4.595   8.096  0.2453 -0.8256 -0.6761
 4563SOL    HW225323   4.162   4.530   8.015  2.4682 -1.5714  0.1680
 4564SOL     OW25324   2.810   2.073   5.111  0.0027  0.1335 -0.1858
 4564SOL    HW125325   2.897   2.096   5.081 -0.4290 -2.4162 -3.5014
 4564SOL    HW225326   2.836   2.001   5.168  0.0822  2.5148  2.7702
 4565SOL     OW25327   3.541   1.423   4.204  0.1215 -0.1817  0.3967
 4565SOL    HW125328   3.619   1.436   4.150 -0.6237  0.8329 -0.4462
 4565SOL    HW225329   3.486   1.387   4.134 -0.5737 -0.1999  0.9540
 4566SOL     OW25330   1.805   0.536  14.952  0.1171 -0.3823  0.1882
 4566SOL    HW125331   1.868   0.473  14.916 -0.0846  0.5995 -1.8354
 4566SOL    HW225332   1.849   0.540  15.037  2.3390 -0.4761 -0.9512
 4567SOL     OW25333   4.216   2.745   7.741  0.2023 -0.0340 -0.1897
 4567SOL    HW125334   4.168   2.713   7.665  1.2006  0.0234 -0.8413
 4567SOL    HW225335   4.230   2.838   7.721  0.4543 -0.2535 -1.0182
 4568SOL     OW25336   0.183   3.206   8.949 -0.0148  0.7185  0.0860
 4568SOL    HW125337   0.135   3.128   8.979 -0.8014  1.3047  0.3363
 4568SOL    HW225338   0.121   3.269   8.985 -0.0589 -0.2869  1.8213
 4569SOL     OW25339   4.388   4.138   8.992  0.7284  0.0013 -0.2492
 4569SOL    HW125340   4.473   4.155   9.033  0.8426 -0.6907 -0.1896
 4569SOL    HW225341   4.323   4.153   9.062 -0.0471  2.6731 -1.5826
 4570SOL     OW25342   3.907   3.048  14.883  0.2517  0.2513 -0.2249
 4570SOL    HW125343   3.959   2.986  14.833  0.1220 -0.9101  1.0817
 4570SOL    HW225344   3.849   2.983  14.921  0.1635 -0.0225 -0.8398
 4571SOL     OW25345   1.346   1.866   9.473 -0.1967 -0.5415 -0.5918
 4571SOL    HW125346   1.359   1.896   9.563 -0.4739  2.7904 -1.6889
 4571SOL    HW225347   1.271   1.807   9.478 -0.8521  0.2171 -1.6104
 4572SOL     OW25348   2.182   1.856  16.369 -0.5389  0.4093 -0.2025
 4572SOL    HW125349   2.243   1.806  16.423  1.2180  1.3079 -1.3783
 4572SOL    HW225350   2.104   1.865  16.423  1.1689  2.8861  1.8378
 4573SOL     OW25351   4.721   2.920  11.287  0.4295 -0.2381  0.0278
 4573SOL    HW125352   0.077   2.926  11.278  0.5566 -0.3149  1.2814
 4573SOL    HW225353   4.700   2.827  11.286 -1.9706  0.2967 -1.0341
 4574SOL     OW25354   3.216   0.611   3.536 -0.3636  1.0133  0.1671
 4574SOL    HW125355   3.205   0.516   3.526 -1.6571  1.1683  0.0734
 4574SOL    HW225356   3.123   0.632   3.550 -0.1510  0.9734  1.6296
 4575SOL     OW25357   3.255   3.969   5.385  0.0446  0.2032 -0.2941
 4575SOL    HW125358   3.322   3.952   5.452 -1.8172 -1.5265  1.1515
 4575SOL    HW225359   3.185   3.913   5.421 -0.3776  1.0275  0.1745
 4576SOL     OW25360   4.689   0.402   8.286 -0.5582 -0.4370  0.1941
 4576SOL    HW125361   4.686   0.497   8.298 -1.9796 -0.5949  1.1021
 4576SOL    HW225362   0.039   0.387   8.252 -0.8150 -0.7354 -0.3292
 4577SOL     OW25363   0.459   0.675   5.018  0.0984  0.1332  0.2216
 4577SOL    HW125364   0.432   0.655   5.107 -0.0025  0.5283  0.2789
 4577SOL    HW225365   0.469   0.771   5.018 -0.7391  0.2418 -3.5402
 4578SOL     OW25366   3.380   1.014   3.967 -0.0455  0.4248 -0.3796
 4578SOL    HW125367   3.444   1.029   3.898 -1.3961  0.1316 -1.7055
 4578SOL    HW225368   3.433   1.021   4.047 -0.7702 -0.7493  0.2152
 4579SOL     OW25369   3.637   2.952   2.459 -0.1080  0.4814 -0.4260
 4579SOL    HW125370   3.681   2.872   2.429  0.2851  0.0329  1.3636
 4579SOL    HW225371   3.554   2.917   2.492  0.5793 -0.3413  0.4429
 4580SOL     OW25372   0.987   0.803  17.460 -0.1364  0.5031 -0.3117
 4580SOL    HW125373   1.078   0.804  17.490 -0.3134  1.4532  0.1735
 4580SOL    HW225374   0.987   0.891  17.422  0.0723  1.1239  1.1578
 4581SOL     OW25375   0.453   2.344  16.900 -0.1286  0.5487 -0.2928
 4581SOL    HW125376   0.407   2.422  16.871  0.2642  0.5565 -0.8967
 4581SOL    HW225377   0.472   2.299  16.818  0.3885  1.2534 -0.5575
 4582SOL     OW25378   4.658   2.276   1.950  0.2969 -0.0148  0.2294
 4582SOL    HW125379   4.684   2.203   2.006 -0.9063  0.1859  1.0338
 4582SOL    HW225380   4.567   2.257   1.929 -0.1185  1.6536  0.4579
 4583SOL     OW25381   4.270   0.234   3.136  0.3540 -0.7960 -0.1976
 4583SOL    HW125382   4.270   0.194   3.049 -3.3327  0.7891 -0.9228
 4583SOL    HW225383   4.291   0.323   3.106 -1.4212  0.3379  1.9280
 4584SOL     OW25384   4.186   1.636   3.560  0.7658 -0.1299 -0.4504
 4584SOL    HW125385   4.272   1.613   3.595  0.1665 -1.4163  0.1984
 4584SOL    HW225386   4.165   1.570   3.493  0.5318 -1.2989  0.7681
 4585SOL     OW25387   0.999   0.856   2.684 -0.0297 -0.5024  0.2878
 4585SOL    HW125388   0.978   0.825   2.772 -0.9393  1.2769  0.6894
 4585SOL    HW225389   1.040   0.778   2.646  0.5972 -0.7221  1.4277
 4586SOL     OW25390   1.414   0.405   2.790  0.0473 -0.0193  0.0991
 4586SOL    HW125391   1.355   0.330   2.789  0.0235  0.0048 -0.1479
 4586SOL    HW225392   1.414   0.411   2.695  0.4265 -0.4531  0.0696
 4587SOL     OW25393   3.417   1.875  16.237 -0.2574 -0.2408  0.3328
 4587SOL    HW125394   3.433   1.939  16.307 -0.1554 -0.2720  0.3370
 4587SOL    HW225395   3.482   1.885  16.168  0.4660 -2.6000  0.6970
 4588SOL     OW25396   1.510   2.737   0.168 -0.4748  0.3655  0.3529
 4588SOL    HW125397   1.425   2.696   0.157 -0.5568  0.3457  1.0964
 4588SOL    HW225398   1.564   2.659   0.179 -2.2451 -0.8566  0.4255
 4589SOL     OW25399   3.160   3.605   2.038 -0.3909  0.0226 -0.2784
 4589SOL    HW125400   3.220   3.655   2.093 -0.6706 -0.4548  0.4674
 4589SOL    HW225401   3.223   3.543   2.002 -1.9369 -2.2070  0.8649
 4590SOL     OW25402   0.993   0.681   0.760 -0.0528 -0.0620  0.1299
 4590SOL    HW125403   1.008   0.713   0.671  1.6761  2.2418  1.2400
 4590SOL    HW225404   0.900   0.660   0.756 -0.1817  0.0905  2.3035
 4591SOL     OW25405   0.671   0.445   8.056 -0.3855 -0.2574 -0.3546
 4591SOL    HW125406   0.758   0.439   8.017 -0.6888  2.2649 -1.4134
 4591SOL    HW225407   0.618   0.383   8.005 -0.8797 -0.0359 -0.1084
 4592SOL     OW25408   1.039   2.984  13.112  0.0218 -0.3283 -0.0077
 4592SOL    HW125409   1.028   3.073  13.078 -0.9671 -0.6387 -0.4797
 4592SOL    HW225410   1.045   2.935  13.031 -1.7061  1.2683 -1.0982
 4593SOL     OW25411   3.566   4.002   4.152 -0.0613 -0.2848 -0.3264
 4593SOL    HW125412   3.657   4.031   4.157 -0.1657  0.2447 -1.4129
 4593SOL    HW225413   3.576   3.926   4.210 -0.9321  1.6193  2.2644
 4594SOL     OW25414   4.497   0.623  14.563 -0.4572  0.3986 -0.1140
 4594SOL    HW125415   4.576   0.572  14.583  0.1309  1.4653  0.3538
 4594SOL    HW225416   4.529   0.663  14.482  1.2790 -0.9404 -0.1030
 4595SOL     OW25417   2.316   1.132   5.926 -0.0980  0.9009 -0.0105
 4595SOL    HW125418   2.220   1.134   5.929 -0.1260  0.4315 -0.6000
 4595SOL    HW225419   2.338   1.215   5.969  0.0709  0.9134 -0.1189
 4596SOL     OW25420   2.222   2.414  11.515  0.0486  0.0491 -0.5703
 4596SOL    HW125421   2.303   2.447  11.477 -0.0360  2.6920  1.5442
 4596SOL    HW225422   2.228   2.320  11.501 -0.9362 -0.6742  3.8030
 4597SOL     OW25423   3.756   2.370   0.516  0.0751 -0.0654 -0.0553
 4597SOL    HW125424   3.841   2.376   0.472  0.4688  1.0436  0.8576
 4597SOL    HW225425   3.767   2.454   0.561  0.0011  0.6515 -1.3791
 4598SOL     OW25426   0.592   1.342   2.803 -0.1836  0.0502 -0.0912
 4598SOL    HW125427   0.658   1.275   2.783 -0.0785 -0.5868  2.3259
 4598SOL    HW225428   0.638   1.392   2.871 -2.6652  0.7345  1.0913
 4599SOL     OW25429   3.716   3.769   3.935  0.6835 -0.5895 -0.3629
 4599SOL    HW125430   3.812   3.773   3.927  0.9459 -2.3900  2.0568
 4599SOL    HW225431   3.709   3.750   4.028 -0.0649 -1.8083 -0.6774
 4600SOL     OW25432   3.693   0.586   2.377 -0.1393 -0.1530 -0.2335
 4600SOL    HW125433   3.692   0.626   2.291 -0.1071 -1.8801 -1.0439
 4600SOL    HW225434   3.751   0.630   2.439 -0.3894 -0.1763  0.0165
 4601SOL     OW25435   4.524   3.473  12.955 -0.3631 -0.3677 -0.5302
 4601SOL    HW125436   4.617   3.481  12.932 -0.5165  0.6033 -0.7898
 4601SOL    HW225437   4.527   3.485  13.050  1.6105 -1.0557 -0.5126
 4602SOL     OW25438   3.687   3.033   1.191  0.5195 -0.7839 -0.0022
 4602SOL    HW125439   3.656   3.047   1.102  0.0125 -2.9548 -0.1620
 4602SOL    HW225440   3.632   3.086   1.248 -0.7331 -0.1935 -1.7770
 4603SOL     OW25441   3.178   1.913   9.273  0.2015 -0.2239 -0.0634
 4603SOL    HW125442   3.176   1.980   9.205  0.6461  2.0098  2.1371
 4603SOL    HW225443   3.092   1.875   9.257  1.0925 -1.2360 -2.5314
 4604SOL     OW25444   0.203   3.386  11.071 -0.1323 -0.4721 -0.2361
 4604SOL    HW125445   0.195   3.301  11.113  0.4094 -0.3122  0.2036
 4604SOL    HW225446   0.118   3.401  11.030 -0.7578  0.8773  1.5222
 4605SOL     OW25447   3.214   3.151  12.734 -0.6329 -0.0116 -0.5947
 4605SOL    HW125448   3.309   3.167  12.742 -0.4851  0.0936 -2.5592
 4605SOL    HW225449   3.201   3.200  12.653 -0.5055 -0.3404 -0.8115
 4606SOL     OW25450   1.105   3.452   5.306  0.0667 -0.2692  0.8068
 4606SOL    HW125451   1.037   3.436   5.371 -0.0403 -1.9791  0.2793
 4606SOL    HW225452   1.147   3.366   5.300 -1.6026 -0.9483 -1.1239
 4607SOL     OW25453   0.575   3.250   6.257 -0.0695  0.5240  0.3447
 4607SOL    HW125454   0.626   3.233   6.178 -0.7346  0.6985 -0.1194
 4607SOL    HW225455   0.487   3.219   6.237  0.7142 -0.7574 -1.1399
 4608SOL     OW25456   4.364   0.968   2.557  0.3650 -0.5743  0.4072
 4608SOL    HW125457   4.427   1.030   2.519  1.5583 -0.6748  2.2495
 4608SOL    HW225458   4.362   0.892   2.499 -0.9863 -0.9771  0.9758
 4609SOL     OW25459   0.426   0.329   2.779 -0.0072 -0.6500  0.0187
 4609SOL    HW125460   0.417   0.403   2.840 -1.1972 -1.1645  0.4869
 4609SOL    HW225461   0.333   0.323   2.756 -0.2444  1.7264  0.3393
 4610SOL     OW25462   1.770   2.488  14.941 -0.8291  0.2308  0.0923
 4610SOL    HW125463   1.775   2.397  14.910  0.4920  0.7208 -1.1127
 4610SOL    HW225464   1.759   2.526  14.854 -4.7362 -1.5723 -0.1991
 4611SOL     OW25465   1.024   1.080   7.151 -0.2939  0.1783 -0.2601
 4611SOL    HW125466   1.101   1.024   7.153  0.3977  1.1901  2.3115
 4611SOL    HW225467   1.007   1.098   7.244  0.4327 -0.0398 -0.0861
 4612SOL     OW25468   2.753   1.603   2.024 -0.3498 -0.0976  0.0066
 4612SOL    HW125469   2.815   1.586   2.094 -0.0128  0.2180 -0.2144
 4612SOL    HW225470   2.681   1.606   2.088  1.8509 -0.3025  2.4770
 4613SOL     OW25471   3.647   2.693  11.072  0.4778 -0.1535  0.2523
 4613SOL    HW125472   3.593   2.764  11.037 -1.9038 -1.9669  0.1947
 4613SOL    HW225473   3.696   2.670  10.993  1.4597  1.1071  0.4999
 4614SOL     OW25474   0.508   1.667   2.195 -0.6304  0.5002  0.4245
 4614SOL    HW125475   0.588   1.640   2.151 -0.8825 -2.5108  1.7945
 4614SOL    HW225476   0.483   1.748   2.151  0.7102  0.3413 -0.6323
 4615SOL     OW25477   0.400   1.741   1.363 -0.1628  0.1424 -0.1101
 4615SOL    HW125478   0.422   1.739   1.456 -1.8644 -1.1071  0.2787
 4615SOL    HW225479   0.416   1.834   1.354 -0.8610  0.2881  0.1248
 4616SOL     OW25480   1.818   1.716   2.833  0.6636  0.2543  0.3341
 4616SOL    HW125481   1.894   1.723   2.775 -0.7397 -0.3465 -1.5679
 4616SOL    HW225482   1.813   1.621   2.844  2.2688  0.2337  0.9159
 4617SOL     OW25483   2.283   2.733  16.331  0.0987 -0.0405  0.0427
 4617SOL    HW125484   2.288   2.731  16.235  1.2866 -1.3160  0.1355
 4617SOL    HW225485   2.246   2.645  16.341 -1.2109  0.2458 -2.1050
 4618SOL     OW25486   2.852   1.123   3.969 -0.4664 -0.3040  0.1857
 4618SOL    HW125487   2.899   1.129   4.052 -0.9121 -0.9214  0.4876
 4618SOL    HW225488   2.835   1.030   3.952 -3.1681  0.2634 -0.2178
 4619SOL     OW25489   2.836   2.505   6.960  0.4216  0.1129  0.1624
 4619SOL    HW125490   2.866   2.593   6.984  1.4477  0.3890 -2.1482
 4619SOL    HW225491   2.814   2.521   6.868  0.8943  1.1076  0.2210
 4620SOL     OW25492   2.926   0.600   4.844 -0.6434 -0.3848 -0.0103
 4620SOL    HW125493   2.990   0.670   4.861 -2.5190  1.0749  1.1340
 4620SOL    HW225494   2.922   0.611   4.749 -1.7236 -0.4987  0.0310
 4621SOL     OW25495   4.544   4.272   5.898 -0.2403 -0.0018 -0.1310
 4621SOL    HW125496   4.592   4.353   5.879  1.7265 -0.9889  0.6024
 4621SOL    HW225497   4.609   4.220   5.945 -1.7807 -1.8930 -0.0894
 4622SOL     OW25498   1.108   3.498   2.144  0.4343 -0.2018 -0.0466
 4622SOL    HW125499   1.051   3.436   2.099 -0.8421  0.7676  0.2254
 4622SOL    HW225500   1.184   3.441   2.155 -0.3180 -1.1807 -0.0126
 4623SOL     OW25501   1.215   2.897   9.517  0.0462 -0.4870 -0.5405
 4623SOL    HW125502   1.299   2.851   9.524  0.3611  0.0499 -0.7377
 4623SOL    HW225503   1.212   2.967   9.582 -2.7331  0.0772 -1.2669
 4624SOL     OW25504   0.576   0.989  17.016  0.6894 -0.7006  0.9300
 4624SOL    HW125505   0.644   1.048  16.983 -0.0553  0.8810  2.1859
 4624SOL    HW225506   0.619   0.962  17.097  2.5896 -3.4183 -1.0065
 4625SOL     OW25507   4.597   0.662   5.346  0.2432 -0.3277  0.3048
 4625SOL    HW125508   4.673   0.604   5.343  0.5527  0.0632  0.5121
 4625SOL    HW225509   4.596   0.688   5.254  0.7957 -0.2981  0.3040
 4626SOL     OW25510   2.985   2.650   5.319 -0.2236  0.2016 -0.1035
 4626SOL    HW125511   2.942   2.620   5.400 -0.8503  2.0169  0.2390
 4626SOL    HW225512   2.966   2.578   5.258  0.5288  0.5879 -0.7911
 4627SOL     OW25513   4.420   0.359   7.687 -0.1012 -0.3522 -0.2010
 4627SOL    HW125514   4.419   0.264   7.672  1.2908 -0.2457 -0.9961
 4627SOL    HW225515   4.327   0.383   7.689 -0.2270 -1.0168  2.0532
 4628SOL     OW25516   3.358   0.946  16.283  0.0411 -0.7153 -0.4660
 4628SOL    HW125517   3.283   0.927  16.339  2.8462 -1.9484  2.8272
 4628SOL    HW225518   3.409   1.005  16.337  0.8854  0.2018 -2.2500
 4629SOL     OW25519   2.474   0.490   8.627 -0.7000 -0.3916 -0.0468
 4629SOL    HW125520   2.392   0.527   8.662 -0.9074 -0.3808 -0.5456
 4629SOL    HW225521   2.533   0.559   8.655 -1.0942 -0.4355  0.9080
 4630SOL     OW25522   2.232   3.189   1.604 -0.3157 -0.2177  0.0009
 4630SOL    HW125523   2.262   3.098   1.613 -3.3594 -1.2571 -0.5798
 4630SOL    HW225524   2.172   3.197   1.678  0.3131 -0.0380  0.4919
 4631SOL     OW25525   0.901   3.633   1.901 -0.6543 -0.6591  0.3577
 4631SOL    HW125526   0.920   3.562   1.962 -0.0651  0.3601  1.3621
 4631SOL    HW225527   0.848   3.583   1.840  0.3115 -2.3014  0.8752
 4632SOL     OW25528   3.443   1.037   8.590 -0.5321  0.7100 -0.3902
 4632SOL    HW125529   3.533   1.003   8.585 -0.7281 -0.0450  1.2244
 4632SOL    HW225530   3.442   1.087   8.508 -1.5187  1.9182  0.3726
 4633SOL     OW25531   2.038   2.661   0.802  0.3379 -0.0742 -0.3830
 4633SOL    HW125532   2.095   2.651   0.878 -0.7737 -0.5777  0.3791
 4633SOL    HW225533   2.010   2.752   0.813 -0.2535 -0.4660  1.3566
 4634SOL     OW25534   4.570   4.418  11.906 -0.3262 -0.1021  0.0987
 4634SOL    HW125535   4.496   4.391  11.961  1.2693  0.4367  2.4944
 4634SOL    HW225536   4.602   4.334  11.872 -1.1923  0.0856 -1.1688
 4635SOL     OW25537   4.256   2.588  10.877 -0.3151  0.2490  0.2845
 4635SOL    HW125538   4.332   2.637  10.844  0.8442 -0.8747  1.2845
 4635SOL    HW225539   4.259   2.614  10.969  0.3271  0.8110  0.1075
 4636SOL     OW25540   0.408   0.624   5.303 -0.2155 -0.5212  0.3262
 4636SOL    HW125541   0.411   0.683   5.379  1.6273 -0.5757  0.3065
 4636SOL    HW225542   0.404   0.543   5.352 -0.7913 -0.3597  0.5441
 4637SOL     OW25543   2.903   2.092   5.594 -0.0813  0.3734 -0.0806
 4637SOL    HW125544   2.920   2.180   5.560  0.3768  0.5160  0.5118
 4637SOL    HW225545   2.990   2.083   5.635  0.0072  1.1057 -0.1139
 4638SOL     OW25546   0.181   1.267  11.446 -0.4228 -0.5279 -0.0951
 4638SOL    HW125547   0.158   1.183  11.406 -0.3559 -0.1432 -0.9393
 4638SOL    HW225548   0.224   1.233  11.525  1.0148  1.9278  0.1687
 4639SOL     OW25549   0.240   0.817  12.723 -0.2737  0.8139  0.1152
 4639SOL    HW125550   0.219   0.886  12.660 -0.1388 -0.0132 -0.8353
 4639SOL    HW225551   0.283   0.872  12.788 -0.6080  1.3215 -0.0975
 4640SOL     OW25552   0.373   1.992   0.728 -0.3505 -0.2160  0.6025
 4640SOL    HW125553   0.311   2.063   0.712 -1.0270 -1.0456 -0.4643
 4640SOL    HW225554   0.441   2.017   0.665  0.1332 -1.4792  0.6185
 4641SOL     OW25555   2.873   3.065   8.565 -0.0547 -0.2939 -0.6559
 4641SOL    HW125556   2.888   2.980   8.608 -0.2019  0.1115  0.2018
 4641SOL    HW225557   2.801   3.037   8.508 -2.0147 -2.1515  2.6773
 4642SOL     OW25558   1.526   2.673   7.528 -0.3049 -0.0264  0.1038
 4642SOL    HW125559   1.560   2.762   7.537  2.8615 -1.1753 -0.3322
 4642SOL    HW225560   1.457   2.685   7.463 -1.3129 -2.6777  0.6904
 4643SOL     OW25561   1.991   2.888   5.750  0.1218  1.2283 -0.3404
 4643SOL    HW125562   1.970   2.803   5.790 -0.8193  1.9429  0.6668
 4643SOL    HW225563   1.937   2.883   5.671  0.8931 -0.5076 -0.7651
 4644SOL     OW25564   3.839   0.951   6.156 -0.1899 -0.3891 -0.3117
 4644SOL    HW125565   3.827   0.983   6.066  1.9826 -0.5840 -0.6719
 4644SOL    HW225566   3.881   0.866   6.147  2.5484  0.7466  1.8694
 4645SOL     OW25567   1.866   2.272  12.370 -0.2926 -0.2160  0.1999
 4645SOL    HW125568   1.935   2.218  12.333  0.5961  2.3473 -1.8040
 4645SOL    HW225569   1.823   2.219  12.437 -0.3838  0.7635  0.9112
 4646SOL     OW25570   3.615   1.606   3.539  0.5322 -0.0929 -0.1483
 4646SOL    HW125571   3.586   1.600   3.448 -1.7248 -0.2339  0.5621
 4646SOL    HW225572   3.702   1.569   3.531 -0.1289 -1.6723  0.0039
 4647SOL     OW25573   4.196   1.712   5.307 -0.0467 -0.1960 -0.3384
 4647SOL    HW125574   4.154   1.794   5.279 -1.5553 -1.6866 -2.5228
 4647SOL    HW225575   4.149   1.646   5.256 -0.6591  2.0835 -2.7528
 4648SOL     OW25576   1.768   2.551   5.235  0.3837 -0.2963 -0.3049
 4648SOL    HW125577   1.679   2.574   5.263  0.8251  1.8798 -0.6774
 4648SOL    HW225578   1.819   2.563   5.314  1.4865  2.0294 -1.3680
 4649SOL     OW25579   4.587   3.569   3.919  0.2841  0.6508 -0.4074
 4649SOL    HW125580   4.541   3.489   3.895  0.2949  0.0870  1.4490
 4649SOL    HW225581   4.655   3.545   3.982  0.8617 -0.5387 -1.5037
 4650SOL     OW25582   1.099   3.756  14.910  0.2222  0.0560 -0.3021
 4650SOL    HW125583   1.028   3.784  14.968 -0.9797 -3.6105 -0.0427
 4650SOL    HW225584   1.049   3.704  14.847  1.6623 -0.1926 -1.2372
 4651SOL     OW25585   1.422   3.456  15.148  0.8318 -0.8537 -0.3299
 4651SOL    HW125586   1.489   3.466  15.215 -1.0485 -1.5451  1.6422
 4651SOL    HW225587   1.356   3.397  15.186  0.9236 -1.3507 -0.9501
 4652SOL     OW25588   3.374   3.514   8.687  0.7241  0.0088  0.0077
 4652SOL    HW125589   3.309   3.460   8.732  2.0878 -1.0773  0.6534
 4652SOL    HW225590   3.434   3.448   8.653  1.3856 -0.0446  1.3152
 4653SOL     OW25591   3.799   3.490   8.734 -0.0564  0.0331 -0.1067
 4653SOL    HW125592   3.751   3.572   8.720  0.3608  0.0678 -1.3436
 4653SOL    HW225593   3.883   3.514   8.773 -0.1316 -0.6005  0.4339
 4654SOL     OW25594   0.939   3.442   9.876 -0.1446  1.0519  0.4656
 4654SOL    HW125595   0.960   3.444   9.970 -0.8418 -2.0732  0.6916
 4654SOL    HW225596   1.020   3.488   9.854  0.7413 -0.4314  0.5945
 4655SOL     OW25597   3.091   1.199   9.297  0.2249  0.0961  0.1923
 4655SOL    HW125598   2.997   1.189   9.313  0.1854 -0.0395 -0.1191
 4655SOL    HW225599   3.108   1.279   9.346  0.5831 -0.4108  0.8881
 4656SOL     OW25600   3.902   3.689   6.067  0.0099  0.2960  0.3729
 4656SOL    HW125601   3.877   3.755   6.132 -1.6758  0.9192 -0.9116
 4656SOL    HW225602   3.838   3.618   6.071  0.6290 -0.3140 -0.6763
 4657SOL     OW25603   4.330   4.058   7.556 -0.2504  0.7480  0.0116
 4657SOL    HW125604   4.256   4.118   7.555  0.3293  1.4802  1.9449
 4657SOL    HW225605   4.366   4.079   7.642  2.5298 -1.8691 -0.4993
 4658SOL     OW25606   4.646   3.226   5.057 -0.6933  0.0788  0.0435
 4658SOL    HW125607   4.713   3.216   4.990 -0.5274 -2.7706  0.6338
 4658SOL    HW225608   4.696   3.278   5.120 -2.5749  0.1564  1.4703
 4659SOL     OW25609   3.016   1.604  10.084 -0.1697 -0.3176  0.0256
 4659SOL    HW125610   2.979   1.535  10.029  0.0780 -1.3418  1.1379
 4659SOL    HW225611   3.039   1.549  10.159  0.8875  0.1715  0.0641
 4660SOL     OW25612   1.754   0.550   0.103 -0.5989 -0.2739  0.3643
 4660SOL    HW125613   1.753   0.628   0.159  0.7945 -0.3452  0.4782
 4660SOL    HW225614   1.660   0.544   0.084 -0.8268 -3.1404  2.3647
 4661SOL     OW25615   3.175   1.689  12.262 -0.6602 -0.0448  0.0140
 4661SOL    HW125616   3.232   1.766  12.254 -0.7508  0.1339  1.1302
 4661SOL    HW225617   3.166   1.661  12.171 -3.1285 -0.3142  0.3491
 4662SOL     OW25618   2.489   1.942  16.818 -0.2721  0.2969  0.2941
 4662SOL    HW125619   2.431   2.003  16.773  0.6170  1.7182  1.0709
 4662SOL    HW225620   2.560   1.974  16.762 -2.0255 -0.6846 -2.4703
 4663SOL     OW25621   2.944   2.185   4.172 -0.1829  0.1804  0.3918
 4663SOL    HW125622   2.966   2.224   4.088  0.1241  0.0862  0.4298
 4663SOL    HW225623   2.895   2.105   4.150 -0.4678  0.9405 -1.7402
 4664SOL     OW25624   0.456   1.616  17.317  0.0307 -0.0424  0.1751
 4664SOL    HW125625   0.528   1.633  17.257 -1.1849  2.0714 -0.6667
 4664SOL    HW225626   0.395   1.553  17.278 -0.3674  0.9161 -0.7276
 4665SOL     OW25627   1.549   2.021   4.254  0.5590  0.6886  0.0066
 4665SOL    HW125628   1.487   2.067   4.311 -0.2708  0.5782 -0.7995
 4665SOL    HW225629   1.544   1.936   4.298 -2.1281 -0.3471 -2.2894
 4666SOL     OW25630   4.457   4.545   6.887  0.1577 -0.0510 -0.3625
 4666SOL    HW125631   4.512   4.524   6.812  0.6524 -0.0375 -0.0070
 4666SOL    HW225632   4.371   4.510   6.863  0.1378 -0.1865 -0.0985
 4667SOL     OW25633   1.899   2.090   1.616  0.3636 -0.0170  0.1160
 4667SOL    HW125634   1.856   2.156   1.670 -0.0916  0.4323 -0.7997
 4667SOL    HW225635   1.821   2.052   1.575 -0.5224  0.8017  1.0353
 4668SOL     OW25636   3.429   3.257  16.070  0.1233 -0.3089  0.4023
 4668SOL    HW125637   3.468   3.171  16.085 -0.4084 -0.8087 -1.0611
 4668SOL    HW225638   3.334   3.251  16.084  0.2945 -1.8731  0.8524
 4669SOL     OW25639   2.590   3.445   7.995  0.5197  0.3003 -0.0254
 4669SOL    HW125640   2.569   3.440   8.089  0.3976  2.2536  0.0493
 4669SOL    HW225641   2.683   3.424   7.988  0.4776  1.3401 -3.5450
 4670SOL     OW25642   1.981   3.971   7.694  0.2096  0.0680 -0.0166
 4670SOL    HW125643   2.037   3.897   7.671 -2.1090 -2.2344  1.8228
 4670SOL    HW225644   2.047   4.035   7.721 -1.4452  2.1697 -0.9977
 4671SOL     OW25645   3.227   1.937  14.362  0.7710  0.0547  0.1803
 4671SOL    HW125646   3.218   1.859  14.416  0.0624 -0.4008 -0.6012
 4671SOL    HW225647   3.151   1.923  14.305 -0.6342 -1.8392  2.4879
 4672SOL     OW25648   1.486   4.331  11.127  0.0449  0.0374 -0.2011
 4672SOL    HW125649   1.419   4.288  11.074 -0.4816  1.3528 -0.6115
 4672SOL    HW225650   1.457   4.422  11.115 -0.7155 -0.0677  0.8710
 4673SOL     OW25651   0.068   0.973  11.720  0.0959  0.8221 -0.2408
 4673SOL    HW125652   0.058   0.884  11.751 -0.4327  1.6723  2.0250
 4673SOL    HW225653   0.011   0.974  11.643  0.0560  0.1744 -0.2135
 4674SOL     OW25654   0.142   1.012  15.689 -0.0428 -0.4494 -0.2950
 4674SOL    HW125655   0.152   1.098  15.729 -1.5998  0.9713 -3.0073
 4674SOL    HW225656   0.141   0.957  15.768  0.4654 -0.9552 -0.6422
 4675SOL     OW25657   0.600   0.970  16.534  0.1167 -0.0004  0.2105
 4675SOL    HW125658   0.692   0.950  16.516  0.0965  0.0965 -0.0064
 4675SOL    HW225659   0.576   0.928  16.617  0.1707 -0.6516 -0.1096
 4676SOL     OW25660   3.721   0.023   8.265  0.7702 -0.2532 -0.4913
 4676SOL    HW125661   3.805   4.731   8.301  0.6908 -2.0960 -1.9184
 4676SOL    HW225662   3.662   4.690   8.286  0.4563  0.4405  0.9929
 4677SOL     OW25663   2.631   2.073   3.039  0.3718  0.0817 -0.4661
 4677SOL    HW125664   2.563   2.138   3.024 -1.7492 -2.1624 -0.4687
 4677SOL    HW225665   2.633   2.067   3.135 -0.0918 -1.4582 -0.5541
 4678SOL     OW25666   3.892   4.353   8.237 -0.5988 -0.1272  0.5485
 4678SOL    HW125667   3.979   4.336   8.273 -0.2276  1.3261  0.3189
 4678SOL    HW225668   3.867   4.433   8.283 -1.2383 -0.7956  1.3406
 4679SOL     OW25669   1.874   3.003   6.572 -0.0229  0.0515 -0.1320
 4679SOL    HW125670   1.942   3.035   6.513 -1.3029  0.2061 -1.5162
 4679SOL    HW225671   1.871   2.909   6.555 -0.4948  0.7012 -3.6508
 4680SOL     OW25672   1.557   2.985   6.827  0.0996  0.4070  0.5214
 4680SOL    HW125673   1.561   2.955   6.918 -0.7268  1.0030  0.7533
 4680SOL    HW225674   1.488   3.049   6.837  0.1996  0.4499  0.9170
 4681SOL     OW25675   4.066   1.745   9.314  0.1205 -0.1300  0.7484
 4681SOL    HW125676   4.004   1.817   9.325 -1.6343 -1.4269 -0.6017
 4681SOL    HW225677   4.126   1.777   9.246 -1.1920 -0.8865 -0.7679
 4682SOL     OW25678   2.181   3.015   2.445  0.5029  0.7533  0.4195
 4682SOL    HW125679   2.214   3.101   2.471  0.6111  0.0822  2.4266
 4682SOL    HW225680   2.259   2.960   2.455 -0.6528 -1.1998 -1.2471
 4683SOL     OW25681   2.634   2.966  14.333 -0.1453  0.3139 -0.0252
 4683SOL    HW125682   2.621   2.905  14.406 -0.5318  1.7981  1.1380
 4683SOL    HW225683   2.692   2.914  14.277  0.7032  1.2804 -0.0430
 4684SOL     OW25684   4.614   1.211   2.495 -0.5336  0.7605 -0.3970
 4684SOL    HW125685   4.654   1.131   2.460 -0.7407  0.6891 -0.4704
 4684SOL    HW225686   4.683   1.277   2.483  0.7873 -0.1411  2.3177
 4685SOL     OW25687   2.396   4.206   9.040  0.4501 -0.0878 -0.0021
 4685SOL    HW125688   2.383   4.252   9.123 -1.7862 -1.3275  0.3319
 4685SOL    HW225689   2.444   4.266   8.984  0.7421  0.3905  0.7597
 4686SOL     OW25690   4.585   4.680   2.322  0.1494  0.1147 -0.8773
 4686SOL    HW125691   4.644   4.607   2.337 -0.9826 -0.6416 -0.0904
 4686SOL    HW225692   4.642   0.015   2.298  1.7592 -0.7292  0.4425
 4687SOL     OW25693   0.405   0.778  14.025 -0.4370 -0.7129 -0.2548
 4687SOL    HW125694   0.372   0.755  14.112  1.1398  0.3197  0.6000
 4687SOL    HW225695   0.325   0.768  13.974  0.5548  2.6666 -2.4270
 4688SOL     OW25696   3.784   1.616   0.048  0.4266 -0.0391 -0.0449
 4688SOL    HW125697   3.719   1.628  17.731 -0.4245 -2.7593  0.2627
 4688SOL    HW225698   3.809   1.707   0.061 -0.2148  0.3140 -1.2618
 4689SOL     OW25699   3.105   3.935   6.289 -0.3218  0.2225  0.2691
 4689SOL    HW125700   3.018   3.973   6.274 -0.2872 -0.4606 -1.6902
 4689SOL    HW225701   3.076   3.844   6.291  2.8990 -0.8789 -3.0789
 4690SOL     OW25702   1.784   3.627   2.182  0.1904 -0.0030 -0.4270
 4690SOL    HW125703   1.700   3.651   2.143 -0.6026 -1.0179  0.6578
 4690SOL    HW225704   1.775   3.628   2.277  0.8932  0.5275 -0.3569
 4691SOL     OW25705   1.659   4.634   5.716 -0.3827  0.3318 -0.0457
 4691SOL    HW125706   1.669   4.729   5.720  1.4328  0.1191  0.4927
 4691SOL    HW225707   1.589   4.620   5.779  0.3370 -0.2804  0.6190
 4692SOL     OW25708   3.401   3.165   2.641 -0.3270 -0.4886 -0.5394
 4692SOL    HW125709   3.379   3.072   2.639 -0.1430 -0.5201 -0.9921
 4692SOL    HW225710   3.442   3.185   2.557  0.2019 -4.0154 -1.1311
 4693SOL     OW25711   4.397   3.177   1.385  0.1611 -0.1092 -0.1621
 4693SOL    HW125712   4.490   3.178   1.365  0.0200  0.3163 -0.8151
 4693SOL    HW225713   4.360   3.244   1.328 -2.0760 -1.7125 -0.5891
 4694SOL     OW25714   0.958   1.376   4.809 -0.5866 -0.1994 -0.6936
 4694SOL    HW125715   0.927   1.441   4.872 -2.0719 -0.3033 -1.3274
 4694SOL    HW225716   1.036   1.431   4.798 -0.4315 -0.5158 -1.1804
 4695SOL     OW25717   3.364   0.364   6.667  0.4005  0.3792  0.2963
 4695SOL    HW125718   3.338   0.285   6.715 -0.7360  0.6493  0.1193
 4695SOL    HW225719   3.365   0.330   6.577 -2.4442  0.9479  0.0784
 4696SOL     OW25720   2.854   3.546   8.747 -0.3593 -0.4022  0.2039
 4696SOL    HW125721   2.840   3.634   8.783 -3.3732  0.1748 -2.4933
 4696SOL    HW225722   2.895   3.573   8.665 -0.3714  0.1043  0.3627
 4697SOL     OW25723   0.194   0.213   8.382 -0.1883  0.4175 -0.4639
 4697SOL    HW125724   0.276   0.225   8.335  0.0255  3.3660  0.6696
 4697SOL    HW225725   0.137   0.199   8.306  0.5651  0.3438 -1.0065
 4698SOL     OW25726   2.451   1.581   2.766 -0.1772 -0.4638  0.0884
 4698SOL    HW125727   2.436   1.673   2.747 -2.6658 -1.2265 -1.7283
 4698SOL    HW225728   2.364   1.553   2.796 -0.6127  0.3130 -0.4406
 4699SOL     OW25729   2.163   0.812   6.588  0.4551  0.6681  0.2804
 4699SOL    HW125730   2.112   0.755   6.531 -1.4368  2.3459  0.3011
 4699SOL    HW225731   2.214   0.869   6.530 -0.7445  1.0132 -0.4248
 4700SOL     OW25732   4.456   3.510  11.747 -0.0735 -0.0222 -0.4906
 4700SOL    HW125733   4.422   3.520  11.658  1.3988 -2.0055 -1.2720
 4700SOL    HW225734   4.548   3.526  11.729 -0.1322  1.3943  0.5627
 4701SOL     OW25735   4.221   3.029   3.086 -0.4018  0.4112 -0.3769
 4701SOL    HW125736   4.225   2.934   3.075 -0.6471  0.4059 -0.4237
 4701SOL    HW225737   4.208   3.031   3.180 -3.0770  0.1662 -0.7354
 4702SOL     OW25738   2.819   1.594  15.591 -0.4798 -0.2069 -0.0390
 4702SOL    HW125739   2.750   1.530  15.602  1.4939 -2.1959  0.8439
 4702SOL    HW225740   2.777   1.669  15.633  0.6511  0.7781 -0.6754
 4703SOL     OW25741   4.585   4.192   2.750  0.0172 -0.2071  0.6709
 4703SOL    HW125742   4.503   4.178   2.798 -0.6098  2.7795  0.4620
 4703SOL    HW225743   4.648   4.191   2.822  0.6338  0.0243  0.1345
 4704SOL     OW25744   3.144   3.975   3.360 -0.6080  0.6873  0.1209
 4704SOL    HW125745   3.224   3.962   3.308  0.8340 -0.6599  2.7094
 4704SOL    HW225746   3.175   3.966   3.450 -0.8530 -3.6399 -0.2269
 4705SOL     OW25747   3.560   2.595   4.497 -0.1805 -0.8948 -0.3322
 4705SOL    HW125748   3.483   2.614   4.445 -0.0513  0.4913 -0.0022
 4705SOL    HW225749   3.584   2.683   4.524 -1.6255 -0.8768  0.8538
 4706SOL     OW25750   1.292   4.342   4.530 -0.3221 -0.3161  0.6560
 4706SOL    HW125751   1.378   4.300   4.523 -1.3449 -2.2928 -0.2045
 4706SOL    HW225752   1.315   4.408   4.595  0.4683  0.5435 -0.5144
 4707SOL     OW25753   0.100   3.137   2.694 -0.2048 -0.5631 -0.2945
 4707SOL    HW125754   0.097   3.180   2.608 -0.4275 -1.0816 -0.5455
 4707SOL    HW225755   0.168   3.071   2.682  1.9453  1.2348  1.8789
 4708SOL     OW25756   3.589   0.746   9.433  0.7251  0.8299 -0.1789
 4708SOL    HW125757   3.494   0.759   9.439  0.5009  0.2192 -2.1273
 4708SOL    HW225758   3.589   0.688   9.357 -1.1974  2.2761 -1.2986
 4709SOL     OW25759   2.174   2.381   3.018 -0.4325 -0.5920  0.1183
 4709SOL    HW125760   2.097   2.346   2.973 -0.8087  0.6614 -0.2067
 4709SOL    HW225761   2.150   2.371   3.110 -2.6115 -2.4694 -0.6626
 4710SOL     OW25762   3.687   4.236   1.570  0.1095  0.5330 -0.1030
 4710SOL    HW125763   3.695   4.155   1.520  0.4382  1.1224 -0.9980
 4710SOL    HW225764   3.768   4.281   1.543 -0.7574  1.9588 -0.3221
 4711SOL     OW25765   3.371   1.119   2.268 -0.3745  0.0291  0.0208
 4711SOL    HW125766   3.421   1.077   2.339 -1.5694  0.6539  1.2348
 4711SOL    HW225767   3.282   1.132   2.299  0.1238  3.4875 -0.0418
 4712SOL     OW25768   1.668   4.314  15.556  0.2173 -0.3026 -0.0375
 4712SOL    HW125769   1.689   4.301  15.648  2.3427 -0.9711 -0.6111
 4712SOL    HW225770   1.747   4.357  15.523 -1.7356  3.5857  0.2981
 4713SOL     OW25771   2.081   0.619  12.844 -0.6221  0.4602 -0.5489
 4713SOL    HW125772   2.084   0.523  12.836 -0.8813  0.4124 -0.1182
 4713SOL    HW225773   2.146   0.650  12.782 -1.0049  0.2126 -1.0764
 4714SOL     OW25774   0.321   2.776   3.872  0.3687 -0.1202  0.1303
 4714SOL    HW125775   0.258   2.704   3.868 -0.4252  0.6251 -0.5452
 4714SOL    HW225776   0.276   2.851   3.834 -0.6730 -1.4016 -1.1495
 4715SOL     OW25777   4.526   3.935  10.108  0.1377 -0.3925 -0.0182
 4715SOL    HW125778   4.581   4.005  10.143 -2.6879  1.9806 -0.2793
 4715SOL    HW225779   4.495   3.918  10.197 -0.1279 -0.5453 -0.1386
 4716SOL     OW25780   0.021   1.953   7.906 -0.0347  0.6504 -0.2197
 4716SOL    HW125781   0.005   2.034   7.859  1.4738 -0.3590 -2.4552
 4716SOL    HW225782   0.113   1.971   7.927 -0.8314  3.0792  1.2344
 4717SOL     OW25783   4.466   1.883   5.501  0.1021  0.3388 -0.6044
 4717SOL    HW125784   4.459   1.971   5.465  1.3981  0.8982  0.5088
 4717SOL    HW225785   4.375   1.872   5.528 -0.1909  0.8796 -1.3560
 4718SOL     OW25786   4.080   4.438   2.269 -0.1136  0.1107  0.4412
 4718SOL    HW125787   4.157   4.491   2.250 -0.5764  1.0806  1.2561
 4718SOL    HW225788   4.113   4.354   2.302 -0.4730 -1.0017 -2.0269
 4719SOL     OW25789   0.580   2.111   5.822  0.6940  0.3274 -0.0104
 4719SOL    HW125790   0.594   2.206   5.813  1.5697 -0.0207 -2.3937
 4719SOL    HW225791   0.488   2.119   5.847  1.0799  0.0189  1.4652
 4720SOL     OW25792   0.568   4.252   1.525 -0.0253 -0.2970 -0.8009
 4720SOL    HW125793   0.504   4.322   1.520 -0.1676 -0.4669 -1.2917
 4720SOL    HW225794   0.576   4.242   1.430  0.6239 -1.8359 -0.5787
 4721SOL     OW25795   1.575   3.266   0.490  0.2929  0.3331  0.0782
 4721SOL    HW125796   1.546   3.336   0.548 -0.4512  0.0882 -0.0072
 4721SOL    HW225797   1.513   3.202   0.524  2.4329 -1.5062  0.4790
 4722SOL     OW25798   0.179   1.678   1.199 -0.1810  0.1019 -0.0808
 4722SOL    HW125799   0.271   1.669   1.223 -0.7448  3.8041  3.4854
 4722SOL    HW225800   0.187   1.768   1.167  1.2480 -1.1133 -3.1677
 4723SOL     OW25801   3.403   4.528   6.311 -0.1973 -0.0566  0.0059
 4723SOL    HW125802   3.355   4.464   6.363  1.4912  0.8854  2.6936
 4723SOL    HW225803   3.463   4.565   6.375  0.4288  0.2474 -0.7435
 4724SOL     OW25804   1.819   3.782   7.276 -0.3681  0.4368  0.2748
 4724SOL    HW125805   1.890   3.718   7.274 -0.3583  0.4365  0.7068
 4724SOL    HW225806   1.859   3.869   7.269 -0.4544  0.3912 -0.8390
 4725SOL     OW25807   4.062   1.932   1.564  0.1886 -0.6486  0.0458
 4725SOL    HW125808   4.051   1.848   1.518  1.2773 -1.5890  1.4913
 4725SOL    HW225809   3.974   1.969   1.556 -0.1486 -0.7918  3.1203
 4726SOL     OW25810   1.169   3.235   4.400  0.2620  0.5304 -0.1678
 4726SOL    HW125811   1.144   3.214   4.490  1.4835  0.0402  0.0653
 4726SOL    HW225812   1.151   3.155   4.351 -2.0708  1.5935 -1.0338
 4727SOL     OW25813   4.305   2.960   4.787  0.1035  0.2446 -0.1154
 4727SOL    HW125814   4.337   2.884   4.837  2.2351  1.2325  0.0498
 4727SOL    HW225815   4.288   3.030   4.850 -2.0540 -0.5116  0.1155
 4728SOL     OW25816   0.163   2.164   0.612 -0.4222 -0.5968 -0.1734
 4728SOL    HW125817   0.072   2.191   0.616 -0.0593  0.5350  0.2378
 4728SOL    HW225818   0.168   2.125   0.524  0.4055 -0.3184 -0.2522
 4729SOL     OW25819   1.280   2.206   0.145 -0.1299 -0.6077 -0.1405
 4729SOL    HW125820   1.192   2.225   0.114 -0.3429  1.2219  1.5723
 4729SOL    HW225821   1.256   2.146   0.215 -2.7647 -0.4206 -0.8813
 4730SOL     OW25822   3.183   2.706   2.903  0.3560 -0.1184 -0.5277
 4730SOL    HW125823   3.100   2.703   2.949  0.6865 -0.7633  0.0201
 4730SOL    HW225824   3.223   2.619   2.908  0.3195 -0.2249 -1.9724
 4731SOL     OW25825   0.623   3.445   8.448 -0.6864  0.0052 -0.3740
 4731SOL    HW125826   0.585   3.512   8.506 -0.0686  0.5388 -0.5800
 4731SOL    HW225827   0.698   3.416   8.500 -1.2402 -0.5395  0.1307
 4732SOL     OW25828   0.379   1.187   5.927 -0.2231 -0.2642 -0.0100
 4732SOL    HW125829   0.352   1.275   5.954  1.2840  0.4368 -0.7643
 4732SOL    HW225830   0.474   1.193   5.921 -0.2941 -0.5763 -1.4032
 4733SOL     OW25831   1.523   2.630   4.340 -0.2949 -0.2698 -0.1633
 4733SOL    HW125832   1.596   2.593   4.390  0.1886  0.0591 -0.6257
 4733SOL    HW225833   1.464   2.620   4.414 -0.6884 -0.3060 -0.4822
 4734SOL     OW25834   1.280   0.591   5.882 -0.0154 -0.1864  0.5281
 4734SOL    HW125835   1.229   0.627   5.809  1.7091  0.8167 -0.1916
 4734SOL    HW225836   1.211   0.599   5.948 -0.5991  0.2826 -0.1462
 4735SOL     OW25837   3.713   4.138   6.284  0.1694 -0.4216 -0.1824
 4735SOL    HW125838   3.700   4.185   6.366 -0.1610 -1.5130  0.3833
 4735SOL    HW225839   3.785   4.189   6.247  1.2330  0.1857  2.7565
 4736SOL     OW25840   4.122   1.542   7.594  0.0334 -0.1903 -0.1614
 4736SOL    HW125841   4.093   1.607   7.658  0.1629 -1.9679  1.7248
 4736SOL    HW225842   4.069   1.547   7.515  0.7553  2.8234 -0.4177
 4737SOL     OW25843   0.429   1.658   5.848 -0.3255 -0.1965  0.0803
 4737SOL    HW125844   0.495   1.618   5.791  0.0386 -0.3802  0.6333
 4737SOL    HW225845   0.399   1.579   5.893 -0.0027  0.2845  1.1372
 4738SOL     OW25846   1.592   1.293   8.600  0.7357  0.2660  0.5116
 4738SOL    HW125847   1.655   1.228   8.632  0.1349  0.5220  2.2045
 4738SOL    HW225848   1.631   1.311   8.514  1.1369 -0.2895  0.5761
 4739SOL     OW25849   3.263   1.108   4.319 -0.0107 -0.3991 -0.5490
 4739SOL    HW125850   3.343   1.153   4.344 -0.4930  0.2067 -0.1063
 4739SOL    HW225851   3.289   1.018   4.296 -0.0184 -0.4446 -0.3754
 4740SOL     OW25852   1.777   1.038  10.301 -0.8055 -0.3745 -0.0468
 4740SOL    HW125853   1.803   0.962  10.249  0.5601 -0.1103  0.2534
 4740SOL    HW225854   1.768   1.003  10.390  0.0455  0.6382  0.4415
 4741SOL     OW25855   1.543   3.315   4.351 -0.0209 -0.4025  0.3859
 4741SOL    HW125856   1.488   3.352   4.282  0.0985  0.7204  0.9029
 4741SOL    HW225857   1.633   3.310   4.318 -0.3965  0.7808 -0.8245
 4742SOL     OW25858   1.623   4.684   0.550  0.3220 -0.0768  0.4516
 4742SOL    HW125859   1.687   0.003   0.508 -0.9287  1.2569  0.3836
 4742SOL    HW225860   1.590   4.639   0.472 -0.0444  0.4449  0.3081
 4743SOL     OW25861   4.402   1.013   1.033 -0.3821  0.6932  0.1294
 4743SOL    HW125862   4.482   1.030   1.081  0.0498  0.2691 -0.4329
 4743SOL    HW225863   4.336   0.989   1.099 -0.2081 -0.7514 -0.2126
 4744SOL     OW25864   2.963   3.307   4.301 -0.6495  0.4814 -0.2758
 4744SOL    HW125865   2.891   3.296   4.363 -0.7092 -0.2903 -0.4829
 4744SOL    HW225866   2.931   3.353   4.224 -3.7721  0.5466  1.0676
 4745SOL     OW25867   3.246   1.425   2.474 -0.2322 -0.2820 -0.0496
 4745SOL    HW125868   3.217   1.516   2.475  0.4911 -0.0386 -1.0489
 4745SOL    HW225869   3.316   1.416   2.409 -1.1819  2.6812 -1.4744
 4746SOL     OW25870   1.955   0.965   7.510  0.4782 -0.2956 -0.3291
 4746SOL    HW125871   1.866   0.930   7.512  0.0585  0.6572 -1.8936
 4746SOL    HW225872   1.946   1.053   7.547 -0.9708 -0.1123 -1.1040
 4747SOL     OW25873   1.993   3.928   6.564 -0.3485  0.0810  0.2760
 4747SOL    HW125874   2.023   4.017   6.546  0.6402 -0.1747  0.6281
 4747SOL    HW225875   1.905   3.929   6.527 -0.2908  0.2472  0.1438
 4748SOL     OW25876   2.096   1.601   6.814 -0.3489  0.3299 -0.1554
 4748SOL    HW125877   2.002   1.617   6.823  0.2182  2.8556  1.2021
 4748SOL    HW225878   2.097   1.599   6.718 -0.0693  0.3996 -0.1524
 4749SOL     OW25879   4.211   1.708   4.615  0.4382 -0.0612 -0.3515
 4749SOL    HW125880   4.136   1.718   4.555  1.6528 -2.0220 -2.1881
 4749SOL    HW225881   4.184   1.768   4.684  0.6225 -1.0268  0.5523
 4750SOL     OW25882   1.241   3.148   2.450 -0.4301 -0.1994  0.6787
 4750SOL    HW125883   1.172   3.181   2.393  0.6245  1.0981  0.1601
 4750SOL    HW225884   1.188   3.140   2.530  1.0270 -0.8089  1.5843
 4751SOL     OW25885   1.127   0.777   9.057 -0.5671  0.3091  0.5956
 4751SOL    HW125886   1.140   0.701   9.000 -1.4016 -0.2200  1.0977
 4751SOL    HW225887   1.037   0.751   9.079 -0.2723  0.0882  1.5505
 4752SOL     OW25888   2.338   2.402  16.589 -0.5078  0.4667  0.1617
 4752SOL    HW125889   2.305   2.426  16.502 -1.7101 -1.3765  0.1090
 4752SOL    HW225890   2.431   2.401  16.565 -0.4352  1.2734  0.4226
 4753SOL     OW25891   0.083   1.662  10.348 -0.0810 -0.1769  0.0348
 4753SOL    HW125892   0.157   1.720  10.328 -1.2327  1.9321  2.0116
 4753SOL    HW225893   0.014   1.725  10.370 -0.4569 -0.4614 -0.3282
 4754SOL     OW25894   1.531   2.350  17.313  0.2603 -0.0352 -0.0234
 4754SOL    HW125895   1.609   2.331  17.261  1.5395 -0.2634  1.9671
 4754SOL    HW225896   1.466   2.290  17.277 -0.2848  1.5147 -1.6242
 4755SOL     OW25897   2.420   0.118   7.284  0.2095 -0.2960  0.1730
 4755SOL    HW125898   2.362   0.113   7.360  0.3774  1.7849  0.4349
 4755SOL    HW225899   2.391   0.195   7.236  1.4421 -0.8344 -1.4593
 4756SOL     OW25900   2.703   0.392   8.072 -0.7291 -0.3159 -0.0170
 4756SOL    HW125901   2.796   0.417   8.079 -0.4233 -1.0495 -1.6275
 4756SOL    HW225902   2.674   0.446   7.998 -2.0823  0.5958  1.1819
 4757SOL     OW25903   1.137   4.347  15.546  0.1137 -0.8458  0.1439
 4757SOL    HW125904   1.056   4.379  15.586  0.7781 -1.4943  2.0250
 4757SOL    HW225905   1.183   4.431  15.536  1.5841 -1.9467 -2.2240
 4758SOL     OW25906   4.047   3.413   5.703 -0.2368  0.6568  0.3776
 4758SOL    HW125907   4.022   3.411   5.610  0.9333  0.0064  0.0824
 4758SOL    HW225908   4.029   3.506   5.716 -2.5914  0.4524 -1.4028
 4759SOL     OW25909   4.572   4.591  12.785 -0.7565 -0.2399  0.0015
 4759SOL    HW125910   4.664   4.575  12.762 -0.1335  2.4158  0.6806
 4759SOL    HW225911   4.527   4.601  12.701  0.3476  1.0187 -0.4271
 4760SOL     OW25912   4.622   1.001   3.405  0.3661 -0.5068  0.2772
 4760SOL    HW125913   4.684   1.072   3.390  1.5046 -1.0152  2.5558
 4760SOL    HW225914   4.601   0.974   3.316 -1.3590 -0.2523  0.5998
 4761SOL     OW25915   2.189   0.987   3.171 -0.1842  0.5999 -0.4535
 4761SOL    HW125916   2.271   0.936   3.170  0.2960  1.2717  2.7295
 4761SOL    HW225917   2.218   1.077   3.186 -0.3604  0.8775 -1.7948
 4762SOL     OW25918   4.091   3.099   4.204 -0.3798 -0.0486 -0.3873
 4762SOL    HW125919   4.117   3.184   4.167  1.2963 -0.5977 -0.4959
 4762SOL    HW225920   4.092   3.051   4.121  1.8884  0.0131 -0.4072
 4763SOL     OW25921   0.188   0.395   1.990  0.5599  0.2878  0.1366
 4763SOL    HW125922   0.139   0.458   1.937  0.4506 -0.0445 -0.1513
 4763SOL    HW225923   0.130   0.411   2.065 -0.4774  1.4470 -0.9273
 4764SOL     OW25924   1.089   1.157   6.902 -0.1262  0.1753 -0.5193
 4764SOL    HW125925   1.062   1.143   6.992  4.0790 -1.4000  0.5265
 4764SOL    HW225926   1.184   1.147   6.909  0.1501  2.1161 -1.4728
 4765SOL     OW25927   3.036   0.124   8.761 -0.1492 -0.2441 -0.4952
 4765SOL    HW125928   3.005   0.134   8.851  2.1953  2.2259  0.0783
 4765SOL    HW225929   3.104   0.192   8.758 -0.8439  0.4624 -0.1942
 4766SOL     OW25930   4.671   0.691  10.909 -0.2398  0.4642  0.2621
 4766SOL    HW125931   0.016   0.669  10.951 -0.5770 -1.0688  0.1431
 4766SOL    HW225932   4.650   0.605  10.870  0.4057  0.8009 -0.8352
 4767SOL     OW25933   2.276   2.040   3.098 -0.0328 -0.6748  0.1380
 4767SOL    HW125934   2.300   2.054   3.189  4.3868  1.9050 -1.3878
 4767SOL    HW225935   2.315   2.120   3.061 -2.5876  1.2603  1.6167
 4768SOL     OW25936   1.649   4.167   0.854 -0.0520  0.4766  0.1773
 4768SOL    HW125937   1.654   4.256   0.890 -0.9706 -0.2360  2.0339
 4768SOL    HW225938   1.556   4.161   0.834  0.2588 -2.0790 -0.4134
 4769SOL     OW25939   0.236   1.596   4.328  0.3870 -0.5778  0.7207
 4769SOL    HW125940   0.309   1.576   4.387  0.8603 -2.0061 -0.3470
 4769SOL    HW225941   0.196   1.509   4.324 -1.6284  0.4328 -1.4594
 4770SOL     OW25942   0.267   0.694   0.935  0.3763 -0.0741  0.2811
 4770SOL    HW125943   0.240   0.721   0.847 -0.9294 -0.5150  0.5586
 4770SOL    HW225944   0.301   0.776   0.971 -2.7964  1.7418 -0.8886
 4771SOL     OW25945   2.387   3.123   4.005  0.3151 -0.1227  0.3297
 4771SOL    HW125946   2.392   3.136   3.910  1.5720  0.5232  0.4898
 4771SOL    HW225947   2.363   3.031   4.013  0.3744  0.0182  2.0220
 4772SOL     OW25948   4.574   3.345   2.384  0.2657  0.0702  0.0157
 4772SOL    HW125949   4.499   3.286   2.386 -0.7062  1.3658  1.2583
 4772SOL    HW225950   4.562   3.404   2.459 -2.4028  0.8750 -1.0365
 4773SOL     OW25951   4.696   2.426  12.613 -0.6367 -0.4491  0.3586
 4773SOL    HW125952   4.703   2.427  12.708  1.8924  0.9852  0.1494
 4773SOL    HW225953   0.007   2.507  12.600 -0.1424 -0.7838  0.1201
 4774SOL     OW25954   2.241   2.091  17.573 -0.6055  0.3885 -0.3397
 4774SOL    HW125955   2.252   2.124  17.484  1.3463 -0.8355 -0.5323
 4774SOL    HW225956   2.152   2.055  17.565 -0.5584  0.0313  0.7831
 4775SOL     OW25957   1.810   3.936   2.450 -0.1025 -0.0227 -0.4198
 4775SOL    HW125958   1.847   3.973   2.530 -1.3737 -1.5514  0.8593
 4775SOL    HW225959   1.820   3.844   2.473  0.3399  0.7890  2.7222
 4776SOL     OW25960   1.798   1.606   7.794  0.6846 -0.0253  0.1571
 4776SOL    HW125961   1.854   1.550   7.847  1.2217  0.0904 -0.2969
 4776SOL    HW225962   1.717   1.606   7.845 -0.2810 -1.4125 -1.3684
 4777SOL     OW25963   3.033   0.514   2.352 -0.0715 -0.8152  0.2201
 4777SOL    HW125964   3.051   0.577   2.421  1.1579 -2.1010  1.0896
 4777SOL    HW225965   3.037   0.431   2.401  3.4574 -1.8457 -1.8155
 4778SOL     OW25966   0.960   0.694   8.457 -0.2988 -0.3003 -0.0047
 4778SOL    HW125967   0.867   0.715   8.456 -0.2767 -0.1533  1.4560
 4778SOL    HW225968   0.986   0.786   8.456  1.4049 -0.7768  1.0842
 4779SOL     OW25969   1.745   1.684  12.468 -0.0885 -0.3160  0.0378
 4779SOL    HW125970   1.702   1.760  12.430 -1.9797  0.5794  3.9762
 4779SOL    HW225971   1.682   1.647  12.530 -0.2767 -0.7456 -0.4078
 4780SOL     OW25972   2.729   1.786  11.697  0.4332 -0.3145 -0.0567
 4780SOL    HW125973   2.694   1.751  11.779  1.6316  0.7879  0.9395
 4780SOL    HW225974   2.650   1.765  11.648  0.0533  0.9471  0.0280
 4781SOL     OW25975   2.732   3.700   9.211  0.1416 -0.9157 -0.1466
 4781SOL    HW125976   2.735   3.745   9.127 -1.6086 -1.1369 -0.3320
 4781SOL    HW225977   2.807   3.641   9.206  2.1369  1.4974  1.5819
 4782SOL     OW25978   4.237   3.071  17.239  0.1045 -0.2316  0.2788
 4782SOL    HW125979   4.219   3.123  17.317 -0.2009 -1.6734  1.1668
 4782SOL    HW225980   4.281   3.136  17.185 -0.6873 -1.3551 -1.7064
 4783SOL     OW25981   0.160   2.470   3.390  0.3061  0.2693 -0.1475
 4783SOL    HW125982   0.131   2.478   3.481 -0.1882 -2.0181 -0.0941
 4783SOL    HW225983   0.240   2.520   3.401 -0.0927  0.9536 -0.3514
 4784SOL     OW25984   1.100   3.955   6.002  0.1702 -0.0968  0.3436
 4784SOL    HW125985   1.195   3.964   5.996  0.1935 -1.4275 -1.4482
 4784SOL    HW225986   1.100   3.954   6.097  0.7075 -0.5993  0.3431
 4785SOL     OW25987   3.570   0.649   4.866  0.3148 -0.5864 -0.3381
 4785SOL    HW125988   3.539   0.561   4.885 -0.7480 -0.2761 -0.6254
 4785SOL    HW225989   3.625   0.666   4.942 -1.8384 -0.7622  1.2752
 4786SOL     OW25990   3.330   3.322   0.140 -0.2402 -0.0560 -0.0298
 4786SOL    HW125991   3.330   3.318   0.235  1.4277 -1.7705 -0.0948
 4786SOL    HW225992   3.236   3.308   0.128  0.3356 -1.2279 -3.3467
 4787SOL     OW25993   3.356   0.977   5.582  0.1467 -0.5896  0.8603
 4787SOL    HW125994   3.303   0.911   5.536 -0.0862  0.1907  0.0139
 4787SOL    HW225995   3.365   0.941   5.670  0.9419 -1.3377  0.4819
 4788SOL     OW25996   2.801   1.211   8.611  0.3979 -0.1666  0.3854
 4788SOL    HW125997   2.874   1.273   8.609  0.2864 -0.0731 -0.4607
 4788SOL    HW225998   2.741   1.249   8.676 -1.0344 -3.1343  0.7597
 4789SOL     OW25999   3.492   2.888   4.836 -0.1621 -0.3064  0.5053
 4789SOL    HW126000   3.461   2.898   4.926  0.7005 -1.3158  0.9108
 4789SOL    HW226001   3.479   2.796   4.815  1.4689  0.1814 -2.7718
 4790SOL     OW26002   2.790   2.061   7.991  0.2612 -0.2303  0.3921
 4790SOL    HW126003   2.713   2.008   7.970  0.0334 -0.1241  0.9525
 4790SOL    HW226004   2.842   2.007   8.051 -0.1306 -1.4131 -0.3229
 4791SOL     OW26005   4.704   3.330   4.379 -0.1432 -0.0935 -0.7454
 4791SOL    HW126006   4.632   3.316   4.317 -0.0466  1.1142 -1.1441
 4791SOL    HW226007   4.682   3.252   4.429  0.6514  0.5914  0.6577
 4792SOL     OW26008   3.458   3.236   4.371 -0.4307 -0.1334 -0.2078
 4792SOL    HW126009   3.378   3.242   4.318 -0.1075 -0.0546 -0.6842
 4792SOL    HW226010   3.521   3.214   4.303 -0.3105 -1.7085  0.4204
 4793SOL     OW26011   1.832   1.035   2.793 -0.0682 -0.5599  0.2487
 4793SOL    HW126012   1.859   1.037   2.885 -1.1433  0.4741  0.5428
 4793SOL    HW226013   1.779   1.115   2.792 -0.9196 -1.1080  1.6738
 4794SOL     OW26014   2.710   1.012   2.889 -0.6750 -0.3745 -0.3369
 4794SOL    HW126015   2.659   0.955   2.832 -1.0227 -0.6912  0.2829
 4794SOL    HW226016   2.734   1.076   2.823  0.2901  0.2300  0.6001
 4795SOL     OW26017   1.341   2.108   5.036 -0.3523 -0.1708 -0.3979
 4795SOL    HW126018   1.428   2.145   5.021 -1.2812  1.9823 -0.5704
 4795SOL    HW226019   1.279   2.181   5.023 -0.4226  0.0568  1.2518
 4796SOL     OW26020   1.924   3.245   4.025  0.2731  0.1671  0.4929
 4796SOL    HW126021   1.898   3.335   4.004  0.0448 -0.2409 -1.0011
 4796SOL    HW226022   1.959   3.222   3.939  0.6412  3.4306 -0.2443
 4797SOL     OW26023   3.539   3.181   3.516 -0.1289  0.1152  0.0266
 4797SOL    HW126024   3.539   3.162   3.422 -0.5935  1.1055 -0.1704
 4797SOL    HW226025   3.634   3.172   3.522 -0.3867 -1.6235  1.5993
 4798SOL     OW26026   3.989   3.149   4.678  0.2857 -0.2602 -0.3746
 4798SOL    HW126027   4.002   3.123   4.587 -0.4855  0.9418 -0.8294
 4798SOL    HW226028   4.054   3.090   4.716 -0.5236 -0.5016  0.6425
 4799SOL     OW26029   0.118   1.214   7.350  0.1020  0.2644 -0.0980
 4799SOL    HW126030   0.061   1.253   7.416 -0.4378  0.3069 -0.5967
 4799SOL    HW226031   0.069   1.133   7.337  3.4122 -1.7601 -0.0911
 4800SOL     OW26032   4.236   3.464  17.484  0.8579 -0.4131  0.3407
 4800SOL    HW126033   4.314   3.495  17.437  1.0870  0.6738  1.4377
 4800SOL    HW226034   4.166   3.497  17.427  0.4866 -0.0871  0.9789
 4801SOL     OW26035   2.060   1.545   7.916 -0.0962  0.2456 -0.2222
 4801SOL    HW126036   2.054   1.640   7.920  0.7709  0.3722 -2.0517
 4801SOL    HW226037   2.145   1.537   7.959 -1.6122  1.5511  3.0384
 4802SOL     OW26038   0.819   0.544  12.051  0.4035  0.0125 -0.4436
 4802SOL    HW126039   0.807   0.564  12.143 -3.3585  0.2166 -0.9949
 4802SOL    HW226040   0.770   0.463  12.036 -1.1609  1.1292 -1.3963
 4803SOL     OW26041   1.982   3.448   6.488 -0.2759 -0.1492 -0.3718
 4803SOL    HW126042   1.931   3.421   6.564  0.8576  1.2339  0.8883
 4803SOL    HW226043   2.063   3.461   6.537 -0.6408 -0.7501  0.3812
 4804SOL     OW26044   4.092   1.426   5.755  0.2464  0.5814 -0.3803
 4804SOL    HW126045   4.144   1.478   5.816 -0.8026  1.1267  0.0536
 4804SOL    HW226046   4.051   1.375   5.825 -0.7319  3.1236  0.8704
 4805SOL     OW26047   1.550   4.192   5.362  0.0648  0.2015  0.0263
 4805SOL    HW126048   1.543   4.284   5.389 -1.2514  0.7349 -2.1690
 4805SOL    HW226049   1.479   4.191   5.298  0.7021  0.3019 -0.6799
 4806SOL     OW26050   1.860   0.466   5.171  0.2690 -0.7396 -0.5350
 4806SOL    HW126051   1.886   0.465   5.079  1.7365 -1.3106 -0.1086
 4806SOL    HW226052   1.879   0.559   5.176 -1.2168 -0.4607 -0.1060
 4807SOL     OW26053   4.699   1.892   3.949 -0.1219  0.1159  0.2613
 4807SOL    HW126054   4.622   1.835   3.953  0.4099 -0.6317 -0.0790
 4807SOL    HW226055   4.675   1.963   3.890 -1.3871 -1.2633 -0.8828
 4808SOL     OW26056   3.709   2.629   2.081  0.2349 -0.2791 -0.5195
 4808SOL    HW126057   3.659   2.556   2.117  0.4443  0.0571  0.4505
 4808SOL    HW226058   3.712   2.685   2.158  0.9993  0.0742 -0.7996
 4809SOL     OW26059   1.274   3.394   5.694 -0.0377  0.7427  0.0252
 4809SOL    HW126060   1.324   3.438   5.763 -0.2025  0.3962  0.3676
 4809SOL    HW226061   1.328   3.396   5.615  0.2355  0.2379  0.2001
 4810SOL     OW26062   4.710   3.743   3.045 -0.7859 -0.1775 -0.3853
 4810SOL    HW126063   0.054   3.732   2.997 -0.2559 -2.1110  1.0244
 4810SOL    HW226064   4.646   3.737   2.974 -0.5765  1.3458 -0.7085
 4811SOL     OW26065   2.387   3.902  16.826  0.1506  0.1948  0.1108
 4811SOL    HW126066   2.385   3.916  16.920  1.4563  0.4907  0.0963
 4811SOL    HW226067   2.296   3.890  16.797  0.0366 -1.3441  1.1603
 4812SOL     OW26068   3.249   3.421  12.006  0.5534 -0.2533  0.4888
 4812SOL    HW126069   3.265   3.504  11.962 -1.8714  1.1892  2.3234
 4812SOL    HW226070   3.326   3.370  11.983  0.5086  0.5107 -1.3285
 4813SOL     OW26071   3.790   4.672  10.648 -0.1838 -0.6924 -0.2357
 4813SOL    HW126072   3.829   4.688  10.562  0.8153 -1.1791  0.1274
 4813SOL    HW226073   3.741   0.013  10.666  0.2168 -0.6316  0.5830
 4814SOL     OW26074   0.146   1.129   2.276  0.8500  0.1495  0.1360
 4814SOL    HW126075   0.141   1.224   2.271  2.3529  0.2752  1.2491
 4814SOL    HW226076   0.194   1.135   2.359 -1.2984  1.7917  1.2682
 4815SOL     OW26077   0.442   0.307   8.778 -0.2254 -0.5715  0.4412
 4815SOL    HW126078   0.490   0.287   8.698  1.7129 -1.0849  1.7297
 4815SOL    HW226079   0.366   0.348   8.737 -0.9300  0.3073  2.5803
 4816SOL     OW26080   4.478   1.376  10.098 -0.4716 -0.7735  0.3930
 4816SOL    HW126081   4.567   1.353  10.072 -0.7483 -0.0330 -1.1955
 4816SOL    HW226082   4.474   1.334  10.184  0.6044 -2.1971 -0.2600
 4817SOL     OW26083   1.202   1.934   4.330  0.0799 -0.1370  0.3641
 4817SOL    HW126084   1.134   1.953   4.395 -2.2058 -1.7989 -1.5255
 4817SOL    HW226085   1.203   1.839   4.325 -2.1115 -0.1512 -0.1140
 4818SOL     OW26086   2.351   3.657   1.067  0.0774  0.0576 -0.0500
 4818SOL    HW126087   2.320   3.647   0.977 -2.0745 -0.5197  0.7467
 4818SOL    HW226088   2.370   3.565   1.085  1.3749  0.7562  2.0328
 4819SOL     OW26089   2.066   2.258  12.615  0.2334 -0.6515 -0.8172
 4819SOL    HW126090   2.035   2.184  12.563 -0.9298  0.1302 -1.2204
 4819SOL    HW226091   2.064   2.222  12.704  1.4435  1.8104  0.2132
 4820SOL     OW26092   2.838   1.553   1.005 -0.0508 -0.0172  0.3221
 4820SOL    HW126093   2.852   1.620   1.071 -1.3558  2.4812 -1.9463
 4820SOL    HW226094   2.750   1.584   0.984 -0.2276 -1.2442 -0.8055
 4821SOL     OW26095   1.147   3.577  13.149  0.0312  0.4168  0.4351
 4821SOL    HW126096   1.142   3.549  13.057 -2.3226 -2.4165  1.4284
 4821SOL    HW226097   1.054   3.590  13.169 -0.2368 -0.7053 -0.0934
 4822SOL     OW26098   0.611   4.638   8.682 -0.2722  0.1507  0.1202
 4822SOL    HW126099   0.682   4.692   8.718  0.8869 -0.2466 -1.5832
 4822SOL    HW226100   0.619   4.656   8.588  0.3405  1.0624  0.3430
 4823SOL     OW26101   4.056   4.119   3.063 -0.1931 -0.2002  0.0285
 4823SOL    HW126102   4.051   4.024   3.048  1.4531 -0.3855  0.6670
 4823SOL    HW226103   4.022   4.160   2.984  0.8675  1.9867  0.7110
 4824SOL     OW26104   0.696   1.715   3.145 -0.6952 -0.4820 -0.1548
 4824SOL    HW126105   0.650   1.798   3.155  0.6439  0.3352 -0.7465
 4824SOL    HW226106   0.723   1.721   3.053 -1.7115  1.5315 -0.3234
 4825SOL     OW26107   2.464   3.535   9.583  0.1424 -0.7855 -0.4120
 4825SOL    HW126108   2.400   3.476   9.624 -0.7002  0.0367 -0.5468
 4825SOL    HW226109   2.506   3.561   9.664  1.8462  0.1920 -1.6153
 4826SOL     OW26110   4.721   1.838  10.666 -0.1442  0.0843  0.2947
 4826SOL    HW126111   4.686   1.861  10.580  1.8945  3.1090  0.3001
 4826SOL    HW226112   4.671   1.892  10.727  0.6848  2.1242 -0.8597
 4827SOL     OW26113   2.501   0.664   9.311  0.1984 -0.4740  0.4800
 4827SOL    HW126114   2.426   0.712   9.276  1.1977  1.7409  1.4125
 4827SOL    HW226115   2.552   0.734   9.351  0.3442 -0.8271  0.9199
 4828SOL     OW26116   0.773   0.924   7.658 -1.0693 -0.2588 -0.5537
 4828SOL    HW126117   0.833   0.941   7.585  0.1203  2.8118  1.1539
 4828SOL    HW226118   0.747   1.016   7.661  0.4682  0.2192 -1.6607
 4829SOL     OW26119   1.843   2.696   1.793 -0.3996  0.0245  0.4041
 4829SOL    HW126120   1.786   2.724   1.721  0.1859 -0.0586 -0.0895
 4829SOL    HW226121   1.925   2.741   1.773 -0.6808  1.3035  2.0869
 4830SOL     OW26122   0.417   2.043   0.458  0.0784  0.0359  0.1389
 4830SOL    HW126123   0.461   2.114   0.411 -1.4889 -0.7739 -2.5718
 4830SOL    HW226124   0.401   1.971   0.396 -0.9887  0.4415 -0.0539
 4831SOL     OW26125   2.799   1.362   7.075  0.0107 -0.2155 -0.3123
 4831SOL    HW126126   2.855   1.436   7.099 -1.3263  0.4670  0.6828
 4831SOL    HW226127   2.746   1.351   7.154 -1.0089 -1.5559 -1.1822
 4832SOL     OW26128   2.918   1.593  13.627 -0.2654  0.3673  0.1111
 4832SOL    HW126129   2.852   1.557  13.568  0.5691 -0.8579 -0.0706
 4832SOL    HW226130   2.995   1.552  13.587  1.2626  1.9896  1.3774
 4833SOL     OW26131   4.438   0.055   8.425 -0.8029 -0.2470 -0.5315
 4833SOL    HW126132   4.482   0.008   8.354  1.1240  0.0657  0.4781
 4833SOL    HW226133   4.413   0.135   8.377  0.6407 -0.5746 -1.8352
 4834SOL     OW26134   1.742   1.012   5.979  0.2890  0.3071 -0.1244
 4834SOL    HW126135   1.716   1.004   6.071 -0.4775  1.0435 -0.2763
 4834SOL    HW226136   1.670   1.056   5.933 -0.4632  0.4320  1.1903
 4835SOL     OW26137   0.377   2.781   1.413  0.4755 -0.1184  0.4587
 4835SOL    HW126138   0.356   2.841   1.485  0.0663  0.2530  0.0283
 4835SOL    HW226139   0.424   2.836   1.351  0.6064  0.4299  1.0463
 4836SOL     OW26140   0.105   1.979   2.398 -0.4135 -0.3817  0.4429
 4836SOL    HW126141   0.192   1.999   2.433  1.1443 -0.9843 -3.0851
 4836SOL    HW226142   0.059   2.063   2.391 -1.2666 -0.9908 -1.0416
 4837SOL     OW26143   2.706   2.536   6.714 -0.4949 -0.0384 -0.3071
 4837SOL    HW126144   2.618   2.511   6.743  1.3304 -0.6858  4.7343
 4837SOL    HW226145   2.686   2.620   6.673 -1.9465 -0.4756 -0.4911
 4838SOL     OW26146   3.386   0.436  11.218  0.4302  0.4866  0.2068
 4838SOL    HW126147   3.457   0.439  11.283  0.1106  0.9538  0.5325
 4838SOL    HW226148   3.432   0.414  11.137  1.0956  0.5263  0.5685
 4839SOL     OW26149   3.383   2.248   3.077  0.1027  0.7627 -1.1484
 4839SOL    HW126150   3.377   2.226   3.170  1.2062  0.0861 -1.2464
 4839SOL    HW226151   3.408   2.166   3.036 -0.0672 -0.7480  1.7533
 4840SOL     OW26152   0.264   0.667   3.398  0.0957  0.8200 -0.2134
 4840SOL    HW126153   0.170   0.681   3.414 -0.1119  0.4754 -1.1346
 4840SOL    HW226154   0.292   0.758   3.385  0.4181  0.9203  1.1082
 4841SOL     OW26155   3.091   0.485   1.852 -0.7648  0.6740 -0.7825
 4841SOL    HW126156   3.070   0.422   1.921 -1.5375  1.8519  0.0457
 4841SOL    HW226157   3.026   0.552   1.872  1.0166  2.9647 -2.8069
 4842SOL     OW26158   2.032   4.217   3.288  0.4568  0.4010 -0.0559
 4842SOL    HW126159   2.026   4.282   3.218 -0.9694  0.4822  0.1349
 4842SOL    HW226160   1.989   4.260   3.362 -2.0525 -0.6281 -0.9382
 4843SOL     OW26161   2.087   2.230   8.160 -0.0355  0.4986  0.6251
 4843SOL    HW126162   2.130   2.149   8.185 -0.8235 -0.5030 -1.2500
 4843SOL    HW226163   2.007   2.221   8.212  0.4360 -3.6654  0.5987
 4844SOL     OW26164   3.593   0.148   6.216  0.1217 -0.3653  1.5724
 4844SOL    HW126165   3.596   0.127   6.123 -1.2302 -1.7003  1.8310
 4844SOL    HW226166   3.689   0.147   6.223  0.3443 -0.1250 -1.7343
 4845SOL     OW26167   4.288   1.163   7.548 -0.0896  0.0556 -0.5626
 4845SOL    HW126168   4.331   1.240   7.512  0.3861 -0.3545 -0.8782
 4845SOL    HW226169   4.357   1.096   7.551 -2.0886 -1.9766  0.4396
 4846SOL     OW26170   3.282   2.116   4.277  0.3403 -0.0111  0.2986
 4846SOL    HW126171   3.290   2.106   4.182  2.0810  0.3834  0.3971
 4846SOL    HW226172   3.229   2.041   4.303  1.0693 -0.5669  0.2012
 4847SOL     OW26173   4.502   1.155   5.994 -0.4989 -0.4626  0.2385
 4847SOL    HW126174   4.565   1.198   6.051  1.1196  0.2843 -2.0847
 4847SOL    HW226175   4.494   1.221   5.925  0.3069 -2.6491 -2.0055
 4848SOL     OW26176   0.276   0.881   8.821 -0.1837  0.2401 -0.4606
 4848SOL    HW126177   0.223   0.837   8.886  2.0633 -0.9573  0.5631
 4848SOL    HW226178   0.329   0.806   8.790  0.0994  0.5313 -0.6896
 4849SOL     OW26179   2.100   3.445   1.789  0.7281  0.1419 -0.1661
 4849SOL    HW126180   2.070   3.477   1.705 -2.2685  0.9169  1.1873
 4849SOL    HW226181   2.179   3.496   1.807  0.5043  0.5460 -0.3285
 4850SOL     OW26182   2.315   0.203   6.044  0.0893  0.1364 -0.1985
 4850SOL    HW126183   2.250   0.151   6.092 -0.5453 -0.5385 -1.7828
 4850SOL    HW226184   2.262   0.227   5.968 -1.3587 -1.5049  0.2730
 4851SOL     OW26185   0.811   2.654   3.959  0.2560 -0.3372  0.2636
 4851SOL    HW126186   0.722   2.687   3.941  0.7569 -0.0975 -1.7786
 4851SOL    HW226187   0.861   2.646   3.878  0.7786 -0.9373  0.6471
 4852SOL     OW26188   1.210   3.493  17.530 -0.3813 -0.5652  0.0403
 4852SOL    HW126189   1.302   3.517  17.524 -0.7204  1.0064  1.2566
 4852SOL    HW226190   1.203   3.440  17.610  0.3093  1.7897  1.6588
 4853SOL     OW26191   4.207   4.208   2.061  0.2567 -0.1750  0.3199
 4853SOL    HW126192   4.282   4.154   2.037  0.4888  0.8808 -1.2741
 4853SOL    HW226193   4.138   4.151   2.025 -0.6179  1.6064 -0.8088
 4854SOL     OW26194   4.234   2.958   3.999 -0.7415  0.1858 -0.1883
 4854SOL    HW126195   4.249   2.864   4.007 -2.6773 -0.1239 -0.0566
 4854SOL    HW226196   4.274   2.991   4.080 -0.9427 -0.7367  0.2829
 4855SOL     OW26197   2.662   1.524   9.995  0.2327 -0.2370 -0.2884
 4855SOL    HW126198   2.720   1.539   9.920 -1.3592 -1.0389 -1.6665
 4855SOL    HW226199   2.615   1.445   9.969 -0.7559  0.6193 -1.1532
 4856SOL     OW26200   2.076   3.117   6.895  0.0398  0.3274  0.5285
 4856SOL    HW126201   1.987   3.119   6.859 -0.4473  0.7452  1.7759
 4856SOL    HW226202   2.117   3.189   6.846 -0.9872  1.8180  1.8501
 4857SOL     OW26203   0.172   2.714  15.192 -0.8447  0.0628 -0.1595
 4857SOL    HW126204   0.143   2.709  15.101 -1.4462  0.7308 -0.0033
 4857SOL    HW226205   0.098   2.664  15.227 -1.3779  0.4187 -0.7910
 4858SOL     OW26206   3.347   1.774   2.828 -0.5248  0.4347 -0.1784
 4858SOL    HW126207   3.313   1.696   2.783  1.7408 -1.1787  0.9112
 4858SOL    HW226208   3.267   1.825   2.818 -1.4113 -0.8116  0.5124
 4859SOL     OW26209   3.778   4.625   6.700 -0.1358 -0.1231 -0.5075
 4859SOL    HW126210   3.722   4.701   6.689 -0.9285 -0.7358 -0.6638
 4859SOL    HW226211   3.788   4.625   6.795 -0.3488  1.3200 -0.4854
 4860SOL     OW26212   0.135   4.549   7.929 -0.1445  0.9120  0.0005
 4860SOL    HW126213   0.082   4.477   7.893 -0.1817  0.4662  0.9434
 4860SOL    HW226214   0.087   4.624   7.893 -3.3234  0.4752  3.3007
 4861SOL     OW26215   4.055   0.835   4.562 -0.2880 -0.0769  0.2531
 4861SOL    HW126216   4.059   0.905   4.497 -0.5119  0.8324  1.2170
 4861SOL    HW226217   3.982   0.784   4.529  1.5846 -2.7675  0.3245
 4862SOL     OW26218   2.374   3.882   2.835  0.0418  0.3978 -0.2604
 4862SOL    HW126219   2.469   3.888   2.844  0.1281 -0.4910 -0.5341
 4862SOL    HW226220   2.361   3.804   2.889 -1.4414 -0.2731 -1.5844
 4863SOL     OW26221   3.627   3.370   3.104  0.0908 -0.1465  0.1643
 4863SOL    HW126222   3.646   3.411   3.188 -2.0044  1.9237 -0.3919
 4863SOL    HW226223   3.569   3.297   3.128  0.0891  0.6639  2.5950
 4864SOL     OW26224   3.631   0.402   4.270 -0.2218  0.2096  0.5815
 4864SOL    HW126225   3.682   0.369   4.344 -1.5929  0.0395  1.4370
 4864SOL    HW226226   3.694   0.464   4.232  0.8164 -0.8633  0.5710
 4865SOL     OW26227   1.281   3.176  17.439 -0.0469 -0.6522 -0.0086
 4865SOL    HW126228   1.269   3.270  17.422 -2.0001 -0.7800  0.6213
 4865SOL    HW226229   1.348   3.169  17.507 -0.1569 -0.2818  0.1439
 4866SOL     OW26230   0.538   2.042  15.626 -0.5320  0.0820 -0.1129
 4866SOL    HW126231   0.521   2.135  15.640 -1.8940 -0.1414 -0.2602
 4866SOL    HW226232   0.586   2.022  15.706 -0.6483  1.1376  0.2257
 4867SOL     OW26233   0.288   2.190  13.469 -0.0970  0.4157 -0.0730
 4867SOL    HW126234   0.227   2.200  13.542 -1.1554 -3.0601 -0.4698
 4867SOL    HW226235   0.367   2.233  13.502  0.3429 -2.3966  2.5270
 4868SOL     OW26236   1.464   1.959   4.764  0.3394 -0.2393 -0.2373
 4868SOL    HW126237   1.527   2.016   4.808  1.1073 -0.5495 -0.9389
 4868SOL    HW226238   1.389   2.018   4.755 -2.0725 -3.2549  0.0766
 4869SOL     OW26239   1.277   4.025  14.430 -0.8240 -0.1006 -0.4958
 4869SOL    HW126240   1.292   4.088  14.501  2.1928  0.6412 -1.7759
 4869SOL    HW226241   1.230   4.080  14.368 -0.4044  0.2554 -0.4962
 4870SOL     OW26242   0.997   0.111   1.418  0.0580 -0.2236 -0.1259
 4870SOL    HW126243   0.939   0.042   1.452 -2.0767  1.2926 -0.6747
 4870SOL    HW226244   1.010   0.172   1.491  0.3226  0.6683 -0.9151
 4871SOL     OW26245   1.614   0.774   3.299  0.5888 -0.2768 -0.4694
 4871SOL    HW126246   1.553   0.829   3.251  1.8758  0.8280 -0.8476
 4871SOL    HW226247   1.589   0.690   3.261 -0.8059  0.7890 -1.8985
 4872SOL     OW26248   1.416   3.539  11.719  0.6246  0.2943  0.6186
 4872SOL    HW126249   1.385   3.626  11.744 -1.2792  0.2727 -1.6012
 4872SOL    HW226250   1.377   3.541  11.631  2.2699  0.9359 -0.1019
 4873SOL     OW26251   2.242   2.181   3.871 -0.2927  0.5239 -0.0209
 4873SOL    HW126252   2.162   2.230   3.850 -0.2922  0.6998  0.3842
 4873SOL    HW226253   2.286   2.206   3.790 -1.5082 -1.6084 -1.3072
 4874SOL     OW26254   3.773   4.517   6.155 -0.1410 -0.0519 -0.5158
 4874SOL    HW126255   3.759   4.495   6.247 -1.2609 -1.0987 -0.9485
 4874SOL    HW226256   3.866   4.538   6.166 -0.1199 -0.3597 -0.1127
 4875SOL     OW26257   3.361   0.364   7.723 -0.4430 -0.1830 -0.4836
 4875SOL    HW126258   3.385   0.306   7.651  1.0136 -1.2511  0.8688
 4875SOL    HW226259   3.266   0.355   7.731 -0.0978 -2.8431  0.5970
 4876SOL     OW26260   0.536   0.400   9.497 -0.0568 -0.1969  0.1874
 4876SOL    HW126261   0.607   0.464   9.505 -1.5133  1.0651  2.7469
 4876SOL    HW226262   0.471   0.464   9.470  2.6234  2.8531  1.0293
 4877SOL     OW26263   1.215   1.592   8.707 -0.0921 -0.1796  0.0590
 4877SOL    HW126264   1.308   1.592   8.729  0.0307  1.0326 -0.4747
 4877SOL    HW226265   1.188   1.642   8.784  0.4077  1.0916 -0.6027
 4878SOL     OW26266   1.697   0.340  15.694  0.2194  0.5478 -0.2912
 4878SOL    HW126267   1.704   0.434  15.681 -1.6907  0.7109 -0.0070
 4878SOL    HW226268   1.616   0.331  15.743  0.3963 -1.5686 -0.3775
 4879SOL     OW26269   1.382   0.789   5.641  0.0445 -0.1567 -1.0093
 4879SOL    HW126270   1.292   0.759   5.633  0.5060 -1.0981 -2.5559
 4879SOL    HW226271   1.380   0.824   5.730  1.6692 -0.1931 -0.9596
 4880SOL     OW26272   4.478   2.342   7.201 -0.2193  0.1218  0.4637
 4880SOL    HW126273   4.541   2.299   7.258  0.3910  2.0477  1.2290
 4880SOL    HW226274   4.411   2.353   7.268 -1.2904 -1.3450 -0.3587
 4881SOL     OW26275   2.261   1.254   4.757 -0.3251 -0.4347  0.2634
 4881SOL    HW126276   2.333   1.268   4.696 -0.8273 -0.6850 -0.3901
 4881SOL    HW226277   2.222   1.170   4.734 -0.0456 -0.5978  0.3856
 4882SOL     OW26278   0.245   2.013  16.711  0.6882  0.3937 -0.3575
 4882SOL    HW126279   0.255   1.968  16.628  1.2359  1.0726 -0.6607
 4882SOL    HW226280   0.184   1.947  16.745  0.4986 -0.5781 -2.6197
 4883SOL     OW26281   1.250   4.319  10.975  0.1060 -0.0799  0.0221
 4883SOL    HW126282   1.172   4.263  10.973 -0.6148  0.9754 -1.3907
 4883SOL    HW226283   1.282   4.303  10.887  0.7202  1.4285 -0.0365
 4884SOL     OW26284   1.481   1.404  13.597 -0.4676  0.1371 -0.3879
 4884SOL    HW126285   1.397   1.369  13.568  0.6882 -1.7477 -1.4164
 4884SOL    HW226286   1.467   1.498  13.606 -1.3901 -0.0346 -0.0623
 4885SOL     OW26287   0.682   1.610   5.468 -0.6095  0.1778  0.3620
 4885SOL    HW126288   0.705   1.675   5.402  0.0222  0.4794  0.8826
 4885SOL    HW226289   0.760   1.555   5.462 -1.1270 -0.9439  3.7712
 4886SOL     OW26290   3.182   0.792   5.468 -0.2901  0.4339 -0.2930
 4886SOL    HW126291   3.220   0.780   5.381 -1.0811 -1.8699 -0.3183
 4886SOL    HW226292   3.202   0.706   5.506  2.5550  1.0265 -0.4316
 4887SOL     OW26293   1.540   3.267   2.983  0.0888  0.5386  0.2544
 4887SOL    HW126294   1.510   3.198   2.924 -1.9341  0.5605  1.2646
 4887SOL    HW226295   1.484   3.342   2.965  1.0594  1.3324  0.5634
 4888SOL     OW26296   0.961   2.542  17.743  0.4233 -0.0847 -0.1126
 4888SOL    HW126297   0.876   2.512  17.711  0.6954 -1.7174  0.7029
 4888SOL    HW226298   0.976   2.617  17.685  0.0148 -0.6588 -0.9599
 4889SOL     OW26299   0.124   4.062   0.244 -0.9747  0.2850  0.0467
 4889SOL    HW126300   0.052   4.118   0.213 -2.0333 -1.5001 -0.7103
 4889SOL    HW226301   0.140   4.010   0.165  0.3495  1.6649 -0.6092
 4890SOL     OW26302   0.388   2.001   9.066 -0.1686  0.0707  0.3017
 4890SOL    HW126303   0.432   1.935   9.013 -0.4080 -0.2945  0.5578
 4890SOL    HW226304   0.303   1.958   9.060 -0.1910 -0.1267  2.0156
 4891SOL     OW26305   4.428   2.051  13.389  0.4503  0.0444  0.1044
 4891SOL    HW126306   4.363   1.998  13.434 -1.7197  1.7249 -1.0746
 4891SOL    HW226307   4.463   1.983  13.330 -0.0951 -0.1252 -0.0175
 4892SOL     OW26308   2.924   2.826  12.949 -0.2611  0.0794 -0.1359
 4892SOL    HW126309   2.830   2.817  12.935 -0.1787  0.2919 -0.8140
 4892SOL    HW226310   2.941   2.892  12.882 -1.0391  0.0424 -0.3696
 4893SOL     OW26311   2.389   4.646   6.565 -0.1557 -0.5835  0.2282
 4893SOL    HW126312   2.460   4.698   6.527 -2.6931  2.1686 -0.8312
 4893SOL    HW226313   2.391   4.670   6.657  1.9873 -0.2638  0.0926
 4894SOL     OW26314   0.748   2.783  12.323 -0.6463  0.0779 -0.0895
 4894SOL    HW126315   0.780   2.871  12.305 -0.9375 -0.0599 -1.3189
 4894SOL    HW226316   0.808   2.760  12.394  1.2600  1.4718 -1.2363
 4895SOL     OW26317   3.090   3.644   3.773  0.4827  0.0281 -0.1237
 4895SOL    HW126318   3.166   3.644   3.715  0.6284 -0.9469  0.0707
 4895SOL    HW226319   3.084   3.736   3.798 -1.3335 -0.3097  0.6811
 4896SOL     OW26320   1.858   0.708   2.387 -0.2563  0.8868 -0.1800
 4896SOL    HW126321   1.848   0.752   2.472 -0.8553  1.9713 -0.8111
 4896SOL    HW226322   1.811   0.627   2.405 -0.7619  1.6237  1.8343
 4897SOL     OW26323   2.624   0.008  10.225  0.1122 -0.1259  0.0930
 4897SOL    HW126324   2.666   4.683  10.168  0.1454 -1.3100  1.4344
 4897SOL    HW226325   2.667   0.093  10.212 -0.6707  0.2668  0.0628
 4898SOL     OW26326   2.442   3.300   9.017  0.0749  0.2810  0.0386
 4898SOL    HW126327   2.357   3.320   9.058 -0.3640 -3.3649  0.8592
 4898SOL    HW226328   2.478   3.389   9.009 -2.3017  1.3324  0.7574
 4899SOL     OW26329   1.356   3.452   2.894 -0.1903  0.1242 -0.0067
 4899SOL    HW126330   1.281   3.508   2.914 -1.8942 -1.8005 -0.9047
 4899SOL    HW226331   1.354   3.465   2.799 -3.3136 -1.4086 -0.1655
 4900SOL     OW26332   1.479   2.117   7.153  0.6551 -0.4125  0.1354
 4900SOL    HW126333   1.532   2.175   7.097 -0.1341 -1.0256 -1.2463
 4900SOL    HW226334   1.392   2.138   7.117 -0.0493  0.8743  2.5731
 4901SOL     OW26335   4.044   1.838   7.016 -0.4236  0.0336  0.3333
 4901SOL    HW126336   3.955   1.869   7.035 -1.1925 -1.2954 -1.0980
 4901SOL    HW226337   4.057   1.768   7.080 -0.3896 -0.8677 -0.6614
 4902SOL     OW26338   4.443   0.501   3.886  0.3211 -0.3873 -0.1561
 4902SOL    HW126339   4.411   0.429   3.941 -1.1960  0.7027  0.3508
 4902SOL    HW226340   4.400   0.577   3.923 -0.4948 -1.5701  1.3099
 4903SOL     OW26341   2.759   1.922   9.705  0.3473 -0.3943  0.1485
 4903SOL    HW126342   2.685   1.876   9.744 -0.4161  0.8291  0.1593
 4903SOL    HW226343   2.825   1.855   9.692  0.6693 -0.1064  0.3219
 4904SOL     OW26344   2.040   2.479   2.603 -0.2352 -0.4220  0.0590
 4904SOL    HW126345   2.070   2.459   2.514 -0.5350 -0.5917 -0.0042
 4904SOL    HW226346   2.108   2.536   2.637 -2.2303  1.5572  0.7251
 4905SOL     OW26347   1.747   1.127   8.686 -0.0085  0.0451 -0.7402
 4905SOL    HW126348   1.705   1.083   8.760  0.1869 -0.7992 -1.1251
 4905SOL    HW226349   1.829   1.077   8.683  0.7615  1.3170 -0.7142
 4906SOL     OW26350   0.141   2.970  14.985  0.4845 -0.0007  0.0332
 4906SOL    HW126351   0.079   2.901  14.961  0.4033  0.1724 -0.2589
 4906SOL    HW226352   0.099   3.033  14.925  0.7215  0.7984  0.7012
 4907SOL     OW26353   0.376   0.917   3.332 -0.5487 -0.3202  0.1726
 4907SOL    HW126354   0.357   0.948   3.243 -1.9299  0.0827  0.6070
 4907SOL    HW226355   0.460   0.878   3.310 -0.6356  0.4664 -1.5710
 4908SOL     OW26356   1.709   0.812   8.485 -0.3128  0.0562  0.0488
 4908SOL    HW126357   1.659   0.862   8.549 -0.8409  1.1523 -1.2109
 4908SOL    HW226358   1.665   0.727   8.487  1.8221 -1.0281  0.2236
 4909SOL     OW26359   0.559   0.146   5.537 -0.1490 -0.8105  0.1170
 4909SOL    HW126360   0.618   0.092   5.589 -0.6943 -2.9936 -1.5625
 4909SOL    HW226361   0.511   0.078   5.490 -1.6592 -0.5908  1.3014
 4910SOL     OW26362   3.087   0.068   9.286 -0.0034 -0.2946  0.3484
 4910SOL    HW126363   3.039   4.734   9.327 -0.1775 -1.1736 -1.4282
 4910SOL    HW226364   3.043   0.138   9.335 -5.3895 -2.7033 -1.0261
 4911SOL     OW26365   2.321   2.188  15.840  0.5590 -0.6307  0.3031
 4911SOL    HW126366   2.240   2.160  15.883 -0.0514  1.0032  0.2052
 4911SOL    HW226367   2.281   2.240  15.771 -0.9747 -0.6590  1.1726
 4912SOL     OW26368   4.647   1.552   5.223 -0.4012  0.2193 -0.1611
 4912SOL    HW126369   4.612   1.635   5.257 -1.7761 -0.1674 -0.6403
 4912SOL    HW226370   4.564   1.504   5.226 -1.7151  2.4803 -0.2668
 4913SOL     OW26371   4.457   2.391   0.075  0.1932  0.0914  0.3705
 4913SOL    HW126372   4.398   2.379   0.000  1.2594 -1.3213 -0.2353
 4913SOL    HW226373   4.509   2.311   0.073 -0.3339 -0.2744  1.2848
 4914SOL     OW26374   1.849   2.338   7.916 -0.1568  0.5852  0.6426
 4914SOL    HW126375   1.868   2.411   7.975  1.4643 -0.4968  1.4334
 4914SOL    HW226376   1.875   2.370   7.830  1.6711 -0.0591  0.9743
 4915SOL     OW26377   0.149   1.528  10.090  0.5158  0.2246  0.2196
 4915SOL    HW126378   0.112   1.495  10.172 -0.4418  1.7409  0.4086
 4915SOL    HW226379   0.241   1.512  10.110  0.3453 -0.2664  0.5955
 4916SOL     OW26380   1.822   1.444   9.218 -0.4006  0.2358  0.2527
 4916SOL    HW126381   1.897   1.401   9.256  1.8292  1.8913 -2.2314
 4916SOL    HW226382   1.828   1.404   9.131  0.6516 -0.0972  0.4868
 4917SOL     OW26383   1.314   2.818   6.920  0.3606  0.4322  0.2154
 4917SOL    HW126384   1.336   2.762   6.846 -0.2385 -1.8955  1.8136
 4917SOL    HW226385   1.219   2.826   6.908  0.3513  1.1033  0.7654
 4918SOL     OW26386   0.512   1.355   3.672 -0.2174  0.0763  0.1029
 4918SOL    HW126387   0.426   1.378   3.706 -0.4679  1.1609 -1.2697
 4918SOL    HW226388   0.559   1.435   3.697 -0.8882 -0.2747  2.4929
 4919SOL     OW26389   2.869   1.627   6.642  0.0011 -0.1688 -0.6282
 4919SOL    HW126390   2.809   1.583   6.702  2.1171 -0.7695  1.0344
 4919SOL    HW226391   2.946   1.640   6.697 -2.1451 -2.1522  2.8435
 4920SOL     OW26392   1.145   4.261   6.905  0.5998  0.2818  0.0935
 4920SOL    HW126393   1.089   4.226   6.975 -1.1233  1.6429 -0.6042
 4920SOL    HW226394   1.084   4.330   6.879  0.6108  0.1880 -0.1771
 4921SOL     OW26395   2.753   1.408  15.199 -0.3013 -0.3223 -0.7168
 4921SOL    HW126396   2.818   1.418  15.268 -1.4807 -0.9150  0.4889
 4921SOL    HW226397   2.800   1.465  15.139 -1.3628 -0.3939 -1.6116
 4922SOL     OW26398   3.289   2.662  16.022  0.1001 -0.5132  0.3512
 4922SOL    HW126399   3.208   2.621  15.990 -0.2815  0.7467 -0.3183
 4922SOL    HW226400   3.346   2.628  15.953  0.2009  1.7335 -0.6800
 4923SOL     OW26401   2.324   1.100   3.756  0.4667  0.0537 -0.4372
 4923SOL    HW126402   2.396   1.041   3.781 -0.2434  0.2720  2.1011
 4923SOL    HW226403   2.346   1.126   3.667 -3.4634  0.1016 -1.3899
 4924SOL     OW26404   0.981   0.323   4.049 -0.0366  0.5704  0.6192
 4924SOL    HW126405   0.896   0.366   4.032 -0.2583  0.1695  0.7310
 4924SOL    HW226406   0.951   0.240   4.085 -1.9925 -0.3431 -3.0508
 4925SOL     OW26407   4.270   1.622   7.875  0.4453 -1.2927 -0.3501
 4925SOL    HW126408   4.247   1.648   7.964 -0.8679 -2.5308 -0.3172
 4925SOL    HW226409   4.279   1.528   7.891 -0.7539 -1.1310  1.2690
 4926SOL     OW26410   0.493   3.462  13.544 -0.1752  0.3012  0.8429
 4926SOL    HW126411   0.445   3.412  13.477  2.2139 -0.7232 -0.0971
 4926SOL    HW226412   0.488   3.553  13.514 -1.0119 -0.4289 -1.2542
 4927SOL     OW26413   0.212   2.440   9.629  0.7058 -0.3421 -0.2158
 4927SOL    HW126414   0.132   2.432   9.681  2.1016  0.6021  2.0629
 4927SOL    HW226415   0.180   2.476   9.546 -0.0895  0.0982  0.2791
 4928SOL     OW26416   4.615   3.054   5.632 -0.3717  0.7430  0.6991
 4928SOL    HW126417   4.524   3.041   5.605  0.1098  3.7056 -2.2973
 4928SOL    HW226418   4.611   3.037   5.726  1.6488  0.8902  0.8032
 4929SOL     OW26419   1.042   4.118   1.884  0.4654  0.3174 -0.6008
 4929SOL    HW126420   0.980   4.047   1.900 -0.7502  2.0764  2.4996
 4929SOL    HW226421   1.123   4.079   1.850  0.8065 -0.5879  1.2391
 4930SOL     OW26422   1.063   3.164  14.575  0.4012  0.8379 -0.3370
 4930SOL    HW126423   1.149   3.123  14.589  0.0654  0.5054  0.7578
 4930SOL    HW226424   1.006   3.096  14.608  1.0508  2.0086  3.2094
 4931SOL     OW26425   3.299   0.011   2.789  0.2020 -0.0919 -0.5276
 4931SOL    HW126426   3.235   4.691   2.749  0.7288 -1.5598  0.7778
 4931SOL    HW226427   3.273   0.011   2.881 -1.9801  1.8766 -1.1525
 4932SOL     OW26428   4.333   0.120   5.478  0.2564 -0.8879 -0.2881
 4932SOL    HW126429   4.282   0.192   5.513  3.2751  1.5588 -0.9099
 4932SOL    HW226430   4.410   0.129   5.535 -0.7992  0.2135  0.9613
 4933SOL     OW26431   0.904   2.570   6.599 -0.3931  0.1321  0.3569
 4933SOL    HW126432   0.831   2.553   6.657  1.1591  1.0160  2.5622
 4933SOL    HW226433   0.887   2.504   6.531  1.0267 -0.1180  0.2405
 4934SOL     OW26434   1.818   1.469   4.558 -0.0513 -0.3232  0.4014
 4934SOL    HW126435   1.731   1.450   4.522 -0.3332  1.4809  0.1661
 4934SOL    HW226436   1.858   1.516   4.486  0.2987 -2.3959 -0.7490
 4935SOL     OW26437   0.210   1.592   2.730 -0.2686 -0.6055  0.3328
 4935SOL    HW126438   0.305   1.592   2.742 -0.1596 -0.9579 -0.5273
 4935SOL    HW226439   0.179   1.626   2.814  1.9440 -1.5950  1.5436
 4936SOL     OW26440   3.752   0.113   2.367  0.4404 -0.8339 -0.8745
 4936SOL    HW126441   3.781   0.171   2.437 -0.8999 -1.6095  0.3456
 4936SOL    HW226442   3.710   0.044   2.419  0.0988  0.0182 -0.0005
 4937SOL     OW26443   3.598   4.343  14.083 -0.3194 -0.0514  0.6349
 4937SOL    HW126444   3.504   4.328  14.078 -0.5328  2.1511 -2.8596
 4937SOL    HW226445   3.611   4.430  14.043 -1.3296  0.2160  0.8855
 4938SOL     OW26446   0.853   3.889  11.194 -0.2414  0.4290  0.0742
 4938SOL    HW126447   0.805   3.889  11.278  0.3535  2.6652  0.4003
 4938SOL    HW226448   0.810   3.971  11.169 -2.9442  0.1558  3.8114
 4939SOL     OW26449   3.846   4.420   7.423  0.0607 -0.1015  0.2417
 4939SOL    HW126450   3.926   4.407   7.371 -1.0170 -3.5442 -0.6001
 4939SOL    HW226451   3.880   4.468   7.498  0.3298 -1.7804  1.1826
 4940SOL     OW26452   0.881   2.137   5.666  0.1608  0.0175 -0.1426
 4940SOL    HW126453   0.945   2.084   5.618  1.3015  1.2753 -0.0067
 4940SOL    HW226454   0.923   2.218   5.695 -2.4533  0.7909  1.5499
 4941SOL     OW26455   0.115   2.288   6.329 -0.1042 -0.1298  0.0597
 4941SOL    HW126456   0.052   2.273   6.399 -0.6320  1.9675  0.0196
 4941SOL    HW226457   0.072   2.358   6.280  0.3032 -0.3743 -0.6475
 4942SOL     OW26458   0.468   1.506   7.234 -0.7487  0.0187  0.3967
 4942SOL    HW126459   0.379   1.473   7.225 -1.6065  1.9520  1.7506
 4942SOL    HW226460   0.495   1.527   7.145  1.2586  1.1202  1.2607
 4943SOL     OW26461   2.669   1.359   6.569  0.6563  0.2443 -0.1559
 4943SOL    HW126462   2.759   1.384   6.549  0.7893  0.8897  1.2136
 4943SOL    HW226463   2.690   1.274   6.608  1.3117  0.1754 -0.6586
 4944SOL     OW26464   3.531   3.759  16.153  0.1252 -0.0775  0.5439
 4944SOL    HW126465   3.622   3.766  16.122 -0.0469 -0.4575 -0.0477
 4944SOL    HW226466   3.548   3.755  16.247 -1.3936 -0.1446  0.8029
 4945SOL     OW26467   3.732   1.653   2.040  0.2037 -0.0285 -0.3390
 4945SOL    HW126468   3.791   1.722   2.011  0.9227  0.3932  2.1159
 4945SOL    HW226469   3.798   1.600   2.085 -1.7232 -0.9785  1.3721
 4946SOL     OW26470   3.776   3.146   4.822  0.1120  0.3960  0.0249
 4946SOL    HW126471   3.837   3.166   4.751  0.6485 -2.8227 -0.3824
 4946SOL    HW226472   3.690   3.159   4.780 -0.7355 -1.6402  1.1380
 4947SOL     OW26473   4.357   3.886   4.279 -0.1515 -0.1245  0.2826
 4947SOL    HW126474   4.374   3.817   4.215 -2.3497 -0.4978  0.1107
 4947SOL    HW226475   4.435   3.881   4.334 -0.0204 -0.9926  0.0255
 4948SOL     OW26476   4.585   2.242   4.204  0.3757  0.3368  0.5629
 4948SOL    HW126477   4.511   2.195   4.165  1.5375 -0.8135 -0.2618
 4948SOL    HW226478   4.554   2.245   4.295 -0.2481  0.3896  0.3463
 4949SOL     OW26479   0.731   2.336  17.416  0.3198  0.7169  0.5612
 4949SOL    HW126480   0.811   2.372  17.378  0.2354  1.1461  0.7847
 4949SOL    HW226481   0.704   2.401  17.481  1.1575  2.1552 -0.5197
 4950SOL     OW26482   4.680   4.640   9.326 -1.2273  0.4979  0.7103
 4950SOL    HW126483   4.647   4.582   9.256  1.6015  1.2260 -1.2263
 4950SOL    HW226484   4.675   4.576   9.397 -0.1926 -0.9051 -0.4799
 4951SOL     OW26485   0.909   3.742  14.020  0.1076  0.2827 -0.1376
 4951SOL    HW126486   0.973   3.676  13.992  1.5753  1.7987 -0.3792
 4951SOL    HW226487   0.849   3.735  13.946 -0.2541 -0.2095  0.2047
 4952SOL     OW26488   0.244   2.083  10.358  0.4704 -0.4279  0.7573
 4952SOL    HW126489   0.268   2.081  10.451  3.5541  1.4512 -0.0193
 4952SOL    HW226490   0.296   2.158  10.329  1.6592 -1.6415 -0.1976
 4953SOL     OW26491   1.871   0.556   5.659 -0.4105  0.0357  0.5185
 4953SOL    HW126492   1.910   0.627   5.608 -0.7581 -0.1867 -0.0572
 4953SOL    HW226493   1.790   0.603   5.680  1.1403  1.9526  2.1949
 4954SOL     OW26494   1.317   2.438   3.221  0.4389 -0.6553 -0.5924
 4954SOL    HW126495   1.314   2.485   3.137  1.1124  2.0131  0.9010
 4954SOL    HW226496   1.355   2.513   3.266 -0.2346 -0.0696 -0.9970
 4955SOL     OW26497   1.842   4.199   5.350 -0.5748 -0.2762 -0.1192
 4955SOL    HW126498   1.755   4.163   5.369 -0.4524 -0.3707  0.2476
 4955SOL    HW226499   1.807   4.288   5.351  0.2817  0.0467  0.5131
 4956SOL     OW26500   4.410   0.065  15.889 -0.1266  0.4556  0.8691
 4956SOL    HW126501   4.315   0.059  15.899  0.1421 -2.6071  1.5823
 4956SOL    HW226502   4.419   0.130  15.959  1.8512  1.6075 -0.4650
 4957SOL     OW26503   2.918   3.148  13.451 -0.0222  0.2413  0.0602
 4957SOL    HW126504   2.913   3.117  13.361 -1.5328  0.3675  0.0972
 4957SOL    HW226505   2.986   3.093  13.490  0.0986  1.2177  1.2305
 4958SOL     OW26506   1.381   3.263  13.298 -0.5355 -0.6125 -0.1598
 4958SOL    HW126507   1.291   3.266  13.265 -1.1676  0.0085  1.5853
 4958SOL    HW226508   1.400   3.173  13.271  2.6373  0.0517 -0.0946
 4959SOL     OW26509   3.732   3.991   7.994  0.2804  0.4651  0.2957
 4959SOL    HW126510   3.783   4.068   8.018 -0.7213  1.0472  0.5577
 4959SOL    HW226511   3.674   3.973   8.068  0.5852 -2.5888 -0.1941
 4960SOL     OW26512   3.113   2.504   7.670  0.4629 -0.3590  0.1960
 4960SOL    HW126513   3.125   2.501   7.765 -0.4998  2.0780  0.4064
 4960SOL    HW226514   3.057   2.428   7.657 -1.6655  0.8849  1.9340
 4961SOL     OW26515   4.476   1.836  13.229  0.3017  0.1854  0.2318
 4961SOL    HW126516   4.408   1.773  13.255  0.3866  0.4416  1.0862
 4961SOL    HW226517   4.548   1.814  13.289 -1.0157 -1.0365  1.3906
 4962SOL     OW26518   0.123   4.735   5.866 -0.5740 -0.2753 -0.0535
 4962SOL    HW126519   0.204   0.014   5.819  0.3017  0.1120  1.5885
 4962SOL    HW226520   0.118   0.070   5.927 -0.7991  0.6222 -1.1489
 4963SOL     OW26521   0.864   1.579   6.315 -0.1087 -0.2490 -0.1116
 4963SOL    HW126522   0.915   1.660   6.325  0.6638 -0.8586  0.9695
 4963SOL    HW226523   0.863   1.539   6.402  0.2579  1.1733  0.5482
 4964SOL     OW26524   3.487   2.800  13.656  0.3279 -0.0499 -0.0399
 4964SOL    HW126525   3.505   2.885  13.617  0.8295  0.9222  2.3378
 4964SOL    HW226526   3.413   2.828  13.710  0.1365  1.1414 -0.9368
 4965SOL     OW26527   2.277   1.516   8.629  0.0401  0.0392 -0.3296
 4965SOL    HW126528   2.182   1.513   8.646 -0.1138  1.2073 -1.0053
 4965SOL    HW226529   2.291   1.584   8.695  2.0918 -0.8679  0.1535
 4966SOL     OW26530   1.195   1.606   9.501 -0.0279  0.0344 -0.0633
 4966SOL    HW126531   1.248   1.527   9.500 -1.4963 -0.9479  0.6427
 4966SOL    HW226532   1.229   1.637   9.585 -0.3369  1.0721 -0.3133
 4967SOL     OW26533   1.587   2.286   2.561 -0.2493 -0.8266 -0.2360
 4967SOL    HW126534   1.535   2.241   2.494 -0.2932 -1.0250 -0.0691
 4967SOL    HW226535   1.667   2.316   2.519 -0.1084 -0.6671  0.1488
 4968SOL     OW26536   2.665   2.961   8.392 -0.2810 -0.5539 -0.2712
 4968SOL    HW126537   2.633   2.877   8.358  0.8490 -0.9946 -0.2415
 4968SOL    HW226538   2.703   2.983   8.306  0.5515  1.5512  0.6430
 4969SOL     OW26539   2.453   1.335  12.495 -0.4567  0.1209  0.2599
 4969SOL    HW126540   2.375   1.351  12.549 -0.4621  0.2626  0.2106
 4969SOL    HW226541   2.470   1.429  12.502  0.1903  0.0583 -0.5176
 4970SOL     OW26542   2.656   0.052   4.364  0.2412  0.0256 -0.2153
 4970SOL    HW126543   2.574   0.003   4.357 -0.2314  0.8627 -0.5862
 4970SOL    HW226544   2.720   4.721   4.376  0.1696 -0.3395 -1.8724
 4971SOL     OW26545   3.880   2.278  16.445  0.0950  0.0438  0.3556
 4971SOL    HW126546   3.892   2.356  16.500 -0.8942  0.0475  0.5545
 4971SOL    HW226547   3.827   2.317  16.376  0.3577  2.3389  1.4514
 4972SOL     OW26548   3.882   4.486   1.822 -0.1880  0.1991  0.7391
 4972SOL    HW126549   3.800   4.444   1.795 -0.9573 -0.1309  3.5596
 4972SOL    HW226550   3.885   4.448   1.910 -2.2467  0.3285  0.8713
 4973SOL     OW26551   0.746   0.421   0.231  0.0231 -0.1544  0.3581
 4973SOL    HW126552   0.832   0.432   0.190 -1.1669  0.3630 -2.0517
 4973SOL    HW226553   0.703   0.469   0.160 -0.7368 -0.5813  0.5348
 4974SOL     OW26554   1.325   1.709   0.495  0.2150  0.1175  0.4015
 4974SOL    HW126555   1.333   1.635   0.555 -0.0787  0.6539  1.1053
 4974SOL    HW226556   1.356   1.779   0.553 -1.4496  0.8109  0.4784
 4975SOL     OW26557   0.940   3.764   4.860 -0.0906  0.1075  0.5278
 4975SOL    HW126558   1.030   3.748   4.833 -0.3454  1.3998 -1.1121
 4975SOL    HW226559   0.892   3.768   4.777 -1.5853  2.6058  1.4926
 4976SOL     OW26560   2.415   2.483   5.789 -0.2977 -0.6711 -0.2153
 4976SOL    HW126561   2.337   2.433   5.764  0.3293 -2.1766  0.8533
 4976SOL    HW226562   2.425   2.458   5.881  1.8147 -0.5762 -0.4367
 4977SOL     OW26563   2.046   4.179  17.479 -0.1771  0.5727  0.2084
 4977SOL    HW126564   2.106   4.105  17.482 -1.1198 -0.2350 -0.8275
 4977SOL    HW226565   2.114   4.243  17.503  1.6296 -0.4286 -2.1861
 4978SOL     OW26566   1.725   1.510   6.271  0.0611  0.2975 -0.2803
 4978SOL    HW126567   1.751   1.578   6.333  0.2976 -0.7166  0.7383
 4978SOL    HW226568   1.754   1.434   6.321 -2.1331 -0.9931 -0.9791
 4979SOL     OW26569   3.875   3.835   7.381  0.2295 -0.3623  0.2515
 4979SOL    HW126570   3.885   3.765   7.446  2.8277 -0.3265 -0.0913
 4979SOL    HW226571   3.968   3.858   7.379 -0.4333  2.6830  2.9212
 4980SOL     OW26572   0.995   4.476   5.011 -0.2853  0.0405 -0.3229
 4980SOL    HW126573   1.059   4.484   5.082  2.0652 -1.9669 -2.2174
 4980SOL    HW226574   0.940   4.554   5.021 -0.2781  0.1618 -1.2288
 4981SOL     OW26575   2.624   1.347   7.293  0.2120  0.0328 -0.0958
 4981SOL    HW126576   2.651   1.316   7.380 -2.7298 -0.3275  0.6594
 4981SOL    HW226577   2.621   1.441   7.313 -1.4977  0.1808 -1.0831
 4982SOL     OW26578   3.466   1.610  17.336 -0.6054  0.1044 -0.4780
 4982SOL    HW126579   3.419   1.561  17.269 -2.0069  0.6614  0.0950
 4982SOL    HW226580   3.466   1.701  17.307 -0.7343  0.9620  2.1937
 4983SOL     OW26581   4.606   0.442   2.908  0.1533  0.0106 -0.1665
 4983SOL    HW126582   4.628   0.494   2.830  0.8528  1.3660  0.9415
 4983SOL    HW226583   4.611   0.352   2.875 -1.6855 -0.3710  0.5621
 4984SOL     OW26584   3.615   3.523   7.436 -0.4080 -0.1704 -0.1109
 4984SOL    HW126585   3.588   3.432   7.448 -0.2781  0.0880  2.1923
 4984SOL    HW226586   3.710   3.514   7.442 -0.3530  0.9873  0.8877
 4985SOL     OW26587   3.373   1.896   1.328 -0.5201 -0.5454 -0.4759
 4985SOL    HW126588   3.329   1.812   1.312 -0.5075 -0.4637 -0.9317
 4985SOL    HW226589   3.361   1.906   1.422 -2.4322  2.3149 -1.0316
 4986SOL     OW26590   2.299   0.418   4.869 -0.0084  0.3297 -0.0240
 4986SOL    HW126591   2.249   0.413   4.788  0.9838  0.5412 -0.6509
 4986SOL    HW226592   2.379   0.463   4.841  0.3368 -1.1326 -1.4201
 4987SOL     OW26593   2.344   4.152   5.184 -0.2692 -0.2616  0.3445
 4987SOL    HW126594   2.434   4.145   5.217  0.3763 -0.0342 -1.3815
 4987SOL    HW226595   2.317   4.191   5.267  1.5221  1.9192 -0.0843
 4988SOL     OW26596   1.999   3.974   7.213 -0.1075 -0.1809 -0.1448
 4988SOL    HW126597   2.091   3.967   7.239 -0.2493 -1.5709 -0.0378
 4988SOL    HW226598   1.990   4.069   7.225  1.7226 -0.0128 -0.0131
 4989SOL     OW26599   3.669   0.064  17.151 -0.0252 -0.0084 -0.2357
 4989SOL    HW126600   3.673   0.020  17.236  0.4016  3.8824  1.7463
 4989SOL    HW226601   3.682   0.156  17.172  1.4790 -0.3174  0.1374
 4990SOL     OW26602   3.184   3.403  14.064  0.2777 -0.3292 -0.4405
 4990SOL    HW126603   3.256   3.458  14.033  1.1505 -0.8183  0.7531
 4990SOL    HW226604   3.158   3.364  13.980 -0.6702 -0.6349 -0.0114
 4991SOL     OW26605   1.953   0.491   8.052  0.1975  0.6189  0.0069
 4991SOL    HW126606   1.985   0.495   7.962  0.7850  1.5829  0.2675
 4991SOL    HW226607   2.032   0.476   8.103  0.4295  1.7394 -0.0283
 4992SOL     OW26608   3.198   1.396   6.079  0.1466 -0.4954  0.1853
 4992SOL    HW126609   3.158   1.440   6.154  4.0768  2.3518  0.6006
 4992SOL    HW226610   3.160   1.459   6.016  1.7192  0.5206  0.2586
 4993SOL     OW26611   3.249   2.350  13.484 -0.0544  0.1259  0.3050
 4993SOL    HW126612   3.270   2.313  13.398 -0.3979 -1.4122  0.8866
 4993SOL    HW226613   3.332   2.397  13.494  0.5277 -0.7900 -0.1280
 4994SOL     OW26614   1.600   0.131   8.038  0.0965  0.1249  0.2918
 4994SOL    HW126615   1.613   0.171   8.125 -0.1471 -0.3088  0.5280
 4994SOL    HW226616   1.559   0.049   8.065  0.4340  0.3362  1.4399
 4995SOL     OW26617   4.626   0.977   6.481  0.2577 -0.0266 -0.2122
 4995SOL    HW126618   4.699   0.929   6.519  0.3722  0.4605  0.1844
 4995SOL    HW226619   4.589   0.908   6.426 -2.1752 -1.3038  3.0500
 4996SOL     OW26620   2.671   3.645   3.556  0.4859  0.0792 -0.1188
 4996SOL    HW126621   2.686   3.609   3.644  1.2254  0.8409  0.0701
 4996SOL    HW226622   2.716   3.730   3.564  2.2597 -0.8519 -0.0836
 4997SOL     OW26623   2.022   3.269   9.617 -0.1488  0.8263  0.2113
 4997SOL    HW126624   1.975   3.298   9.539  3.1534  1.1462 -1.6679
 4997SOL    HW226625   1.975   3.186   9.626 -0.2990  0.8881 -0.0075
 4998SOL     OW26626   1.430   2.044   3.974  0.3626 -0.1355  0.0974
 4998SOL    HW126627   1.398   2.133   3.987 -0.4919 -0.1415 -1.8840
 4998SOL    HW226628   1.455   2.023   4.064  0.6259  1.4868  0.4026
 4999SOL     OW26629   4.144   2.152   8.101  0.7900 -0.1222 -0.0708
 4999SOL    HW126630   4.215   2.132   8.041  0.5045  1.8776 -1.0687
 4999SOL    HW226631   4.073   2.174   8.041 -0.3296  1.9735  2.0038
 5000SOL     OW26632   2.590   4.134  17.390 -0.3037  0.4415  0.0677
 5000SOL    HW126633   2.607   4.226  17.413 -0.0255  0.2350  0.7110
 5000SOL    HW226634   2.600   4.155  17.297 -1.0818  0.8326  0.0727
 5001SOL     OW26635   2.363   4.244   6.711 -0.0378  0.8140 -0.3198
 5001SOL    HW126636   2.334   4.281   6.794 -0.6703  0.4367 -0.3742
 5001SOL    HW226637   2.321   4.311   6.657 -1.8316 -1.4714 -1.8039
 5002SOL     OW26638   2.796   2.976   5.485  0.4517 -0.3479  0.3156
 5002SOL    HW126639   2.789   3.027   5.405 -0.6741  0.7073  1.0965
 5002SOL    HW226640   2.773   3.038   5.553 -0.1582 -0.1607 -0.0585
 5003SOL     OW26641   3.494   3.293   4.052  0.5667  0.5668  0.1032
 5003SOL    HW126642   3.565   3.275   3.990  1.2703  1.0738  0.7832
 5003SOL    HW226643   3.451   3.207   4.056 -1.2124  1.4572  0.2560
 5004SOL     OW26644   2.600   2.346   1.094  0.1859 -0.4214 -0.3646
 5004SOL    HW126645   2.526   2.325   1.036 -0.3777  0.9298 -0.1447
 5004SOL    HW226646   2.648   2.265   1.081  0.5441 -0.0994 -1.0760
 5005SOL     OW26647   4.407   4.527  15.548 -0.2276  0.5870  0.4329
 5005SOL    HW126648   4.431   4.619  15.549 -0.4292  0.6295  1.6247
 5005SOL    HW226649   4.450   4.513  15.632 -2.4671 -0.5692  1.4051
 5006SOL     OW26650   3.409   3.163   6.199  0.0113 -0.3795 -0.0955
 5006SOL    HW126651   3.369   3.077   6.218  1.9339 -0.9478  1.3854
 5006SOL    HW226652   3.330   3.214   6.180  0.1383 -0.3644 -0.5674
 5007SOL     OW26653   2.521   2.580   0.155 -0.1236 -0.2297  0.5064
 5007SOL    HW126654   2.496   2.565   0.063  0.7970 -0.0521  0.2226
 5007SOL    HW226655   2.464   2.650   0.185  0.6890  0.4760  0.4281
 5008SOL     OW26656   1.764   3.383   6.098  0.1337  0.0361 -0.5823
 5008SOL    HW126657   1.701   3.450   6.072 -0.4101 -0.0669  0.4694
 5008SOL    HW226658   1.701   3.311   6.101 -0.6099  0.7213  0.2262
 5009SOL     OW26659   2.895   1.842  13.676  0.3406  0.6050  0.1032
 5009SOL    HW126660   2.907   1.748  13.665  1.7982  0.9307 -1.2169
 5009SOL    HW226661   2.943   1.875  13.600 -0.0379 -0.7448 -0.7031
 5010SOL     OW26662   4.011   0.712   4.029  0.4208  0.2665  0.4076
 5010SOL    HW126663   3.998   0.802   3.997  1.3713 -1.0383 -3.6539
 5010SOL    HW226664   4.078   0.723   4.096  0.4770 -0.5952  0.4852
 5011SOL     OW26665   2.465   2.406  14.498 -0.3811  0.6711 -0.1750
 5011SOL    HW126666   2.379   2.439  14.472 -0.1873  2.5927  1.6140
 5011SOL    HW226667   2.510   2.394  14.414  0.6686  3.8048 -0.0369
 5012SOL     OW26668   4.317   2.014   0.077 -0.5384 -0.4580  0.0328
 5012SOL    HW126669   4.282   2.098   0.106  0.0504 -0.0344 -0.4590
 5012SOL    HW226670   4.393   2.003   0.134 -0.4324  0.9549  0.1589
 5013SOL     OW26671   3.824   2.456   3.394 -0.5484  0.7751 -0.1484
 5013SOL    HW126672   3.740   2.480   3.355  0.1185  0.9290 -1.5088
 5013SOL    HW226673   3.796   2.370   3.425  1.6082 -0.4644 -1.6513
 5014SOL     OW26674   0.562   1.635  15.515  0.1727  0.2001 -0.2832
 5014SOL    HW126675   0.628   1.700  15.542  0.9171  0.4533 -2.7009
 5014SOL    HW226676   0.536   1.677  15.433  0.6251  0.9917 -0.0284
 5015SOL     OW26677   4.043   4.277  17.256 -0.0016  0.5192 -0.4150
 5015SOL    HW126678   4.123   4.230  17.280  0.0172  1.2168  0.8802
 5015SOL    HW226679   4.008   4.305  17.340  0.8191 -0.6043  0.3117
 5016SOL     OW26680   1.210   3.144   5.635 -0.0401 -0.5551  0.1147
 5016SOL    HW126681   1.286   3.102   5.676  0.7413  2.3370  1.6695
 5016SOL    HW226682   1.224   3.238   5.645 -0.1619 -0.7330  2.0783
 5017SOL     OW26683   1.741   4.703   7.189  0.8715 -0.2936  0.4450
 5017SOL    HW126684   1.718   0.055   7.170  0.7654 -0.5056 -0.4434
 5017SOL    HW226685   1.830   4.682   7.161  0.7946 -1.3205  0.9616
 5018SOL     OW26686   0.066   4.377   7.410  0.0701  0.4176  0.3026
 5018SOL    HW126687   0.139   4.357   7.351 -0.0133 -1.0832  0.7245
 5018SOL    HW226688   4.726   4.368   7.356 -1.0179  0.4216  1.8896
 5019SOL     OW26689   0.888   1.762   5.967  0.0694  0.0182  0.5000
 5019SOL    HW126690   0.859   1.671   5.965 -0.6313  0.2964 -1.5507
 5019SOL    HW226691   0.806   1.806   5.944  1.1248  1.2353 -0.8858
 5020SOL     OW26692   0.410   2.592   8.329  0.2661  0.2953 -0.3628
 5020SOL    HW126693   0.442   2.636   8.407 -0.0028  1.0293 -0.6654
 5020SOL    HW226694   0.318   2.581   8.355  1.2806  0.5186  3.2582
 5021SOL     OW26695   2.961   2.277   7.627 -0.6173  0.2586  0.0521
 5021SOL    HW126696   2.891   2.300   7.567  1.0389 -0.2732 -2.1046
 5021SOL    HW226697   3.007   2.213   7.572 -0.5512  1.2035 -0.9767
 5022SOL     OW26698   0.660   3.015   7.488  0.3272 -0.2140 -0.5387
 5022SOL    HW126699   0.714   3.063   7.425  0.6745  0.6246  0.3934
 5022SOL    HW226700   0.654   3.071   7.566  3.1404 -1.4047  0.5419
 5023SOL     OW26701   2.692   2.152   9.009 -0.1747  0.5169 -0.3347
 5023SOL    HW126702   2.768   2.202   8.978  1.9123 -1.7825  1.1162
 5023SOL    HW226703   2.706   2.066   8.970  1.3784  0.7995 -0.3949
 5024SOL     OW26704   4.183   1.332  10.819 -0.3398 -0.1598 -0.2602
 5024SOL    HW126705   4.217   1.252  10.859 -1.2715  1.2797  3.3755
 5024SOL    HW226706   4.095   1.343  10.855 -1.0500 -1.4775 -1.6120
 5025SOL     OW26707   3.789   3.946   5.235  0.0228 -0.1762  0.0370
 5025SOL    HW126708   3.799   3.946   5.330  0.4252  0.0611 -0.0051
 5025SOL    HW226709   3.866   3.894   5.216 -1.6048 -2.5272 -0.0895
 5026SOL     OW26710   2.790   0.317   6.298 -0.1869 -0.3574 -0.1665
 5026SOL    HW126711   2.768   0.370   6.375 -1.6947 -3.0291  1.2140
 5026SOL    HW226712   2.707   0.324   6.251 -0.3319  0.4810  0.2027
 5027SOL     OW26713   2.206   3.401   9.136 -0.1632  0.4077 -0.1990
 5027SOL    HW126714   2.133   3.461   9.153 -1.3797 -1.4061  1.0317
 5027SOL    HW226715   2.229   3.377   9.226 -0.8954  2.5896  0.5697
 5028SOL     OW26716   3.016   2.220   2.062  0.5497  0.5406  0.0126
 5028SOL    HW126717   2.963   2.175   1.997  0.4042  0.6616  0.0473
 5028SOL    HW226718   2.973   2.303   2.085  0.4773 -0.0226  1.8964
 5029SOL     OW26719   3.453   0.162  15.275  0.3479 -0.1891  0.0432
 5029SOL    HW126720   3.495   0.246  15.259 -1.6456  0.6085 -0.9592
 5029SOL    HW226721   3.374   0.150  15.222  1.1549 -1.8899 -0.7533
 5030SOL     OW26722   3.271   3.377  10.827  0.0791 -0.0285  0.5963
 5030SOL    HW126723   3.346   3.436  10.840  1.6887 -1.8667 -0.2615
 5030SOL    HW226724   3.278   3.359  10.733 -2.5007 -0.0437  0.4231
 5031SOL     OW26725   3.935   0.330   6.763  0.0598  0.2996 -0.2494
 5031SOL    HW126726   3.934   0.300   6.673  0.9472 -2.9604  0.8408
 5031SOL    HW226727   3.855   0.291   6.799 -0.1545  1.8401  0.9901
 5032SOL     OW26728   4.706   4.329  12.289 -0.9499  0.7954  0.0542
 5032SOL    HW126729   4.675   4.239  12.293  1.2581  0.1770  2.8709
 5032SOL    HW226730   0.002   4.329  12.200 -1.6268 -1.6076 -0.1927
 5033SOL     OW26731   4.631   0.843   8.474 -0.0099  0.3854 -0.1715
 5033SOL    HW126732   4.697   0.908   8.497  0.0287  0.8754 -1.6739
 5033SOL    HW226733   4.656   0.843   8.381 -0.3230 -0.3905 -0.2548
 5034SOL     OW26734   3.786   1.145   6.549 -0.6457  0.0255  0.5980
 5034SOL    HW126735   3.697   1.125   6.522  0.2297 -1.3233 -1.3244
 5034SOL    HW226736   3.800   1.235   6.518 -0.3261 -0.6339 -1.1756
 5035SOL     OW26737   4.049   2.595   7.581 -0.0855  0.0930  0.5467
 5035SOL    HW126738   3.985   2.526   7.598 -0.7248  0.9041  1.3772
 5035SOL    HW226739   4.001   2.644   7.514  2.2969  0.7659 -0.6691
 5036SOL     OW26740   0.037   2.331   1.688  0.0905  0.0935  0.1510
 5036SOL    HW126741   4.733   2.403   1.733 -1.2246 -1.9785  2.2149
 5036SOL    HW226742   4.697   2.288   1.653 -0.2632  1.1284 -0.3245
 5037SOL     OW26743   1.262   4.448   8.096 -0.5469  0.5953  0.0511
 5037SOL    HW126744   1.256   4.384   8.167  1.5614  0.4025  0.0623
 5037SOL    HW226745   1.291   4.391   8.024 -0.6649  0.3617  0.1897
 5038SOL     OW26746   2.526   0.929  15.533 -0.0504  0.2653  0.3592
 5038SOL    HW126747   2.594   0.910  15.468 -0.5148 -0.1635 -0.0016
 5038SOL    HW226748   2.474   0.989  15.480  0.3757 -0.9396 -1.4412
 5039SOL     OW26749   2.763   2.292   4.335 -0.0289 -0.0098 -0.0245
 5039SOL    HW126750   2.840   2.268   4.284 -0.4419  2.4438 -1.7896
 5039SOL    HW226751   2.780   2.385   4.351 -1.2477  0.4330 -1.2431
 5040SOL     OW26752   3.412   4.330  12.605 -0.1644  0.1784  0.2661
 5040SOL    HW126753   3.339   4.392  12.610 -0.2944  0.1078 -0.9318
 5040SOL    HW226754   3.370   4.251  12.640  0.9031  0.0620  1.2662
 5041SOL     OW26755   2.251   0.747  13.811 -0.3071  0.1724 -0.6815
 5041SOL    HW126756   2.185   0.699  13.760 -1.0655  2.2043 -1.6037
 5041SOL    HW226757   2.311   0.683  13.850 -2.5120  0.0553  2.5569
 5042SOL     OW26758   3.169   3.296  12.519 -0.2875  0.0962 -0.0384
 5042SOL    HW126759   3.145   3.387  12.504 -2.1867 -0.1207  1.6801
 5042SOL    HW226760   3.232   3.276  12.450 -1.4196  1.1409 -1.3752
 5043SOL     OW26761   2.538   2.789   1.713 -0.0970 -0.0531 -0.9401
 5043SOL    HW126762   2.548   2.694   1.724 -0.1828 -0.2303 -2.4362
 5043SOL    HW226763   2.598   2.818   1.782 -0.7092  0.1825 -0.5138
 5044SOL     OW26764   1.683   3.945   2.064 -0.2718  0.1021  0.2155
 5044SOL    HW126765   1.649   3.860   2.037  0.4556 -0.3513  0.7367
 5044SOL    HW226766   1.687   3.989   1.978 -0.7276  0.7300  0.5156
 5045SOL     OW26767   4.023   2.902  15.860 -0.2954  0.2491 -0.0486
 5045SOL    HW126768   3.980   2.870  15.939 -0.4675  0.4287 -0.0698
 5045SOL    HW226769   4.105   2.933  15.898  0.5732 -1.4149 -0.5435
 5046SOL     OW26770   3.186   1.754  14.580 -0.2428  0.8105  0.5566
 5046SOL    HW126771   3.180   1.763  14.675  0.8382  0.3997  0.6692
 5046SOL    HW226772   3.209   1.662  14.568  0.3377  1.0828 -0.4085
 5047SOL     OW26773   2.472   0.124   5.422 -0.0795  0.4768 -0.6717
 5047SOL    HW126774   2.526   0.090   5.493 -1.4176  0.1690  0.1897
 5047SOL    HW226775   2.445   0.044   5.375  0.4403  0.8238 -1.5606
 5048SOL     OW26776   3.541   2.242   4.434 -0.0934  0.7123  0.3932
 5048SOL    HW126777   3.478   2.314   4.438 -1.2574 -0.0524 -3.7608
 5048SOL    HW226778   3.603   2.273   4.499  0.2804  1.5463 -0.3570
 5049SOL     OW26779   0.751   4.169   8.449  0.2038  0.2715  0.2655
 5049SOL    HW126780   0.804   4.143   8.373  0.2893 -0.0792  0.4456
 5049SOL    HW226781   0.796   4.126   8.521  1.8381  1.4429 -0.0401
 5050SOL     OW26782   0.937   1.619   2.105 -0.3668  0.6493 -0.5189
 5050SOL    HW126783   1.026   1.587   2.092 -2.0272 -2.7753 -3.5076
 5050SOL    HW226784   0.928   1.628   2.199  1.4808 -0.8511 -0.1939
 5051SOL     OW26785   3.029   3.207  12.951 -0.1453  0.0079  0.2788
 5051SOL    HW126786   3.086   3.284  12.945  1.8016 -1.3879  0.8711
 5051SOL    HW226787   3.039   3.157  12.871  1.0587  0.7355 -0.0228
 5052SOL     OW26788   2.499   4.569  16.123 -0.2077 -0.1559 -0.4545
 5052SOL    HW126789   2.579   4.557  16.175 -0.4361  0.1767 -0.0227
 5052SOL    HW226790   2.442   4.611  16.188  0.4805 -0.1824  0.1672
 5053SOL     OW26791   4.360   0.361   8.049  0.6561  0.3653  0.1162
 5053SOL    HW126792   4.427   0.408   8.000 -1.2820  2.0540 -0.8864
 5053SOL    HW226793   4.301   0.434   8.069 -0.3381 -0.1191 -1.1076
 5054SOL     OW26794   2.620   0.070  13.773 -0.1183  0.7134 -0.2530
 5054SOL    HW126795   2.576   4.724  13.771 -1.1942  1.3222 -2.0278
 5054SOL    HW226796   2.686   0.051  13.840 -1.3628  0.2074  0.8357
 5055SOL     OW26797   0.788   2.508   3.464 -0.0211  0.0858 -0.6982
 5055SOL    HW126798   0.736   2.440   3.508  0.9832 -1.0335 -1.2187
 5055SOL    HW226799   0.852   2.538   3.528  0.1402 -0.9322 -0.3691
 5056SOL     OW26800   0.471   3.666   3.404 -0.2439  0.2469  0.2442
 5056SOL    HW126801   0.387   3.711   3.390 -0.8096 -1.2955 -1.3491
 5056SOL    HW226802   0.532   3.692   3.335  1.0496 -1.4580  0.7604
 5057SOL     OW26803   1.840   3.853   4.586 -0.5044 -0.1242 -0.0785
 5057SOL    HW126804   1.904   3.898   4.640  0.6282 -1.2048 -0.5224
 5057SOL    HW226805   1.864   3.882   4.497  0.3925 -0.1908  0.1475
 5058SOL     OW26806   4.353   3.145   2.056  0.1521  0.1390 -0.5257
 5058SOL    HW126807   4.271   3.132   2.103  0.7387 -1.5255  0.0414
 5058SOL    HW226808   4.355   3.065   2.005 -1.8218 -0.3049  0.0797
 5059SOL     OW26809   1.974   3.875   9.029  0.0601  0.3447  0.0439
 5059SOL    HW126810   2.031   3.939   9.074 -0.9630  2.4941 -1.7224
 5059SOL    HW226811   1.919   3.928   8.972  0.6044  1.6373  0.6933
 5060SOL     OW26812   2.688   2.724   2.830 -0.0989  0.1277  0.5705
 5060SOL    HW126813   2.742   2.710   2.907 -0.8614  3.9609  1.8319
 5060SOL    HW226814   2.720   2.808   2.795 -1.5941 -0.0775 -1.2769
 5061SOL     OW26815   0.703   0.788   2.242 -0.8094  0.1591  0.0726
 5061SOL    HW126816   0.688   0.841   2.320 -0.5782 -1.3167  1.1260
 5061SOL    HW226817   0.655   0.836   2.174 -3.3241 -0.9648  1.0425
 5062SOL     OW26818   0.972   0.334   2.139  0.0362  0.2069 -0.5728
 5062SOL    HW126819   0.962   0.280   2.060 -2.0029  0.9624 -0.8191
 5062SOL    HW226820   0.918   0.411   2.123 -0.5081 -0.2110 -0.7515
 5063SOL     OW26821   3.553   2.731   1.196  0.0942 -0.5242  0.5726
 5063SOL    HW126822   3.537   2.702   1.106 -0.3868  1.2852  0.0727
 5063SOL    HW226823   3.595   2.817   1.196  1.9206 -1.4048 -3.1701
 5064SOL     OW26824   1.567   0.134   9.003  0.3280  0.1997 -0.0300
 5064SOL    HW126825   1.636   0.201   8.997 -0.4601  0.9321 -0.8974
 5064SOL    HW226826   1.574   0.107   9.094  2.3975  1.7003  0.2446
 5065SOL     OW26827   3.404   0.595   3.734  0.0875 -0.0447  0.3462
 5065SOL    HW126828   3.310   0.604   3.748 -0.5663 -0.1158 -3.9234
 5065SOL    HW226829   3.426   0.652   3.660  1.3856  1.8556  2.1908
 5066SOL     OW26830   2.223   1.686   8.854 -0.5179 -0.3787  0.0460
 5066SOL    HW126831   2.176   1.684   8.938 -2.1954 -0.4209 -0.8970
 5066SOL    HW226832   2.200   1.772   8.818  0.2251 -0.8336 -1.5118
 5067SOL     OW26833   2.711   0.310   2.665 -0.5648  0.3086  0.1205
 5067SOL    HW126834   2.634   0.297   2.609 -0.7212 -3.0554  1.1542
 5067SOL    HW226835   2.740   0.223   2.691 -0.2099 -0.8508 -4.0347
 5068SOL     OW26836   2.583   1.019   5.908 -0.1066 -0.6146  0.1259
 5068SOL    HW126837   2.641   1.022   5.984  0.4804  1.3894 -0.4053
 5068SOL    HW226838   2.506   1.066   5.939 -0.2226  0.1335 -1.2805
 5069SOL     OW26839   0.967   3.268   2.934  0.0775  0.2402  0.1264
 5069SOL    HW126840   0.900   3.271   2.866 -0.4374 -0.1659  0.6249
 5069SOL    HW226841   0.957   3.176   2.958  0.7874 -0.0359 -0.6076
 5070SOL     OW26842   1.698   4.738   4.521 -0.4672  0.5164 -0.3621
 5070SOL    HW126843   1.764   4.672   4.546 -1.1306  0.5473  1.4641
 5070SOL    HW226844   1.626   4.681   4.496 -0.6070 -0.3538  2.0257
 5071SOL     OW26845   0.399   2.915   7.093 -0.1913  1.0927  0.9832
 5071SOL    HW126846   0.404   2.933   7.186  1.4713  0.6798  0.9788
 5071SOL    HW226847   0.335   2.973   7.052  0.2290  1.0565  0.2571
 5072SOL     OW26848   2.981   3.859   5.110  0.1544 -0.0902  0.2343
 5072SOL    HW126849   3.038   3.865   5.033  0.9074  1.2802  0.9069
 5072SOL    HW226850   3.045   3.879   5.178  0.9816  1.4234 -0.9988
 5073SOL     OW26851   2.768   3.681   7.778  0.1951  0.2133 -0.1783
 5073SOL    HW126852   2.699   3.683   7.712  0.7760 -0.7449 -0.8128
 5073SOL    HW226853   2.739   3.601   7.824  0.2529  0.8232  0.9096
 5074SOL     OW26854   0.412   2.807   9.197 -0.4463 -0.3917  0.1612
 5074SOL    HW126855   0.477   2.843   9.257 -1.4594  0.9597  0.4567
 5074SOL    HW226856   0.411   2.716   9.226 -1.3573 -0.2968  0.4054
 5075SOL     OW26857   0.429   0.615   9.371 -0.0636 -0.0456 -0.2096
 5075SOL    HW126858   0.345   0.648   9.403  0.4821  0.9005  0.2372
 5075SOL    HW226859   0.483   0.694   9.371  1.7268 -1.2546 -0.9338
 5076SOL     OW26860   2.561   4.638  14.090  0.0044  0.5055 -0.6749
 5076SOL    HW126861   2.580   4.549  14.060 -0.6726  0.0871  0.1368
 5076SOL    HW226862   2.645   4.675  14.064  2.1710 -1.1327  3.9593
 5077SOL     OW26863   2.608   3.561   4.761 -0.1066 -0.4588  0.4896
 5077SOL    HW126864   2.606   3.469   4.735 -0.3537 -0.6470  1.1868
 5077SOL    HW226865   2.538   3.597   4.707 -1.3837 -2.3986  0.8718
 5078SOL     OW26866   2.570   2.624   9.256 -0.1662  0.2657  0.3469
 5078SOL    HW126867   2.654   2.600   9.294 -0.6497  2.1811  2.5771
 5078SOL    HW226868   2.548   2.694   9.317 -0.4945 -1.1355  1.8179
 5079SOL     OW26869   2.245   0.294   5.789 -0.0832 -0.1386  0.2851
 5079SOL    HW126870   2.323   0.336   5.753 -0.8392  0.4015 -0.7246
 5079SOL    HW226871   2.190   0.311   5.712  1.4622 -3.0740 -1.4566
 5080SOL     OW26872   0.275   0.255   5.570 -0.1918 -0.1015  0.3647
 5080SOL    HW126873   0.232   0.219   5.492 -0.8201 -0.3845  0.8461
 5080SOL    HW226874   0.352   0.200   5.586  0.0686 -0.1281 -0.9031
 5081SOL     OW26875   3.180   3.463   2.857  0.1544  0.3141  0.3116
 5081SOL    HW126876   3.093   3.447   2.893 -0.4452  1.5464 -0.6044
 5081SOL    HW226877   3.238   3.453   2.933 -0.2559  1.9254  0.8405
 5082SOL     OW26878   0.906   3.880   3.387 -0.2364  0.0444  0.0750
 5082SOL    HW126879   0.980   3.821   3.377 -2.0379 -2.1616 -0.3958
 5082SOL    HW226880   0.897   3.892   3.482 -0.1103 -1.6206  0.3008
 5083SOL     OW26881   2.568   4.451   7.937 -0.7280  0.0564 -0.0829
 5083SOL    HW126882   2.577   4.435   8.031 -1.3502  0.2738  0.0198
 5083SOL    HW226883   2.571   4.547   7.940 -2.4110  0.1328 -0.4935
 5084SOL     OW26884   3.868   2.641  16.368 -0.1290  0.0251 -0.1162
 5084SOL    HW126885   3.802   2.632  16.436 -0.6726 -2.0035 -0.9194
 5084SOL    HW226886   3.940   2.649  16.432 -0.8721 -1.9247  0.9615
 5085SOL     OW26887   0.184   3.239   0.083  0.1086 -0.9438  0.1735
 5085SOL    HW126888   0.193   3.264   0.175  0.2277 -0.1855 -0.0405
 5085SOL    HW226889   0.094   3.264   0.064 -0.5007 -1.8263  1.9492
 5086SOL     OW26890   2.316   1.878   0.947  0.3293  0.0668 -0.0812
 5086SOL    HW126891   2.358   1.962   0.964 -1.9628  1.1536  0.1770
 5086SOL    HW226892   2.285   1.867   1.037  2.4110  3.8118  1.0928
 5087SOL     OW26893   1.770   1.816  12.968  0.0563 -0.4364  0.5810
 5087SOL    HW126894   1.849   1.771  13.001  0.5911  0.9624  1.2058
 5087SOL    HW226895   1.745   1.868  13.044 -0.6038 -0.6997  0.5429
 5088SOL     OW26896   0.965   2.598   7.432  0.5442 -0.1002  0.3021
 5088SOL    HW126897   0.986   2.664   7.366 -0.9755  0.9342  0.8389
 5088SOL    HW226898   0.884   2.638   7.464 -0.2177 -2.5366  1.4702
 5089SOL     OW26899   0.825   1.283   0.042  0.2200  0.6502  0.0636
 5089SOL    HW126900   0.776   1.254  17.718  1.3679  1.1308 -0.8489
 5089SOL    HW226901   0.781   1.222   0.101 -0.1331  0.9524  0.1163
 5090SOL     OW26902   3.943   3.210   6.534  0.0634 -0.1737 -0.4114
 5090SOL    HW126903   3.871   3.264   6.501  0.4877 -0.0298 -1.0953
 5090SOL    HW226904   3.957   3.240   6.623  0.3333  1.7458 -1.0959
 5091SOL     OW26905   4.643   1.101   1.169 -0.4020 -0.4732 -0.3580
 5091SOL    HW126906   4.572   1.142   1.219 -1.9178 -1.2333 -1.8736
 5091SOL    HW226907   4.685   1.184   1.148 -1.1894  0.3990  1.5696
 5092SOL     OW26908   2.551   2.755   3.171 -0.3411 -0.1826 -0.1296
 5092SOL    HW126909   2.517   2.844   3.181 -0.3522 -0.6734  4.2369
 5092SOL    HW226910   2.643   2.780   3.159 -0.7893  1.3946 -0.1764
 5093SOL     OW26911   3.502   4.306   2.092  0.0670  0.3919 -0.1067
 5093SOL    HW126912   3.563   4.288   2.165 -0.2333 -0.7254 -0.1366
 5093SOL    HW226913   3.494   4.220   2.052  0.0663 -0.0187  0.7656
 5094SOL     OW26914   0.106   3.907   3.552 -0.4134  0.4623  0.7093
 5094SOL    HW126915   0.030   3.966   3.554  2.8487  4.7337 -1.3730
 5094SOL    HW226916   0.061   3.823   3.568 -0.3623  0.0276 -1.4353
 5095SOL     OW26917   0.477   4.672   4.467  0.1018 -0.6718  0.3644
 5095SOL    HW126918   0.460   4.669   4.561 -0.0256  1.0643  0.4016
 5095SOL    HW226919   0.571   4.686   4.464  0.2137 -1.7047 -0.7241
 5096SOL     OW26920   4.143   2.448  15.808  0.1728  0.4617 -0.5168
 5096SOL    HW126921   4.172   2.437  15.899  2.6780  1.6641 -1.1581
 5096SOL    HW226922   4.211   2.502  15.769 -0.0359 -0.3603 -2.0238
 5097SOL     OW26923   2.383   0.827   4.694 -0.2815  0.4143 -0.0031
 5097SOL    HW126924   2.433   0.887   4.749 -1.0618 -0.2514  1.4422
 5097SOL    HW226925   2.451   0.785   4.641  1.7829  2.1406  1.2757
 5098SOL     OW26926   0.688   3.332   3.087  0.3212  0.2459 -0.1712
 5098SOL    HW126927   0.671   3.288   3.170  1.7334  0.7888  0.4059
 5098SOL    HW226928   0.758   3.279   3.047 -1.3920 -2.1699  0.0565
 5099SOL     OW26929   0.408   2.996   3.551 -0.0017  0.0963 -0.1589
 5099SOL    HW126930   0.396   3.077   3.601 -0.6719 -0.5250  0.6780
 5099SOL    HW226931   0.378   3.019   3.463 -0.6704 -2.6805 -0.6522
 5100SOL     OW26932   1.604   2.478   2.761  0.3920  0.2561  0.3970
 5100SOL    HW126933   1.697   2.500   2.764  0.2854  0.9434 -1.2837
 5100SOL    HW226934   1.605   2.419   2.686  0.2995  0.9495 -0.1514
 5101SOL     OW26935   0.832   0.587   0.488 -0.6915  0.2526  0.0243
 5101SOL    HW126936   0.923   0.615   0.487 -0.3983 -0.7064 -0.4009
 5101SOL    HW226937   0.845   0.492   0.484 -1.5560  0.1288  0.1705
 5102SOL     OW26938   1.869   4.358  15.328  0.1958  0.0980  0.1372
 5102SOL    HW126939   1.826   4.273  15.317 -2.5343  1.5540 -0.3555
 5102SOL    HW226940   1.846   4.413  15.254 -0.3134 -3.0020 -2.0119
 5103SOL     OW26941   0.623   4.485   2.160  1.0655  0.7135  0.3885
 5103SOL    HW126942   0.579   4.551   2.107  1.1435  0.5770  0.1531
 5103SOL    HW226943   0.578   4.407   2.128 -0.4484  2.3528 -1.4269
 5104SOL     OW26944   1.074   1.735  13.948  0.2492 -0.0544  0.6278
 5104SOL    HW126945   1.035   1.820  13.969  0.9353  0.1738  0.9851
 5104SOL    HW226946   1.156   1.750  13.901 -0.5442 -2.0072 -1.3778
 5105SOL     OW26947   3.585   1.917   7.120  0.2379 -0.1792 -0.2467
 5105SOL    HW126948   3.543   1.999   7.097 -1.0046 -1.1384 -1.3601
 5105SOL    HW226949   3.652   1.909   7.053  0.0134  0.1537 -0.5085
 5106SOL     OW26950   0.549   0.025   9.033 -0.2224 -0.3563  0.3257
 5106SOL    HW126951   0.531   4.671   9.019 -0.5600 -0.2181 -0.1645
 5106SOL    HW226952   0.470   0.053   8.986 -0.6390  0.2723  1.4025
 5107SOL     OW26953   2.914   2.532   6.237 -0.2553  0.5792  0.4845
 5107SOL    HW126954   2.888   2.559   6.148  2.6684 -0.9636 -0.8461
 5107SOL    HW226955   2.838   2.556   6.288  0.2110  2.0982  0.4628
 5108SOL     OW26956   0.344   1.940   5.650  0.8023  0.4311 -0.0720
 5108SOL    HW126957   0.429   1.920   5.609  0.9595 -0.8258  0.8544
 5108SOL    HW226958   0.360   2.028   5.684  0.8605  0.3590  0.0869
 5109SOL     OW26959   1.589   1.978   7.463 -0.3584  0.6523 -0.1790
 5109SOL    HW126960   1.545   2.042   7.519 -0.5141  0.5922 -0.2340
 5109SOL    HW226961   1.680   1.980   7.494 -0.4015 -0.8181  0.0424
 5110SOL     OW26962   2.555   4.619   4.873 -0.7381 -0.6438  0.2255
 5110SOL    HW126963   2.619   4.588   4.937 -0.3111  1.4550  0.7903
 5110SOL    HW226964   2.485   4.634   4.936  1.5738  1.6933  2.2349
 5111SOL     OW26965   1.679   4.096   1.848  0.1247 -0.0881 -0.7991
 5111SOL    HW126966   1.689   4.189   1.870 -2.1405  0.3534 -1.5388
 5111SOL    HW226967   1.714   4.102   1.760 -0.7020  0.6200 -1.0806
 5112SOL     OW26968   4.305   1.242   9.172  0.2093 -0.9356  0.0904
 5112SOL    HW126969   4.329   1.282   9.256 -3.4203  0.8517  0.3057
 5112SOL    HW226970   4.384   1.211   9.128  0.2009  0.7351 -1.1284
 5113SOL     OW26971   4.529   1.803   4.910  0.2966 -0.1733  0.0960
 5113SOL    HW126972   4.438   1.787   4.935 -0.0102  0.3611 -0.6818
 5113SOL    HW226973   4.572   1.825   4.993 -0.8953 -3.0665  1.5032
 5114SOL     OW26974   1.455   0.177  11.294 -0.3780  0.0115  0.5904
 5114SOL    HW126975   1.550   0.184  11.279 -0.4576  0.1199  0.1271
 5114SOL    HW226976   1.414   0.128  11.223  0.1855 -0.3195  0.4937
 5115SOL     OW26977   1.537   1.511   0.257 -0.1453 -0.4945  0.1295
 5115SOL    HW126978   1.459   1.565   0.245 -0.2405 -0.9090 -1.1397
 5115SOL    HW226979   1.596   1.574   0.297  1.3240 -0.6448 -1.7898
 5116SOL     OW26980   1.858   2.583  17.178 -0.3705 -0.0522  0.0224
 5116SOL    HW126981   1.856   2.674  17.146  0.2051 -0.6573 -1.7786
 5116SOL    HW226982   1.910   2.547  17.106  0.4190 -0.6124  0.8779
 5117SOL     OW26983   1.622   2.636  16.273 -0.0864 -0.3426  0.4053
 5117SOL    HW126984   1.701   2.676  16.239 -1.1622  0.6453 -0.9284
 5117SOL    HW226985   1.660   2.584  16.344  1.0553  0.6464  0.5026
 5118SOL     OW26986   0.813   0.907   9.862 -0.5567 -0.4073 -0.8241
 5118SOL    HW126987   0.747   0.901   9.931 -0.0162  1.2946 -0.1435
 5118SOL    HW226988   0.814   0.814   9.838 -1.3633 -1.0308  1.4801
 5119SOL     OW26989   0.279   4.482   2.108  1.0543 -0.6115  0.0145
 5119SOL    HW126990   0.365   4.510   2.076 -0.7224  0.0189 -4.1383
 5119SOL    HW226991   0.224   4.482   2.030  0.0716 -2.5358  0.7206
 5120SOL     OW26992   3.839   3.248   5.539 -0.4362 -0.1908  0.2206
 5120SOL    HW126993   3.748   3.219   5.551 -2.0136  3.0444 -3.8866
 5120SOL    HW226994   3.827   3.341   5.521 -0.6569 -0.3500 -0.4577
 5121SOL     OW26995   1.341   0.706  16.277  0.2112  0.5818  0.3155
 5121SOL    HW126996   1.330   0.617  16.244 -0.8356  1.1887 -0.9914
 5121SOL    HW226997   1.425   0.685  16.318 -0.0906 -0.1593  0.5507
 5122SOL     OW26998   2.564   3.016   0.173 -0.3279  0.8244 -0.2951
 5122SOL    HW126999   2.590   2.997   0.083 -0.2363  0.2971 -0.1608
 5122SOL    HW227000   2.538   3.107   0.157 -0.7987  0.2735 -2.6222
 5123SOL     OW27001   4.474   1.809   4.141  0.3482  0.7808  0.3855
 5123SOL    HW127002   4.448   1.769   4.058  3.3269  1.4457 -0.8657
 5123SOL    HW227003   4.389   1.842   4.171  0.0291  0.0737  0.2795
 5124SOL     OW27004   3.059   3.170   2.734 -0.2780  0.2061  0.3510
 5124SOL    HW127005   3.114   3.243   2.763 -0.1788 -0.3496  1.5341
 5124SOL    HW227006   3.131   3.114   2.707 -0.9625 -0.6837  0.3589
 5125SOL     OW27007   2.809   0.720   6.559 -0.1419 -0.6213 -0.5445
 5125SOL    HW127008   2.788   0.628   6.571 -0.5026 -0.1794  2.1786
 5125SOL    HW227009   2.866   0.736   6.634 -1.0435 -0.2402  0.0652
 5126SOL     OW27010   1.146   2.662   6.178  0.1464 -0.0217 -0.0127
 5126SOL    HW127011   1.090   2.584   6.173 -0.0671  0.1551 -0.3962
 5126SOL    HW227012   1.082   2.728   6.204 -0.6241 -0.7818  0.0265
 5127SOL     OW27013   3.561   1.075   3.282  0.1533  0.1301 -0.4721
 5127SOL    HW127014   3.607   1.114   3.208 -0.7136  0.1097 -1.0250
 5127SOL    HW227015   3.624   1.008   3.308 -1.7869 -0.8405  1.7874
 5128SOL     OW27016   0.955   0.789   8.204 -0.4164 -0.5224 -0.5967
 5128SOL    HW127017   0.947   0.730   8.129  3.3729 -0.9859 -0.6693
 5128SOL    HW227018   0.958   0.723   8.274  0.8876  0.1945  0.0300
 5129SOL     OW27019   4.673   3.703  10.702 -0.6164 -0.6401  0.5553
 5129SOL    HW127020   4.669   3.648  10.624  1.2726 -1.1938  0.8307
 5129SOL    HW227021   4.581   3.725  10.719 -1.1409 -2.6340  0.2821
 5130SOL     OW27022   2.062   1.389   8.805  0.1669  1.0588  0.0046
 5130SOL    HW127023   2.063   1.294   8.796 -1.1525  1.0254  0.2060
 5130SOL    HW227024   2.121   1.401   8.880  1.0432  2.8770 -0.9678
 5131SOL     OW27025   2.327   4.214   7.585  0.4603  0.6731  0.0395
 5131SOL    HW127026   2.386   4.141   7.572 -3.2395 -2.0912 -1.3044
 5131SOL    HW227027   2.382   4.289   7.607  0.5991  0.8501 -0.8810
 5132SOL     OW27028   4.722   2.106  11.119  0.0160  0.0741 -0.9380
 5132SOL    HW127029   0.036   2.027  11.129  1.0287  0.5000 -2.7535
 5132SOL    HW227030   4.651   2.063  11.071 -0.3452  1.4518 -1.6447
 5133SOL     OW27031   4.655   1.648   5.768  0.2558  0.3010 -0.2027
 5133SOL    HW127032   4.736   1.688   5.738  0.2047  1.9443  1.8972
 5133SOL    HW227033   4.666   1.563   5.726 -1.8072 -1.2019  2.2760
 5134SOL     OW27034   2.195   1.667   6.544 -0.0979 -0.3424  0.6857
 5134SOL    HW127035   2.257   1.726   6.587 -2.3485  3.3080 -1.0251
 5134SOL    HW227036   2.254   1.592   6.540  0.8587  0.4343  0.0961
 5135SOL     OW27037   1.981   1.073   6.434 -0.3182  0.4862  0.4250
 5135SOL    HW127038   1.931   1.004   6.478 -1.9330  1.7510  0.5694
 5135SOL    HW227039   2.017   1.119   6.511 -1.7008  0.5916  1.0071
 5136SOL     OW27040   3.594   1.465  15.653  0.0358 -0.5883  0.0750
 5136SOL    HW127041   3.542   1.472  15.573  0.8076  0.2828 -0.3484
 5136SOL    HW227042   3.586   1.553  15.690 -1.2308 -0.8508  0.4049
 5137SOL     OW27043   0.591   1.994   6.317 -0.0641 -1.0907  0.2754
 5137SOL    HW127044   0.592   1.906   6.277  3.5913 -1.4888  1.1830
 5137SOL    HW227045   0.531   1.987   6.391 -0.6529 -2.7397 -0.3454
 5138SOL     OW27046   1.420   4.519   5.895 -0.1385 -0.1065  0.0211
 5138SOL    HW127047   1.359   4.476   5.956 -0.4091 -1.0127 -0.8920
 5138SOL    HW227048   1.346   4.564   5.854 -0.7060 -1.1268 -0.0906
 5139SOL     OW27049   0.793   1.994   0.129  0.3619 -0.6495  0.4837
 5139SOL    HW127050   0.708   2.037   0.123 -0.5918 -2.6867 -0.3488
 5139SOL    HW227051   0.767   1.930   0.063  0.3011 -2.3810  2.1921
 5140SOL     OW27052   2.980   4.156   3.875 -0.3362 -0.1250 -0.6811
 5140SOL    HW127053   2.906   4.217   3.872 -0.1057  0.3205  2.5131
 5140SOL    HW227054   3.034   4.205   3.936 -1.8986  1.0220 -0.2278
 5141SOL     OW27055   1.067   0.029   2.366 -0.1175  0.4083  0.0088
 5141SOL    HW127056   1.041   0.014   2.275  0.0070 -0.6468  0.1442
 5141SOL    HW227057   0.982   0.039   2.407 -0.1881 -0.0227 -0.0335
 5142SOL     OW27058   2.588   0.819   6.886 -0.0185  0.5023  0.1195
 5142SOL    HW127059   2.628   0.864   6.811  0.1365 -1.4722 -0.9731
 5142SOL    HW227060   2.597   0.734   6.844 -2.8013 -0.0205  0.5970
 5143SOL     OW27061   0.177   2.323  15.134  0.2065  0.4370  0.0443
 5143SOL    HW127062   0.245   2.257  15.117 -1.2796 -1.1785  0.3506
 5143SOL    HW227063   0.170   2.296  15.225 -2.5254  1.0863  0.0302
 5144SOL     OW27064   4.207   3.825   7.169  0.7973 -0.0913  0.4909
 5144SOL    HW127065   4.296   3.793   7.157  0.3290 -0.7808 -1.1555
 5144SOL    HW227066   4.164   3.778   7.098 -1.4844 -0.2276  1.9837
 5145SOL     OW27067   1.892   4.550   4.607 -0.2006  0.2824  0.0413
 5145SOL    HW127068   1.900   4.556   4.702  2.8060  4.4807 -0.4895
 5145SOL    HW227069   1.898   4.455   4.594 -1.7719  0.3290 -1.0008
 5146SOL     OW27070   0.252   0.126   2.038 -0.6800  0.3368 -0.3932
 5146SOL    HW127071   0.253   0.219   2.059  0.2274  0.6198 -1.6746
 5146SOL    HW227072   0.291   0.135   1.951  0.2475  0.3846  0.0227
 5147SOL     OW27073   4.021   2.165   2.580 -0.0744  0.6371  0.0838
 5147SOL    HW127074   3.927   2.156   2.591 -0.3484  0.2438 -2.5201
 5147SOL    HW227075   4.036   2.187   2.672  0.2777 -1.5100  0.5473
 5148SOL     OW27076   2.368   4.442   9.564  0.3329  0.3301  0.2637
 5148SOL    HW127077   2.332   4.417   9.649  0.5311 -3.3004 -0.7052
 5148SOL    HW227078   2.286   4.453   9.515 -0.0708  3.5104  1.6673
 5149SOL     OW27079   3.855   1.848   6.644  0.6947 -0.0837  0.0354
 5149SOL    HW127080   3.850   1.929   6.592 -0.3573  0.0331  0.3092
 5149SOL    HW227081   3.809   1.789   6.584  1.8176  1.6148 -2.5077
 5150SOL     OW27082   4.393   3.857  15.171  0.0885 -0.2347  0.0701
 5150SOL    HW127083   4.414   3.946  15.141  0.0701 -0.9953 -2.2013
 5150SOL    HW227084   4.472   3.811  15.143  0.7557  0.9632 -0.0403
 5151SOL     OW27085   4.449   0.715   6.980 -0.9274 -0.2074 -0.8291
 5151SOL    HW127086   4.453   0.626   7.016 -0.5683  0.7287  1.4342
 5151SOL    HW227087   4.404   0.755   7.054  0.6255  0.9303 -0.5148
 5152SOL     OW27088   2.470   2.930   5.229  0.0538  0.0049  0.0053
 5152SOL    HW127089   2.549   2.882   5.205  0.2457  1.1620 -1.6630
 5152SOL    HW227090   2.412   2.919   5.154 -0.6293 -0.1196  0.5506
 5153SOL     OW27091   3.686   1.356   3.169  1.0254  0.2090  0.6028
 5153SOL    HW127092   3.656   1.346   3.078  0.4199 -1.1032  0.9510
 5153SOL    HW227093   3.772   1.314   3.167 -0.5437 -3.0246  1.6276
 5154SOL     OW27094   0.882   3.645   8.987 -0.3964 -0.1029 -0.2470
 5154SOL    HW127095   0.923   3.581   9.045  1.5875  2.1722  0.8457
 5154SOL    HW227096   0.821   3.691   9.045  0.4960 -1.3145  1.6654
 5155SOL     OW27097   4.025   3.425   4.596 -0.4379  0.3381  0.5071
 5155SOL    HW127098   4.008   3.345   4.646 -1.0575  0.2551  0.1575
 5155SOL    HW227099   4.103   3.400   4.547 -1.3636 -0.9001 -0.3379
 5156SOL     OW27100   1.764   3.589  12.075  0.4446 -0.4354 -0.0821
 5156SOL    HW127101   1.852   3.626  12.075  0.2198  0.0993 -0.8490
 5156SOL    HW227102   1.773   3.526  12.147  0.0368 -0.5191 -0.0998
 5157SOL     OW27103   0.071   0.258  15.422 -0.2128  0.1158  0.1653
 5157SOL    HW127104   4.716   0.272  15.432 -0.3004  1.0867 -2.0597
 5157SOL    HW227105   0.084   0.164  15.432 -1.3656 -0.1214 -0.5893
 5158SOL     OW27106   2.690   4.524  10.073  0.1677 -0.1413  0.0251
 5158SOL    HW127107   2.660   4.467  10.002  1.3211  1.0881 -1.4459
 5158SOL    HW227108   2.743   4.462  10.121  2.1478 -0.2920 -2.3420
 5159SOL     OW27109   0.395   1.818   2.857 -0.2334  0.3393 -0.6842
 5159SOL    HW127110   0.338   1.777   2.922  0.4693  0.6113  0.0932
 5159SOL    HW227111   0.452   1.744   2.836 -1.6030 -1.2120  1.0680
 5160SOL     OW27112   4.598   4.437   4.021  0.2481  0.2468  0.0980
 5160SOL    HW127113   4.690   4.456   4.041 -0.2403  1.6435  0.9885
 5160SOL    HW227114   4.594   4.354   4.068  1.9415 -0.5704 -1.1823
 5161SOL     OW27115   1.370   2.862   2.752 -0.6763 -0.1834  0.2092
 5161SOL    HW127116   1.304   2.862   2.682  0.2235  0.1424 -0.6447
 5161SOL    HW227117   1.363   2.778   2.796  2.3982 -0.7743 -0.4154
 5162SOL     OW27118   0.446   3.039   2.492 -0.0145  0.8710  0.2179
 5162SOL    HW127119   0.541   3.045   2.495  0.0395 -0.3974  1.1021
 5162SOL    HW227120   0.421   3.115   2.544  4.4909 -0.0568  3.7658
 5163SOL     OW27121   2.201   3.739   9.755  0.1767 -0.4139  0.1053
 5163SOL    HW127122   2.145   3.702   9.687 -1.8363 -0.7700  1.9203
 5163SOL    HW227123   2.254   3.805   9.712  0.5892 -0.1886  0.9447
 5164SOL     OW27124   1.979   4.670   4.877  0.8242  0.1731  0.4153
 5164SOL    HW127125   2.063   4.625   4.880  0.9346  0.2594 -1.6286
 5164SOL    HW227126   2.001   0.025   4.874  2.7285 -0.2932 -0.5239
 5165SOL     OW27127   3.081   3.397   3.926 -0.5376 -0.6557 -0.3940
 5165SOL    HW127128   3.134   3.390   4.006  0.0418 -3.0931 -0.9771
 5165SOL    HW227129   3.095   3.483   3.888 -0.0299 -0.3283  0.5438
 5166SOL     OW27130   2.310   3.848   4.428  0.2035  0.2338  0.1927
 5166SOL    HW127131   2.319   3.911   4.500 -0.3999  0.7815 -0.2045
 5166SOL    HW227132   2.344   3.768   4.467  1.5299  0.0996 -1.2263
 5167SOL     OW27133   1.993   4.457   6.588 -0.6051 -0.2213 -0.3286
 5167SOL    HW127134   2.068   4.482   6.641  0.4046 -0.0883 -1.8099
 5167SOL    HW227135   1.960   4.542   6.557 -0.3490 -0.2961 -0.8114
 5168SOL     OW27136   0.967   0.754   9.358 -0.0291 -0.3468  0.2548
 5168SOL    HW127137   0.926   0.744   9.272 -0.1390 -1.0683  0.3954
 5168SOL    HW227138   1.000   0.667   9.375 -0.3470 -0.5805 -0.3092
 5169SOL     OW27139   3.414   2.572  13.520  0.1408 -0.2775 -0.2444
 5169SOL    HW127140   3.460   2.581  13.437 -0.4048  0.6154 -0.4549
 5169SOL    HW227141   3.456   2.640  13.573  0.1080 -1.0572  0.7831
 5170SOL     OW27142   2.836   0.315   1.794 -0.1365  0.4378  0.2991
 5170SOL    HW127143   2.897   0.375   1.751 -0.4701  1.7028  1.5556
 5170SOL    HW227144   2.752   0.356   1.774  0.7554  1.5499 -1.1553
 5171SOL     OW27145   4.372   4.305  16.941 -0.4852 -0.3356 -0.1303
 5171SOL    HW127146   4.456   4.337  16.972 -0.8915  0.2021  0.4196
 5171SOL    HW227147   4.382   4.303  16.846  1.9020  0.3104  0.1204
 5172SOL     OW27148   4.026   4.725   2.440 -0.5914 -0.2710  1.3781
 5172SOL    HW127149   3.945   4.673   2.441 -1.6639  1.3428 -0.9650
 5172SOL    HW227150   4.093   4.667   2.476 -0.2965 -1.1905 -0.5946
 5173SOL     OW27151   2.216   2.501   7.089 -0.3501  0.4031  0.3146
 5173SOL    HW127152   2.251   2.451   7.015 -1.5543  0.3046 -0.1919
 5173SOL    HW227153   2.270   2.580   7.086 -0.4451  0.5032  1.3526
 5174SOL     OW27154   0.006   3.324   8.185  0.5329  0.1569  0.6922
 5174SOL    HW127155   0.002   3.335   8.280 -0.4321  1.0544  0.5525
 5174SOL    HW227156   4.652   3.325   8.161  0.8014  0.3396 -0.3132
 5175SOL     OW27157   1.817   0.551   2.939 -0.8874 -0.0995 -0.4994
 5175SOL    HW127158   1.904   0.518   2.964 -1.7118 -0.5790  1.7641
 5175SOL    HW227159   1.776   0.471   2.905 -1.8645  0.2306 -0.1089
 5176SOL     OW27160   0.393   2.477  14.867 -0.0378 -0.4583 -0.4830
 5176SOL    HW127161   0.441   2.528  14.802 -0.6504 -1.9696 -2.1013
 5176SOL    HW227162   0.443   2.494  14.947  0.8062  0.0338 -1.1251
 5177SOL     OW27163   1.484   0.555   3.206  0.2981  0.2039 -0.4611
 5177SOL    HW127164   1.429   0.600   3.142 -0.0161  0.6271  0.1114
 5177SOL    HW227165   1.427   0.560   3.283 -0.1159 -0.8838 -0.6910
 5178SOL     OW27166   4.022   4.598   7.056 -0.2080  0.7795 -0.0847
 5178SOL    HW127167   4.060   4.647   7.129  1.1463 -0.1049 -0.2024
 5178SOL    HW227168   4.098   4.594   6.997  0.4296 -1.9061  0.9020
 5179SOL     OW27169   3.259   0.169   6.842 -0.0951  0.0868 -0.4746
 5179SOL    HW127170   3.329   0.166   6.908 -1.7816 -0.7007  1.2764
 5179SOL    HW227171   3.200   0.095   6.858 -1.1657  0.8353 -0.9618
 5180SOL     OW27172   4.313   4.262   5.287 -0.0671  0.3135 -0.4659
 5180SOL    HW127173   4.341   4.338   5.339  2.3572 -0.6054 -0.4417
 5180SOL    HW227174   4.399   4.244   5.249 -0.8729 -2.6553 -0.8316
 5181SOL     OW27175   0.680   2.207   4.840  0.0658  0.4049 -0.0266
 5181SOL    HW127176   0.594   2.169   4.824  0.3488  0.1288 -0.9147
 5181SOL    HW227177   0.691   2.274   4.772  1.6636 -0.9587 -1.1204
 5182SOL     OW27178   2.405   2.764  15.906  0.3297  0.2628 -0.2187
 5182SOL    HW127179   2.412   2.823  15.981  1.0533  0.1725 -0.2130
 5182SOL    HW227180   2.410   2.829  15.836  1.2186 -0.4263 -0.7877
 5183SOL     OW27181   2.044   2.755  12.825  0.1317  0.4697 -0.0563
 5183SOL    HW127182   1.971   2.817  12.823 -0.5476 -0.3771 -1.3708
 5183SOL    HW227183   2.052   2.740  12.730  0.8449 -1.7042  0.3609
 5184SOL     OW27184   3.245   2.482   4.023 -0.6051 -0.2483  0.3930
 5184SOL    HW127185   3.155   2.510   4.040  0.4409  2.8946  0.8368
 5184SOL    HW227186   3.242   2.399   3.976 -0.5268  0.7330 -1.3559
 5185SOL     OW27187   4.147   2.844   1.460  0.3679 -0.6496  0.6488
 5185SOL    HW127188   4.207   2.788   1.411 -0.5218 -0.5674 -0.5376
 5185SOL    HW227189   4.091   2.772   1.487  2.2415 -2.1255  0.6078
 5186SOL     OW27190   0.090   1.724   6.213 -0.3596 -0.0148  0.2260
 5186SOL    HW127191   0.048   1.757   6.293  2.6658  0.0953  1.7991
 5186SOL    HW227192   0.165   1.783   6.212 -0.2670 -0.1755 -1.4492
 5187SOL     OW27193   1.069   0.622   3.160  0.7393  0.1753  0.7615
 5187SOL    HW127194   1.024   0.543   3.132  0.9540  0.6725 -0.9655
 5187SOL    HW227195   1.154   0.623   3.115 -0.1548 -0.3573 -0.9321
 5188SOL     OW27196   0.004   4.136   4.804 -0.1171  0.5744  0.2131
 5188SOL    HW127197   0.091   4.149   4.767 -0.4465  1.4633 -0.2595
 5188SOL    HW227198   4.728   4.042   4.793  0.8811  0.3830  0.5359
 5189SOL     OW27199   4.433   1.734   4.487 -0.4738  0.4619  0.1752
 5189SOL    HW127200   4.355   1.713   4.539  0.7430 -1.3940  1.2336
 5189SOL    HW227201   4.401   1.769   4.404 -0.0522  1.0387  0.2520
 5190SOL     OW27202   4.250   2.206   1.279 -0.2342 -0.4220 -0.2605
 5190SOL    HW127203   4.261   2.293   1.316 -0.0431 -0.7509  0.4692
 5190SOL    HW227204   4.269   2.148   1.354 -1.6657  0.8543  1.0804
 5191SOL     OW27205   4.611   0.499  10.424 -0.0095 -0.2543 -0.7713
 5191SOL    HW127206   4.692   0.477  10.378  0.3677  1.9802 -1.1659
 5191SOL    HW227207   4.611   0.594  10.423 -0.5491 -0.2028  2.2235
 5192SOL     OW27208   0.703   1.188   7.662  0.0498  0.2885 -0.3695
 5192SOL    HW127209   0.772   1.232   7.711 -0.8418  1.0541  0.2099
 5192SOL    HW227210   0.679   1.256   7.599 -0.7021  0.4753  0.1195
 5193SOL     OW27211   1.567   4.266   9.205 -0.4267  0.0659  0.8204
 5193SOL    HW127212   1.591   4.314   9.126 -1.2415 -0.4201  0.2838
 5193SOL    HW227213   1.544   4.341   9.260  1.0272  2.7970 -2.2369
 5194SOL     OW27214   1.144   2.239  10.470  0.2414 -0.4383  0.0411
 5194SOL    HW127215   1.100   2.156  10.452  0.0593 -0.0891 -1.0938
 5194SOL    HW227216   1.226   2.220  10.424 -0.1363  2.8462 -1.9762
 5195SOL     OW27217   1.055   0.940   1.539 -0.3931  1.0971  0.5316
 5195SOL    HW127218   0.964   0.932   1.510 -0.6391  1.7343  1.1096
 5195SOL    HW227219   1.089   0.934   1.450  0.2956 -1.8771  1.0218
 5196SOL     OW27220   1.124   0.646   5.620  0.0329 -0.2415 -0.1323
 5196SOL    HW127221   1.052   0.687   5.669 -0.5033 -2.5181  1.0233
 5196SOL    HW227222   1.077   0.569   5.589 -1.1893  0.9858 -1.3419
 5197SOL     OW27223   2.948   0.839   4.162 -0.2117 -0.0045 -0.3376
 5197SOL    HW127224   2.971   0.924   4.200  2.9038 -0.2389 -1.7171
 5197SOL    HW227225   3.033   0.803   4.138 -0.1643 -1.1434  1.5522
 5198SOL     OW27226   1.698   0.468   2.445 -0.1212 -0.4735 -0.5425
 5198SOL    HW127227   1.685   0.379   2.478  1.3246 -0.1458  0.9264
 5198SOL    HW227228   1.622   0.512   2.484  1.3342 -0.5531  2.4269
 5199SOL     OW27229   1.375   2.549   1.940 -0.6022  0.3697 -0.3663
 5199SOL    HW127230   1.285   2.520   1.924  0.0263 -1.1677 -1.1594
 5199SOL    HW227231   1.391   2.609   1.868 -0.8763 -0.1718 -0.8851
 5200SOL     OW27232   3.793   4.268  10.985 -0.2439  0.5876 -0.0753
 5200SOL    HW127233   3.817   4.320  10.909  3.6856  0.4104  1.0574
 5200SOL    HW227234   3.808   4.342  11.043 -0.1095 -0.1761  0.8698
 5201SOL     OW27235   3.250   1.271  16.447  0.3502  0.4789 -0.2213
 5201SOL    HW127236   3.225   1.229  16.529 -0.5289 -1.3377 -1.4464
 5201SOL    HW227237   3.322   1.327  16.477 -2.2501  2.6978  1.9045
 5202SOL     OW27238   1.837   1.779   0.884 -0.4804  0.4548 -0.5651
 5202SOL    HW127239   1.813   1.834   0.959  0.0846  2.6478 -1.9916
 5202SOL    HW227240   1.759   1.723   0.881 -0.4969  0.4723 -0.4509
 5203SOL     OW27241   0.319   1.996   3.745  0.2697 -0.2660 -0.0902
 5203SOL    HW127242   0.280   1.981   3.658 -1.7414 -1.1973  0.9867
 5203SOL    HW227243   0.411   2.001   3.719 -0.0790 -4.0080 -2.0726
 5204SOL     OW27244   2.797   3.445   8.338  0.0254  0.8106 -0.3822
 5204SOL    HW127245   2.783   3.401   8.422 -1.7944 -0.9170 -1.5917
 5204SOL    HW227246   2.875   3.500   8.349  0.7291 -0.0992 -0.8199
 5205SOL     OW27247   0.386   2.781   8.591 -0.0218 -0.2515 -0.4504
 5205SOL    HW127248   0.412   2.863   8.632  1.6435  0.2169 -2.4118
 5205SOL    HW227249   0.390   2.715   8.660 -2.9047 -0.4669 -0.4937
 5206SOL     OW27250   2.392   3.908   5.477  0.4068  0.2536  0.2308
 5206SOL    HW127251   2.307   3.940   5.447 -0.7845 -1.9443  1.2547
 5206SOL    HW227252   2.400   3.958   5.558  0.0972 -0.7932  0.9196
 5207SOL     OW27253   4.394   0.513   9.545 -0.4590 -0.0610 -0.5045
 5207SOL    HW127254   4.478   0.478   9.517 -0.3434  0.2966 -0.6012
 5207SOL    HW227255   4.410   0.572   9.618  2.9973 -0.3890 -0.9967
 5208SOL     OW27256   3.696   0.691   3.750  0.1438 -0.3330  0.3191
 5208SOL    HW127257   3.617   0.660   3.794 -0.4186  0.3008 -0.2519
 5208SOL    HW227258   3.714   0.639   3.672  1.9001  0.4817  0.1870
 5209SOL     OW27259   0.262   0.575   8.390  0.0402  0.1549  0.1267
 5209SOL    HW127260   0.248   0.514   8.318 -4.1517  0.7921  0.4127
 5209SOL    HW227261   0.221   0.656   8.361  0.5105  1.0000  1.8501
 5210SOL     OW27262   3.010   3.596   8.528  0.0179  0.5173  0.0242
 5210SOL    HW127263   2.995   3.678   8.482 -0.1598 -0.2513 -1.2897
 5210SOL    HW227264   3.100   3.565   8.514  1.4105  4.6649 -0.2251
 5211SOL     OW27265   1.881   0.612  15.217  0.1792 -0.2830  0.5242
 5211SOL    HW127266   1.827   0.550  15.267 -0.5391  2.7206  3.4612
 5211SOL    HW227267   1.861   0.698  15.252 -0.0857 -0.7145  1.4163
 5212SOL     OW27268   0.132   1.612   9.475 -0.0013  0.5925 -0.0034
 5212SOL    HW127269   0.182   1.572   9.404  0.5852 -1.2212  1.4456
 5212SOL    HW227270   0.166   1.578   9.557  0.0692  3.7888  1.3155
 5213SOL     OW27271   0.781   3.480   1.143  0.4791  0.0107  0.4525
 5213SOL    HW127272   0.836   3.546   1.187 -0.1976 -1.1261  2.9707
 5213SOL    HW227273   0.695   3.519   1.159  0.3629 -0.9754  2.2668
 5214SOL     OW27274   3.680   0.911  13.608  0.1972  0.7772 -0.6345
 5214SOL    HW127275   3.754   0.850  13.606 -1.7112 -1.5744  0.4652
 5214SOL    HW227276   3.668   0.929  13.515 -1.1783  1.1889 -0.3694
 5215SOL     OW27277   1.989   4.248   2.085  0.0987  0.5845 -0.0978
 5215SOL    HW127278   2.051   4.177   2.103 -0.3836  0.6455  1.7855
 5215SOL    HW227279   1.908   4.223   2.131  1.0493  0.7234  1.6484
 5216SOL     OW27280   4.499   4.143  12.144  0.3797 -0.4106 -0.1217
 5216SOL    HW127281   4.415   4.131  12.190 -0.1276 -0.5261 -1.0700
 5216SOL    HW227282   4.472   4.192  12.066 -0.9311 -0.9066  0.0152
 5217SOL     OW27283   4.307   2.284  17.623  0.0317 -0.0870  0.7449
 5217SOL    HW127284   4.239   2.227  17.659  1.3075 -1.8932  0.2710
 5217SOL    HW227285   4.349   2.226  17.560 -0.6597  1.1884 -0.8832
 5218SOL     OW27286   1.865   0.963   4.890  0.5241 -0.1254 -0.0136
 5218SOL    HW127287   1.779   0.926   4.911  0.8725 -0.6744  0.4431
 5218SOL    HW227288   1.906   0.970   4.976  0.1482  0.3578  0.1205
 5219SOL     OW27289   4.017   1.719   8.377 -0.3889  0.5573  0.8944
 5219SOL    HW127290   4.006   1.759   8.291 -0.5755 -1.1094  0.1289
 5219SOL    HW227291   4.021   1.626   8.353 -1.9391  0.4036  1.2659
 5220SOL     OW27292   4.080   2.766   4.780  0.1717 -0.5186  0.0992
 5220SOL    HW127293   4.013   2.819   4.823 -0.7948 -1.4746 -0.2049
 5220SOL    HW227294   4.143   2.838   4.778  0.9780 -1.2644 -1.4103
 5221SOL     OW27295   0.593   1.624   9.259  0.7388 -0.4505  0.5116
 5221SOL    HW127296   0.663   1.648   9.321  1.0943  1.7010 -0.7314
 5221SOL    HW227297   0.625   1.668   9.181 -1.2352  0.5736  0.2867
 5222SOL     OW27298   4.567   4.517   3.512 -0.0846 -0.3763 -0.3653
 5222SOL    HW127299   4.531   4.456   3.578 -0.2968 -2.7442 -2.6528
 5222SOL    HW227300   4.629   4.462   3.464 -0.8493 -2.1148  0.6232
 5223SOL     OW27301   1.371   0.757   2.157  0.5103 -0.4319 -0.0202
 5223SOL    HW127302   1.320   0.676   2.149  0.4012 -0.1563 -2.2847
 5223SOL    HW227303   1.350   0.776   2.248 -1.0956 -3.3895  0.2443
 5224SOL     OW27304   1.888   2.565   3.908  0.5576  0.1986  0.2657
 5224SOL    HW127305   1.913   2.642   3.859 -0.5493  0.7479  0.5525
 5224SOL    HW227306   1.853   2.601   3.990  0.6831  0.2228  0.3082
 5225SOL     OW27307   0.200   2.157   1.878 -0.2386 -0.1772 -0.3832
 5225SOL    HW127308   0.109   2.183   1.895 -0.5257 -2.1874  1.1414
 5225SOL    HW227309   0.215   2.207   1.798  0.1006  0.5919  0.1549
 5226SOL     OW27310   3.877   4.480   2.506  0.3355 -0.0824 -0.0818
 5226SOL    HW127311   3.910   4.469   2.595  1.7022 -0.9824 -0.7088
 5226SOL    HW227312   3.926   4.408   2.467 -0.3565 -0.2715 -0.5898
 5227SOL     OW27313   0.811   2.795   6.470  0.0008 -0.2739  0.6975
 5227SOL    HW127314   0.726   2.750   6.464  0.0471 -0.2299 -0.3870
 5227SOL    HW227315   0.868   2.730   6.511  1.3283 -0.0177 -0.7390
 5228SOL     OW27316   3.259   4.473   8.276  0.3024  0.5525 -0.0036
 5228SOL    HW127317   3.286   4.383   8.290  1.9850  1.0908  0.1801
 5228SOL    HW227318   3.178   4.482   8.327  1.1674  1.0456  1.2789
 5229SOL     OW27319   0.766   1.781   9.105 -0.6084 -0.4868  0.4381
 5229SOL    HW127320   0.748   1.875   9.099  1.5843 -0.1892 -1.5120
 5229SOL    HW227321   0.764   1.745   9.017  0.6790  0.4699  0.0201
 5230SOL     OW27322   2.634   4.046   7.419 -0.5688  0.1366  0.0030
 5230SOL    HW127323   2.650   4.125   7.470 -1.2221 -0.1374  0.6264
 5230SOL    HW227324   2.559   4.012   7.467 -1.9563  0.4377 -1.9802
 5231SOL     OW27325   3.027   4.323   7.945 -0.5333  0.3083 -0.2425
 5231SOL    HW127326   2.988   4.240   7.918  1.1503 -0.6795  0.4048
 5231SOL    HW227327   3.040   4.307   8.038 -0.3939 -0.6483 -0.4249
 5232SOL     OW27328   1.200   4.610   6.996 -0.4517  0.2915 -0.0175
 5232SOL    HW127329   1.164   4.534   7.042 -0.5933 -0.1092 -0.7934
 5232SOL    HW227330   1.168   4.595   6.907  0.7481  1.4250 -0.6352
 5233SOL     OW27331   1.477   3.228   6.582  0.4874  0.6478  0.7263
 5233SOL    HW127332   1.445   3.144   6.549 -0.7571  0.6690  1.8851
 5233SOL    HW227333   1.546   3.245   6.518  0.7584 -0.1813  0.7992
 5234SOL     OW27334   2.658   2.059  17.606  0.1984  0.0731 -0.3618
 5234SOL    HW127335   2.632   2.128  17.546 -1.0060 -0.0177  0.0619
 5234SOL    HW227336   2.737   2.034  17.557 -0.3013  2.3756 -2.3316
 5235SOL     OW27337   0.626   1.881   8.006 -0.4076 -0.2994  0.1751
 5235SOL    HW127338   0.633   1.880   8.102 -0.8216  0.9665  0.2146
 5235SOL    HW227339   0.658   1.793   7.986 -0.6583 -0.1850 -0.7176
 5236SOL     OW27340   4.132   1.105   2.636  0.0130  0.2885 -0.3789
 5236SOL    HW127341   4.149   1.200   2.638 -0.0720  0.2119  3.2222
 5236SOL    HW227342   4.221   1.072   2.626 -0.0957  0.1953 -1.0308
 5237SOL     OW27343   0.044   1.442   8.440 -0.5562 -0.3296 -0.2535
 5237SOL    HW127344   4.713   1.391   8.480 -0.6536  1.8296  2.3253
 5237SOL    HW227345   0.005   1.470   8.356  1.2238 -1.7861 -1.5642
 5238SOL     OW27346   1.684   1.167   1.836 -0.2861 -0.6178  0.0663
 5238SOL    HW127347   1.689   1.199   1.746 -1.8166  1.9957  0.9053
 5238SOL    HW227348   1.738   1.088   1.836  0.4129 -0.1321 -3.3497
 5239SOL     OW27349   4.603   3.767   4.900  0.2420  0.2111  0.4319
 5239SOL    HW127350   4.669   3.703   4.925  0.5352 -1.1281 -3.7321
 5239SOL    HW227351   4.604   3.839   4.962  1.0276  0.1788  0.4515
 5240SOL     OW27352   2.495   4.468   8.938  0.4290  0.1427  0.3903
 5240SOL    HW127353   2.471   4.501   8.851  2.3106  1.0769  0.2134
 5240SOL    HW227354   2.590   4.483   8.936  0.6108 -1.0708 -0.0738
 5241SOL     OW27355   0.566   2.523   5.539  0.4454  0.0666 -0.1478
 5241SOL    HW127356   0.640   2.548   5.593  0.6111  1.5350 -1.0379
 5241SOL    HW227357   0.566   2.596   5.477 -0.0281  1.3019  1.3203
 5242SOL     OW27358   0.150   0.274   2.688  0.9223 -0.0844 -0.4822
 5242SOL    HW127359   0.109   0.207   2.633  0.5533 -0.0397 -0.2582
 5242SOL    HW227360   0.098   0.351   2.668  0.4899 -0.2974 -0.1893
 5243SOL     OW27361   1.157   2.850   1.918  0.3509  0.0887  0.1658
 5243SOL    HW127362   1.079   2.793   1.921 -0.0487  0.5920 -0.6863
 5243SOL    HW227363   1.205   2.799   1.853  0.3501  0.3390 -0.0296
 5244SOL     OW27364   4.004   1.455   8.269 -0.2542  0.2185  0.6040
 5244SOL    HW127365   4.080   1.407   8.301  2.1793  3.6947 -0.0216
 5244SOL    HW227366   3.988   1.421   8.181 -1.4421  1.6674  0.2480
 5245SOL     OW27367   4.113   0.221   2.353 -0.3414  0.3479 -0.1688
 5245SOL    HW127368   4.076   0.139   2.385 -1.7156 -0.0616 -2.7363
 5245SOL    HW227369   4.093   0.283   2.422  1.2355 -0.1426  0.7006
 5246SOL     OW27370   0.304   3.369  12.036  0.5260  0.1001  0.6959
 5246SOL    HW127371   0.397   3.379  12.057  0.7165  2.2230 -1.1803
 5246SOL    HW227372   0.295   3.276  12.018  2.3475  0.4855 -2.1612
 5247SOL     OW27373   1.749   4.331   5.888  0.2906 -0.0222  0.5188
 5247SOL    HW127374   1.751   4.325   5.793  0.7648 -0.5050  0.5592
 5247SOL    HW227375   1.790   4.415   5.906  0.0889  0.1348  0.2471
 5248SOL     OW27376   0.019   2.498   2.034  0.3035  0.5629  0.1363
 5248SOL    HW127377   4.710   2.536   1.960  2.1320 -1.5159 -2.1288
 5248SOL    HW227378   4.730   2.407   2.025 -1.4310  1.2136 -1.0377
 5249SOL     OW27379   0.359   4.638   5.412  0.0406  0.6786  0.1538
 5249SOL    HW127380   0.354   4.549   5.446 -1.8981  1.5338  2.1048
 5249SOL    HW227381   0.415   4.624   5.336 -0.8718  0.7170 -0.5298
 5250SOL     OW27382   1.206   1.421   0.096  0.3774  0.1744 -0.0793
 5250SOL    HW127383   1.264   1.497   0.101  1.3001 -0.3959 -2.1427
 5250SOL    HW227384   1.138   1.470   0.051 -0.7230 -0.7480  0.5796
 5251SOL     OW27385   1.034   1.964   8.492 -0.1997 -0.1301  0.3097
 5251SOL    HW127386   1.098   1.928   8.430  0.6369  0.0445  1.0773
 5251SOL    HW227387   1.045   2.057   8.472  0.1011 -0.2669 -0.1654
 5252SOL     OW27388   1.986   1.591  12.377 -0.3166 -0.3041  0.1722
 5252SOL    HW127389   2.016   1.593  12.469 -0.2753  0.2470  0.1479
 5252SOL    HW227390   1.895   1.617  12.385 -0.1306  1.2098 -2.7283
 5253SOL     OW27391   1.634   0.750   4.665 -0.4849  0.4171  0.6101
 5253SOL    HW127392   1.584   0.671   4.643  0.3757  0.0722 -0.1201
 5253SOL    HW227393   1.650   0.789   4.579 -0.5672 -0.6894  0.0856
 5254SOL     OW27394   0.754   2.930  11.699 -0.2557  0.3333 -0.0758
 5254SOL    HW127395   0.819   2.932  11.630 -2.3433  1.4660 -2.0139
 5254SOL    HW227396   0.716   3.017  11.687 -0.9376  0.2422  1.3712
 5255SOL     OW27397   0.272   4.411   9.248  0.0383 -0.0019  0.4874
 5255SOL    HW127398   0.248   4.500   9.221  1.9781 -0.2377 -2.0575
 5255SOL    HW227399   0.279   4.363   9.165 -1.4162 -2.7008  1.9013
 5256SOL     OW27400   1.301   0.371   1.835 -0.4026 -0.9803 -0.6036
 5256SOL    HW127401   1.302   0.276   1.844 -2.0177 -1.0324 -1.0454
 5256SOL    HW227402   1.392   0.389   1.860 -0.7431  0.2123 -0.1964
 5257SOL     OW27403   1.302   2.446   3.882  0.3573 -0.3356  0.8649
 5257SOL    HW127404   1.278   2.431   3.791 -0.0989  0.8191  0.7955
 5257SOL    HW227405   1.389   2.487   3.886 -0.4498  1.4584  0.3449
 5258SOL     OW27406   1.436   0.352   6.344 -0.4394 -0.9591  0.0597
 5258SOL    HW127407   1.367   0.365   6.279 -0.9545 -0.3975  0.7287
 5258SOL    HW227408   1.518   0.342   6.295 -0.5275 -1.1069 -0.0593
 5259SOL     OW27409   2.327   0.268   7.866  0.8526  0.0532 -0.2654
 5259SOL    HW127410   2.300   0.357   7.888 -0.0288 -0.4829  0.8501
 5259SOL    HW227411   2.249   0.214   7.879  1.0258 -0.3895 -1.1174
 5260SOL     OW27412   1.862   4.104  17.107 -0.0658 -0.1017 -0.3854
 5260SOL    HW127413   1.862   4.149  17.191  0.3161 -1.4218  0.3181
 5260SOL    HW227414   1.827   4.173  17.050 -1.6429 -0.5238  0.0638
 5261SOL     OW27415   1.545   3.480   9.658  0.3675  0.1733 -0.3810
 5261SOL    HW127416   1.634   3.505   9.683  1.0496 -1.9388 -0.6766
 5261SOL    HW227417   1.497   3.556   9.689  1.4750  1.7852 -2.5945
 5262SOL     OW27418   2.079   1.457  15.727  0.7701 -0.1243 -0.4563
 5262SOL    HW127419   2.082   1.367  15.694 -0.4577 -0.3489  0.0683
 5262SOL    HW227420   1.987   1.475  15.712  0.1748 -1.4832  1.5966
 5263SOL     OW27421   0.098   1.031   4.835 -0.5208 -0.1476 -0.1652
 5263SOL    HW127422   0.184   1.050   4.873 -0.0276 -1.5934 -0.5654
 5263SOL    HW227423   0.038   1.052   4.906  0.6585 -1.5225  1.2187
 5264SOL     OW27424   4.045   4.225   8.865 -0.1394 -0.0476 -0.3057
 5264SOL    HW127425   4.066   4.314   8.895  3.1035 -1.1282  0.6087
 5264SOL    HW227426   4.062   4.231   8.771 -1.7869 -0.7006 -0.6437
 5265SOL     OW27427   4.236   0.081   2.152 -0.3116 -0.4914  0.3437
 5265SOL    HW127428   4.199   0.104   2.067  2.7553  0.3112 -0.7491
 5265SOL    HW227429   4.175   0.135   2.204 -0.6058  0.3516 -0.8596
 5266SOL     OW27430   0.537   3.830   4.436 -0.1076  0.1817 -0.2200
 5266SOL    HW127431   0.595   3.853   4.363 -0.8088  1.7863 -0.2817
 5266SOL    HW227432   0.588   3.885   4.496  0.2191 -0.4211  0.0480
 5267SOL     OW27433   0.327   1.352   8.822 -0.6271 -0.6435  0.5508
 5267SOL    HW127434   0.251   1.348   8.880  0.2137  1.5168  1.8109
 5267SOL    HW227435   0.283   1.398   8.751 -2.1827 -2.7121  0.1850
 5268SOL     OW27436   3.451   0.483   5.439 -0.0961  0.3871 -0.1145
 5268SOL    HW127437   3.469   0.425   5.513 -2.2210  0.6800  0.6366
 5268SOL    HW227438   3.532   0.492   5.390  0.4927 -0.3125  0.7394
 5269SOL     OW27439   0.785   1.193   0.746 -0.5378 -0.1655  0.0859
 5269SOL    HW127440   0.804   1.187   0.840  0.2184 -2.3898 -0.2247
 5269SOL    HW227441   0.866   1.237   0.720 -1.0099  2.2597  2.7156
 5270SOL     OW27442   2.258   0.019  11.792  0.2843  0.2389 -0.2352
 5270SOL    HW127443   2.172   4.732  11.759  0.0306  0.5044  0.2328
 5270SOL    HW227444   2.241   0.110  11.815 -2.5747 -1.0032  2.5066
 5271SOL     OW27445   0.500   2.106  10.827 -0.0026 -0.4399  0.4422
 5271SOL    HW127446   0.425   2.139  10.875 -1.0889  1.1970 -2.4005
 5271SOL    HW227447   0.510   2.026  10.879  1.6316 -2.0324 -2.2996
 5272SOL     OW27448   1.756   3.411   3.047 -0.6380  0.3896  0.2206
 5272SOL    HW127449   1.697   3.355   2.997  1.7043 -1.7807 -0.0835
 5272SOL    HW227450   1.720   3.401   3.135 -0.4106  0.8553  0.3688
 5273SOL     OW27451   0.885   3.116   4.667 -0.2118 -0.3478 -0.1441
 5273SOL    HW127452   0.970   3.158   4.673 -0.3621 -0.2647  1.5121
 5273SOL    HW227453   0.891   3.071   4.583 -1.1494 -0.4239 -0.1767
 5274SOL     OW27454   0.166   2.171  14.676  0.1836 -0.7942 -0.0028
 5274SOL    HW127455   0.079   2.168  14.635  0.6480  0.7009 -1.1138
 5274SOL    HW227456   0.140   2.179  14.767 -1.7025  1.9323 -0.7838
 5275SOL     OW27457   3.088   2.667  11.097 -0.4251 -0.2471  0.2255
 5275SOL    HW127458   3.171   2.689  11.139  0.2736  0.1565 -1.3665
 5275SOL    HW227459   3.115   2.681  11.007  0.3507 -0.7025  0.3906
 5276SOL     OW27460   4.618   2.707   2.151 -0.1474  0.2472 -0.2502
 5276SOL    HW127461   4.572   2.678   2.230 -0.9268 -1.8004 -1.4439
 5276SOL    HW227462   4.678   2.633   2.146 -0.6333 -0.2474  1.2825
 5277SOL     OW27463   0.732   1.350   7.183 -0.3116  0.3281  0.4122
 5277SOL    HW127464   0.650   1.391   7.155  0.6893 -0.2869 -3.3111
 5277SOL    HW227465   0.699   1.267   7.218  1.4119 -0.2169  0.7238
 5278SOL     OW27466   0.980   2.325   7.491  0.4943 -0.0854 -0.1726
 5278SOL    HW127467   1.003   2.415   7.467 -1.8426  0.9698  1.5530
 5278SOL    HW227468   0.892   2.336   7.526  0.9509  0.2174  0.8730
 5279SOL     OW27469   0.279   2.230   2.606 -0.2454  0.4497  0.5660
 5279SOL    HW127470   0.358   2.282   2.623  0.7821 -0.6887 -0.8107
 5279SOL    HW227471   0.284   2.177   2.685 -1.9737 -1.9889 -0.9784
 5280SOL     OW27472   4.695   2.530   8.753 -0.3376 -0.3262  0.1975
 5280SOL    HW127473   4.728   2.449   8.791 -2.7665 -0.5327  1.8668
 5280SOL    HW227474   4.646   2.509   8.673 -0.6083  1.0197  0.0121
 5281SOL     OW27475   0.602   2.053  15.883 -0.2528  0.4130 -0.5017
 5281SOL    HW127476   0.656   2.128  15.908 -0.7682  1.5966 -2.8870
 5281SOL    HW227477   0.555   2.041  15.965  0.5062  2.9114  0.2886
 5282SOL     OW27478   2.113   0.360  14.583 -0.3202 -0.4262 -0.0131
 5282SOL    HW127479   2.141   0.268  14.574 -1.4293 -0.8309  0.7130
 5282SOL    HW227480   2.177   0.415  14.538 -0.8723 -0.0210 -0.3047
 5283SOL     OW27481   1.434   1.337   8.131 -0.0999  0.1406 -0.7236
 5283SOL    HW127482   1.499   1.351   8.062 -0.6702  0.7198 -1.1439
 5283SOL    HW227483   1.478   1.341   8.216 -1.3391 -2.8016  0.0544
 5284SOL     OW27484   0.709   4.693   5.702 -0.2812  0.8216 -0.1946
 5284SOL    HW127485   0.717   4.632   5.774 -2.1616 -1.6735 -2.0875
 5284SOL    HW227486   0.687   4.639   5.626  0.4167 -0.1115  0.2828
 5285SOL     OW27487   4.452   2.800   5.909  0.0174  0.0454 -0.2510
 5285SOL    HW127488   4.378   2.779   5.967  1.4434 -1.7310  0.8969
 5285SOL    HW227489   4.409   2.856   5.844  1.4050  0.6700 -0.6119
 5286SOL     OW27490   2.004   3.518   1.564 -0.9762 -0.3578 -0.3466
 5286SOL    HW127491   2.066   3.553   1.500  0.9236 -2.2376  0.4575
 5286SOL    HW227492   1.970   3.447   1.510 -2.6282  0.0020  0.2163
 5287SOL     OW27493   2.458   2.528  11.417 -0.0734  0.2645 -0.8425
 5287SOL    HW127494   2.402   2.581  11.360 -0.9760  1.4502  1.1347
 5287SOL    HW227495   2.534   2.582  11.438  0.4843 -0.4828 -0.9078
 5288SOL     OW27496   2.925   2.785   7.023  0.0889  0.0739  0.6061
 5288SOL    HW127497   2.968   2.824   6.947 -1.5083  0.2383 -0.2243
 5288SOL    HW227498   2.880   2.856   7.070 -0.7587  0.2124 -0.4292
 5289SOL     OW27499   3.695   4.380   2.272 -0.1745  0.7058 -0.1921
 5289SOL    HW127500   3.682   4.314   2.341  0.9687  0.5562 -0.1220
 5289SOL    HW227501   3.710   4.449   2.337  0.6882  0.4829 -0.1614
 5290SOL     OW27502   3.340   1.002  16.846  1.0346  0.1438  0.0627
 5290SOL    HW127503   3.268   0.938  16.851  1.6081 -0.3743  1.9903
 5290SOL    HW227504   3.318   1.066  16.914 -0.7537  1.8288 -2.1297
 5291SOL     OW27505   0.015   2.142  14.924  0.4522  0.1799 -0.2279
 5291SOL    HW127506   0.058   2.190  14.995  0.6225 -0.8278  0.3552
 5291SOL    HW227507   0.057   2.055  14.928  0.9225  0.3466 -1.6010
 5292SOL     OW27508   2.278   3.489   0.098  0.9289  0.8187  0.1605
 5292SOL    HW127509   2.202   3.505   0.154  1.0189 -0.0596  0.5434
 5292SOL    HW227510   2.285   3.571   0.049  0.4903  0.5485 -0.3600
 5293SOL     OW27511   0.947   2.837  10.427  0.0642 -0.1595  0.4620
 5293SOL    HW127512   0.860   2.861  10.395  0.1058  0.4040  0.7682
 5293SOL    HW227513   0.970   2.906  10.489 -2.5140  0.6452  0.5242
 5294SOL     OW27514   4.171   1.250   5.174  0.1634  0.2633  0.2706
 5294SOL    HW127515   4.170   1.155   5.189 -0.9479  0.3663  0.8958
 5294SOL    HW227516   4.172   1.244   5.078 -1.8954 -0.6158  0.3021
 5295SOL     OW27517   1.289   2.211   4.745 -0.1278 -0.5331 -0.5867
 5295SOL    HW127518   1.381   2.236   4.752  0.6497 -3.2643 -1.3172
 5295SOL    HW227519   1.235   2.289   4.763  1.3338  0.6627 -1.3923
 5296SOL     OW27520   1.637   1.719   0.377  0.0014  0.3874 -0.4291
 5296SOL    HW127521   1.711   1.768   0.413  0.1180  1.5780 -2.2726
 5296SOL    HW227522   1.603   1.783   0.315 -5.0704 -1.7969  0.0645
 5297SOL     OW27523   2.535   4.530   0.788  0.1278 -0.1931 -0.0172
 5297SOL    HW127524   2.525   4.617   0.825 -1.7683  0.5764 -2.3196
 5297SOL    HW227525   2.527   4.555   0.696 -1.1841 -2.4891 -0.5351
 5298SOL     OW27526   2.929   3.439   3.001  0.0810  0.0651  0.5539
 5298SOL    HW127527   2.855   3.402   2.954 -0.3608  0.7112  0.7410
 5298SOL    HW227528   2.890   3.521   3.031 -0.4644 -0.3051  0.8578
 5299SOL     OW27529   3.073   0.069  17.628 -0.1830  0.2291  0.1587
 5299SOL    HW127530   3.167   0.069  17.646  0.3682  1.2646 -2.5812
 5299SOL    HW227531   3.032   0.066  17.714 -1.4207  0.8773 -0.4064
 5300SOL     OW27532   1.122   1.934   5.540 -0.1660  0.1717  0.2576
 5300SOL    HW127533   1.169   1.945   5.457  1.3885 -0.8857  0.9996
 5300SOL    HW227534   1.036   1.918   5.503 -0.4226  1.0540  0.4668
 5301SOL     OW27535   0.052   0.430  10.794  0.1574  0.1292 -0.0485
 5301SOL    HW127536   0.022   0.407  10.881 -1.9670  0.9370 -0.5825
 5301SOL    HW227537   0.092   0.348  10.764  2.4692  0.7211  1.4385
 5302SOL     OW27538   0.092   1.373   3.025  0.3487  0.0064  0.1469
 5302SOL    HW127539   0.140   1.332   3.098 -1.2139 -0.5160  0.8748
 5302SOL    HW227540   0.160   1.422   2.979  1.0850 -0.0172  1.2003
 5303SOL     OW27541   0.755   4.297  16.641 -0.3138  0.1447  0.4908
 5303SOL    HW127542   0.822   4.349  16.686 -0.0655  1.1196 -0.9931
 5303SOL    HW227543   0.706   4.367  16.598  0.4084 -1.1009 -2.3989
 5304SOL     OW27544   2.954   2.158  14.172  0.3128 -0.1662 -0.1525
 5304SOL    HW127545   3.046   2.135  14.161  0.9679  2.2763  0.2476
 5304SOL    HW227546   2.957   2.253  14.181  0.2190 -0.2415  0.6801
 5305SOL     OW27547   0.646   0.209   9.771  0.0721  0.2482 -0.4462
 5305SOL    HW127548   0.631   0.184   9.862 -0.9201 -1.2690 -1.0280
 5305SOL    HW227549   0.556   0.227   9.746  0.2630  1.0782 -0.5319
 5306SOL     OW27550   0.424   1.594   3.182 -0.0049 -0.1809  0.3837
 5306SOL    HW127551   0.505   1.643   3.171  0.5006 -1.1265 -0.0563
 5306SOL    HW227552   0.416   1.612   3.276  0.7715 -0.2851  0.4633
 5307SOL     OW27553   1.627   0.298  13.481 -0.4133  0.6462 -0.1878
 5307SOL    HW127554   1.550   0.271  13.431 -0.7710  0.5398  0.4111
 5307SOL    HW227555   1.689   0.305  13.409  0.7039 -1.1317  0.5939
 5308SOL     OW27556   2.127   0.902   3.770 -0.0114  0.1690 -0.5960
 5308SOL    HW127557   2.096   0.880   3.682  0.2247 -2.4903 -0.0246
 5308SOL    HW227558   2.180   0.977   3.741  0.3297  1.0393  2.3331
 5309SOL     OW27559   2.191   1.357  12.611 -0.0420  0.0112  0.6726
 5309SOL    HW127560   2.187   1.262  12.598 -2.0576 -0.1207  2.1609
 5309SOL    HW227561   2.105   1.385  12.580  0.1922  1.3771  1.2427
 5310SOL     OW27562   3.380   3.204   2.914  0.3105 -0.5561 -0.2578
 5310SOL    HW127563   3.398   3.207   2.820 -1.9491 -0.9524 -0.6962
 5310SOL    HW227564   3.382   3.296   2.940 -2.6768 -0.2549 -1.1525
 5311SOL     OW27565   3.744   1.194   6.160  0.1127 -0.4002 -0.1564
 5311SOL    HW127566   3.651   1.180   6.143  0.4655 -0.9688 -1.6706
 5311SOL    HW227567   3.773   1.103   6.166  0.5045 -0.2616  0.0118
 5312SOL     OW27568   3.870   2.726  10.501 -0.0336  0.2125 -0.0645
 5312SOL    HW127569   3.835   2.663  10.437  0.7851  1.5019 -1.7548
 5312SOL    HW227570   3.954   2.686  10.524 -1.0524 -1.2234  1.2394
 5313SOL     OW27571   0.536   1.597   2.749  0.1419 -0.0344 -0.1069
 5313SOL    HW127572   0.551   1.607   2.655 -2.5769 -1.3547 -0.6688
 5313SOL    HW227573   0.536   1.502   2.756 -1.1906 -0.2673 -3.3695
 5314SOL     OW27574   0.019   3.266   6.311  0.4669  0.1753  0.2418
 5314SOL    HW127575   4.706   3.313   6.245  0.4891 -2.5482 -1.7254
 5314SOL    HW227576   0.043   3.185   6.267 -2.4360 -1.1616  1.1376
 5315SOL     OW27577   4.312   3.432   5.463 -0.4218  0.0552  0.2594
 5315SOL    HW127578   4.299   3.390   5.548  1.9445  0.3222  0.7474
 5315SOL    HW227579   4.274   3.369   5.402  0.8669 -1.2014  0.7519
 5316SOL     OW27580   2.696   3.164   6.593 -0.3470 -0.4149 -0.3856
 5316SOL    HW127581   2.697   3.100   6.664 -0.4719 -1.3141 -1.2008
 5316SOL    HW227582   2.776   3.207   6.625 -1.9819  0.9517  1.8866
 5317SOL     OW27583   2.829   2.106   8.673  0.2377  0.7285  0.1728
 5317SOL    HW127584   2.896   2.172   8.688  1.7051 -0.7536  0.1706
 5317SOL    HW227585   2.748   2.157   8.673 -1.2967 -1.6802 -0.8492
 5318SOL     OW27586   3.685   2.692  17.375 -0.3307 -0.6030 -0.1837
 5318SOL    HW127587   3.647   2.687  17.287 -0.9319  3.2682 -0.1533
 5318SOL    HW227588   3.753   2.759  17.369 -0.4881 -0.3771  0.5804
 5319SOL     OW27589   2.717   4.303   6.042 -0.9775  0.6548  0.6147
 5319SOL    HW127590   2.662   4.376   6.014 -1.7853  0.5786  2.0259
 5319SOL    HW227591   2.663   4.236   6.002  0.3118 -0.2374  0.3777
 5320SOL     OW27592   4.288   2.564   8.485 -0.2527 -0.2523  0.1830
 5320SOL    HW127593   4.236   2.507   8.428 -0.7865  0.7094 -0.2921
 5320SOL    HW227594   4.288   2.650   8.444  1.2666 -0.6773 -0.7222
 5321SOL     OW27595   0.417   0.750   2.505  0.0297  0.8553 -0.2014
 5321SOL    HW127596   0.471   0.703   2.569 -0.6081  0.6832  0.2149
 5321SOL    HW227597   0.449   0.699   2.431 -0.0376  1.1498 -0.4325
 5322SOL     OW27598   3.193   1.462   9.808  0.2697  0.4224  0.1581
 5322SOL    HW127599   3.229   1.383   9.847  0.9997  0.5003 -0.3741
 5322SOL    HW227600   3.265   1.524   9.821  0.6850 -0.0689  0.1510
 5323SOL     OW27601   2.410   2.452   8.605  0.4720 -0.2822 -0.0865
 5323SOL    HW127602   2.348   2.407   8.547 -1.0838 -0.1199  1.4729
 5323SOL    HW227603   2.345   2.495   8.660  1.3829  0.3834  0.4609
 5324SOL     OW27604   3.632   2.401   7.628  0.0677 -0.0926 -0.0349
 5324SOL    HW127605   3.572   2.347   7.576 -0.6440  0.1652  0.5313
 5324SOL    HW227606   3.573   2.425   7.699  1.4191 -2.8278  2.0344
 5325SOL     OW27607   2.429   3.931   4.172  0.5003  0.1655  0.1297
 5325SOL    HW127608   2.369   3.893   4.108  0.6968  0.1626 -0.0524
 5325SOL    HW227609   2.380   3.931   4.254  0.5140  0.6465  0.1390
 5326SOL     OW27610   0.268   3.572   2.683 -0.0203 -0.2708  0.1310
 5326SOL    HW127611   0.331   3.622   2.631 -0.8960  1.1386  0.4282
 5326SOL    HW227612   0.292   3.480   2.668  0.1590 -0.0425 -0.9663
 5327SOL     OW27613   1.252   1.963  16.825 -0.4233  0.4377  0.6783
 5327SOL    HW127614   1.341   1.945  16.795 -0.8629  1.1945 -1.0702
 5327SOL    HW227615   1.271   2.002  16.910  1.1515 -1.5143  1.2369
 5328SOL     OW27616   2.088   3.723  14.723  0.1157  0.0219  0.4830
 5328SOL    HW127617   2.076   3.635  14.686 -0.7949 -0.0078  0.8630
 5328SOL    HW227618   2.062   3.781  14.651  2.8464  0.8419  0.1345
 5329SOL     OW27619   4.624   4.180   2.002  0.2922 -0.3301 -0.3384
 5329SOL    HW127620   4.674   4.160   1.923 -1.3040 -0.7005 -1.2409
 5329SOL    HW227621   4.570   4.256   1.980  0.6953 -0.2218 -0.9538
 5330SOL     OW27622   1.012   4.117  10.932 -0.1482 -0.2400  0.1981
 5330SOL    HW127623   0.938   4.097  10.875 -0.1052 -0.9689  0.4046
 5330SOL    HW227624   0.966   4.127  11.016  1.4662  1.2244  0.9171
 5331SOL     OW27625   1.068   2.450   1.248 -0.2903  0.6573  0.1490
 5331SOL    HW127626   1.023   2.457   1.332 -0.5025 -2.4243  0.2971
 5331SOL    HW227627   0.997   2.491   1.198  1.3049 -0.2586 -2.8715
 5332SOL     OW27628   3.346   1.935   2.476 -0.2680 -0.2429 -0.6423
 5332SOL    HW127629   3.344   1.908   2.384  0.2263 -0.9215 -0.4536
 5332SOL    HW227630   3.285   2.009   2.473  0.1991  0.1859  0.6637
 5333SOL     OW27631   2.737   4.566   7.422 -0.2122  0.1398 -0.0282
 5333SOL    HW127632   2.720   4.631   7.353 -0.4344  1.5159  1.3233
 5333SOL    HW227633   2.742   4.613   7.505 -2.1717  1.8643 -0.8685
 5334SOL     OW27634   3.726   1.333   0.537 -0.3793  0.2489  0.1504
 5334SOL    HW127635   3.694   1.361   0.622  1.8862  1.1308  0.7174
 5334SOL    HW227636   3.675   1.388   0.477  0.2475 -0.7384 -1.2915
 5335SOL     OW27637   3.425   4.034   2.045  0.1088 -0.1685  0.2957
 5335SOL    HW127638   3.443   4.009   1.954  0.5115 -0.5866  0.4874
 5335SOL    HW227639   3.332   4.057   2.038  0.1411 -0.4513 -1.1001
 5336SOL     OW27640   0.296   3.343   7.526 -0.2848 -0.5312  0.0783
 5336SOL    HW127641   0.266   3.273   7.585  1.1923  0.1364  1.6291
 5336SOL    HW227642   0.362   3.289   7.483  1.5225  2.2490 -0.6222
 5337SOL     OW27643   2.440   1.675   8.147  0.3153 -0.5119  0.1780
 5337SOL    HW127644   2.362   1.673   8.203 -0.1054 -0.4950 -0.4071
 5337SOL    HW227645   2.510   1.710   8.204  0.0360  1.0839 -0.4563
 5338SOL     OW27646   3.890   0.997   2.940 -0.0248 -0.0620 -0.3027
 5338SOL    HW127647   3.801   0.994   2.905 -0.0956  1.1238 -0.2256
 5338SOL    HW227648   3.900   0.906   2.969 -1.8820  0.2588  1.3082
 5339SOL     OW27649   3.987   0.960   6.496  0.9372  0.1029  0.0425
 5339SOL    HW127650   4.003   0.937   6.587  3.3263  0.8986 -0.1594
 5339SOL    HW227651   3.924   1.030   6.513  1.5809  1.2645 -2.3086
 5340SOL     OW27652   2.170   3.608   6.699 -0.2097 -0.1542  0.7852
 5340SOL    HW127653   2.236   3.676   6.681  0.7641 -1.8903 -2.2367
 5340SOL    HW227654   2.100   3.670   6.720 -1.5105 -1.2195 -0.4175
 5341SOL     OW27655   3.756   2.044   4.623  0.4411 -0.0169 -0.1752
 5341SOL    HW127656   3.747   2.066   4.715 -2.1736 -1.2140 -0.1585
 5341SOL    HW227657   3.706   1.963   4.615 -1.2738  1.2842 -2.6318
 5342SOL     OW27658   2.164   2.612   9.220  0.0019 -0.5452 -0.4495
 5342SOL    HW127659   2.084   2.650   9.256  1.0695 -0.2086  1.5725
 5342SOL    HW227660   2.201   2.560   9.292 -2.0895 -2.0565 -0.4645
 5343SOL     OW27661   2.930   3.534   9.085  0.6311  0.1966 -0.1532
 5343SOL    HW127662   2.985   3.458   9.067  1.3549  0.9119 -0.9611
 5343SOL    HW227663   2.964   3.599   9.024 -1.9362  0.7393 -1.0183
 5344SOL     OW27664   0.676   4.597  14.446 -0.1617  0.4074  0.1482
 5344SOL    HW127665   0.707   4.672  14.395 -0.8128  0.3475 -0.3401
 5344SOL    HW227666   0.754   4.571  14.495  0.3134 -4.9978 -3.5343
 5345SOL     OW27667   4.096   0.496   8.698 -0.5403  0.4004  0.2369
 5345SOL    HW127668   4.121   0.569   8.755  1.5370  0.9618 -1.3631
 5345SOL    HW227669   4.168   0.493   8.635  1.2428  2.4452  2.1499
 5346SOL     OW27670   1.413   2.775   3.084 -0.1287 -0.1797 -0.0891
 5346SOL    HW127671   1.393   2.737   2.999 -1.6403 -1.4614  0.8336
 5346SOL    HW227672   1.489   2.830   3.061  0.1848 -0.8723 -0.6999
 5347SOL     OW27673   2.051   1.766   3.027  0.0329  0.3409 -0.1316
 5347SOL    HW127674   1.993   1.772   3.103  1.7646  1.4804  1.0942
 5347SOL    HW227675   1.990   1.737   2.959 -0.1732  1.4490 -0.4231
 5348SOL     OW27676   3.323   0.004   1.841 -0.3171  0.3077 -0.0838
 5348SOL    HW127677   3.309   0.096   1.862 -2.9313  0.1102 -0.8991
 5348SOL    HW227678   3.244   4.719   1.792  2.2266 -1.2231 -3.3838
 5349SOL     OW27679   3.442   0.223   4.190 -0.0965 -0.0502 -0.4066
 5349SOL    HW127680   3.453   0.155   4.124  0.9516  0.4540 -0.7562
 5349SOL    HW227681   3.523   0.275   4.194  0.6548 -1.3079  1.1081
 5350SOL     OW27682   2.196   4.077  12.675 -0.4965 -0.0870  0.1339
 5350SOL    HW127683   2.116   4.048  12.633 -0.8890 -0.6370  1.2715
 5350SOL    HW227684   2.200   4.011  12.745  0.1774 -0.4098 -0.2114
 5351SOL     OW27685   3.689   4.588   8.568  0.3785 -0.2240 -0.2732
 5351SOL    HW127686   3.594   4.592   8.566  0.4843  0.8832 -2.8879
 5351SOL    HW227687   3.713   4.660   8.628  0.2740 -0.0841 -0.3993
 5352SOL     OW27688   3.950   3.770   7.931 -0.4731  0.0147  0.1061
 5352SOL    HW127689   3.965   3.794   7.839 -0.3101 -1.6761 -0.2964
 5352SOL    HW227690   3.870   3.812   7.962 -1.7274 -2.4447  0.1308
 5353SOL     OW27691   1.985   0.930  17.214  0.2946 -0.2608  0.8966
 5353SOL    HW127692   2.001   1.023  17.228  0.7496 -0.3365  0.8935
 5353SOL    HW227693   1.932   0.897  17.287 -0.7724  0.4511  0.4404
 5354SOL     OW27694   1.294   2.293   4.133  0.2255 -0.0204 -0.3318
 5354SOL    HW127695   1.207   2.257   4.114  1.0720 -2.1219 -0.2870
 5354SOL    HW227696   1.295   2.362   4.067 -0.5693 -2.9811 -3.4262
 5355SOL     OW27697   3.377   3.085   7.311 -0.6960  0.3330 -0.0827
 5355SOL    HW127698   3.303   3.028   7.328  1.0244 -1.8224  0.1720
 5355SOL    HW227699   3.390   3.069   7.217  0.9334  0.3473  0.1273
 5356SOL     OW27700   1.531   0.640   2.579  0.3463 -0.2061  0.8112
 5356SOL    HW127701   1.511   0.732   2.561 -2.5019 -0.7795  1.0359
 5356SOL    HW227702   1.579   0.653   2.661 -0.8236  0.7437  1.3510
 5357SOL     OW27703   2.749   1.376  12.718  0.1339  0.4443 -0.3074
 5357SOL    HW127704   2.692   1.453  12.725 -2.6649 -1.6993  0.4275
 5357SOL    HW227705   2.830   1.418  12.691  0.3439  0.5016  0.4196
 5358SOL     OW27706   0.738   4.474   3.375  0.5606  0.3405  0.0891
 5358SOL    HW127707   0.728   4.513   3.288 -2.2418  2.2654  1.2544
 5358SOL    HW227708   0.815   4.519   3.410  0.7783 -0.9038  1.2030
 5359SOL     OW27709   0.258   0.988   5.815  0.0322 -0.3068 -0.2509
 5359SOL    HW127710   0.304   1.058   5.861 -1.3589  1.9104 -2.1822
 5359SOL    HW227711   0.329   0.924   5.818  0.3551 -0.0342 -2.1328
 5360SOL     OW27712   2.162   1.010   1.867  0.0934 -0.3231 -0.4298
 5360SOL    HW127713   2.129   1.005   1.777 -0.0749 -0.5527 -0.3556
 5360SOL    HW227714   2.080   0.992   1.912  1.0596  0.4965  1.6419
 5361SOL     OW27715   1.317   0.795  11.809 -0.4460 -0.2006  0.2130
 5361SOL    HW127716   1.239   0.811  11.862 -0.0350  0.7094  0.5553
 5361SOL    HW227717   1.326   0.874  11.756 -1.5024  0.6458  1.2722
 5362SOL     OW27718   1.735   0.350   8.995 -0.3410 -0.8835  0.2482
 5362SOL    HW127719   1.723   0.444   9.009  1.3240 -0.6931  0.3136
 5362SOL    HW227720   1.828   0.345   9.017 -0.5888 -1.2041  1.2331
 5363SOL     OW27721   3.477   4.581   4.203  0.3968 -0.6899 -0.2247
 5363SOL    HW127722   3.398   4.624   4.170  0.5607 -1.3559 -1.4887
 5363SOL    HW227723   3.432   4.500   4.226  0.7142 -1.2055 -1.3988
 5364SOL     OW27724   2.629   2.198   6.675  0.2048 -0.2451 -0.0128
 5364SOL    HW127725   2.609   2.138   6.603  3.1446 -1.1345 -0.0822
 5364SOL    HW227726   2.581   2.157   6.747 -0.9427 -1.4231 -1.4499
 5365SOL     OW27727   1.453   2.548  17.624 -0.1955  0.6767 -0.5346
 5365SOL    HW127728   1.540   2.589  17.623 -0.1733  0.6378 -0.2363
 5365SOL    HW227729   1.433   2.579  17.535 -1.3959 -1.5724 -1.0473
 5366SOL     OW27730   0.256   4.704   6.826 -0.2271 -0.9219  0.2051
 5366SOL    HW127731   0.350   4.721   6.814 -0.2892  0.6837  1.9084
 5366SOL    HW227732   0.249   4.610   6.810 -0.6468 -0.7599 -0.5667
 5367SOL     OW27733   3.263   1.747  10.078  0.0192 -0.2730 -0.5580
 5367SOL    HW127734   3.196   1.679  10.070  0.8854 -1.3548  1.4060
 5367SOL    HW227735   3.302   1.749  10.165 -0.2137  0.3080 -0.4644
 5368SOL     OW27736   2.569   2.012  15.216 -0.0497 -0.5106  0.0339
 5368SOL    HW127737   2.505   1.974  15.276 -0.2348 -0.6660 -0.2625
 5368SOL    HW227738   2.540   2.103  15.213 -1.5892 -1.1103 -3.0425
 5369SOL     OW27739   3.573   0.245  11.990  0.2153  0.1466 -0.3983
 5369SOL    HW127740   3.649   0.261  12.046  0.6279  0.7678 -1.1371
 5369SOL    HW227741   3.534   0.167  12.029 -0.5118  0.7439  0.0754
 5370SOL     OW27742   4.111   1.174   1.220 -0.6568  0.4539  0.3139
 5370SOL    HW127743   4.064   1.124   1.153 -0.7903  1.8051 -0.5885
 5370SOL    HW227744   4.058   1.150   1.296 -3.5427  1.9676 -1.1973
 5371SOL     OW27745   2.088   2.635   5.916 -0.5240 -0.1718 -0.1213
 5371SOL    HW127746   2.072   2.564   5.854  1.6241 -0.3196 -0.4962
 5371SOL    HW227747   2.152   2.687   5.867  0.3513  0.0514  1.2809
 5372SOL     OW27748   4.664   1.447  15.632  0.3840  0.8555 -0.0154
 5372SOL    HW127749   4.615   1.483  15.558 -2.1361  2.3273  2.2994
 5372SOL    HW227750   4.621   1.498  15.702  2.1692  1.1974  0.8178
 5373SOL     OW27751   2.478   4.342  13.740  0.0048  0.2289 -0.3096
 5373SOL    HW127752   2.425   4.421  13.728 -0.7776 -0.1594  0.5656
 5373SOL    HW227753   2.417   4.273  13.716 -0.5870  0.7913 -0.4132
 5374SOL     OW27754   4.336   0.149   4.410 -0.2424 -0.4253 -0.0702
 5374SOL    HW127755   4.291   0.233   4.416 -1.4130 -0.9962 -0.8993
 5374SOL    HW227756   4.272   0.079   4.400  0.0678 -0.6024 -0.8517
 5375SOL     OW27757   3.973   1.377   8.768  0.3075  0.1752  0.1095
 5375SOL    HW127758   3.964   1.390   8.862 -2.2635  0.5823 -0.2021
 5375SOL    HW227759   4.064   1.400   8.749 -0.1904  1.2209 -1.0243
 5376SOL     OW27760   1.113   4.086   5.061 -0.6427 -0.2419 -0.3322
 5376SOL    HW127761   1.048   4.057   5.126 -0.6498  0.6366  0.0460
 5376SOL    HW227762   1.063   4.082   4.980  1.2840  1.5894 -1.6017
 5377SOL     OW27763   4.120   3.100   1.390  0.3216 -0.3009  0.1004
 5377SOL    HW127764   4.130   3.017   1.436 -0.9873 -0.0693  0.8058
 5377SOL    HW227765   4.212   3.124   1.379 -0.1933  2.1304  0.9995
 5378SOL     OW27766   3.865   1.439   6.513  0.4821 -0.3126 -0.3709
 5378SOL    HW127767   3.957   1.461   6.522  0.0534  0.6640  1.7032
 5378SOL    HW227768   3.827   1.512   6.464  1.2785 -1.2186 -2.3224
 5379SOL     OW27769   2.986   0.683  12.710 -0.5105  0.1244  0.0977
 5379SOL    HW127770   2.958   0.696  12.619  3.1113 -0.2009 -1.0757
 5379SOL    HW227771   3.048   0.755  12.715 -1.5065  0.9164  0.9106
 5380SOL     OW27772   1.829   0.474  12.637 -0.6166  0.3063 -0.9025
 5380SOL    HW127773   1.832   0.558  12.591 -1.6812  1.4861  1.1652
 5380SOL    HW227774   1.919   0.459  12.666 -1.4122  0.0931  1.4874
 5381SOL     OW27775   2.733   2.209   3.675  0.3805  0.1647  0.3591
 5381SOL    HW127776   2.744   2.303   3.688 -0.2240 -0.0151  2.1893
 5381SOL    HW227777   2.765   2.171   3.757  0.2692  0.5400  0.5731
 5382SOL     OW27778   1.586   0.590   8.635  0.3756 -0.2900 -0.5002
 5382SOL    HW127779   1.543   0.535   8.570 -0.3568  0.0048 -0.2636
 5382SOL    HW227780   1.531   0.667   8.651  2.6575  1.0614  0.8669
 5383SOL     OW27781   2.644   0.614   3.071  0.1616 -0.2569 -0.2478
 5383SOL    HW127782   2.693   0.542   3.110  1.5554  2.1345  2.3590
 5383SOL    HW227783   2.687   0.692   3.105 -1.6422  0.5562  0.1664
 5384SOL     OW27784   0.655   0.069   7.407  0.2362 -0.3715 -0.2639
 5384SOL    HW127785   0.684   4.722   7.374  0.7556 -0.1586 -0.3573
 5384SOL    HW227786   0.568   0.062   7.367  0.0495 -0.7898  0.2181
 5385SOL     OW27787   2.555   4.254  11.932 -0.6367 -0.2769 -0.0794
 5385SOL    HW127788   2.584   4.164  11.940 -0.8037 -0.3400 -0.1889
 5385SOL    HW227789   2.634   4.283  11.978 -1.5570  1.7659  0.2459
 5386SOL     OW27790   1.144   1.970   3.039 -0.1852  0.5567 -0.5262
 5386SOL    HW127791   1.140   2.039   3.105  1.7400 -1.3622  1.5760
 5386SOL    HW227792   1.132   1.892   3.094  1.8927  0.2372 -0.5314
 5387SOL     OW27793   0.746   1.193   5.043 -0.1485  0.4131  0.1472
 5387SOL    HW127794   0.681   1.190   4.973  0.0414  1.0957 -0.0636
 5387SOL    HW227795   0.817   1.140   5.007  1.5713  1.5239  1.8511
 5388SOL     OW27796   2.343   2.762   7.295  0.4874  0.5094  0.8043
 5388SOL    HW127797   2.303   2.720   7.371 -0.6140  0.3146  0.1273
 5388SOL    HW227798   2.260   2.792   7.257  0.9704 -0.0862 -0.7591
 5389SOL     OW27799   0.770   1.917   8.548 -0.4867  0.1936 -0.0687
 5389SOL    HW127800   0.862   1.934   8.529  0.2937 -1.1053  2.4455
 5389SOL    HW227801   0.765   1.850   8.617 -1.2175  1.3849  1.0458
 5390SOL     OW27802   3.607   1.352   6.891  0.2665  0.4290  0.1297
 5390SOL    HW127803   3.539   1.411   6.922 -0.8043 -0.3156 -0.8241
 5390SOL    HW227804   3.602   1.288   6.962  1.7892 -0.1403 -0.2798
 5391SOL     OW27805   3.024   3.304   5.758  0.0471 -0.0258  0.0434
 5391SOL    HW127806   3.051   3.394   5.775  1.1632 -0.1377 -1.0802
 5391SOL    HW227807   3.094   3.256   5.714 -1.9229 -2.2446 -0.7251
 5392SOL     OW27808   1.557   3.851  15.002  0.2084 -0.6811  0.5369
 5392SOL    HW127809   1.496   3.880  14.935 -0.7090 -1.5434  0.9840
 5392SOL    HW227810   1.596   3.772  14.964  0.2982  0.0983 -0.9783
 5393SOL     OW27811   2.920   2.783   4.964  0.2718 -1.2143 -0.3001
 5393SOL    HW127812   2.902   2.692   4.988  1.7784 -1.4409  0.0180
 5393SOL    HW227813   2.920   2.791   4.869  1.0129 -1.3571 -0.3132
 5394SOL     OW27814   0.093   0.463   6.325 -0.0806 -0.7368 -0.2929
 5394SOL    HW127815   0.138   0.423   6.399  0.8752  1.8085  0.4844
 5394SOL    HW227816   0.003   0.437   6.346 -0.1172  0.2720  0.7723
 5395SOL     OW27817   1.498   3.325   1.257 -0.2888 -1.0689  0.3361
 5395SOL    HW127818   1.443   3.287   1.189  0.3297 -1.5566  0.1039
 5395SOL    HW227819   1.585   3.287   1.244 -0.1804 -0.6777 -0.0584
 5396SOL     OW27820   3.695   1.019   2.322 -0.4259 -0.1127 -0.6925
 5396SOL    HW127821   3.617   1.014   2.378 -0.1887  1.0932 -0.2529
 5396SOL    HW227822   3.765   1.034   2.385  0.3525 -3.8804 -0.6315
 5397SOL     OW27823   1.238   1.639   7.370 -0.0548 -0.0113  0.0903
 5397SOL    HW127824   1.317   1.661   7.420  0.5467  0.7733 -1.1941
 5397SOL    HW227825   1.168   1.681   7.419  0.3203  0.6804  0.0357
 5398SOL     OW27826   3.343   3.261   0.401  0.1529 -0.2732  0.5717
 5398SOL    HW127827   3.384   3.178   0.377 -2.0353 -0.6023 -1.9808
 5398SOL    HW227828   3.420   3.315   0.417 -0.9264  1.0098  1.4789
 5399SOL     OW27829   0.897   0.138  11.232 -0.0296  0.2761 -0.0118
 5399SOL    HW127830   0.894   0.210  11.169 -1.4951  0.3472  0.1422
 5399SOL    HW227831   0.970   0.084  11.201 -1.1056 -0.7989 -0.6746
 5400SOL     OW27832   1.556   0.151  12.916 -0.6491 -0.4324  0.9028
 5400SOL    HW127833   1.630   0.198  12.876 -1.3250 -0.5993 -0.5553
 5400SOL    HW227834   1.574   0.065  12.877  0.5482  0.4824 -0.5965
 5401SOL     OW27835   3.294   3.416   5.946  0.1459  0.0196 -0.6515
 5401SOL    HW127836   3.253   3.489   5.900  0.1445  1.0611  0.9952
 5401SOL    HW227837   3.234   3.383   6.012  2.9909 -0.5558  1.6328
 5402SOL     OW27838   2.040   1.837   8.001 -0.5020 -0.3385 -0.3621
 5402SOL    HW127839   2.080   1.869   8.082 -0.1145  0.1242 -0.7399
 5402SOL    HW227840   2.011   1.922   7.966 -0.3349  0.2711  0.9526
 5403SOL     OW27841   3.997   1.961  13.979  0.2659 -0.0925 -0.5504
 5403SOL    HW127842   4.032   1.927  13.897  1.1027  0.7568 -0.5457
 5403SOL    HW227843   4.077   1.998  14.015 -0.4441  0.9953 -0.1063
 5404SOL     OW27844   1.038   0.329   7.492  0.1940 -0.1733 -0.2149
 5404SOL    HW127845   0.993   0.263   7.544  0.9574  0.8831  1.7842
 5404SOL    HW227846   1.066   0.392   7.559  0.8051 -1.3711  0.6401
 5405SOL     OW27847   1.531   3.623   8.085  0.4516  0.4626 -0.3218
 5405SOL    HW127848   1.447   3.599   8.046  0.9979  0.0158 -1.2261
 5405SOL    HW227849   1.525   3.709   8.043 -0.7855  1.7586  2.5275
 5406SOL     OW27850   3.390   1.520   6.980  0.1717  0.1193 -0.6153
 5406SOL    HW127851   3.439   1.537   7.060 -1.7585 -1.6670  0.9459
 5406SOL    HW227852   3.301   1.534   7.012  0.5641  1.4371 -0.1154
 5407SOL     OW27853   0.328   2.970   1.597 -0.3902  0.3020 -0.2722
 5407SOL    HW127854   0.323   2.908   1.670  0.5277 -0.5977 -0.9824
 5407SOL    HW227855   0.350   3.049   1.645  0.7840 -0.6011  0.6642
 5408SOL     OW27856   2.220   1.214  16.042  0.1042  0.2167 -0.8690
 5408SOL    HW127857   2.234   1.154  16.114  1.6678  1.6854  0.0664
 5408SOL    HW227858   2.125   1.223  16.041  0.0286 -0.4891  2.9662
 5409SOL     OW27859   4.168   1.379   8.999  0.2602 -0.3029 -0.3305
 5409SOL    HW127860   4.086   1.331   9.013 -0.0834  0.8902  1.7500
 5409SOL    HW227861   4.216   1.337   9.071  2.4270  1.9889 -0.4087
 5410SOL     OW27862   3.559   3.211   4.635  0.4556  0.2223 -0.0918
 5410SOL    HW127863   3.527   3.207   4.545  0.1771 -0.9513  0.0554
 5410SOL    HW227864   3.473   3.212   4.677  1.0720  0.9823  1.1733
 5411SOL     OW27865   0.628   3.074  12.479 -0.4887  0.0725 -0.2818
 5411SOL    HW127866   0.677   3.090  12.398  1.3851 -1.6733  0.4989
 5411SOL    HW227867   0.674   3.137  12.533 -0.3495 -1.0684  0.9300
 5412SOL     OW27868   3.896   0.610  15.467  0.4653 -0.3359 -0.2802
 5412SOL    HW127869   3.939   0.583  15.548 -1.0502  2.8973  1.5948
 5412SOL    HW227870   3.810   0.570  15.480  0.5281 -0.6455 -0.8247
 5413SOL     OW27871   0.149   4.655   8.873  0.1159 -0.0845 -0.0873
 5413SOL    HW127872   0.110   4.716   8.810  2.2143 -0.7193 -1.9784
 5413SOL    HW227873   0.217   4.615   8.819  0.6545  0.4393  0.2126
 5414SOL     OW27874   3.157   1.576  15.009 -0.0147 -0.1626  0.0770
 5414SOL    HW127875   3.130   1.655  14.961 -1.4960 -1.2641 -0.8913
 5414SOL    HW227876   3.155   1.521  14.930  0.2861  0.5586 -0.4392
 5415SOL     OW27877   3.524   2.015   3.196  0.1987 -1.1934 -0.4805
 5415SOL    HW127878   3.562   1.928   3.186 -0.9960 -1.5921 -1.5113
 5415SOL    HW227879   3.585   2.084   3.168 -0.4166 -1.2155 -1.8385
 5416SOL     OW27880   1.199   3.949   4.358  0.3611 -0.3596 -0.3935
 5416SOL    HW127881   1.158   3.907   4.434  0.4578 -0.4156 -0.3720
 5416SOL    HW227882   1.133   4.011   4.328  0.2602 -0.2602  0.0332
 5417SOL     OW27883   3.838   3.537   1.919  0.0928 -0.2056  0.0611
 5417SOL    HW127884   3.899   3.604   1.888 -1.1406  0.9007  0.0446
 5417SOL    HW227885   3.883   3.456   1.894  0.1406  0.7738 -3.0088
 5418SOL     OW27886   4.426   1.647  14.678  0.3940 -0.4163  0.3916
 5418SOL    HW127887   4.396   1.692  14.756  0.4619  0.7751 -0.2761
 5418SOL    HW227888   4.384   1.561  14.688 -2.4915  0.6397 -2.5745
 5419SOL     OW27889   1.426   2.682   3.398  0.1560 -0.8267  0.0647
 5419SOL    HW127890   1.486   2.708   3.328  1.9217 -1.1122  1.4838
 5419SOL    HW227891   1.402   2.760   3.447  2.9692  0.2440 -0.2624
 5420SOL     OW27892   1.268   0.809   2.420  0.1196  0.0497  0.0095
 5420SOL    HW127893   1.231   0.768   2.498 -1.5758 -1.6112 -1.6715
 5420SOL    HW227894   1.351   0.841   2.454 -0.5912  1.2307  0.6205
 5421SOL     OW27895   2.733   0.711   0.986 -0.0560  0.4763  0.0196
 5421SOL    HW127896   2.648   0.667   0.981 -0.6989  1.5151  1.9355
 5421SOL    HW227897   2.712   0.801   1.010 -1.9330  0.2199 -0.6360
 5422SOL     OW27898   0.388   2.924   4.960 -0.0259  0.1975 -0.2528
 5422SOL    HW127899   0.409   2.861   5.030  0.2888 -0.4377 -0.9247
 5422SOL    HW227900   0.370   3.006   5.007 -1.5328 -0.9900  1.2825
 5423SOL     OW27901   0.911   0.100   5.517 -0.0106  0.5657  0.3543
 5423SOL    HW127902   0.879   0.086   5.606 -0.9756 -1.1149 -0.2414
 5423SOL    HW227903   0.862   0.174   5.482 -0.2428  0.7611  1.0982
 5424SOL     OW27904   2.989   4.385  10.639  0.3580 -0.9047  0.2436
 5424SOL    HW127905   3.079   4.352  10.633  0.5204 -0.5438  0.6762
 5424SOL    HW227906   2.944   4.337  10.708 -0.0139 -0.9934 -0.0583
 5425SOL     OW27907   0.432   0.612  13.252  0.1519  0.5265 -0.4363
 5425SOL    HW127908   0.365   0.663  13.296 -0.7492 -1.1097  0.0827
 5425SOL    HW227909   0.376   0.570  13.187 -1.8796  0.4749  1.3372
 5426SOL     OW27910   3.399   2.531   2.558  0.0735 -0.0246 -0.3418
 5426SOL    HW127911   3.389   2.441   2.589  0.7992  0.4667  1.2993
 5426SOL    HW227912   3.312   2.566   2.540  0.3596  1.0790  0.4540
 5427SOL     OW27913   3.307   3.205  16.650 -0.3519 -0.2290 -0.5938
 5427SOL    HW127914   3.337   3.263  16.579  2.7860 -2.3309 -1.0002
 5427SOL    HW227915   3.221   3.187  16.613 -0.3126 -0.1730 -0.7130
 5428SOL     OW27916   1.128   4.526   5.235  0.3053 -0.7312 -0.1590
 5428SOL    HW127917   1.219   4.507   5.211  0.8804  1.5940  0.2498
 5428SOL    HW227918   1.126   4.611   5.192 -0.9317 -1.4269 -1.5164
 5429SOL     OW27919   4.455   0.098   5.926 -0.0411 -0.5255 -0.3056
 5429SOL    HW127920   4.512   0.127   5.997 -1.0907 -0.7684  0.6204
 5429SOL    HW227921   4.433   0.009   5.952  0.7781 -0.6686 -0.1055
 5430SOL     OW27922   0.458   0.108   2.343  0.2511  0.3381 -0.2552
 5430SOL    HW127923   0.442   0.183   2.400  2.6041 -0.2799  1.1906
 5430SOL    HW227924   0.367   0.085   2.325 -0.0994  0.8860  0.8277
 5431SOL     OW27925   4.255   1.413   8.748 -0.3232 -0.1920  0.0473
 5431SOL    HW127926   4.241   1.388   8.839  1.8991  0.9856  0.7180
 5431SOL    HW227927   4.282   1.328   8.712  1.3388  0.0514  0.6955
 5432SOL     OW27928   2.489   2.977   3.421  0.0292  0.5203 -0.2543
 5432SOL    HW127929   2.460   2.886   3.408  1.7309  0.2066 -1.8276
 5432SOL    HW227930   2.415   3.020   3.378 -0.4599 -3.3636 -3.2961
 5433SOL     OW27931   3.075   4.275  15.897  0.2254 -0.0483 -0.0001
 5433SOL    HW127932   2.994   4.224  15.902 -1.9571  3.3653 -0.1191
 5433SOL    HW227933   3.084   4.293  15.991 -2.0218 -0.3235  0.2761
 5434SOL     OW27934   4.556   3.079   7.139  1.1571 -0.0537 -0.4563
 5434SOL    HW127935   4.490   3.080   7.209 -0.7698 -0.4657 -2.2633
 5434SOL    HW227936   4.598   2.996   7.161  0.0801 -1.2080 -2.7317
 5435SOL     OW27937   4.685   2.032   4.766  0.0275 -0.2857 -0.4472
 5435SOL    HW127938   4.657   1.954   4.812  0.5891 -1.2162 -1.6642
 5435SOL    HW227939   4.668   1.992   4.680  0.4109  0.9274 -1.0922
 5436SOL     OW27940   0.295   1.870   1.822 -0.5666 -0.3828  0.2545
 5436SOL    HW127941   0.228   1.804   1.802 -2.0011  0.7757  1.2866
 5436SOL    HW227942   0.271   1.930   1.751  3.6390  0.3974 -0.5082
 5437SOL     OW27943   0.320   4.736   9.375 -0.1008 -0.0942 -0.3835
 5437SOL    HW127944   0.372   4.659   9.400  1.3053  0.7446 -0.7450
 5437SOL    HW227945   0.277   4.709   9.294 -4.1103  0.3877  1.5392
 5438SOL     OW27946   3.130   2.160  12.151 -0.2251  0.7355 -0.1379
 5438SOL    HW127947   3.116   2.078  12.104 -3.8250  0.6117  1.2024
 5438SOL    HW227948   3.219   2.171  12.117  0.1519  0.8540  0.8705
 5439SOL     OW27949   2.041   0.154   3.030 -0.0933  0.0496  0.1313
 5439SOL    HW127950   1.948   0.168   3.009 -0.4567  0.8618  2.2917
 5439SOL    HW227951   2.055   0.247   3.045 -2.1724  0.1415  1.5901
 5440SOL     OW27952   3.014   3.137   7.923  0.4415  0.0878  0.1926
 5440SOL    HW127953   3.014   3.121   7.829  0.1870  0.3024  0.1549
 5440SOL    HW227954   3.104   3.125   7.953  0.6252 -1.8237 -1.1588
 5441SOL     OW27955   1.152   3.168   4.693 -0.2190 -0.2306 -0.6940
 5441SOL    HW127956   1.197   3.252   4.684  1.8253 -1.1190  1.2820
 5441SOL    HW227957   1.190   3.139   4.776 -1.4112  0.4875  0.1159
 5442SOL     OW27958   2.678   2.951  12.651  0.6506 -0.8908 -0.2929
 5442SOL    HW127959   2.694   2.960  12.558  1.8472  0.9072  0.0913
 5442SOL    HW227960   2.624   3.029  12.666  2.5472  0.2836  0.4416
 5443SOL     OW27961   4.162   3.219   2.661  0.5735  0.0373 -0.1165
 5443SOL    HW127962   4.157   3.126   2.640 -2.2992  0.6993 -2.5307
 5443SOL    HW227963   4.171   3.218   2.756  0.3213 -0.3505 -0.0988
 5444SOL     OW27964   4.464   3.959   8.077  0.6951  0.2767 -0.0784
 5444SOL    HW127965   4.532   3.986   8.014  0.7326  0.4574  0.0388
 5444SOL    HW227966   4.457   3.865   8.061 -2.7759  0.3570  1.1230
 5445SOL     OW27967   3.218   2.735   5.476  0.0503 -0.1783  0.0183
 5445SOL    HW127968   3.146   2.728   5.414  1.1324  0.1920 -1.2773
 5445SOL    HW227969   3.228   2.642   5.496 -1.3497  0.1034  2.0403
 5446SOL     OW27970   0.033   4.179  12.026 -0.4522  0.7109  0.7610
 5446SOL    HW127971   4.711   4.190  11.954  1.0799  0.5682 -0.5497
 5446SOL    HW227972   0.110   4.138  11.987 -1.4370  1.1713 -1.6454
 5447SOL     OW27973   3.847   1.606   2.891 -0.1070  0.2580  0.7254
 5447SOL    HW127974   3.752   1.612   2.898 -0.2351 -1.3324  0.3978
 5447SOL    HW227975   3.879   1.661   2.962  1.1391  1.3869 -0.7271
 5448SOL     OW27976   3.837   4.435   2.996 -0.3528 -0.2963 -0.2243
 5448SOL    HW127977   3.776   4.509   2.998 -0.5356 -0.4264 -1.1379
 5448SOL    HW227978   3.791   4.356   2.968  3.1239 -1.1074 -3.6102
 5449SOL     OW27979   0.634   3.488   8.175  0.0650  0.1909 -0.4294
 5449SOL    HW127980   0.573   3.561   8.188 -0.9516 -0.6739 -0.3121
 5449SOL    HW227981   0.655   3.480   8.268 -0.7597 -1.9929 -0.4265
 5450SOL     OW27982   3.284   2.023   4.936 -0.1091 -0.0143  0.3185
 5450SOL    HW127983   3.314   1.962   4.868  0.1306  1.0054 -0.4986
 5450SOL    HW227984   3.332   2.103   4.910 -0.0592  0.0337  0.5637
 5451SOL     OW27985   0.931   2.370   0.190 -0.1509 -0.5252 -0.4646
 5451SOL    HW127986   0.836   2.366   0.193 -0.1088 -1.0423 -0.0274
 5451SOL    HW227987   0.941   2.440   0.125  1.2135 -0.5232 -0.2646
 5452SOL     OW27988   1.377   4.120   4.831 -0.2064 -0.1468  0.4246
 5452SOL    HW127989   1.288   4.114   4.796 -0.0578  0.9972 -0.1678
 5452SOL    HW227990   1.413   4.068   4.759 -0.6058  1.2631 -0.7924
 5453SOL     OW27991   1.476   1.852   8.491 -0.1947 -0.4139 -0.2605
 5453SOL    HW127992   1.539   1.827   8.424 -0.3388 -0.3126 -0.4334
 5453SOL    HW227993   1.481   1.773   8.545  2.2883 -0.4732 -0.5845
 5454SOL     OW27994   2.273   2.431   9.421 -0.0525  0.3798  0.1772
 5454SOL    HW127995   2.335   2.358   9.411  1.4515  1.3952  2.1071
 5454SOL    HW227996   2.306   2.461   9.505 -2.1516  1.8813  0.4530
 5455SOL     OW27997   1.894   1.830   9.202 -0.3688 -0.6173 -0.0962
 5455SOL    HW127998   1.892   1.817   9.297 -2.5381 -0.9435 -0.1910
 5455SOL    HW227999   1.856   1.917   9.189  1.4928  0.4017  1.3618
 5456SOL     OW28000   2.585   1.539   4.518 -0.8141  0.0896  0.2904
 5456SOL    HW128001   2.639   1.526   4.596 -0.8371 -1.4455  0.0491
 5456SOL    HW228002   2.505   1.505   4.560 -1.0087  0.3276  0.1127
 5457SOL     OW28003   4.302   4.448   2.917 -0.0353  0.1461  0.2476
 5457SOL    HW128004   4.303   4.429   2.823  0.8841  0.6076  0.1590
 5457SOL    HW228005   4.376   4.509   2.922  1.0310 -1.2391  1.6290
 5458SOL     OW28006   3.601   4.592   2.857 -0.3275  0.9040 -0.8976
 5458SOL    HW128007   3.553   4.518   2.819 -3.0955  0.4774  3.4591
 5458SOL    HW228008   3.563   4.595   2.945  1.8797 -1.6091  0.1324
 5459SOL     OW28009   2.417   3.583   8.800 -0.0200  0.3510 -0.0954
 5459SOL    HW128010   2.488   3.543   8.850 -1.7950 -1.7688  0.7402
 5459SOL    HW228011   2.428   3.673   8.830  0.5848 -0.1222  1.1092
 5460SOL     OW28012   1.010   2.025   4.511 -0.4765  0.3694 -0.2612
 5460SOL    HW128013   0.915   2.029   4.500 -0.0888  0.1041 -3.5440
 5460SOL    HW228014   1.020   2.115   4.543 -0.0312 -0.1483  1.0690
 5461SOL     OW28015   0.584   4.514   2.854  0.1519 -0.3265 -0.2127
 5461SOL    HW128016   0.676   4.506   2.880  0.0309 -1.0361  0.0028
 5461SOL    HW228017   0.583   4.577   2.782  0.9224  0.6161  0.5998
 5462SOL     OW28018   0.395   1.969   2.454 -0.0452 -0.1076  0.1444
 5462SOL    HW128019   0.445   1.957   2.535  1.1251  0.8281 -0.4464
 5462SOL    HW228020   0.465   1.991   2.392  1.0463 -0.8643  1.1076
 5463SOL     OW28021   4.421   3.210   7.538  0.2470 -0.2958 -0.5108
 5463SOL    HW128022   4.418   3.123   7.500  1.6852 -0.3067 -0.6003
 5463SOL    HW228023   4.417   3.264   7.459  0.0511 -2.3642 -1.8821
 5464SOL     OW28024   0.463   1.154   1.096 -0.2699 -0.1315 -0.1428
 5464SOL    HW128025   0.527   1.225   1.101  0.6287 -0.9410 -0.1851
 5464SOL    HW228026   0.515   1.075   1.091  0.0460  0.2883 -3.5213
 5465SOL     OW28027   3.326   0.344   5.209 -0.7243  0.4392 -0.0351
 5465SOL    HW128028   3.342   0.262   5.163  1.3749  0.7111  0.1901
 5465SOL    HW228029   3.309   0.314   5.298 -2.4351  2.4334  0.3045
 5466SOL     OW28030   2.134   3.829   8.736  0.2783 -0.3531  0.3735
 5466SOL    HW128031   2.189   3.905   8.755  0.6068 -1.4864  3.9861
 5466SOL    HW228032   2.124   3.802   8.827  0.5683  0.0290  0.5191
 5467SOL     OW28033   4.678   3.623   2.407 -0.6406  0.1316 -0.5117
 5467SOL    HW128034   4.626   3.615   2.487  0.9958  1.3088  0.6894
 5467SOL    HW228035   4.730   3.703   2.417 -2.7071  1.4289 -0.0245
 5468SOL     OW28036   2.703   0.819   8.290  0.2781 -0.0406  0.1877
 5468SOL    HW128037   2.667   0.849   8.207 -0.1721 -1.0785  0.0030
 5468SOL    HW228038   2.632   0.771   8.333  1.1994 -0.0615  1.6825
 5469SOL     OW28039   2.613   3.520   3.884 -0.8208  0.3390 -0.0771
 5469SOL    HW128040   2.697   3.536   3.841 -0.5147  1.6693  0.9793
 5469SOL    HW228041   2.657   3.490   3.963  2.9237 -0.1477 -2.3667
 5470SOL     OW28042   1.165   4.002  12.080  0.0513 -0.4403 -0.2728
 5470SOL    HW128043   1.238   4.063  12.085  0.0448 -0.3242 -1.7070
 5470SOL    HW228044   1.136   4.015  11.990  1.7944 -1.3978 -0.9763
 5471SOL     OW28045   4.286   4.617   0.051  0.0609  0.4736 -0.3192
 5471SOL    HW128046   4.356   4.567   0.092 -0.7389 -1.1054 -0.8866
 5471SOL    HW228047   4.225   4.554   0.014 -0.4477 -0.0167  1.3558
 5472SOL     OW28048   3.151   1.909   7.856  0.0374 -0.1271  0.2191
 5472SOL    HW128049   3.115   1.823   7.877  0.6947 -0.2352  0.8806
 5472SOL    HW228050   3.164   1.894   7.762  1.0802  0.5443  0.2626
 5473SOL     OW28051   3.961   2.898   6.181  0.0075  0.9898  0.1746
 5473SOL    HW128052   4.011   2.897   6.263 -0.6679  1.3273  0.5904
 5473SOL    HW228053   3.922   2.984   6.194 -0.9572  0.4749  0.7047
 5474SOL     OW28054   1.238   1.318   3.768 -0.2141 -0.5427  0.1487
 5474SOL    HW128055   1.218   1.301   3.676  0.0699 -0.8489  0.1420
 5474SOL    HW228056   1.334   1.316   3.764 -0.0845  2.8964  1.6689
 5475SOL     OW28057   1.680   1.358   4.962  0.3000  0.5089  0.1468
 5475SOL    HW128058   1.697   1.269   4.995 -2.1366  0.4269  1.1432
 5475SOL    HW228059   1.677   1.410   5.042 -0.2552 -1.0586  1.1412
 5476SOL     OW28060   1.283   0.567   3.409  0.4918 -0.0444 -0.3040
 5476SOL    HW128061   1.276   0.518   3.491 -1.6851  0.5376 -0.1416
 5476SOL    HW228062   1.211   0.629   3.419  2.1717  1.9808 -0.7465
 5477SOL     OW28063   1.926   0.959   4.623  0.3038 -0.4074 -0.3500
 5477SOL    HW128064   1.923   0.866   4.598 -0.3430 -0.4902  0.0498
 5477SOL    HW228065   1.892   0.943   4.711 -0.1598  0.7163 -0.3285
 5478SOL     OW28066   1.751   3.982   7.547  0.1809  0.0018 -0.6646
 5478SOL    HW128067   1.808   4.055   7.525 -1.9905  1.3614 -1.7783
 5478SOL    HW228068   1.829   3.931   7.570 -0.6019 -0.2620  1.4034
 5479SOL     OW28069   1.848   2.058   6.001  0.7895  0.0591 -0.4740
 5479SOL    HW128070   1.848   2.055   6.097  0.1593 -0.1002 -0.4799
 5479SOL    HW228071   1.756   2.079   5.984  1.2273  2.0183 -0.5316
 5480SOL     OW28072   4.684   3.152   5.907  0.3828  0.3342 -0.9675
 5480SOL    HW128073   4.730   3.235   5.893  1.5905  0.0297  1.1255
 5480SOL    HW228074   4.615   3.169   5.971  1.3143 -1.1716  0.4634
 5481SOL     OW28075   1.560   2.583   3.982 -0.3191 -0.1561  0.1479
 5481SOL    HW128076   1.639   2.559   3.933  1.0970  1.5522  1.6159
 5481SOL    HW228077   1.598   2.641   4.047 -3.7281  0.3629  1.6686
 5482SOL     OW28078   1.005   1.211   8.136  0.2315  0.0019  0.0572
 5482SOL    HW128079   1.031   1.203   8.227 -1.3825 -2.3965  0.2803
 5482SOL    HW228080   1.057   1.284   8.101  0.7758 -1.7427 -2.8047
 5483SOL     OW28081   3.147   1.945   3.876 -0.1117  0.0107  0.3305
 5483SOL    HW128082   3.092   1.876   3.912 -0.3407 -0.3530 -0.7193
 5483SOL    HW228083   3.078   2.010   3.866  0.6225  1.0322  1.9509
 5484SOL     OW28084   1.897   2.823   4.640  0.6439 -0.0564  0.6661
 5484SOL    HW128085   1.938   2.742   4.670 -1.3336 -0.4469  2.3652
 5484SOL    HW228086   1.878   2.805   4.548 -1.1073  1.1461  0.7719
 5485SOL     OW28087   1.691   3.274  11.483 -0.1066 -0.4553 -0.0253
 5485SOL    HW128088   1.785   3.260  11.500  0.2612  0.8825 -0.9944
 5485SOL    HW228089   1.687   3.354  11.537 -3.3806 -1.0381  0.6032
 5486SOL     OW28090   4.657   0.688   6.538 -0.2854  0.2912 -0.0420
 5486SOL    HW128091   4.637   0.636   6.616  0.1826  0.3656  0.1295
 5486SOL    HW228092   4.601   0.649   6.471 -1.1082 -1.2939  1.5790
 5487SOL     OW28093   1.933   0.653   8.501  0.4841  0.6304  0.0152
 5487SOL    HW128094   1.873   0.726   8.517  1.3242  1.4710 -0.6521
 5487SOL    HW228095   1.914   0.591   8.572  0.5507  0.8994  0.2724
 5488SOL     OW28096   3.329   2.927   6.257  0.0726  0.0836  0.6616
 5488SOL    HW128097   3.295   2.838   6.249 -1.3443  0.5228  1.6358
 5488SOL    HW228098   3.309   2.933   6.351  0.4808  0.0842  0.7495
 5489SOL     OW28099   3.635   2.452   2.262  0.7688  0.0361  0.3600
 5489SOL    HW128100   3.688   2.425   2.337 -2.1224 -1.8855  1.6770
 5489SOL    HW228101   3.582   2.374   2.248  1.6978 -0.6563  0.6284
 5490SOL     OW28102   1.511   1.108   4.674  0.1983  0.1817 -0.1768
 5490SOL    HW128103   1.567   1.174   4.633  1.1356 -0.1255  0.5926
 5490SOL    HW228104   1.446   1.177   4.686 -0.1521 -0.1380 -0.2720
 5491SOL     OW28105   2.434   1.147   6.776  0.1158  0.7566 -0.0670
 5491SOL    HW128106   2.523   1.166   6.803  0.3759 -1.1244  0.3820
 5491SOL    HW228107   2.450   1.097   6.696 -1.8763  1.6060 -1.0121
 5492SOL     OW28108   2.896   3.659   9.751 -0.5197  0.3050  0.2743
 5492SOL    HW128109   2.928   3.719   9.819  2.1801  1.8319 -2.3781
 5492SOL    HW228110   2.957   3.585   9.759  1.3612  1.6264 -1.9720
 5493SOL     OW28111   0.937   0.536   6.235 -0.0624 -0.6458  0.6380
 5493SOL    HW128112   0.867   0.550   6.170  0.0018  1.1122  0.9537
 5493SOL    HW228113   0.942   0.621   6.279 -0.1846 -0.6874  0.7329
 5494SOL     OW28114   0.833   1.691   7.163  0.1485 -0.7770  0.1279
 5494SOL    HW128115   0.782   1.678   7.243  1.1333  0.4241  0.9470
 5494SOL    HW228116   0.885   1.611   7.165 -0.4716 -1.1827  0.1411
 5495SOL     OW28117   0.239   1.017   1.236  0.3361 -0.1120 -0.8239
 5495SOL    HW128118   0.294   1.067   1.176 -0.1790  0.0155 -1.1945
 5495SOL    HW228119   0.275   1.046   1.320  1.4088 -0.5242 -1.1426
 5496SOL     OW28120   2.701   2.771  15.976 -0.3860  0.3088  0.2124
 5496SOL    HW128121   2.632   2.788  15.913  2.1452  0.0147 -2.6708
 5496SOL    HW228122   2.779   2.795  15.926  0.0101 -1.3147  0.0514
 5497SOL     OW28123   2.707   2.038  16.648  0.6984  0.5759  0.0690
 5497SOL    HW128124   2.794   2.072  16.671  1.2018  0.6870 -1.9495
 5497SOL    HW228125   2.715   1.965  16.586 -1.8875 -0.3024  0.7936
 5498SOL     OW28126   1.022   2.910   9.352 -0.1397 -0.4907  0.4172
 5498SOL    HW128127   1.092   2.897   9.416 -0.3242  1.1124  0.9456
 5498SOL    HW228128   0.987   2.821   9.354 -0.5514 -0.3486 -0.3613
 5499SOL     OW28129   0.171   0.008  11.506 -0.3374 -0.0682  0.0624
 5499SOL    HW128130   0.089   0.004  11.555 -0.2720  1.4737  0.3218
 5499SOL    HW228131   0.195   0.101  11.511  0.4347 -0.0811 -3.4524
 5500SOL     OW28132   0.443   4.059   8.421  0.2808 -0.0330  0.3747
 5500SOL    HW128133   0.490   3.981   8.450  1.9354  0.5236 -0.7952
 5500SOL    HW228134   0.520   4.115   8.424  0.2215 -0.0986  3.8562
 5501SOL     OW28135   2.847   0.008   8.562 -0.0159 -0.3015 -0.0959
 5501SOL    HW128136   2.867   0.050   8.478 -0.0610  0.7493  0.4077
 5501SOL    HW228137   2.904   0.046   8.630  0.7581  1.0584 -1.4957
 5502SOL     OW28138   1.733   0.514   8.171 -0.4677  0.4307 -0.8330
 5502SOL    HW128139   1.820   0.508   8.131 -0.7714  0.1123 -1.4418
 5502SOL    HW228140   1.756   0.521   8.264  1.6131  2.8298 -1.5309
 5503SOL     OW28141   1.862   4.374   9.478  0.5107 -0.1628 -0.2420
 5503SOL    HW128142   1.824   4.402   9.560  1.0147  1.0564 -0.4304
 5503SOL    HW228143   1.790   4.369   9.415 -0.0109 -0.0676  0.3474
 5504SOL     OW28144   4.287   3.431   9.046 -0.7363 -0.6405  0.2069
 5504SOL    HW128145   4.316   3.517   9.077  1.6871 -1.2049 -0.5076
 5504SOL    HW228146   4.367   3.424   8.993 -1.5284  1.7580 -1.2821
 5505SOL     OW28147   4.367   3.101   1.689  0.0224  0.1891 -0.2544
 5505SOL    HW128148   4.377   3.109   1.594 -1.0157 -0.5111 -0.4209
 5505SOL    HW228149   4.443   3.155   1.713  0.5675 -0.6984  0.0363
 5506SOL     OW28150   1.652   0.377   3.394 -0.0582 -0.3351  0.4229
 5506SOL    HW128151   1.710   0.304   3.414  1.4214 -0.3799 -3.9187
 5506SOL    HW228152   1.660   0.390   3.299 -0.4572 -1.6556  0.2045
 5507SOL     OW28153   0.251   1.361  16.050  0.0492  0.0352  0.0135
 5507SOL    HW128154   0.246   1.443  16.100  0.2055 -1.0224  1.7372
 5507SOL    HW228155   0.291   1.302  16.113 -0.9998 -1.1609 -0.4408
 5508SOL     OW28156   2.031   2.719   8.636  0.2767  0.0565  0.0345
 5508SOL    HW128157   2.005   2.672   8.556  0.3791  0.8415 -0.4549
 5508SOL    HW228158   2.106   2.677   8.678  0.7623 -0.0577 -0.9397
 5509SOL     OW28159   3.848   2.494   2.524  0.3302  0.1166 -0.6437
 5509SOL    HW128160   3.794   2.415   2.517 -2.6162  2.2460 -1.6301
 5509SOL    HW228161   3.790   2.549   2.577  0.8077  0.8546 -0.8886
 5510SOL     OW28162   0.403   0.898  17.453 -0.2392 -0.2775  0.8313
 5510SOL    HW128163   0.427   0.934  17.368 -3.2202 -1.0298 -0.3285
 5510SOL    HW228164   0.308   0.912  17.462 -0.3873 -0.4618 -0.5745
 5511SOL     OW28165   4.701   1.811  17.681 -0.3541  0.0306 -0.1802
 5511SOL    HW128166   4.612   1.783  17.659 -0.2550  0.1251 -0.7101
 5511SOL    HW228167   4.722   1.885  17.623 -2.0234  0.1316 -0.6410
 5512SOL     OW28168   4.686   2.274   1.236 -0.1751 -0.0668 -0.5382
 5512SOL    HW128169   4.593   2.279   1.212  0.0669 -1.2788 -1.7004
 5512SOL    HW228170   4.692   2.366   1.211 -1.8325 -0.0058 -0.7532
 5513SOL     OW28171   0.720   3.499   5.529  0.4945 -0.7970 -0.0406
 5513SOL    HW128172   0.721   3.515   5.623 -1.4424  1.1555 -0.3660
 5513SOL    HW228173   0.792   3.436   5.530  1.2227  0.1245  3.2378
 5514SOL     OW28174   4.099   2.458  16.912 -0.0948  0.3325  0.1960
 5514SOL    HW128175   4.033   2.431  16.849 -0.5402 -0.2890  0.9235
 5514SOL    HW228176   4.154   2.380  16.915  0.9074  1.0216 -0.5830
 5515SOL     OW28177   4.414   1.294   3.510  0.2531  0.1031 -0.0158
 5515SOL    HW128178   4.487   1.232   3.508  0.1400 -0.0361  0.1940
 5515SOL    HW228179   4.375   1.260   3.591 -0.4899 -0.0822 -0.4542
 5516SOL     OW28180   3.379   1.925   5.192 -0.3284 -0.3223 -0.4807
 5516SOL    HW128181   3.337   1.978   5.125  0.4277  2.6299  1.3938
 5516SOL    HW228182   3.314   1.927   5.262  0.6957  1.4203  0.4170
 5517SOL     OW28183   2.667   0.008   7.224 -0.5789  0.3621  0.5803
 5517SOL    HW128184   2.687   0.046   7.139 -0.5087  0.5880  0.6978
 5517SOL    HW228185   2.579   0.043   7.244 -0.7647  0.5049 -0.5078
 5518SOL     OW28186   4.105   0.071   1.539 -0.1503 -0.6342  0.2323
 5518SOL    HW128187   4.018   0.100   1.513  0.8404  1.4224 -0.7871
 5518SOL    HW228188   4.095   4.716   1.552  1.9754 -0.9730 -0.6348
 5519SOL     OW28189   0.685   2.372   7.987 -0.0976  0.1933 -0.1291
 5519SOL    HW128190   0.595   2.350   8.010 -0.2152 -0.8815 -1.6227
 5519SOL    HW228191   0.700   2.310   7.916  3.4071 -1.1799  1.7743
 5520SOL     OW28192   4.201   1.848   5.543 -0.1451  0.3371  0.3613
 5520SOL    HW128193   4.199   1.775   5.482  0.0911  1.0760 -0.5366
 5520SOL    HW228194   4.118   1.841   5.589 -2.2200  1.9718 -3.0654
 5521SOL     OW28195   4.190   1.183   3.688 -0.1425  0.2741 -0.2136
 5521SOL    HW128196   4.173   1.196   3.782  1.9915  1.1051  0.0635
 5521SOL    HW228197   4.214   1.091   3.697 -3.2404 -0.8007 -3.1417
 5522SOL     OW28198   2.877   1.786   7.319  0.8229 -0.1500  0.1340
 5522SOL    HW128199   2.807   1.828   7.368 -0.2315 -0.6113 -0.9983
 5522SOL    HW228200   2.921   1.864   7.282  0.6837  0.3257  0.9759
 5523SOL     OW28201   2.985   2.441  10.961 -0.1902  0.3129  0.2666
 5523SOL    HW128202   3.030   2.489  11.031  0.2849 -1.0293  0.8799
 5523SOL    HW228203   2.906   2.398  10.994  0.5325  0.9411  2.8823
 5524SOL     OW28204   4.580   3.030   3.721  0.0013 -0.3145  0.2998
 5524SOL    HW128205   4.585   3.122   3.749  1.5240  0.6429 -3.1092
 5524SOL    HW228206   4.513   3.031   3.653  0.9208  1.3695 -0.5964
 5525SOL     OW28207   0.669   3.407   3.928  0.3530 -0.5773  0.2541
 5525SOL    HW128208   0.577   3.389   3.947  0.5105 -1.1518  0.4964
 5525SOL    HW228209   0.680   3.463   4.005  2.1261 -0.3405 -0.1741
 5526SOL     OW28210   1.599   1.477  15.893  0.1545 -0.4090 -0.2322
 5526SOL    HW128211   1.579   1.407  15.955  0.0963 -0.3838 -0.2222
 5526SOL    HW228212   1.513   1.490  15.854 -0.3456 -0.5603  0.8183
 5527SOL     OW28213   2.796   2.839  17.432  0.1415 -0.0707  0.0174
 5527SOL    HW128214   2.771   2.912  17.375 -1.8423  0.1212  1.1232
 5527SOL    HW228215   2.712   2.792  17.425 -0.6582  1.1100  1.6316
 5528SOL     OW28216   2.371   4.441  14.745 -0.1669 -0.4259 -0.0659
 5528SOL    HW128217   2.378   4.347  14.764 -1.7986 -0.4943  0.2275
 5528SOL    HW228218   2.463   4.466  14.740 -0.8986  1.8387 -2.2961
 5529SOL     OW28219   2.948   2.121  16.733  0.6108  0.1402  0.4880
 5529SOL    HW128220   2.919   2.054  16.794  0.7628 -1.0219 -0.7340
 5529SOL    HW228221   2.983   2.186  16.794 -0.4390  0.6767  0.5343
 5530SOL     OW28222   0.088   2.152  17.185  0.3109  0.2337  0.0378
 5530SOL    HW128223   0.172   2.108  17.172  0.3452 -0.0377  1.1616
 5530SOL    HW228224   0.097   2.209  17.109  1.1425 -0.5113 -0.4297
 5531SOL     OW28225   3.066   1.928   2.852 -0.0192  0.6634 -0.1956
 5531SOL    HW128226   3.051   1.850   2.798 -0.7542  0.0291  0.9261
 5531SOL    HW228227   3.050   1.899   2.942  0.2037  0.1010 -0.3391
 5532SOL     OW28228   3.339   2.994   7.053 -0.0081  0.0253 -0.5827
 5532SOL    HW128229   3.396   3.010   6.978  0.3482  0.1398 -0.2841
 5532SOL    HW228230   3.296   2.912   7.028  0.3316  0.0942 -1.3925
 5533SOL     OW28231   0.305   0.527   5.961  0.3192  0.1152 -0.1664
 5533SOL    HW128232   0.366   0.519   5.889  0.3049 -1.6903  0.0135
 5533SOL    HW228233   0.238   0.470   5.923  1.4218 -0.7047 -0.8819
 5534SOL     OW28234   1.521   3.881   7.990  0.3045  0.2257  0.4067
 5534SOL    HW128235   1.591   3.924   8.038  0.0818  1.6390 -0.5205
 5534SOL    HW228236   1.550   3.887   7.899 -1.4156 -4.5390 -0.4711
 5535SOL     OW28237   4.662   1.615  14.234  0.1730 -0.2555 -0.0970
 5535SOL    HW128238   4.616   1.657  14.307  1.5198  2.8967 -1.0876
 5535SOL    HW228239   0.009   1.603  14.276 -1.0589 -1.6373  2.0487
 5536SOL     OW28240   3.517   2.166   6.389  0.8154  0.4489  0.2498
 5536SOL    HW128241   3.516   2.261   6.392 -0.0940  0.4041  1.6481
 5536SOL    HW228242   3.602   2.157   6.345  0.7495 -0.0924  0.2260
 5537SOL     OW28243   2.725   0.366   5.431 -0.2383  0.9615 -0.2652
 5537SOL    HW128244   2.766   0.283   5.406  0.3899  0.8464  1.1087
 5537SOL    HW228245   2.645   0.336   5.475 -0.0185  0.5023 -0.1754
 5538SOL     OW28246   4.053   2.588   2.164 -0.5298  0.2393 -0.2063
 5538SOL    HW128247   4.028   2.652   2.231  0.3329 -0.5688  0.8918
 5538SOL    HW228248   4.076   2.651   2.096  0.3737 -1.1739 -1.2104
 5539SOL     OW28249   3.925   3.027  16.576 -0.2658  0.1625  0.7527
 5539SOL    HW128250   3.970   3.110  16.562 -0.4479 -0.2611 -2.5173
 5539SOL    HW228251   3.945   3.024  16.669 -1.4795  0.4894  1.0244
 5540SOL     OW28252   4.690   4.032   6.514  0.2936  0.0651 -0.1100
 5540SOL    HW128253   0.015   4.031   6.585 -0.6750 -4.7738  0.6730
 5540SOL    HW228254   0.014   4.045   6.442  2.9709  1.9632  2.5594
 5541SOL     OW28255   2.639   4.098   2.758 -0.7186  1.2085  0.4708
 5541SOL    HW128256   2.592   4.121   2.838 -0.7952  1.8162  0.2495
 5541SOL    HW228257   2.587   4.152   2.698 -0.8158 -1.3320 -1.7249
 5542SOL     OW28258   4.217   4.377   8.333  0.2704 -0.5962  0.3290
 5542SOL    HW128259   4.208   4.409   8.243 -0.1663 -1.1545  0.1781
 5542SOL    HW228260   4.273   4.303   8.312  1.4710  0.1682  0.8292
 5543SOL     OW28261   4.595   3.899   8.364  0.0426  0.2776  0.3658
 5543SOL    HW128262   4.535   3.930   8.432  0.2174  2.7858 -0.6496
 5543SOL    HW228263   4.562   3.940   8.285 -0.4207 -1.5029 -0.3720
 5544SOL     OW28264   2.429   4.606  10.465  0.0444 -0.0667 -0.1031
 5544SOL    HW128265   2.436   4.684  10.410 -0.9474 -0.5734 -0.9626
 5544SOL    HW228266   2.521   4.585  10.482  0.2456  1.6939  0.9226
 5545SOL     OW28267   0.120   2.589   9.165  0.6867 -0.2159  0.4740
 5545SOL    HW128268   0.193   2.630   9.211 -0.4014  0.7253  1.3500
 5545SOL    HW228269   0.169   2.536   9.101 -2.2235 -1.2992 -0.8546
 5546SOL     OW28270   0.696   0.603  10.952 -0.4000 -0.3960  0.3819
 5546SOL    HW128271   0.631   0.672  10.936 -0.4089 -0.3099  0.7839
 5546SOL    HW228272   0.747   0.632  11.027 -1.1979 -2.2929  1.6437
 5547SOL     OW28273   0.665   0.495   8.319  0.1643  0.6329  0.3199
 5547SOL    HW128274   0.669   0.491   8.224  1.5877 -1.1352  0.4651
 5547SOL    HW228275   0.691   0.406   8.341 -1.3830 -0.4610 -2.3339
 5548SOL     OW28276   0.029   1.387  10.930  0.1248  0.7307  0.2414
 5548SOL    HW128277   0.037   1.467  10.982  0.7677  1.1924 -0.5765
 5548SOL    HW228278   0.107   1.407  10.878  0.2558 -1.4505 -0.4079
 5549SOL     OW28279   3.625   3.929   7.311 -0.8795 -0.6680 -0.0060
 5549SOL    HW128280   3.627   3.918   7.216  0.7739 -0.8674  0.0482
 5549SOL    HW228281   3.705   3.882   7.335 -0.6392  0.1228  0.7290
 5550SOL     OW28282   1.193   0.927   8.579  0.2051  0.3960  0.0872
 5550SOL    HW128283   1.101   0.953   8.570 -0.0924 -1.2985 -1.8403
 5550SOL    HW228284   1.233   0.996   8.631 -0.8644 -0.4238  2.0206
 5551SOL     OW28285   0.466   2.104   4.584  0.0426 -0.6513  0.3691
 5551SOL    HW128286   0.434   2.129   4.670 -0.0248 -1.1429  0.4869
 5551SOL    HW228287   0.458   2.009   4.572 -1.1362 -0.4276 -0.6235
 5552SOL     OW28288   0.755   0.577   5.304  0.0404 -0.0026  0.0200
 5552SOL    HW128289   0.752   0.554   5.211  2.5091 -2.0527  0.4321
 5552SOL    HW228290   0.661   0.586   5.320 -0.0009  0.9357 -0.7365
 5553SOL     OW28291   0.679   2.541   7.302 -0.6372 -0.1186  0.1134
 5553SOL    HW128292   0.703   2.493   7.223  3.2807  0.3203  0.9912
 5553SOL    HW228293   0.633   2.618   7.269  1.2310  0.3456 -1.4010
 5554SOL     OW28294   1.212   2.260  10.776 -0.0741 -0.1323  0.1271
 5554SOL    HW128295   1.210   2.279  10.682 -1.0980  0.9064  0.3611
 5554SOL    HW228296   1.205   2.352  10.802 -1.3413 -0.8608  2.3815
 5555SOL     OW28297   2.099   1.608   1.181 -0.0945  0.2614  0.2794
 5555SOL    HW128298   2.018   1.658   1.169 -1.5204 -2.1457  0.0989
 5555SOL    HW228299   2.126   1.624   1.271 -2.2324  0.6408  0.8495
 5556SOL     OW28300   0.289   2.561   7.322 -0.0519 -0.9397 -0.3773
 5556SOL    HW128301   0.327   2.556   7.234  2.0281 -2.7614  0.6220
 5556SOL    HW228302   0.370   2.573   7.372  0.2014  1.4355 -1.3091
 5557SOL     OW28303   1.107   3.750   7.285  0.0389 -0.5126 -0.2398
 5557SOL    HW128304   1.040   3.705   7.337 -0.8081  0.5603 -0.4132
 5557SOL    HW228305   1.155   3.679   7.243  2.4010  0.3536  0.9816
 5558SOL     OW28306   3.118   3.807   0.187  0.4491 -0.4682  0.4365
 5558SOL    HW128307   3.034   3.774   0.155 -0.7127  2.9704 -0.0986
 5558SOL    HW228308   3.142   3.763   0.269 -1.8882  0.9606  1.8825
 5559SOL     OW28309   1.518   4.001   9.148  1.1583 -0.4798  0.3276
 5559SOL    HW128310   1.453   3.998   9.077 -1.3534  0.2123  2.6053
 5559SOL    HW228311   1.534   4.095   9.156  0.7099 -0.3041 -0.7752
 5560SOL     OW28312   2.519   2.458   6.142  0.5070 -0.0772  0.4478
 5560SOL    HW128313   2.524   2.438   6.236 -0.2400  0.3511  0.5767
 5560SOL    HW228314   2.464   2.537   6.141  0.3049 -0.2350 -1.0506
 5561SOL     OW28315   3.909   3.671  13.354  0.0286 -0.3071  0.3616
 5561SOL    HW128316   3.886   3.671  13.261 -2.5742 -1.3061  1.0050
 5561SOL    HW228317   4.002   3.691  13.352  0.1928 -1.3424 -1.5563
 5562SOL     OW28318   3.519   0.334  15.483 -0.6103  0.2329  0.7078
 5562SOL    HW128319   3.600   0.384  15.496 -0.0819 -1.3530  3.3811
 5562SOL    HW228320   3.453   0.395  15.450 -1.6603 -1.1546  0.2656
 5563SOL     OW28321   2.968   4.218   8.445 -0.3111  0.2729 -0.2311
 5563SOL    HW128322   2.876   4.233   8.469  0.1530  2.7403 -0.0375
 5563SOL    HW228323   2.990   4.311   8.434 -0.8293  0.6318  1.8351
 5564SOL     OW28324   2.219   4.076   9.798 -0.0708 -0.1577  0.2859
 5564SOL    HW128325   2.284   4.021   9.753 -0.0562 -1.0099  1.3462
 5564SOL    HW228326   2.172   4.098   9.718 -0.6483 -0.1828  0.6221
 5565SOL     OW28327   0.570   0.350   4.015 -0.3837 -0.0620 -0.2804
 5565SOL    HW128328   0.560   0.365   4.109  1.5348 -0.6776  0.0373
 5565SOL    HW228329   0.594   0.257   4.020 -2.1574 -0.4996 -0.1864
 5566SOL     OW28330   2.544   1.720  15.197 -0.0846  0.6852  0.3034
 5566SOL    HW128331   2.479   1.785  15.171 -1.0571 -0.8303 -1.0554
 5566SOL    HW228332   2.622   1.772  15.178  1.1418 -1.4553 -0.6328
 5567SOL     OW28333   1.564   0.500   1.856  0.4573 -0.2748  0.5164
 5567SOL    HW128334   1.587   0.555   1.931  1.7305  0.2320 -0.2419
 5567SOL    HW228335   1.645   0.511   1.806 -0.0055  0.1428 -0.1413
 5568SOL     OW28336   0.902   4.496   9.016  0.0574 -0.1861  0.0283
 5568SOL    HW128337   0.997   4.490   9.009  0.1676  0.0201  1.3425
 5568SOL    HW228338   0.891   4.564   9.083 -0.2864  0.3112 -0.5306
 5569SOL     OW28339   0.244   4.051   8.243 -0.3096 -0.1254 -0.1020
 5569SOL    HW128340   0.227   3.970   8.195 -3.1707  0.6809 -0.4472
 5569SOL    HW228341   0.326   4.037   8.290  0.2669  1.5571 -0.6126
 5570SOL     OW28342   4.573   1.487   4.395 -0.2896  0.1656 -0.2851
 5570SOL    HW128343   4.559   1.572   4.437  0.0394 -0.2500  0.6567
 5570SOL    HW228344   4.499   1.435   4.428  0.6357 -0.7703  0.3149
 5571SOL     OW28345   4.700   1.174   0.193 -0.2975 -0.4994 -0.4850
 5571SOL    HW128346   4.624   1.133   0.234 -1.1559  1.5769  0.0290
 5571SOL    HW228347   4.724   1.244   0.254 -1.1228 -1.7663  1.3000
 5572SOL     OW28348   1.775   0.255   5.599  0.2323  0.0599  0.3176
 5572SOL    HW128349   1.799   0.197   5.671 -0.6145  0.2869  0.7754
 5572SOL    HW228350   1.858   0.301   5.583  0.9469 -1.4160 -0.2196
 5573SOL     OW28351   3.903   1.029   5.146  0.2812 -0.8987 -0.0956
 5573SOL    HW128352   3.989   1.020   5.188 -0.6921 -2.1039  1.6087
 5573SOL    HW228353   3.838   1.033   5.215  0.8270  1.9203  0.2414
 5574SOL     OW28354   1.323   4.533   1.033  0.1156 -0.3832  0.1686
 5574SOL    HW128355   1.279   4.503   1.112 -2.4949 -1.9940 -1.8628
 5574SOL    HW228356   1.325   4.460   0.970  2.2535 -0.5596  0.4549
 5575SOL     OW28357   3.332   1.260   5.714  0.1177 -0.2306  0.3152
 5575SOL    HW128358   3.252   1.311   5.701 -0.6819 -1.2166  1.4600
 5575SOL    HW228359   3.345   1.223   5.626 -0.0306  0.6496 -0.0782
 5576SOL     OW28360   2.923   1.979   4.713  0.3727 -0.0397 -0.1943
 5576SOL    HW128361   2.866   2.027   4.653  1.2997  1.0794 -0.1801
 5576SOL    HW228362   2.877   1.895   4.721 -1.6205  1.0809  0.1675
 5577SOL     OW28363   3.953   4.278   1.506  0.0205 -0.2852 -0.2466
 5577SOL    HW128364   3.993   4.364   1.517  0.5129 -0.4357 -0.8687
 5577SOL    HW228365   4.013   4.228   1.560 -0.7302 -0.3388  0.5366
 5578SOL     OW28366   1.470   0.546   8.097 -0.0341 -0.0634  0.4692
 5578SOL    HW128367   1.553   0.518   8.137 -0.1403 -0.8972  0.1069
 5578SOL    HW228368   1.477   0.523   8.005  2.0408  1.5307  0.2219
 5579SOL     OW28369   4.460   1.624  14.424 -0.3764  0.3482 -0.2231
 5579SOL    HW128370   4.369   1.596  14.427  0.0608 -0.8889  1.4606
 5579SOL    HW228371   4.464   1.645  14.517 -0.5273  1.2979 -0.4340
 5580SOL     OW28372   3.357   3.733   2.158  0.3492 -0.7488 -0.2755
 5580SOL    HW128373   3.408   3.812   2.172  0.0118 -0.2137 -2.1364
 5580SOL    HW228374   3.422   3.681   2.111  1.8043  0.5534  0.3135
 5581SOL     OW28375   1.995   3.459   2.432  0.3646 -0.0521  0.4997
 5581SOL    HW128376   2.024   3.487   2.345  0.7482  2.4015  1.4286
 5581SOL    HW228377   2.068   3.472   2.492 -1.2352 -1.0297  2.6746
 5582SOL     OW28378   0.249   4.227  14.477 -0.1756  0.6012 -0.2949
 5582SOL    HW128379   0.335   4.252  14.510 -1.0278  2.0505  0.8260
 5582SOL    HW228380   0.263   4.154  14.416  0.2226  2.2683 -2.1927
 5583SOL     OW28381   2.442   0.472   3.163  0.2029 -0.4186  0.2848
 5583SOL    HW128382   2.520   0.516   3.129  1.1362 -2.6266 -0.4138
 5583SOL    HW228383   2.470   0.451   3.252  0.9718 -1.1913 -0.1452
 5584SOL     OW28384   3.877   1.416   9.027  0.1921  0.4721  0.0810
 5584SOL    HW128385   3.791   1.375   9.040 -0.5004  1.5083 -1.2991
 5584SOL    HW228386   3.890   1.463   9.110 -1.4908 -0.6996  1.0223
 5585SOL     OW28387   4.161   0.384   7.286  0.4696  0.5141  0.0164
 5585SOL    HW128388   4.147   0.474   7.315  1.4905  0.3389  1.0414
 5585SOL    HW228389   4.133   0.393   7.195  0.2550 -0.2993  0.0043
 5586SOL     OW28390   0.996   2.866  11.058 -0.0239  0.0818  0.0525
 5586SOL    HW128391   1.011   2.775  11.084 -1.0953  0.0212  0.4205
 5586SOL    HW228392   0.934   2.857  10.986 -0.4992  1.0243  0.3483
 5587SOL     OW28393   3.412   1.591  15.476  0.0276 -0.0998 -0.0724
 5587SOL    HW128394   3.387   1.602  15.384 -1.2364 -0.7405  0.1903
 5587SOL    HW228395   3.414   1.682  15.503  2.7654  0.1598 -1.1205
 5588SOL     OW28396   2.001   1.059  16.122  0.3245  0.4530 -0.6546
 5588SOL    HW128397   2.063   1.022  16.184  1.5549  1.1374 -1.4709
 5588SOL    HW228398   1.939   1.098  16.184  0.0211 -1.3759  0.1994
 5589SOL     OW28399   2.518   3.381   8.281 -0.7522  0.1177  0.2341
 5589SOL    HW128400   2.600   3.416   8.314 -0.0967 -0.1977 -1.0986
 5589SOL    HW228401   2.458   3.413   8.349 -0.6838  0.9328 -0.0973
 5590SOL     OW28402   4.570   0.984   4.978  0.6479  0.3442 -0.0346
 5590SOL    HW128403   4.487   1.020   4.946 -0.4423 -2.1758 -0.0591
 5590SOL    HW228404   4.554   0.892   4.996 -0.0187  0.7762  1.5914
 5591SOL     OW28405   2.080   0.454   2.881 -0.1796  0.4693  0.3703
 5591SOL    HW128406   2.115   0.538   2.851 -0.9343  0.2637 -1.1137
 5591SOL    HW228407   2.128   0.390   2.828  0.1009 -0.9250  2.3451
 5592SOL     OW28408   1.536   2.187   5.561  0.9154 -0.2459 -0.0499
 5592SOL    HW128409   1.572   2.101   5.583 -0.1232 -0.2411  1.6573
 5592SOL    HW228410   1.559   2.196   5.468 -5.0008 -1.0516 -1.5892
 5593SOL     OW28411   3.823   3.689   7.062 -0.4750  0.2514  0.1871
 5593SOL    HW128412   3.908   3.698   7.019 -0.5170  0.3272  0.1179
 5593SOL    HW228413   3.770   3.748   7.008 -0.2358  1.7578  1.5901
 5594SOL     OW28414   2.059   1.468   4.669  0.1727 -0.1077 -0.1267
 5594SOL    HW128415   2.065   1.390   4.725 -1.8152 -0.9583 -1.1053
 5594SOL    HW228416   1.985   1.442   4.614  0.3369  0.9656 -0.8470
 5595SOL     OW28417   3.889   3.513   3.819 -0.4304  0.4159  0.1663
 5595SOL    HW128418   3.936   3.497   3.901  0.5149 -2.2311 -0.9041
 5595SOL    HW228419   3.957   3.508   3.752  1.4381  0.5108  2.0530
 5596SOL     OW28420   2.541   2.852   2.484 -0.4262 -0.0907  0.3044
 5596SOL    HW128421   2.509   2.937   2.453 -0.3246 -0.1543  0.0242
 5596SOL    HW228422   2.633   2.853   2.456 -0.3908  0.1998  0.4279
 5597SOL     OW28423   2.199   1.317   5.154  0.4386  0.1384  0.0369
 5597SOL    HW128424   2.111   1.305   5.189  1.8559 -1.8934  2.8975
 5597SOL    HW228425   2.181   1.365   5.074  0.7861  1.4266  0.7307
 5598SOL     OW28426   1.796   2.626   4.911 -0.0935 -0.2828  0.3098
 5598SOL    HW128427   1.790   2.721   4.899  2.4202 -0.1577  0.0871
 5598SOL    HW228428   1.713   2.608   4.955 -0.8982  0.4591 -0.8980
 5599SOL     OW28429   1.802   4.575  15.170  0.5165 -0.3627  0.0479
 5599SOL    HW128430   1.749   4.643  15.129  1.2636  1.1788  1.6509
 5599SOL    HW228431   1.894   4.601  15.170  0.4222 -0.0313  2.2630
 5600SOL     OW28432   2.278   0.046   3.168  0.1317 -0.1185 -0.1402
 5600SOL    HW128433   2.296   0.043   3.074  0.9236 -0.0529  0.0131
 5600SOL    HW228434   2.203   0.104   3.163 -0.6837 -1.2711 -1.5942
 5601SOL     OW28435   2.585   3.280  11.537 -0.6402 -0.0193  0.1370
 5601SOL    HW128436   2.523   3.303  11.607  0.1748  0.5127  0.6709
 5601SOL    HW228437   2.540   3.313  11.460  0.3718  0.2139 -0.3376
 5602SOL     OW28438   0.495   0.694   4.289  0.2125  0.0948  0.0108
 5602SOL    HW128439   0.545   0.775   4.296 -0.2806  0.4175 -0.1733
 5602SOL    HW228440   0.514   0.655   4.375 -1.5882 -1.6483 -0.3686
 5603SOL     OW28441   3.257   2.804   4.665  0.2384  0.4871 -0.1360
 5603SOL    HW128442   3.234   2.713   4.683 -0.7394  0.6172 -0.7564
 5603SOL    HW228443   3.295   2.789   4.579 -1.9471 -0.3278 -0.9566
 5604SOL     OW28444   1.631   1.015   6.274 -0.5035  0.1332 -0.3923
 5604SOL    HW128445   1.614   1.040   6.365  1.1901 -1.8601  0.4849
 5604SOL    HW228446   1.697   1.080   6.249  2.4263 -1.7452  2.3364
 5605SOL     OW28447   3.310   0.684   9.479  0.3021 -0.0512  0.4351
 5605SOL    HW128448   3.330   0.666   9.570  0.7837  0.6084  0.4594
 5605SOL    HW228449   3.329   0.604   9.430 -0.3693 -0.3265  0.6201
 5606SOL     OW28450   0.512   2.279   2.720 -0.3623  0.1236  0.2867
 5606SOL    HW128451   0.595   2.325   2.705  0.3792 -1.5313 -0.6142
 5606SOL    HW228452   0.549   2.197   2.752  0.6325  0.1897 -0.7061
 5607SOL     OW28453   4.275   2.057   1.504 -0.4607  0.1680 -0.0366
 5607SOL    HW128454   4.243   2.142   1.533 -0.6701 -0.5978  1.9403
 5607SOL    HW228455   4.204   2.006   1.542 -0.7265 -0.6218 -1.6050
 5608SOL     OW28456   2.378   3.665   2.599  0.1864 -0.8811 -0.7163
 5608SOL    HW128457   2.293   3.628   2.573 -0.3265 -0.6088  0.5708
 5608SOL    HW228458   2.351   3.755   2.614 -2.3857 -1.7754  0.0201
 5609SOL     OW28459   3.609   0.633   8.820  0.1697 -0.3661  1.2884
 5609SOL    HW128460   3.699   0.613   8.845  0.1775 -1.9881 -0.0788
 5609SOL    HW228461   3.584   0.695   8.889 -1.3049  1.2146 -0.6597
 5610SOL     OW28462   2.777   3.711  17.344  0.6519  0.1287 -0.2578
 5610SOL    HW128463   2.838   3.757  17.287  0.9354  0.4236  0.2830
 5610SOL    HW228464   2.733   3.784  17.387  1.7029  1.9714 -2.2930
 5611SOL     OW28465   4.723   4.145  10.518  0.0410 -0.2879  0.9112
 5611SOL    HW128466   0.039   4.093  10.576 -1.1982 -0.4593  1.9336
 5611SOL    HW228467   4.641   4.098  10.536  0.4809 -1.7088 -0.7542
 5612SOL     OW28468   4.130   2.567   1.429  0.0513 -0.1461 -0.0869
 5612SOL    HW128469   4.089   2.495   1.478  1.1851  0.0453  1.1436
 5612SOL    HW228470   4.210   2.522   1.402 -0.6593 -1.0827 -0.5959
 5613SOL     OW28471   3.697   1.685   9.230 -0.0921 -0.2351 -0.2674
 5613SOL    HW128472   3.608   1.716   9.216  0.8418  2.5827  0.1232
 5613SOL    HW228473   3.731   1.690   9.141 -0.8175  2.1231 -0.4023
 5614SOL     OW28474   2.239   3.828   6.304 -0.3636 -0.0663 -0.1659
 5614SOL    HW128475   2.221   3.846   6.396  1.0959 -1.1873  0.3396
 5614SOL    HW228476   2.184   3.891   6.257  0.9221  0.8279 -0.4814
 5615SOL     OW28477   3.442   0.037   3.966  0.3662  0.2469 -0.2836
 5615SOL    HW128478   3.440   4.695   3.915  0.7384  0.7077 -1.0309
 5615SOL    HW228479   3.357   0.025   4.010 -0.2756 -0.6860 -1.7882
 5616SOL     OW28480   0.027   2.578   6.554 -0.4573 -0.1875 -0.4395
 5616SOL    HW128481   4.683   2.543   6.522 -1.5855 -0.8721  3.1479
 5616SOL    HW228482   0.034   2.659   6.504 -0.1053 -0.5450 -0.9722
 5617SOL     OW28483   4.519   0.635   8.326 -0.4033  0.1417 -0.3536
 5617SOL    HW128484   4.501   0.693   8.251 -1.3330 -0.4070 -0.5526
 5617SOL    HW228485   4.504   0.696   8.398  2.7069  1.6618 -1.0135
 5618SOL     OW28486   3.167   2.110  14.009 -0.2963 -0.2604  0.1606
 5618SOL    HW128487   3.235   2.158  13.963  2.7793 -0.6345  4.3076
 5618SOL    HW228488   3.167   2.031  13.955  1.8081 -0.7158  0.8308
 5619SOL     OW28489   3.571   3.422   6.708  0.3055  0.1544 -0.1460
 5619SOL    HW128490   3.651   3.426   6.656  0.1068  2.5567 -0.2896
 5619SOL    HW228491   3.582   3.333   6.742 -1.2728 -0.5760 -1.5641
 5620SOL     OW28492   4.641   3.286  15.659 -0.1260  0.3903  0.0837
 5620SOL    HW128493   4.640   3.204  15.610 -1.1962 -0.0390  0.8148
 5620SOL    HW228494   4.688   3.345  15.600  2.1373 -2.0110 -0.5106
 5621SOL     OW28495   0.418   1.478   4.510  0.2543  0.3301  0.1302
 5621SOL    HW128496   0.471   1.415   4.461  2.0424  0.4518  1.8656
 5621SOL    HW228497   0.457   1.489   4.597 -0.3558 -0.3489  0.4895
 5622SOL     OW28498   2.662   1.805   3.031 -0.4047  0.1090  0.2951
 5622SOL    HW128499   2.643   1.895   3.007  1.1665  0.4518  0.3013
 5622SOL    HW228500   2.571   1.776   3.027 -0.1912 -0.4897 -0.2639
 5623SOL     OW28501   2.987   4.129   2.949  0.4738 -0.2567  0.5716
 5623SOL    HW128502   3.075   4.165   2.940  0.2074  0.8058  2.1909
 5623SOL    HW228503   3.006   4.037   2.969  0.8258 -0.1019  0.9496
 5624SOL     OW28504   2.818   0.304   8.974 -0.2070  0.0469  0.6102
 5624SOL    HW128505   2.789   0.306   9.065  0.2961  0.1011  0.7716
 5624SOL    HW228506   2.753   0.361   8.933 -0.2915 -0.1580  0.4571
 5625SOL     OW28507   0.897   3.301   4.984  0.1302  0.0908  0.1178
 5625SOL    HW128508   0.985   3.263   4.991 -0.1246 -0.3857  0.7520
 5625SOL    HW228509   0.918   3.393   5.000  2.3650 -0.1854 -1.1318
 5626SOL     OW28510   0.177   1.020   1.699  0.0479 -0.4569 -0.0301
 5626SOL    HW128511   0.189   1.040   1.606 -0.8871  0.6715  0.0890
 5626SOL    HW228512   0.185   0.925   1.693 -0.1601 -0.4302 -0.6903
 5627SOL     OW28513   0.401   4.664   3.035 -0.3254  0.0623  0.2242
 5627SOL    HW128514   0.327   4.674   2.976 -1.0661  0.5467  1.2180
 5627SOL    HW228515   0.449   4.603   2.980 -0.9542  0.9423 -1.3016
 5628SOL     OW28516   0.187   0.385   8.160 -0.2468 -0.4432  0.1689
 5628SOL    HW128517   0.191   0.445   8.086  1.6087  1.2080  1.5874
 5628SOL    HW228518   0.273   0.342   8.154 -0.1563 -0.4819  1.5768
 5629SOL     OW28519   2.255   4.027   6.912 -0.0294 -0.6696  0.5059
 5629SOL    HW128520   2.255   3.948   6.966  0.8095 -1.4538 -0.6690
 5629SOL    HW228521   2.337   4.074   6.930 -1.1186  2.0663 -1.6204
 5630SOL     OW28522   3.127   1.577  15.711  0.4447 -0.2269  0.6995
 5630SOL    HW128523   3.148   1.497  15.663 -1.9863  0.8481 -2.1734
 5630SOL    HW228524   3.042   1.556  15.751  1.0217 -0.0699  2.0106
 5631SOL     OW28525   1.438   4.142  12.036  0.0879  0.1409  0.2594
 5631SOL    HW128526   1.518   4.101  12.005 -0.1040 -0.9324  1.1710
 5631SOL    HW228527   1.463   4.170  12.124  1.5018 -0.8802  0.1738
 5632SOL     OW28528   4.429   3.754  10.804 -0.6297 -0.1962 -0.1160
 5632SOL    HW128529   4.356   3.749  10.742  0.2892 -2.4382 -1.0045
 5632SOL    HW228530   4.393   3.728  10.888 -0.9137  0.5370 -0.0030
 5633SOL     OW28531   1.376   1.314   5.525 -0.2777  0.2828  0.0845
 5633SOL    HW128532   1.398   1.232   5.568 -0.2845  0.1184 -0.2261
 5633SOL    HW228533   1.467   1.340   5.511 -0.3181 -0.6248 -1.9386
 5634SOL     OW28534   2.518   0.710   8.419 -0.0049  0.3161 -0.2286
 5634SOL    HW128535   2.549   0.710   8.509  0.9026  1.1599 -0.5432
 5634SOL    HW228536   2.434   0.751   8.437 -0.8304 -1.5914  0.2615
 5635SOL     OW28537   4.515   0.596   3.627 -0.1049 -0.3670  0.5555
 5635SOL    HW128538   4.453   0.646   3.575  0.6297  1.3547  1.3443
 5635SOL    HW228539   4.494   0.619   3.717 -0.7629  0.1064  0.2759
 5636SOL     OW28540   2.828   1.183  15.930 -0.1923  0.4035  0.0146
 5636SOL    HW128541   2.831   1.145  15.842  0.0342  0.3507  0.0459
 5636SOL    HW228542   2.737   1.174  15.957 -0.4137  2.1087 -0.1185
 5637SOL     OW28543   2.301   4.324   2.454 -0.5648  0.3720  1.0559
 5637SOL    HW128544   2.206   4.334   2.460 -0.6247  0.6629 -0.3574
 5637SOL    HW228545   2.319   4.416   2.473 -0.4008  0.7162 -0.8263
 5638SOL     OW28546   3.369   3.165   1.919  0.0508 -0.5790 -0.1288
 5638SOL    HW128547   3.417   3.132   1.844  0.4527  1.7664 -0.9001
 5638SOL    HW228548   3.403   3.110   1.989 -0.5091  1.9058  2.1195
 5639SOL     OW28549   1.960   1.786   6.513  0.8056 -0.2677 -0.0739
 5639SOL    HW128550   1.934   1.777   6.604  0.7321 -0.0709 -0.0748
 5639SOL    HW228551   2.054   1.768   6.515  1.1679  1.6657  0.0934
 5640SOL     OW28552   0.012   2.067   1.410  0.3988  0.0240  0.0182
 5640SOL    HW128553   4.672   2.014   1.403  1.1886 -0.9212 -1.5907
 5640SOL    HW228554   4.718   2.150   1.376  0.8083 -0.0760 -0.6254
 5641SOL     OW28555   1.030   2.730   9.939  0.0246 -0.3011 -0.0398
 5641SOL    HW128556   1.067   2.817   9.951 -0.4529 -0.1404  0.2807
 5641SOL    HW228557   0.964   2.746   9.872  0.5960  0.7129 -0.3548
 5642SOL     OW28558   4.094   4.090   4.106  0.6295 -0.1641  0.2494
 5642SOL    HW128559   4.126   4.084   4.016  0.7033 -1.0078  0.3389
 5642SOL    HW228560   4.168   4.117   4.160  1.0815  0.1399 -0.5068
 5643SOL     OW28561   0.072   1.773   8.358 -0.4041 -0.5928 -0.3899
 5643SOL    HW128562   0.163   1.781   8.332 -0.4683  1.7711  0.0869
 5643SOL    HW228563   0.082   1.759   8.453 -1.1364 -1.6194 -0.4624
 5644SOL     OW28564   3.755   2.724  11.321  0.2222  0.1775 -0.4287
 5644SOL    HW128565   3.825   2.779  11.286 -0.5601 -0.0880 -2.4020
 5644SOL    HW228566   3.708   2.712  11.239  1.5997 -2.5812 -0.7953
 5645SOL     OW28567   3.819   4.436   1.177  0.4569  0.0596 -0.3486
 5645SOL    HW128568   3.906   4.462   1.206  1.3724 -2.0468 -1.2537
 5645SOL    HW228569   3.834   4.342   1.166  1.3961  0.3325 -1.2971
 5646SOL     OW28570   0.091   3.165   7.958 -0.1648 -0.0576 -0.6028
 5646SOL    HW128571   0.059   3.205   7.877  0.2233  2.8720  0.6838
 5646SOL    HW228572   0.054   3.229   8.019 -2.2278 -0.9106 -0.9417
 5647SOL     OW28573   2.006   0.381  14.847  0.4027 -0.2765  0.6776
 5647SOL    HW128574   2.055   0.402  14.767 -0.9025 -1.2958 -0.3857
 5647SOL    HW228575   2.041   0.294  14.867 -0.0219 -0.3012  1.3055
 5648SOL     OW28576   1.602   4.682   1.947 -0.0069  0.3757  0.1033
 5648SOL    HW128577   1.581   4.641   2.031 -0.0703  0.5010  0.1487
 5648SOL    HW228578   1.697   4.673   1.948 -0.1864 -1.3324  1.7901
 5649SOL     OW28579   1.327   1.736  11.210  0.3154 -0.0147 -0.3930
 5649SOL    HW128580   1.236   1.730  11.180 -0.4543 -0.0604  1.9898
 5649SOL    HW228581   1.376   1.785  11.144 -0.0613  1.4679  0.4141
 5650SOL     OW28582   4.507   3.278   4.172 -0.9320 -0.6368  0.6795
 5650SOL    HW128583   4.455   3.203   4.203 -1.7890 -0.4130 -0.2325
 5650SOL    HW228584   4.458   3.353   4.206 -0.4373  0.3779 -0.8498
 5651SOL     OW28585   2.906   4.465   9.091  0.1975 -0.0794 -0.6340
 5651SOL    HW128586   2.823   4.446   9.134  0.7459 -1.7724 -0.3152
 5651SOL    HW228587   2.936   4.543   9.139  1.4336 -0.7379 -0.3243
 5652SOL     OW28588   0.261   2.958   6.395 -0.1780 -0.2319 -0.4268
 5652SOL    HW128589   0.280   3.043   6.436  0.0015 -0.7125  0.4958
 5652SOL    HW228590   0.204   2.986   6.324  0.3211  0.0408 -0.7167
 5653SOL     OW28591   3.545   0.223   3.200  0.5481 -0.8426  0.1685
 5653SOL    HW128592   3.473   0.197   3.257  2.4988 -2.2888  1.9694
 5653SOL    HW228593   3.623   0.214   3.255  1.4408  0.4125 -0.8811
 5654SOL     OW28594   3.174   2.913   2.749  0.0161 -0.1375 -0.0304
 5654SOL    HW128595   3.173   2.826   2.789 -2.3652 -1.3345 -2.6903
 5654SOL    HW228596   3.267   2.932   2.760 -0.1688  2.0010 -2.1469
 5655SOL     OW28597   2.289   3.550   4.312 -0.2438 -0.5182  0.2305
 5655SOL    HW128598   2.245   3.494   4.247 -2.4045  1.5127 -0.0610
 5655SOL    HW228599   2.263   3.640   4.291 -0.0176 -0.2237  1.2395
 5656SOL     OW28600   2.049   2.503   8.983 -0.1447  0.1040  0.2645
 5656SOL    HW128601   1.957   2.518   9.005 -0.9802  0.4690 -3.4604
 5656SOL    HW228602   2.088   2.552   9.056  2.4010 -1.2982 -0.1464
 5657SOL     OW28603   2.382   0.286   8.480 -0.0207 -0.1747 -0.1278
 5657SOL    HW128604   2.423   0.294   8.394 -1.6361 -0.9565 -0.9849
 5657SOL    HW228605   2.401   0.373   8.516  0.0864 -0.0074 -0.5893
 5658SOL     OW28606   2.174   0.991   4.724 -0.2839 -0.2121 -0.1613
 5658SOL    HW128607   2.214   0.908   4.697 -0.9410 -1.2398  2.0201
 5658SOL    HW228608   2.088   0.990   4.681  0.5477  0.3220 -1.8364
 5659SOL     OW28609   4.688   4.508   8.526 -0.0402 -0.8091  0.5997
 5659SOL    HW128610   4.660   4.475   8.440 -3.1221  2.1733  0.4332
 5659SOL    HW228611   0.035   4.542   8.503 -0.6368 -0.1259 -0.6159
 5660SOL     OW28612   1.568   3.327   4.622  0.2601 -0.0121  0.1056
 5660SOL    HW128613   1.655   3.366   4.619 -1.1413  3.1436  0.5663
 5660SOL    HW228614   1.555   3.322   4.527 -1.1107  0.8815  0.2475
 5661SOL     OW28615   2.408   2.470   8.067  0.5612 -0.4641 -0.2534
 5661SOL    HW128616   2.471   2.542   8.077  0.3813 -0.3993  0.4412
 5661SOL    HW228617   2.459   2.390   8.077  0.0486 -0.7870 -0.2469
 5662SOL     OW28618   0.229   0.346   6.539  0.1528 -0.0180  0.1553
 5662SOL    HW128619   0.305   0.310   6.493 -0.0836 -0.0630 -0.1999
 5662SOL    HW228620   0.258   0.411   6.602 -2.1388  2.0388 -0.8734
 5663SOL     OW28621   0.701   1.139   5.959 -0.3044 -0.1626  0.0176
 5663SOL    HW128622   0.783   1.187   5.971  0.8690 -1.9761 -0.6774
 5663SOL    HW228623   0.675   1.134   6.050  0.7848 -0.9383  0.2818
 5664SOL     OW28624   0.720   0.840   8.561 -0.6995  0.3368  0.5056
 5664SOL    HW128625   0.637   0.806   8.527 -0.1742 -1.9932  1.5523
 5664SOL    HW228626   0.694   0.857   8.651 -0.1590 -0.4942  0.8223
 5665SOL     OW28627   3.194   0.986   3.141  0.1134  1.1644 -0.0674
 5665SOL    HW128628   3.112   0.973   3.093  0.1658 -1.1574  0.5101
 5665SOL    HW228629   3.248   0.963   3.065  2.0184  2.9698  0.7282
 5666SOL     OW28630   2.928   1.383   4.361  0.0428  0.3464  0.2328
 5666SOL    HW128631   2.931   1.296   4.401 -1.0971 -0.4782 -1.5114
 5666SOL    HW228632   2.974   1.370   4.278  1.5058 -0.6129  1.1838
 5667SOL     OW28633   3.959   4.208   2.449  0.2056  0.1908 -0.4960
 5667SOL    HW128634   4.035   4.195   2.392 -0.2894 -1.6875 -0.7326
 5667SOL    HW228635   3.921   4.122   2.465 -1.3821  0.5528 -2.2403
 5668SOL     OW28636   4.292   3.643   4.893  0.2992 -0.0834 -0.0633
 5668SOL    HW128637   4.348   3.565   4.896 -0.1214 -0.4033 -0.4700
 5668SOL    HW228638   4.344   3.718   4.922  1.1543 -0.7723  0.1935
 5669SOL     OW28639   0.906   1.065  17.457 -0.3034  0.7037 -0.3374
 5669SOL    HW128640   0.834   1.115  17.497 -2.3009 -2.6859  0.2985
 5669SOL    HW228641   0.988   1.109  17.479  0.2942 -0.6463  0.1184
 5670SOL     OW28642   3.218   3.474   5.327  0.3861  0.1440 -1.0067
 5670SOL    HW128643   3.271   3.510   5.399 -0.6793 -0.5887  0.1227
 5670SOL    HW228644   3.153   3.541   5.307 -0.0480 -0.2240 -0.8028
 5671SOL     OW28645   0.562   1.082   5.236 -0.7009  0.5772 -0.1619
 5671SOL    HW128646   0.639   1.038   5.270 -1.4622 -1.0410 -0.5307
 5671SOL    HW228647   0.576   1.166   5.279 -0.1156  1.4297 -2.0272
 5672SOL     OW28648   4.513   1.510   5.983  0.4768 -0.1058  0.6339
 5672SOL    HW128649   4.588   1.537   5.930 -1.2633 -0.4549 -1.9654
 5672SOL    HW228650   4.551   1.524   6.070 -0.1174  0.6955  0.7719
 5673SOL     OW28651   3.195   4.193   4.444  0.6944 -0.5189  0.2881
 5673SOL    HW128652   3.227   4.139   4.517  1.5669  2.0917  1.8372
 5673SOL    HW228653   3.156   4.267   4.491 -0.0468 -1.8611  1.7939
 5674SOL     OW28654   2.102   4.146   3.712  0.4358  0.2813  0.1473
 5674SOL    HW128655   2.037   4.188   3.656 -0.7001  1.1625  2.1338
 5674SOL    HW228656   2.179   4.119   3.661  0.9544  1.4398  0.3241
 5675SOL     OW28657   2.527   3.303   4.643  0.6958 -0.1204 -0.3507
 5675SOL    HW128658   2.514   3.244   4.717  0.9365  2.2257  1.5468
 5675SOL    HW228659   2.439   3.319   4.609 -0.2848 -0.9146  1.7649
 5676SOL     OW28660   3.975   1.008  16.962 -0.1093  0.3821  0.1988
 5676SOL    HW128661   3.923   0.932  16.936  0.2255  0.2013  0.0636
 5676SOL    HW228662   4.037   1.027  16.891 -0.8426  0.5459 -0.3935
 5677SOL     OW28663   0.302   2.657   5.748 -0.2620  0.0313 -0.0302
 5677SOL    HW128664   0.397   2.658   5.762 -0.4988 -0.6052  1.6491
 5677SOL    HW228665   0.276   2.591   5.813  3.2700 -0.7698  0.5986
 5678SOL     OW28666   1.531   0.068   9.288  0.0158 -0.0943  0.1996
 5678SOL    HW128667   1.486   0.091   9.369 -2.9618 -0.3564 -1.3685
 5678SOL    HW228668   1.621   0.088   9.312 -0.3727  0.8040  0.9431
 5679SOL     OW28669   1.654   3.505   9.069  0.6392  0.3534 -0.5095
 5679SOL    HW128670   1.659   3.600   9.072  0.1755  0.3527  0.3139
 5679SOL    HW228671   1.654   3.492   8.974 -0.6608 -0.0986 -0.4545
 5680SOL     OW28672   1.130   0.330   3.788 -0.1537  0.5686 -0.1460
 5680SOL    HW128673   1.081   0.318   3.869  0.8970  0.3648  0.4598
 5680SOL    HW228674   1.215   0.352   3.825 -0.5506 -0.7237  1.5155
 5681SOL     OW28675   3.892   4.302   5.409  0.0763  0.4394  0.1538
 5681SOL    HW128676   3.890   4.294   5.504  0.0576  0.9293  0.1974
 5681SOL    HW228677   3.823   4.368   5.402  1.5736  2.0385  0.5501
 5682SOL     OW28678   3.081   1.472   2.983  0.2940 -0.3279  0.4973
 5682SOL    HW128679   3.023   1.547   2.966 -0.8393 -1.2877  0.1097
 5682SOL    HW228680   3.067   1.465   3.077 -2.6047 -0.6391  0.0433
 5683SOL     OW28681   0.080   4.583  12.690 -0.6141  0.0041 -0.1522
 5683SOL    HW128682   0.071   4.662  12.637 -4.4567  1.5660  2.7632
 5683SOL    HW228683   0.042   4.520  12.630 -1.3238 -0.1556  0.4596
 5684SOL     OW28684   1.222   1.506   2.980  0.1074  0.2894  0.1344
 5684SOL    HW128685   1.287   1.475   3.043 -0.5269  1.1228  1.1987
 5684SOL    HW228686   1.139   1.493   3.026  0.1936  1.7271  0.7064
 5685SOL     OW28687   0.335   3.842   5.099 -0.3163 -0.5920  0.1182
 5685SOL    HW128688   0.404   3.777   5.110  0.4614 -0.2276 -2.5964
 5685SOL    HW228689   0.387   3.918   5.126  1.1418 -1.0359 -1.4904
 5686SOL     OW28690   3.279   4.050   9.440 -0.0441 -1.2043  0.1198
 5686SOL    HW128691   3.311   4.113   9.375  0.6592 -0.9229  0.7522
 5686SOL    HW228692   3.186   4.052   9.418  0.4806 -2.3196 -2.2654
 5687SOL     OW28693   1.510   4.204   3.345 -0.0200  0.3075 -0.9498
 5687SOL    HW128694   1.442   4.232   3.285  0.7863  1.3003 -1.3859
 5687SOL    HW228695   1.588   4.249   3.311 -0.1210  0.2926 -1.1981
 5688SOL     OW28696   4.386   1.290   2.383  0.2730  0.1724  0.5125
 5688SOL    HW128697   4.478   1.286   2.409 -0.0627  1.8589  1.9777
 5688SOL    HW228698   4.358   1.373   2.421  0.3326  0.1446  0.6192
 5689SOL     OW28699   0.335   2.425   2.887  0.1519  0.0652  0.4415
 5689SOL    HW128700   0.269   2.362   2.917  1.6841 -1.4936  0.5662
 5689SOL    HW228701   0.395   2.371   2.835 -1.5300  0.2183 -1.6679
 5690SOL     OW28702   0.746   3.012   4.306 -0.1221  0.2599 -0.5513
 5690SOL    HW128703   0.753   3.102   4.338 -3.1572  0.9147 -1.7990
 5690SOL    HW228704   0.667   3.010   4.253 -0.5763  1.0233  0.0982
 5691SOL     OW28705   4.394   2.131   6.257 -0.7187  0.0769 -0.2715
 5691SOL    HW128706   4.351   2.127   6.172 -0.1904  0.4255 -0.5520
 5691SOL    HW228707   4.486   2.139   6.234 -0.9914 -0.2404 -1.4386
 5692SOL     OW28708   4.485   4.098   5.543  0.2747 -0.0279  0.2224
 5692SOL    HW128709   4.476   4.051   5.461  0.0661 -1.8239  1.2832
 5692SOL    HW228710   4.538   4.172   5.513  0.5904 -0.3312  0.0303
 5693SOL     OW28711   3.802   4.025  10.865 -0.2420 -0.3430  0.0373
 5693SOL    HW128712   3.824   4.116  10.887  0.5823 -0.6022  0.2922
 5693SOL    HW228713   3.870   3.979  10.915 -0.0653  1.2014  1.2348
 5694SOL     OW28714   4.191   4.179   2.345  0.3803  0.2317 -0.5695
 5694SOL    HW128715   4.211   4.168   2.252  0.1784 -1.3914 -0.4115
 5694SOL    HW228716   4.269   4.151   2.393  0.0159 -1.4378 -0.9830
 5695SOL     OW28717   3.467   4.270   3.074 -0.2251  0.0886 -0.3665
 5695SOL    HW128718   3.470   4.316   3.158 -2.8621 -0.2650 -0.0749
 5695SOL    HW228719   3.557   4.268   3.043  0.5702 -0.7821  1.9711
 5696SOL     OW28720   4.074   4.058   7.126 -0.5767  0.4915  0.2262
 5696SOL    HW128721   4.116   3.977   7.154  1.1289  1.6444  0.9610
 5696SOL    HW228722   4.089   4.056   7.032  0.3999 -0.5388  0.4088
 5697SOL     OW28723   0.324   0.424   3.486 -0.2946 -0.2383  0.1905
 5697SOL    HW128724   0.347   0.465   3.569  0.7299 -0.1162 -0.1528
 5697SOL    HW228725   0.310   0.507   3.442  0.6303 -0.2677 -0.1583
 5698SOL     OW28726   2.677   0.874   4.079 -0.2828  0.0786  0.2824
 5698SOL    HW128727   2.752   0.844   4.131 -1.3395 -0.5315  1.4347
 5698SOL    HW228728   2.616   0.802   4.096 -0.1186 -0.3689 -1.0348
 5699SOL     OW28729   1.661   0.363   4.036 -0.1313  0.0676  0.1555
 5699SOL    HW128730   1.728   0.368   3.968 -2.1813  0.4384 -1.8561
 5699SOL    HW228731   1.708   0.377   4.118 -0.4045 -0.1312  0.3472
 5700SOL     OW28732   4.594   0.413   5.690 -0.2657  0.4198 -0.1042
 5700SOL    HW128733   4.551   0.476   5.747  0.5119  0.4624  0.4321
 5700SOL    HW228734   4.545   0.419   5.608  0.9698  0.3264 -0.8459
 5701SOL     OW28735   1.082   0.198  12.786  0.1878  0.3182  0.2039
 5701SOL    HW128736   1.175   0.207  12.806  0.7128 -0.3762 -1.9743
 5701SOL    HW228737   1.040   0.208  12.872  0.8573 -0.9292  0.6784
 5702SOL     OW28738   0.198   0.721   6.530 -0.0051 -0.0581 -0.1725
 5702SOL    HW128739   0.223   0.806   6.494  1.1911  0.0184  0.8543
 5702SOL    HW228740   0.105   0.715   6.510 -0.0821  0.5970 -0.0014
 5703SOL     OW28741   4.464   0.088  12.922 -0.3548 -0.0697  0.0774
 5703SOL    HW128742   4.403   0.140  12.871  0.8756  1.8953  0.6135
 5703SOL    HW228743   4.486   0.025  12.853  1.3214 -0.0519  0.5887
 5704SOL     OW28744   3.755   1.692   2.650 -0.1417  0.2912 -0.0828
 5704SOL    HW128745   3.677   1.734   2.687 -1.1586  1.1356 -3.2260
 5704SOL    HW228746   3.800   1.664   2.730  1.8571  2.1773 -0.5308
 5705SOL     OW28747   1.382   0.405   1.331  0.6535  1.1497 -0.5083
 5705SOL    HW128748   1.336   0.471   1.382  1.5727  1.9935 -0.7852
 5705SOL    HW228749   1.368   0.327   1.385  0.1315  1.0567 -0.7744
 5706SOL     OW28750   3.731   0.252   5.769  0.2743 -0.1897 -0.1293
 5706SOL    HW128751   3.766   0.336   5.798 -0.0014  0.0594 -0.5223
 5706SOL    HW228752   3.764   0.252   5.679  2.0739 -2.6605  0.5330
 5707SOL     OW28753   1.698   1.076  12.350 -0.3308 -0.0634  0.6565
 5707SOL    HW128754   1.693   1.163  12.310 -3.6297 -0.5748 -0.0258
 5707SOL    HW228755   1.786   1.091  12.385  0.6421 -2.1231 -0.9322
 5708SOL     OW28756   0.593   1.557   4.082  0.1032  0.3827 -0.0829
 5708SOL    HW128757   0.521   1.502   4.111 -1.2838  2.7250  0.9047
 5708SOL    HW228758   0.614   1.506   4.004 -1.3904 -0.1673 -0.1160
 5709SOL     OW28759   1.581   2.706   9.703  0.1926  0.1727 -0.3169
 5709SOL    HW128760   1.536   2.738   9.625 -0.7819  1.6242  0.8436
 5709SOL    HW228761   1.552   2.763   9.774 -0.7304 -0.4849 -0.1798
 5710SOL     OW28762   3.990   1.150   6.743  0.4595 -0.1911  0.0902
 5710SOL    HW128763   3.930   1.201   6.689 -0.3063  1.1767  2.1975
 5710SOL    HW228764   3.947   1.069   6.771 -2.2310  0.8099 -1.1973
 5711SOL     OW28765   2.096   3.010   6.389  0.1697  0.0466 -0.6907
 5711SOL    HW128766   2.146   2.931   6.366 -0.8070 -0.0018 -2.7168
 5711SOL    HW228767   2.147   3.091   6.382  1.0218 -0.3699  0.8351
 5712SOL     OW28768   1.216   1.573   8.424 -0.3932 -0.2476  0.5960
 5712SOL    HW128769   1.213   1.568   8.520 -1.1978 -0.4583  0.5606
 5712SOL    HW228770   1.309   1.583   8.407 -0.4121  1.1996  1.3723
 5713SOL     OW28771   4.559   0.456   2.290 -0.1191  0.9105  0.1978
 5713SOL    HW128772   4.550   0.549   2.312  0.4600  1.2662 -1.0391
 5713SOL    HW228773   4.485   0.435   2.233  0.6565 -2.2678  0.3605
 5714SOL     OW28774   2.476   4.031   3.270 -0.2687 -0.5355 -0.1668
 5714SOL    HW128775   2.500   4.100   3.331  1.0592 -0.5389 -0.6772
 5714SOL    HW228776   2.423   4.079   3.206  1.1674  2.4140  0.8697
 5715SOL     OW28777   3.022   1.674   4.938 -0.0481 -0.2041 -0.0429
 5715SOL    HW128778   3.038   1.581   4.921 -1.0207 -0.4941  0.5968
 5715SOL    HW228779   3.034   1.675   5.033 -2.0436 -1.5636  0.2250
 5716SOL     OW28780   1.712   1.446  16.168  0.2809 -0.5298 -0.4482
 5716SOL    HW128781   1.631   1.495  16.155  0.4841 -0.3796 -1.1334
 5716SOL    HW228782   1.741   1.494  16.246  0.6512 -1.2610 -0.1406
 5717SOL     OW28783   4.599   4.583   5.589  0.8408 -0.2627 -0.6160
 5717SOL    HW128784   4.565   4.669   5.616  1.1047 -0.8859  1.6704
 5717SOL    HW228785   4.675   4.612   5.539 -0.0060  0.9526 -1.2153
 5718SOL     OW28786   3.020   2.348   5.985 -1.1790  0.8712  0.8107
 5718SOL    HW128787   2.953   2.292   6.025 -1.7414 -0.6365 -2.2694
 5718SOL    HW228788   3.092   2.289   6.009 -1.7404 -0.5471 -1.0425
 5719SOL     OW28789   2.214   0.763   1.646 -0.2035 -0.0548 -0.1690
 5719SOL    HW128790   2.288   0.703   1.636  1.2846  1.8209 -0.4081
 5719SOL    HW228791   2.223   0.814   1.565 -1.6929 -2.8392 -2.1041
 5720SOL     OW28792   4.659   2.286   0.508  0.3543  0.0970  0.4548
 5720SOL    HW128793   4.690   2.357   0.563  1.5898 -0.3894  0.4102
 5720SOL    HW228794   4.702   2.306   0.424  1.6375  0.6929  1.2526
 5721SOL     OW28795   4.112   1.506   2.885 -0.4683  0.5120 -0.3810
 5721SOL    HW128796   4.043   1.570   2.871 -0.4501  0.5525 -0.2874
 5721SOL    HW228797   4.170   1.563   2.936  1.8987 -2.6899  0.5311
 5722SOL     OW28798   2.515   0.716   7.308  0.3063  0.5891 -0.0041
 5722SOL    HW128799   2.602   0.750   7.330  2.0095 -1.9541 -2.6951
 5722SOL    HW228800   2.461   0.788   7.276 -1.5009 -0.0215  1.7037
 5723SOL     OW28801   1.296   3.986   3.293  0.2802 -0.0855 -0.2108
 5723SOL    HW128802   1.385   3.980   3.327  0.9473  1.5049 -1.7126
 5723SOL    HW228803   1.299   4.070   3.246 -1.5794  0.6225  0.9338
 5724SOL     OW28804   3.930   4.125   7.752  0.1160  0.4152 -0.2203
 5724SOL    HW128805   3.899   4.183   7.821 -1.5366  0.9438 -1.4280
 5724SOL    HW228806   3.995   4.184   7.713  0.0562 -0.3417 -1.4412
 5725SOL     OW28807   3.824   2.499   6.043 -0.6659  0.3663  0.1628
 5725SOL    HW128808   3.852   2.537   6.126 -2.2437 -0.3719  1.0392
 5725SOL    HW228809   3.879   2.554   5.989 -3.4614  3.2208  0.2469
 5726SOL     OW28810   0.566   2.884   0.479 -0.0329  0.0717 -0.2476
 5726SOL    HW128811   0.476   2.889   0.512  0.9089 -1.2131  2.5137
 5726SOL    HW228812   0.543   2.913   0.391  0.1544  2.0849  0.3470
 5727SOL     OW28813   2.911   0.223  10.118 -0.4437  0.3056  0.0965
 5727SOL    HW128814   2.875   0.223  10.029 -1.3084 -2.2731  0.4241
 5727SOL    HW228815   2.836   0.253  10.169 -0.9398 -0.9916  0.1302
 5728SOL     OW28816   0.561   0.945   4.992 -0.0578  0.0947 -0.5551
 5728SOL    HW128817   0.550   0.977   5.081  0.8977 -1.7077  0.2223
 5728SOL    HW228818   0.593   1.023   4.946 -1.4610  0.4668 -0.9016
 5729SOL     OW28819   0.166   2.115   8.671 -0.1154 -0.3839 -0.6459
 5729SOL    HW128820   0.087   2.061   8.676 -0.2092 -0.1955 -0.0705
 5729SOL    HW228821   0.237   2.053   8.656 -1.0041 -1.7529  0.6652
 5730SOL     OW28822   2.921   1.715   3.300  0.5898  0.5280 -0.1176
 5730SOL    HW128823   2.843   1.743   3.252  0.4297  0.6024  0.1913
 5730SOL    HW228824   2.987   1.775   3.265  0.0230  0.5023 -1.2284
 5731SOL     OW28825   0.704   4.241  10.189 -0.0462  0.6496 -0.2436
 5731SOL    HW128826   0.706   4.202  10.102 -1.4766  0.2335 -0.0927
 5731SOL    HW228827   0.777   4.303  10.180  0.1890  0.2791 -0.8735
 5732SOL     OW28828   0.052   0.245   4.008 -0.5620 -0.5634  0.3374
 5732SOL    HW128829   0.038   0.340   4.016  1.0610 -0.2530 -0.4530
 5732SOL    HW228830   0.137   0.248   3.964  0.6976  0.2837  2.8191
 5733SOL     OW28831   1.791   2.577   7.474 -0.4390 -0.1598  0.1865
 5733SOL    HW128832   1.702   2.592   7.505 -0.8245 -0.6681 -0.6773
 5733SOL    HW228833   1.797   2.636   7.399  3.0556 -1.5431 -0.6313
 5734SOL     OW28834   2.993   2.181   9.225  0.0084  0.2380 -0.2460
 5734SOL    HW128835   2.920   2.124   9.200  0.3431 -1.0273  1.6379
 5734SOL    HW228836   3.006   2.225   9.142  1.4906  1.0375  0.4168
 5735SOL     OW28837   2.602   2.256   8.665  0.1598 -0.3765  0.4586
 5735SOL    HW128838   2.534   2.295   8.611 -0.5928 -1.9533  0.2669
 5735SOL    HW228839   2.590   2.316   8.739 -0.2774 -2.8525  2.3780
 5736SOL     OW28840   1.889   3.491  16.515 -0.1943  0.2873 -0.2323
 5736SOL    HW128841   1.819   3.538  16.469 -2.8428 -0.6609  2.8438
 5736SOL    HW228842   1.842   3.418  16.556  0.5443  0.6570  1.2577
 5737SOL     OW28843   3.608   0.931   6.765  0.0686  0.5858  0.3254
 5737SOL    HW128844   3.548   1.005   6.772  0.8928  1.5221 -2.2233
 5737SOL    HW228845   3.555   0.866   6.811  1.4400 -0.5813  0.2592
 5738SOL     OW28846   1.109   1.112  16.805 -0.0321  0.7294  0.0361
 5738SOL    HW128847   1.068   1.029  16.830  1.2421 -0.7135 -2.6174
 5738SOL    HW228848   1.190   1.086  16.762 -0.4080  0.5313 -0.5662
 5739SOL     OW28849   0.283   3.867  10.868 -0.5104 -0.1243 -0.6557
 5739SOL    HW128850   0.240   3.925  10.930  1.8376 -0.1151  0.9506
 5739SOL    HW228851   0.304   3.796  10.929 -0.4851  0.5506  0.1117
 5740SOL     OW28852   4.444   2.640   4.933 -0.0215 -0.7294 -0.2873
 5740SOL    HW128853   4.416   2.570   4.993  1.4671  0.9499  2.3856
 5740SOL    HW228854   4.472   2.705   4.997  0.6589 -2.4197  1.1400
 5741SOL     OW28855   3.944   0.939   1.125 -0.0482  0.1774  0.1372
 5741SOL    HW128856   3.868   0.996   1.113 -1.0081 -0.9495  0.8823
 5741SOL    HW228857   3.902   0.854   1.135 -2.0364  1.0943 -0.5698
 5742SOL     OW28858   1.636   4.288   6.135 -0.2416 -0.1785 -0.0929
 5742SOL    HW128859   1.656   4.310   6.044  0.8334  1.3069  0.4937
 5742SOL    HW228860   1.541   4.296   6.135 -0.3370 -1.3528 -0.5371
 5743SOL     OW28861   2.067   3.205   3.804  0.0456  0.4321 -0.2557
 5743SOL    HW128862   2.151   3.180   3.763 -1.1972 -2.8284 -0.8483
 5743SOL    HW228863   2.011   3.148   3.750  2.1814 -0.7033 -1.3041
 5744SOL     OW28864   4.540   1.091   7.416  0.1438  0.7850 -0.3890
 5744SOL    HW128865   4.605   1.020   7.417  0.8383  1.3975 -1.9373
 5744SOL    HW228866   4.516   1.099   7.324 -0.8900 -0.2163 -0.1963
 5745SOL     OW28867   4.537   0.464   1.901 -0.3660  0.7878 -0.0610
 5745SOL    HW128868   4.488   0.507   1.970 -0.9624  0.1883 -0.1096
 5745SOL    HW228869   4.531   0.374   1.935 -0.1148  1.1182  0.8442
 5746SOL     OW28870   0.187   2.881   4.300  0.2751 -0.3840 -0.4210
 5746SOL    HW128871   0.190   2.789   4.276  1.2592 -0.1125 -1.3436
 5746SOL    HW228872   0.148   2.919   4.221  0.3186  0.1966 -0.1629
 5747SOL     OW28873   3.042   4.619   8.036  0.7386  0.0540  0.3451
 5747SOL    HW128874   3.134   4.626   8.061  0.7676  1.3018 -0.1215
 5747SOL    HW228875   3.053   4.545   7.977 -1.7599 -1.3127  1.6084
 5748SOL     OW28876   0.307   1.924  15.225  0.1991  0.5761 -0.1558
 5748SOL    HW128877   0.303   1.952  15.317  2.2590 -0.4068  0.2143
 5748SOL    HW228878   0.306   1.829  15.225  0.7936  0.5713 -1.5384
 5749SOL     OW28879   0.030   1.643  11.047  0.1271 -0.0991 -0.0740
 5749SOL    HW128880   0.022   1.728  11.004 -2.5405 -0.0769  0.4539
 5749SOL    HW228881   4.680   1.629  11.078  0.5148  0.6327  1.3918
 5750SOL     OW28882   1.039   1.839  17.378 -0.2096  0.5290 -0.3235
 5750SOL    HW128883   1.068   1.844  17.287 -0.4741 -0.1072 -0.4393
 5750SOL    HW228884   1.073   1.925  17.405  2.4690 -1.1553  1.7069
 5751SOL     OW28885   2.757   1.318   2.843  0.2970 -0.1220 -0.5403
 5751SOL    HW128886   2.765   1.327   2.938 -0.9021 -3.4722 -0.1278
 5751SOL    HW228887   2.665   1.309   2.818  0.0055 -0.2098  0.5597
 5752SOL     OW28888   2.380   0.212   8.173 -0.1425  0.3298 -0.0151
 5752SOL    HW128889   2.444   0.278   8.200 -1.5926  0.9620  1.9131
 5752SOL    HW228890   2.420   0.152   8.111  1.2875  1.9592 -0.6668
 5753SOL     OW28891   4.360   2.401   1.422 -0.3904  0.4243  0.4402
 5753SOL    HW128892   4.435   2.449   1.386  0.9047 -0.8351  1.4361
 5753SOL    HW228893   4.407   2.360   1.495  0.1566  0.3313  0.0335
 5754SOL     OW28894   2.020   1.308   2.976 -0.2860 -0.7947  0.7149
 5754SOL    HW128895   1.958   1.252   3.022 -1.2211  0.1813  0.6529
 5754SOL    HW228896   2.066   1.247   2.919  0.8939 -2.1374  3.1241
 5755SOL     OW28897   1.740   0.087   2.981  0.1672  0.1108  0.2706
 5755SOL    HW128898   1.792   0.035   3.042  0.8252  0.2619 -0.1687
 5755SOL    HW228899   1.658   0.100   3.029  0.6378 -0.5367  1.2350
 5756SOL     OW28900   2.172   4.367  12.984 -0.1984  0.8906 -0.1836
 5756SOL    HW128901   2.263   4.386  13.006  0.0971  1.3499 -1.8841
 5756SOL    HW228902   2.193   4.356  12.892 -1.3522 -1.0993 -0.2209
 5757SOL     OW28903   2.315   1.328   4.135  0.1683 -0.2410 -0.7715
 5757SOL    HW128904   2.390   1.269   4.132  2.2412  2.4348 -1.4652
 5757SOL    HW228905   2.268   1.301   4.057  0.8586  0.1023 -1.3063
 5758SOL     OW28906   1.132   1.542   6.521 -0.1947 -0.4160  0.0136
 5758SOL    HW128907   1.117   1.636   6.512  0.3123 -0.0263  3.2373
 5758SOL    HW228908   1.161   1.547   6.612 -0.8995 -0.1662  0.2243
 5759SOL     OW28909   2.538   0.586   1.944  0.1785 -0.4240 -0.0803
 5759SOL    HW128910   2.583   0.665   1.974  1.9210 -0.7314 -1.8750
 5759SOL    HW228911   2.609   0.527   1.970 -0.9592 -2.0203 -0.6328
 5760SOL     OW28912   2.013   0.791   2.818 -0.1515 -0.2673  0.0379
 5760SOL    HW128913   2.106   0.782   2.797 -0.1351 -0.5991  0.2572
 5760SOL    HW228914   1.997   0.886   2.814  0.6190 -0.1226  0.3403
 5761SOL     OW28915   0.396   2.209   3.064  0.0291 -0.3963 -0.0455
 5761SOL    HW128916   0.481   2.169   3.085 -0.6822 -1.8947 -0.0438
 5761SOL    HW228917   0.427   2.300   3.076 -0.3502 -0.1056 -1.3722
 5762SOL     OW28918   1.772   3.884   5.743 -0.1242 -0.1986  0.3015
 5762SOL    HW128919   1.805   3.874   5.654  0.7514  1.6565  0.4247
 5762SOL    HW228920   1.678   3.875   5.727 -0.5408  2.5466  1.0766
 5763SOL     OW28921   2.977   1.256   1.611 -0.2944 -0.0783  0.0798
 5763SOL    HW128922   2.965   1.175   1.660 -1.9798 -0.1383 -0.4216
 5763SOL    HW228923   3.017   1.304   1.684 -1.5847  0.0659  0.6924
 5764SOL     OW28924   3.591   3.174   5.152  0.4290 -0.0726 -0.0259
 5764SOL    HW128925   3.648   3.105   5.188 -0.7695 -1.2085 -0.3055
 5764SOL    HW228926   3.601   3.251   5.207  0.0024 -1.2962  1.7731
 5765SOL     OW28927   1.850   1.188   2.474  0.3761  0.6206 -0.0448
 5765SOL    HW128928   1.905   1.243   2.529  0.4621 -2.2609  2.7048
 5765SOL    HW228929   1.899   1.179   2.392  1.3694 -0.3487  0.6509
 5766SOL     OW28930   2.115   0.590   4.290  0.4698 -0.0203  0.3021
 5766SOL    HW128931   2.132   0.665   4.233  0.5162 -0.6964 -0.5682
 5766SOL    HW228932   2.200   0.600   4.333  0.6192  0.0277 -0.0020
 5767SOL     OW28933   0.710   2.106   1.519 -0.4391 -0.2788  0.3419
 5767SOL    HW128934   0.796   2.089   1.557 -0.5507  0.2637  0.8418
 5767SOL    HW228935   0.667   2.144   1.596  0.8448  0.0147  0.9154
 5768SOL     OW28936   3.898   1.057   8.768  0.2972  0.6403  0.3183
 5768SOL    HW128937   3.865   1.141   8.801 -0.3462  0.0380  1.2268
 5768SOL    HW228938   3.990   1.073   8.786  0.7971 -1.6231 -0.1991
 5769SOL     OW28939   2.243   4.603   4.217  0.1400 -0.3837 -0.2680
 5769SOL    HW128940   2.161   4.556   4.233 -0.1949  0.7506  1.4063
 5769SOL    HW228941   2.220   4.666   4.148  0.9700  0.4373  0.2055
 5770SOL     OW28942   2.831   3.434   6.907  0.2875  0.7752  0.0063
 5770SOL    HW128943   2.871   3.372   6.968 -0.1580 -2.2025 -2.7435
 5770SOL    HW228944   2.866   3.517   6.941  0.8693  0.6251 -0.2407
 5771SOL     OW28945   4.216   1.401   0.326  0.3296 -0.2384  0.3098
 5771SOL    HW128946   4.149   1.356   0.378 -0.8081  1.2838  0.1578
 5771SOL    HW228947   4.295   1.387   0.379 -0.8725 -0.0292  2.1352
 5772SOL     OW28948   2.340   3.694   3.603 -0.3261 -0.2108  0.0954
 5772SOL    HW128949   2.336   3.730   3.514 -1.1103  2.2942  1.1337
 5772SOL    HW228950   2.270   3.742   3.648 -0.0711  1.6944 -1.5205
 5773SOL     OW28951   0.827   3.825  15.018  0.1845  0.2264 -0.0417
 5773SOL    HW128952   0.797   3.885  14.950 -1.3888  0.9533  1.2778
 5773SOL    HW228953   0.776   3.748  14.992  0.3432  0.4945 -1.1194
 5774SOL     OW28954   2.519   0.583  11.922  0.7489  0.2746  0.0961
 5774SOL    HW128955   2.598   0.636  11.908  0.2746  1.0717  0.4240
 5774SOL    HW228956   2.452   0.643  11.956 -1.2307 -1.0057 -1.5554
 5775SOL     OW28957   2.045   0.118  14.314  0.2688 -0.4991  0.2485
 5775SOL    HW128958   2.116   0.107  14.378 -1.8396  0.9271  2.8479
 5775SOL    HW228959   2.026   0.211  14.321 -1.2748 -0.9824  2.6955
 5776SOL     OW28960   1.416   2.770   5.373 -0.3416 -0.3680  0.5435
 5776SOL    HW128961   1.349   2.760   5.305  0.3555 -3.3733  0.3099
 5776SOL    HW228962   1.476   2.828   5.326  0.9566 -1.6867  0.5921
 5777SOL     OW28963   1.490   2.961   1.342  0.6312  0.4426 -0.0027
 5777SOL    HW128964   1.513   3.048   1.374  0.9652  0.4335 -0.2061
 5777SOL    HW228965   1.580   2.929   1.332  0.7834  0.2753  1.8297
 5778SOL     OW28966   1.079   2.008  15.892  0.0486  0.0101  0.5770
 5778SOL    HW128967   1.163   1.989  15.933  0.7269 -1.9317 -1.7308
 5778SOL    HW228968   1.084   1.963  15.807 -2.0161  0.6163  0.1319
 5779SOL     OW28969   3.296   1.721  15.903  0.6276  0.1001  0.6543
 5779SOL    HW128970   3.233   1.670  15.852  2.4186 -0.9884 -0.4615
 5779SOL    HW228971   3.280   1.694  15.993  0.4284  1.6460  1.0734
 5780SOL     OW28972   0.214   3.309   4.211  0.5692 -0.3645  0.0042
 5780SOL    HW128973   0.281   3.241   4.216  1.0878  0.2813  1.8048
 5780SOL    HW228974   0.160   3.301   4.290 -0.3453 -0.9192 -0.6807
 5781SOL     OW28975   2.965   2.149   3.218 -0.0931  0.1801 -0.3865
 5781SOL    HW128976   2.876   2.163   3.252 -0.0790  1.2697 -0.7846
 5781SOL    HW228977   2.963   2.168   3.125  0.0260 -0.9555 -0.6193
 5782SOL     OW28978   0.613   2.953  14.915  0.5985 -0.6739 -0.0730
 5782SOL    HW128979   0.570   3.036  14.936  1.3981  0.0734 -1.3899
 5782SOL    HW228980   0.539   2.903  14.949 -0.2881  1.9083  1.8813
 5783SOL     OW28981   0.353   0.465   9.145  0.1454 -1.4055  0.8928
 5783SOL    HW128982   0.398   0.521   9.208  0.2089  1.5617 -1.8020
 5783SOL    HW228983   0.269   0.509   9.142 -0.5604 -2.7174  1.3558
 5784SOL     OW28984   2.803   2.267   4.838  0.2075 -0.3700  0.1913
 5784SOL    HW128985   2.845   2.182   4.850  2.3901  0.7572  0.6090
 5784SOL    HW228986   2.714   2.233   4.824  0.0996  0.3185 -0.7898
 5785SOL     OW28987   1.358   1.337   4.772  0.1554 -0.2740  0.1013
 5785SOL    HW128988   1.355   1.261   4.830 -0.7384 -0.5980 -0.3673
 5785SOL    HW228989   1.361   1.408   4.836 -0.3224  0.8344 -1.0845
 5786SOL     OW28990   0.640   1.859   5.873 -0.5380 -0.4045 -0.0794
 5786SOL    HW128991   0.564   1.800   5.872 -0.6627 -0.2909  1.7465
 5786SOL    HW228992   0.603   1.943   5.847  0.9333  0.5917  1.0606
 5787SOL     OW28993   2.599   2.692  16.945  0.3535 -0.2977  0.0442
 5787SOL    HW128994   2.557   2.613  16.910  0.2167  0.1596 -0.8239
 5787SOL    HW228995   2.533   2.723  17.007 -0.1870 -0.0398 -0.6659
 5788SOL     OW28996   0.839   1.332   6.802  0.3888 -0.0682 -0.0468
 5788SOL    HW128997   0.907   1.276   6.840  0.4113 -1.0859 -1.6266
 5788SOL    HW228998   0.870   1.337   6.712  0.4373 -0.9868 -0.0806
 5789SOL     OW28999   0.665   4.231   5.907 -0.2058  0.2799  0.2882
 5789SOL    HW129000   0.746   4.180   5.906  1.2858  2.7327 -3.7838
 5789SOL    HW229001   0.698   4.300   5.849 -0.7232 -1.2405 -1.7930
 5790SOL     OW29002   1.331   3.343   4.175  0.2752  0.0627  0.5412
 5790SOL    HW129003   1.312   3.268   4.118  0.2424  0.4248  0.0816
 5790SOL    HW229004   1.285   3.323   4.257  1.1924 -1.1006  0.7733
 5791SOL     OW29005   1.887   2.518   6.180  0.4379  0.1611  0.3812
 5791SOL    HW129006   1.891   2.475   6.095 -2.2784  0.6447  0.0114
 5791SOL    HW229007   1.798   2.501   6.212 -0.6071 -0.0626 -2.6983
 5792SOL     OW29008   3.169   0.496   4.524 -0.2837 -0.2753 -0.2064
 5792SOL    HW129009   3.187   0.517   4.615 -3.0044  0.4383  0.1834
 5792SOL    HW229010   3.245   0.539   4.485 -0.0557  0.0208  0.5649
 5793SOL     OW29011   1.240   2.428   5.401  0.4892  0.6352 -0.0680
 5793SOL    HW129012   1.164   2.457   5.451  0.3432 -1.6577  1.0604
 5793SOL    HW229013   1.251   2.347   5.453 -0.9255  1.0061  0.8220
 5794SOL     OW29014   0.498   4.700   6.587 -0.1701 -0.1857 -0.6399
 5794SOL    HW129015   0.532   4.688   6.499  1.8278 -0.5801  0.1930
 5794SOL    HW229016   0.515   4.612   6.621 -1.0192  0.0503  0.4199
 5795SOL     OW29017   3.474   1.212   7.776  0.2482  0.0324  0.1960
 5795SOL    HW129018   3.506   1.161   7.851  1.4449 -1.0189 -1.0268
 5795SOL    HW229019   3.537   1.182   7.710 -0.6000 -0.3417 -0.4568
 5796SOL     OW29020   0.617   0.080   5.086 -0.1247  0.5130 -0.1444
 5796SOL    HW129021   0.672   0.137   5.033  0.9354 -0.7888 -0.4433
 5796SOL    HW229022   0.577   0.149   5.140 -0.8154 -0.4138  0.5208
 5797SOL     OW29023   1.784   2.208  16.512  0.8531  0.2974  0.3026
 5797SOL    HW129024   1.866   2.183  16.469  1.1177  0.8392  0.4839
 5797SOL    HW229025   1.800   2.188  16.604 -0.6381 -0.1938  0.4386
 5798SOL     OW29026   1.925   3.299   9.352 -0.5111 -0.4265 -0.4069
 5798SOL    HW129027   1.837   3.338   9.348 -0.2916  0.1392  0.2958
 5798SOL    HW229028   1.914   3.226   9.291 -1.1488 -1.2176  0.6508
 5799SOL     OW29029   3.416   2.762  14.477  0.3154 -0.1121  0.7657
 5799SOL    HW129030   3.490   2.807  14.517 -0.2650 -1.7247  3.6637
 5799SOL    HW229031   3.469   2.706  14.420  1.6369  0.2952  1.6061
 5800SOL     OW29032   1.477   3.779   2.824  0.0915 -0.2691  0.5211
 5800SOL    HW129033   1.383   3.795   2.814 -0.1336 -1.8917  0.0611
 5800SOL    HW229034   1.507   3.854   2.772 -0.3412 -0.6037 -0.2182
 5801SOL     OW29035   2.074   2.371   3.265 -0.5043  0.4970  0.7139
 5801SOL    HW129036   2.024   2.295   3.293 -0.6642  0.4750  0.3803
 5801SOL    HW229037   2.001   2.434   3.272 -0.0506  1.1019  0.0283
 5802SOL     OW29038   2.803   2.384   8.938 -0.0981  0.1650  1.0177
 5802SOL    HW129039   2.808   2.426   9.023 -0.3508 -0.7715  1.4971
 5802SOL    HW229040   2.721   2.426   8.911  0.9026  1.0887 -0.6110
 5803SOL     OW29041   0.053   3.072   0.697 -0.0668  0.1665 -0.1835
 5803SOL    HW129042   0.008   3.068   0.612  0.1623 -2.2192 -0.1771
 5803SOL    HW229043   0.066   3.165   0.714 -2.1618  0.2396  1.0065
 5804SOL     OW29044   0.998   0.614  15.705 -0.3340 -0.0138 -0.4270
 5804SOL    HW129045   0.948   0.695  15.704  1.3904  1.0831  1.3832
 5804SOL    HW229046   1.086   0.651  15.695  0.4446 -1.1423  2.0658
 5805SOL     OW29047   1.846   4.251  17.333  0.5825  0.5516  0.2938
 5805SOL    HW129048   1.831   4.333  17.380 -1.2947 -0.2993  1.1849
 5805SOL    HW229049   1.925   4.222  17.379 -0.2595  0.4695  1.6825
 5806SOL     OW29050   3.542   0.604   5.942  0.4336  0.0026  0.4782
 5806SOL    HW129051   3.490   0.645   6.011  1.3697 -1.5206  2.1106
 5806SOL    HW229052   3.485   0.527   5.938  0.9880 -0.4348  0.9422
 5807SOL     OW29053   3.604   3.972   8.223  0.8156 -0.5577 -0.3135
 5807SOL    HW129054   3.512   3.947   8.223 -0.3128  3.6270  1.4898
 5807SOL    HW229055   3.614   4.015   8.308  1.3004 -1.2425 -0.0201
 5808SOL     OW29056   0.946   0.315   4.739 -0.0979  0.6812 -0.7774
 5808SOL    HW129057   0.907   0.300   4.825 -1.6161  0.1764 -1.5449
 5808SOL    HW229058   1.008   0.386   4.753  0.4216 -0.0438  0.5403
 5809SOL     OW29059   3.249   2.364   8.928 -0.0882  0.7541 -0.3932
 5809SOL    HW129060   3.270   2.376   9.021 -1.7351  0.0460  0.0724
 5809SOL    HW229061   3.317   2.304   8.896 -0.0885  0.3184  0.4010
 5810SOL     OW29062   1.457   3.806  13.358 -0.2477 -0.2913 -0.7020
 5810SOL    HW129063   1.386   3.856  13.399 -0.4128  0.9079 -2.4421
 5810SOL    HW229064   1.421   3.724  13.326 -0.6780  0.4617 -2.1535
 5811SOL     OW29065   0.211   4.122   6.093 -0.4850 -0.5149  0.3185
 5811SOL    HW129066   0.192   4.053   6.029 -1.3061  0.7046 -0.7644
 5811SOL    HW229067   0.294   4.154   6.058 -1.6918  2.6220  0.3215
 5812SOL     OW29068   0.052   0.101   2.527  0.5228 -0.1434 -0.5114
 5812SOL    HW129069   0.095   0.050   2.458 -0.3704 -2.4381  0.6446
 5812SOL    HW229070   4.727   0.147   2.472  0.1585  0.4242  0.3826
 5813SOL     OW29071   4.240   1.552   5.906  0.1202  0.8594 -0.0457
 5813SOL    HW129072   4.329   1.528   5.933 -0.6229 -1.6512  0.1697
 5813SOL    HW229073   4.269   1.626   5.852 -4.3472  1.1356 -2.0085
 5814SOL     OW29074   4.260   3.391   1.240  0.0307 -0.0450  0.2468
 5814SOL    HW129075   4.166   3.402   1.234 -0.3898 -3.7756  0.3268
 5814SOL    HW229076   4.267   3.431   1.327  1.4553 -0.1661  0.1894
 5815SOL     OW29077   0.352   1.805   6.102  0.4110 -0.2347  0.4797
 5815SOL    HW129078   0.357   1.783   6.009  0.4918  1.5571  0.0619
 5815SOL    HW229079   0.441   1.787   6.135  0.6817  0.0735 -0.0858
 5816SOL     OW29080   3.935   1.515   9.261 -0.0439  0.2935 -0.0127
 5816SOL    HW129081   4.015   1.564   9.284 -1.0246  1.9551 -0.1272
 5816SOL    HW229082   3.871   1.587   9.263 -2.6167 -2.0904  3.6003
 5817SOL     OW29083   3.264   3.335   7.178 -0.5192  0.2487  0.5112
 5817SOL    HW129084   3.328   3.363   7.112 -0.5680  1.4239  0.9613
 5817SOL    HW229085   3.286   3.246   7.203 -0.4378 -0.0210 -0.4964
 5818SOL     OW29086   4.214   3.300   9.779 -0.6307  0.0705  0.0336
 5818SOL    HW129087   4.233   3.373   9.837 -0.1193  1.2631 -1.6299
 5818SOL    HW229088   4.235   3.336   9.693  1.8930 -3.6587 -0.9088
 5819SOL     OW29089   2.729   1.510   8.542 -0.0860 -0.1468 -0.4753
 5819SOL    HW129090   2.815   1.500   8.502  0.5508 -0.2411  0.9124
 5819SOL    HW229091   2.682   1.429   8.521 -0.9932  0.4565 -0.7651
 5820SOL     OW29092   4.683   3.699   5.282 -0.4169  0.2820  0.0783
 5820SOL    HW129093   0.027   3.735   5.315 -0.8387  1.5166 -0.2311
 5820SOL    HW229094   4.709   3.654   5.201 -1.0134 -0.9314  0.5556
 5821SOL     OW29095   0.514   3.589   5.384  0.5478  0.0226 -0.1607
 5821SOL    HW129096   0.587   3.548   5.430  1.1634  1.1993 -0.0999
 5821SOL    HW229097   0.550   3.563   5.300 -0.3698 -1.2336 -0.1752
 5822SOL     OW29098   1.828   2.386  15.972  0.6680  0.6640  0.0082
 5822SOL    HW129099   1.917   2.368  15.942  0.3929  0.1494 -0.4964
 5822SOL    HW229100   1.779   2.363  15.893  0.1139  1.1045  0.2262
 5823SOL     OW29101   0.817   2.204   8.210 -0.5409 -0.1744  0.0875
 5823SOL    HW129102   0.860   2.118   8.206  0.0145  0.0465  1.5532
 5823SOL    HW229103   0.743   2.197   8.150  0.3128 -0.7041 -0.8987
 5824SOL     OW29104   2.686   4.456   9.250  0.2248  0.4490 -0.2229
 5824SOL    HW129105   2.651   4.506   9.176  2.2674 -0.0095 -1.5115
 5824SOL    HW229106   2.644   4.502   9.323  0.7544  0.6655 -0.0565
 5825SOL     OW29107   0.489   1.841   7.459 -0.4856  0.2341  0.6963
 5825SOL    HW129108   0.414   1.792   7.493 -2.6330  2.2977 -1.0361
 5825SOL    HW229109   0.495   1.928   7.499 -0.1598  0.6359 -0.2339
 5826SOL     OW29110   3.951   0.321   8.441  0.1644  0.8189 -0.0531
 5826SOL    HW129111   4.013   0.251   8.419  0.3729  0.8003  0.5850
 5826SOL    HW229112   3.870   0.304   8.393  1.1480  1.1153 -1.8017
 5827SOL     OW29113   0.042   4.649   3.762 -0.0719 -0.0201 -0.1850
 5827SOL    HW129114   0.134   4.664   3.741  0.1199 -0.3741  0.3991
 5827SOL    HW229115   0.002   4.727   3.725 -0.8205 -0.8674 -1.1623
 5828SOL     OW29116   4.375   3.845   0.416  0.2880  0.1901 -0.3305
 5828SOL    HW129117   4.390   3.781   0.485  1.1561  0.7739  0.0220
 5828SOL    HW229118   4.459   3.836   0.371 -0.6264 -1.5149 -1.7013
 5829SOL     OW29119   2.960   1.489  11.934  0.3346  0.1442 -0.3124
 5829SOL    HW129120   3.006   1.456  12.011 -0.3448  1.2488  0.5588
 5829SOL    HW229121   2.884   1.530  11.975 -1.2755 -3.4102  0.2102
 5830SOL     OW29122   2.832   2.323   5.404  0.2296 -0.4933  0.0477
 5830SOL    HW129123   2.754   2.305   5.351  0.2610  2.2978 -0.9337
 5830SOL    HW229124   2.779   2.355   5.477 -1.5120  3.0707 -2.7817
 5831SOL     OW29125   2.681   3.062  14.824 -0.3842  0.0226  0.0963
 5831SOL    HW129126   2.678   3.109  14.740  0.9049  0.7178  0.4476
 5831SOL    HW229127   2.741   3.118  14.873 -0.7910 -0.3249  0.9923
 5832SOL     OW29128   4.187   1.019   6.252 -0.1027 -0.3626  0.0146
 5832SOL    HW129129   4.137   1.096   6.226  0.7933 -0.0260 -0.7256
 5832SOL    HW229130   4.148   1.001   6.337 -0.6964 -1.4120 -0.4727
 5833SOL     OW29131   1.319   3.555  14.792 -0.6092 -0.3394 -0.1889
 5833SOL    HW129132   1.334   3.551  14.697  1.1693 -0.9368  0.1183
 5833SOL    HW229133   1.287   3.645  14.800 -0.2046 -0.2593  0.4915
 5834SOL     OW29134   1.246   3.794  10.018 -0.3907 -0.0077 -0.0584
 5834SOL    HW129135   1.189   3.871  10.014  0.5782  0.6348 -1.6485
 5834SOL    HW229136   1.286   3.808  10.104  0.4641  0.4943 -0.5364
 5835SOL     OW29137   2.004   2.582  16.499 -0.0262 -0.6822 -0.4264
 5835SOL    HW129138   1.984   2.573  16.406  1.7397  0.3087 -0.9115
 5835SOL    HW229139   2.022   2.676  16.504  0.7731 -0.6309 -4.1340
 5836SOL     OW29140   2.509   3.299   0.146  0.3331  0.2666 -0.2907
 5836SOL    HW129141   2.551   3.384   0.158  1.4395 -0.5697  1.9079
 5836SOL    HW229142   2.420   3.319   0.174 -0.1980  0.4499 -2.1440
 5837SOL     OW29143   2.371   1.270  15.831 -0.1953  0.3285  0.2813
 5837SOL    HW129144   2.301   1.251  15.893 -0.4127 -0.5219 -0.2107
 5837SOL    HW229145   2.375   1.187  15.782  1.3895  1.1674 -1.0341
 5838SOL     OW29146   4.059   2.782   2.356  0.0163  0.4474 -0.1991
 5838SOL    HW129147   4.143   2.823   2.335  0.9557 -2.2137 -1.6277
 5838SOL    HW229148   4.057   2.751   2.446 -0.3910  2.3112  0.4307
 5839SOL     OW29149   3.401   0.545  10.744  0.0221  0.1824  0.9938
 5839SOL    HW129150   3.422   0.600  10.820 -2.0414  0.6843  1.1990
 5839SOL    HW229151   3.480   0.492  10.728  1.0533  2.5606 -1.6297
 5840SOL     OW29152   4.293   2.854   8.095  0.2194 -0.1884  0.0703
 5840SOL    HW129153   4.304   2.918   8.025 -1.1278  1.7726  1.6909
 5840SOL    HW229154   4.241   2.779   8.066  1.1277  0.0143 -2.0921
 5841SOL     OW29155   0.958   3.785   2.448  0.0200 -0.3540 -0.3239
 5841SOL    HW129156   1.000   3.870   2.433 -1.4559  0.9783  3.0066
 5841SOL    HW229157   1.019   3.724   2.407  1.3590  0.1686  0.8866
 5842SOL     OW29158   0.168   1.938   5.420  0.1724  0.4129  0.3082
 5842SOL    HW129159   0.203   1.920   5.507 -2.2071  1.3597  1.4489
 5842SOL    HW229160   0.244   1.943   5.362 -0.7503 -0.9283 -1.0288
 5843SOL     OW29161   2.666   2.255  16.869  0.1415 -0.1511  0.0867
 5843SOL    HW129162   2.677   2.201  16.790 -1.1556 -1.5790  0.8853
 5843SOL    HW229163   2.747   2.304  16.881  0.4233 -0.4916 -0.4048
 5844SOL     OW29164   3.230   1.899   5.939 -0.7990 -0.4528  0.1996
 5844SOL    HW129165   3.233   1.905   6.034 -1.7108 -0.5471  0.2387
 5844SOL    HW229166   3.320   1.896   5.906 -1.3901  0.9904 -1.5681
 5845SOL     OW29167   0.361   2.557  15.303  0.3259 -0.0537 -0.2497
 5845SOL    HW129168   0.441   2.534  15.256 -1.4003 -3.1342 -1.6571
 5845SOL    HW229169   0.315   2.603  15.232 -2.2211  0.6523  1.8631
 5846SOL     OW29170   3.804   0.628  11.207  0.2346 -0.2399 -0.2731
 5846SOL    HW129171   3.742   0.682  11.256 -0.6803 -1.7890  0.2595
 5846SOL    HW229172   3.774   0.624  11.116  0.3457 -1.1840 -0.2598
 5847SOL     OW29173   4.407   0.840   6.323  0.1928 -0.5014  0.5815
 5847SOL    HW129174   4.468   0.819   6.253 -0.8124 -0.8599 -0.1905
 5847SOL    HW229175   4.350   0.895   6.269 -0.4440  0.1780  1.9355
 5848SOL     OW29176   1.855   0.352   3.847 -0.4744 -0.2417 -0.0030
 5848SOL    HW129177   1.831   0.287   3.781  1.8794  0.5351 -1.6218
 5848SOL    HW229178   1.928   0.321   3.900  0.7454  1.1659 -0.8603
 5849SOL     OW29179   0.681   3.027   3.608  0.2246 -0.3655  0.2727
 5849SOL    HW129180   0.619   3.032   3.535  2.3586 -0.6274 -1.5605
 5849SOL    HW229181   0.682   3.120   3.632  0.3985 -1.3539  4.1345
 5850SOL     OW29182   2.025   2.326   9.374  0.0309  0.0824  0.8683
 5850SOL    HW129183   1.977   2.398   9.415 -0.6872 -0.4112  0.8929
 5850SOL    HW229184   2.112   2.364   9.384 -0.0020 -0.1303  1.9166
 5851SOL     OW29185   1.919   1.377   5.845  0.3048 -0.1458 -0.0816
 5851SOL    HW129186   1.865   1.335   5.778 -2.6384 -0.8664  2.8073
 5851SOL    HW229187   1.970   1.300   5.870 -0.8183 -0.5101  1.0468
 5852SOL     OW29188   0.127   1.714  11.408  0.3623  0.5092  0.0032
 5852SOL    HW129189   0.047   1.695  11.458 -0.9110  1.1324 -1.8110
 5852SOL    HW229190   0.141   1.635  11.356 -1.7752 -0.9476  1.6636
 5853SOL     OW29191   4.714   3.190  11.279 -0.0990  0.1717  0.2065
 5853SOL    HW129192   4.689   3.207  11.189  1.1661 -1.0107 -0.3714
 5853SOL    HW229193   4.696   3.096  11.284  2.0562 -0.2558  0.2580
 5854SOL     OW29194   2.859   1.117   2.545  0.0591 -0.1750 -0.0279
 5854SOL    HW129195   2.938   1.076   2.581  1.1426  0.5062 -1.6369
 5854SOL    HW229196   2.883   1.138   2.455 -0.1809 -1.8476 -0.4909
 5855SOL     OW29197   3.526   0.015   8.885 -0.1943  0.1756  0.4634
 5855SOL    HW129198   3.462   4.710   8.829  2.8017 -2.7011 -0.6498
 5855SOL    HW229199   3.517   4.707   8.968  1.0711 -1.2848 -0.2310
 5856SOL     OW29200   4.514   2.491   4.375  0.9456  0.0688  0.2444
 5856SOL    HW129201   4.503   2.484   4.470 -0.6229 -2.5322 -0.1350
 5856SOL    HW229202   4.434   2.448   4.343 -0.0443  1.2025  1.1796
 5857SOL     OW29203   1.306   0.917  16.095  0.6741 -0.8752  0.1600
 5857SOL    HW129204   1.241   0.947  16.159 -1.2836  0.3652 -2.4501
 5857SOL    HW229205   1.323   0.828  16.126 -1.9947 -1.7016 -0.7634
 5858SOL     OW29206   3.348   2.654  14.916  0.3783  0.4802 -0.5336
 5858SOL    HW129207   3.381   2.569  14.886  0.5045  0.7356 -1.1213
 5858SOL    HW229208   3.411   2.680  14.983  0.1256  2.5855 -1.1260
 5859SOL     OW29209   0.347   0.303   2.489  0.3972 -0.3258 -0.3514
 5859SOL    HW129210   0.292   0.284   2.565 -0.2772  0.2475 -0.6977
 5859SOL    HW229211   0.320   0.383   2.444  3.0895  0.1585 -1.1366
 5860SOL     OW29212   3.031   2.114   0.767 -0.1506 -0.3714 -0.0018
 5860SOL    HW129213   3.066   2.119   0.856 -0.7404  1.2086  0.1369
 5860SOL    HW229214   2.999   2.203   0.753 -0.8770 -0.7908 -1.0138
 5861SOL     OW29215   0.462   0.488   1.029 -0.0839 -0.6264 -0.5160
 5861SOL    HW129216   0.548   0.514   0.997 -0.2338  1.3770  0.6871
 5861SOL    HW229217   0.405   0.522   0.960  0.0356  0.5818 -0.0305
 5862SOL     OW29218   1.636   1.458   5.468  0.3564 -0.0467 -0.4208
 5862SOL    HW129219   1.713   1.514   5.462 -0.1992  0.8436  0.8060
 5862SOL    HW229220   1.637   1.421   5.380  2.3673  3.0082 -1.7065
 5863SOL     OW29221   0.991   2.267   3.476  0.2566  0.2557  0.1609
 5863SOL    HW129222   0.937   2.342   3.451 -0.9344  0.3539  3.0635
 5863SOL    HW229223   1.022   2.286   3.564  1.5741  1.8656 -0.6460
 5864SOL     OW29224   0.276   3.056   1.058  0.0880 -0.2620 -0.7492
 5864SOL    HW129225   0.205   3.014   1.105 -1.0835 -0.1106 -2.4097
 5864SOL    HW229226   0.269   3.006   0.977 -1.1821 -0.0356 -0.7765
 5865SOL     OW29227   1.650   0.691   4.146 -0.2315  0.9159 -0.2598
 5865SOL    HW129228   1.729   0.641   4.125  0.4423  1.7635  0.2880
 5865SOL    HW229229   1.635   0.746   4.069  1.4968  0.7311 -0.7364
 5866SOL     OW29230   3.864   2.849   2.038  0.2822 -0.8034  0.2563
 5866SOL    HW129231   3.933   2.811   1.984 -1.3767 -1.4230 -1.4220
 5866SOL    HW229232   3.817   2.767   2.054 -0.5275 -0.1788  1.0854
 5867SOL     OW29233   1.654   3.756   8.311  0.2831 -0.1833  0.2281
 5867SOL    HW129234   1.712   3.689   8.348  0.0316  0.7767  2.3855
 5867SOL    HW229235   1.590   3.711   8.256  0.1993 -1.2590  1.1920
 5868SOL     OW29236   2.412   1.938   4.657  0.3435  0.4227 -0.5557
 5868SOL    HW129237   2.450   1.879   4.723 -2.0602 -1.1286 -0.5780
 5868SOL    HW229238   2.449   1.893   4.582  2.6802  0.8932  0.3089
 5869SOL     OW29239   1.089   1.643   2.422  0.3717  0.5753  0.3408
 5869SOL    HW129240   1.108   1.573   2.359 -0.1979 -0.7540  1.6631
 5869SOL    HW229241   1.176   1.682   2.412  1.1739 -1.5429 -0.8187
 5870SOL     OW29242   2.634   4.610   8.654  0.1318 -0.4308 -0.0984
 5870SOL    HW129243   2.720   4.640   8.623  1.2299 -1.6603  1.7144
 5870SOL    HW229244   2.579   4.651   8.588  1.4552  1.1668 -0.2186
 5871SOL     OW29245   4.695   2.230  14.454 -0.5263 -0.3789 -0.1221
 5871SOL    HW129246   4.604   2.243  14.481 -0.5999 -0.9497 -0.1010
 5871SOL    HW229247   4.690   2.184  14.371 -0.5786  2.1654 -1.5384
 5872SOL     OW29248   4.170   0.989   8.803 -0.2694 -0.7200 -0.5501
 5872SOL    HW129249   4.213   0.977   8.888  2.0933  0.0992 -1.6242
 5872SOL    HW229250   4.091   0.936   8.810 -0.8545 -0.1915 -3.3780
 5873SOL     OW29251   1.652   1.361   2.928  0.3861  0.0358 -0.3535
 5873SOL    HW129252   1.698   1.389   2.849 -1.1882 -2.2698 -2.1199
 5873SOL    HW229253   1.698   1.415   2.992  0.6029 -0.8098  0.1929
 5874SOL     OW29254   0.224   0.676   4.795 -0.2017  0.0532  0.4522
 5874SOL    HW129255   0.154   0.741   4.792 -0.1889  0.0117 -0.8990
 5874SOL    HW229256   0.299   0.735   4.805 -0.0108 -0.5003  2.3249
 5875SOL     OW29257   2.898   4.625   9.367  0.4314 -0.0189 -0.0072
 5875SOL    HW129258   2.822   4.648   9.420 -0.7237 -2.3983 -0.6632
 5875SOL    HW229259   2.918   4.538   9.400  0.9589 -0.6700 -2.0359
 5876SOL     OW29260   2.867   1.830   5.259  0.5048 -0.2562 -0.3442
 5876SOL    HW129261   2.785   1.783   5.244  0.6748 -0.9691  0.9718
 5876SOL    HW229262   2.930   1.758   5.262 -0.0181 -0.7557 -1.3521
 5877SOL     OW29263   2.593   1.117   6.368 -0.5688  0.2840 -0.5928
 5877SOL    HW129264   2.649   1.160   6.303  0.9186 -2.1974 -0.9450
 5877SOL    HW229265   2.657   1.074   6.425  1.2725 -0.4105 -3.2003
 5878SOL     OW29266   0.743   1.683   8.840 -0.1167 -0.0232 -0.2956
 5878SOL    HW129267   0.817   1.733   8.807 -0.4048  0.6826  0.1345
 5878SOL    HW229268   0.734   1.626   8.763  0.3090  0.6819 -0.8594
 5879SOL     OW29269   2.855   2.987   1.464  0.1263 -0.0661 -0.5951
 5879SOL    HW129270   2.878   3.038   1.542  1.3073  0.1730 -1.1096
 5879SOL    HW229271   2.831   2.901   1.501  1.9576 -0.8615 -1.2874
 5880SOL     OW29272   1.392   4.606   9.776  0.4281  0.0452  0.0581
 5880SOL    HW129273   1.446   4.610   9.855  0.0027 -0.7985  0.4016
 5880SOL    HW229274   1.299   4.615   9.797  0.5052  1.4118 -0.1974
 5881SOL     OW29275   3.058   1.355   7.194  0.3528  0.3031  0.3713
 5881SOL    HW129276   3.085   1.330   7.106  2.1683  1.0830  0.7111
 5881SOL    HW229277   3.034   1.446   7.177 -1.9015  0.3520  3.8166
 5882SOL     OW29278   2.774   0.049   9.589  0.0443 -0.0390  0.6735
 5882SOL    HW129279   2.801   4.722   9.653  2.2839  0.5315  0.2822
 5882SOL    HW229280   2.727   0.110   9.646  1.0554  2.7051 -1.4722
 5883SOL     OW29281   4.167   4.437   8.967  0.2357  0.2943 -0.1272
 5883SOL    HW129282   4.225   4.455   9.041 -0.8435  1.1684  0.5015
 5883SOL    HW229283   4.228   4.443   8.894  1.8049  2.0652  1.3512
 5884SOL     OW29284   0.821   1.808   6.874 -1.0748  0.3304  0.3028
 5884SOL    HW129285   0.867   1.815   6.958  1.5021 -2.0229 -0.8995
 5884SOL    HW229286   0.748   1.869   6.881 -0.3672  1.2064  0.1300
 5885SOL     OW29287   2.078   2.348   3.594  0.4178 -0.4125  0.1432
 5885SOL    HW129288   2.007   2.313   3.540  0.7777  0.6046 -0.9928
 5885SOL    HW229289   2.059   2.334   3.687  1.1813  1.6263  0.6053
 5886SOL     OW29290   2.714   0.609   5.031  0.6144 -0.5605 -0.6411
 5886SOL    HW129291   2.780   0.601   4.962 -0.8612 -2.8666 -1.7681
 5886SOL    HW229292   2.755   0.679   5.082 -2.7237 -0.1788  1.5320
 5887SOL     OW29293   1.367   1.770   6.188  0.1351  0.4162 -0.8129
 5887SOL    HW129294   1.349   1.695   6.132 -0.6214 -0.4585  0.6273
 5887SOL    HW229295   1.402   1.733   6.269 -0.0419  1.8001 -0.1124
 5888SOL     OW29296   4.007   1.098   3.289  0.1107  1.0290 -0.0424
 5888SOL    HW129297   4.075   1.156   3.324  0.6087  0.4602 -0.0604
 5888SOL    HW229298   3.959   1.146   3.222  0.6967  0.4708 -0.8591
 5889SOL     OW29299   0.187   1.605  17.042 -0.1358  0.5058 -0.7396
 5889SOL    HW129300   0.130   1.529  17.034  0.2617  0.0032  1.2705
 5889SOL    HW229301   0.206   1.587  17.134 -0.9831  0.5754 -0.5492
 5890SOL     OW29302   2.736   3.176   7.094 -0.1536 -0.5878  0.2179
 5890SOL    HW129303   2.662   3.216   7.141 -0.2048 -3.7959  2.8023
 5890SOL    HW229304   2.765   3.103   7.148  2.8432  0.9756  0.6630
 5891SOL     OW29305   3.767   1.502  12.710  0.1149 -0.2939 -0.0768
 5891SOL    HW129306   3.726   1.581  12.675  0.4639  0.8551  2.1501
 5891SOL    HW229307   3.836   1.533  12.768 -0.5787 -0.2958  0.7330
 5892SOL     OW29308   2.754   4.407   2.343  0.0665 -0.6361  0.2911
 5892SOL    HW129309   2.828   4.408   2.281 -0.7994  0.5936 -0.7466
 5892SOL    HW229310   2.700   4.333   2.315 -2.0495  0.9384  0.2274
 5893SOL     OW29311   1.665   2.670  10.448  0.3070 -0.4783  0.0887
 5893SOL    HW129312   1.579   2.632  10.430  0.4258 -1.1419  0.9177
 5893SOL    HW229313   1.667   2.649  10.542  1.4454 -0.9068 -0.0385
 5894SOL     OW29314   3.146   3.967   8.109 -0.2611  0.3400  0.1542
 5894SOL    HW129315   3.190   3.908   8.047 -2.6634 -1.4372  0.1342
 5894SOL    HW229316   3.065   3.993   8.066 -0.6508 -1.0059  0.0690
 5895SOL     OW29317   2.705   0.715  10.644 -0.2355 -0.3134  0.3028
 5895SOL    HW129318   2.793   0.678  10.641  0.5757  1.6140  0.0268
 5895SOL    HW229319   2.670   0.683  10.561  0.3148 -2.2137  0.8217
 5896SOL     OW29320   3.460   0.096   5.099  0.0931  0.1274  0.2077
 5896SOL    HW129321   3.417   0.023   5.055  1.1317 -0.4336  0.1372
 5896SOL    HW229322   3.520   0.118   5.028  1.3757 -1.3049  0.8692
 5897SOL     OW29323   4.153   3.227  16.720 -0.2218  0.4474  0.1734
 5897SOL    HW129324   4.109   3.144  16.737 -0.1610  0.2366 -0.7254
 5897SOL    HW229325   4.105   3.260  16.644 -0.9191 -1.0429 -0.0188
 5898SOL     OW29326   0.550   2.157   8.817 -0.2176 -0.4418 -0.2086
 5898SOL    HW129327   0.500   2.097   8.760  1.4465  0.5134 -2.6810
 5898SOL    HW229328   0.491   2.232   8.823 -0.2125 -0.3685 -1.0214
 5899SOL     OW29329   0.416   0.432   5.715 -0.2219 -0.0897  0.5523
 5899SOL    HW129330   0.354   0.370   5.677  0.2260  0.1739 -0.5820
 5899SOL    HW229331   0.468   0.458   5.639 -1.9605  0.0414 -0.5802
 5900SOL     OW29332   2.231   1.431   3.652  0.2332  0.3688 -1.0023
 5900SOL    HW129333   2.245   1.507   3.708  3.1876 -0.2421 -0.9408
 5900SOL    HW229334   2.155   1.465   3.605  0.1194 -0.1581 -1.2030
 5901SOL     OW29335   0.741   3.810   5.058  0.3076 -0.3454  0.5311
 5901SOL    HW129336   0.791   3.801   4.977  0.5815 -2.0950  0.8987
 5901SOL    HW229337   0.787   3.872   5.115 -0.4606  0.3032  0.4477
 5902SOL     OW29338   1.375   3.305  13.560 -0.4994  0.0231  0.0520
 5902SOL    HW129339   1.364   3.292  13.466 -0.0197  2.0819 -0.2753
 5902SOL    HW229340   1.438   3.376  13.571  0.9406 -1.0215 -1.3733
 5903SOL     OW29341   3.722   2.214   8.686 -0.2408 -0.2678  0.1451
 5903SOL    HW129342   3.807   2.181   8.714 -0.1766 -0.6746 -0.5525
 5903SOL    HW229343   3.723   2.195   8.592 -1.6205  0.3137  0.0106
 5904SOL     OW29344   2.463   3.615   9.205  0.3622 -0.1115 -0.5131
 5904SOL    HW129345   2.445   3.522   9.223  0.7773 -0.2286 -0.6846
 5904SOL    HW229346   2.553   3.605   9.171  0.8702  0.5264  0.6584
 5905SOL     OW29347   3.450   3.697   6.767  0.6146 -0.5075 -0.7581
 5905SOL    HW129348   3.511   3.626   6.745  0.3024 -1.2341  0.7147
 5905SOL    HW229349   3.494   3.777   6.738  0.2872 -0.2397 -0.5079
 5906SOL     OW29350   2.123   4.312   5.324  0.1713  0.0809  0.5281
 5906SOL    HW129351   2.051   4.323   5.262  1.7095 -3.7360 -1.9597
 5906SOL    HW229352   2.070   4.268   5.391 -0.9929  0.8241  0.0799
 5907SOL     OW29353   1.392   1.520   5.159 -0.3843  0.1346  0.2595
 5907SOL    HW129354   1.368   1.530   5.067  1.0775  2.5130  0.1408
 5907SOL    HW229355   1.485   1.540   5.160  0.1482 -2.3957  0.0744
 5908SOL     OW29356   1.837   2.963   6.092 -0.2239  0.6579 -0.4586
 5908SOL    HW129357   1.778   2.904   6.139 -0.5131  1.3385  0.0309
 5908SOL    HW229358   1.918   2.913   6.105 -0.9751 -0.4364  0.0110
 5909SOL     OW29359   0.955   2.040   1.635  0.8545 -0.1292 -0.0851
 5909SOL    HW129360   0.922   2.078   1.716 -0.7054 -0.0569 -0.7559
 5909SOL    HW229361   1.050   2.048   1.644  1.0197  0.1919 -2.0474
 5910SOL     OW29362   2.318   1.513   7.950 -0.3251 -0.0839  0.0306
 5910SOL    HW129363   2.325   1.421   7.973 -0.7466  0.0348  0.6394
 5910SOL    HW229364   2.368   1.556   8.020  0.8021 -0.4359 -0.5628
 5911SOL     OW29365   3.920   2.426   8.061 -0.2335  0.2634 -0.1172
 5911SOL    HW129366   3.972   2.361   8.014 -0.4187 -0.1269  0.2132
 5911SOL    HW229367   3.834   2.384   8.062 -1.0839  1.9692 -2.0290
 5912SOL     OW29368   1.334   4.734   7.584  0.2714 -0.0671  0.0909
 5912SOL    HW129369   1.319   4.712   7.675  4.3337 -0.8106  0.6018
 5912SOL    HW229370   1.343   0.090   7.597  0.4064 -0.1629  0.6805
 5913SOL     OW29371   3.375   1.641   4.004 -0.3754  0.6038 -0.0812
 5913SOL    HW129372   3.416   1.633   3.917 -1.0044  1.1191 -0.4221
 5913SOL    HW229373   3.312   1.568   4.003 -0.5743  0.7864 -2.1102
 5914SOL     OW29374   3.389   1.614  17.725 -0.3991 -0.8190 -0.3885
 5914SOL    HW129375   3.312   1.618  17.668 -0.9570 -0.2054  0.4013
 5914SOL    HW229376   3.457   1.594  17.661 -0.2119  0.3458 -0.5689
 5915SOL     OW29377   4.446   3.784   1.756  0.2458 -0.1781  0.1830
 5915SOL    HW129378   4.448   3.780   1.660 -2.6204 -1.5061  0.1824
 5915SOL    HW229379   4.539   3.783   1.779  0.5843  0.2017 -1.1221
 5916SOL     OW29380   2.298   0.367   7.185 -0.1593 -0.6943  0.1604
 5916SOL    HW129381   2.247   0.400   7.259 -0.8030 -0.2600 -0.4868
 5916SOL    HW229382   2.274   0.434   7.121 -0.3047 -0.0705  0.8698
 5917SOL     OW29383   2.833   1.951   6.286  0.1848  0.3049  0.1695
 5917SOL    HW129384   2.831   1.858   6.305 -0.1495  0.3554  0.3823
 5917SOL    HW229385   2.818   1.980   6.376 -0.7447  1.0179 -0.2139
 5918SOL     OW29386   0.464   3.290   5.604  0.1592 -0.2388  0.5029
 5918SOL    HW129387   0.494   3.274   5.514  0.2513  2.9213 -0.0052
 5918SOL    HW229388   0.489   3.381   5.616  0.0516 -0.1330 -0.0733
 5919SOL     OW29389   4.259   2.961  17.621 -0.1880 -0.0675  0.3650
 5919SOL    HW129390   4.223   3.044  17.591  1.3908  1.3513  2.4006
 5919SOL    HW229391   4.239   2.910  17.543  1.0838 -0.9686  0.6328
 5920SOL     OW29392   1.616   3.097   3.524  0.2968  0.2504 -0.4034
 5920SOL    HW129393   1.524   3.091   3.552  0.7012  2.6340  1.3971
 5920SOL    HW229394   1.645   3.010   3.548  0.7950  1.0419  1.8151
 5921SOL     OW29395   0.923   0.230   7.056  0.3156 -0.5109 -0.4075
 5921SOL    HW129396   0.880   0.147   7.037 -2.0741  0.8334 -0.8304
 5921SOL    HW229397   0.926   0.262   6.966 -0.3150  1.3825  0.2547
 5922SOL     OW29398   1.522   1.025   9.475  0.5740 -0.1808  0.3934
 5922SOL    HW129399   1.444   1.044   9.528  1.0531  0.5451  0.8322
 5922SOL    HW229400   1.597   1.078   9.501  1.8361 -1.1095 -1.3447
 5923SOL     OW29401   1.661   2.382   0.683 -0.0350 -0.1748 -0.4356
 5923SOL    HW129402   1.694   2.445   0.748 -0.3822  0.5845 -0.9939
 5923SOL    HW229403   1.671   2.432   0.602  1.3061 -0.4601 -0.4449
 5924SOL     OW29404   0.220   3.816   2.084 -0.3760  0.3492 -1.2690
 5924SOL    HW129405   0.127   3.839   2.080 -0.7492 -0.6798  2.0635
 5924SOL    HW229406   0.215   3.721   2.078  2.4888  0.1464 -0.4133
 5925SOL     OW29407   0.262   1.791   7.641 -0.4477  0.2957 -0.0318
 5925SOL    HW129408   0.322   1.818   7.710 -1.0446  1.4684  0.0348
 5925SOL    HW229409   0.210   1.725   7.687 -0.4365 -1.3167 -2.3216
 5926SOL     OW29410   3.414   3.893   2.723 -0.1644  0.2077 -0.0797
 5926SOL    HW129411   3.324   3.877   2.751 -0.3805  1.0086 -0.3124
 5926SOL    HW229412   3.432   3.811   2.676  0.9942  0.0073  0.7116
 5927SOL     OW29413   1.200   1.508   4.583 -0.0246  0.2297  0.4390
 5927SOL    HW129414   1.226   1.597   4.608  0.3334  0.4488 -0.7399
 5927SOL    HW229415   1.221   1.448   4.655  0.1602 -0.3294 -0.0841
 5928SOL     OW29416   0.271   1.556   2.064 -0.0217 -0.4119 -0.0876
 5928SOL    HW129417   0.241   1.646   2.082  2.9778  0.5624  0.0854
 5928SOL    HW229418   0.342   1.574   2.126  1.3322  0.5633 -1.9189
 5929SOL     OW29419   1.012   0.945   6.267  0.5229 -0.3640 -0.4041
 5929SOL    HW129420   0.925   0.911   6.288  0.7196 -0.9119 -0.4842
 5929SOL    HW229421   1.002   1.040   6.264 -1.2148 -0.5133  0.5106
 5930SOL     OW29422   0.112   2.785   0.883  0.2585  0.3129  0.2211
 5930SOL    HW129423   0.046   2.778   0.814  0.6515 -2.7721  0.1529
 5930SOL    HW229424   0.184   2.727   0.856  0.3579 -0.1768  1.5247
 5931SOL     OW29425   3.269   4.469   2.155  0.1589 -0.3991 -0.4191
 5931SOL    HW129426   3.341   4.407   2.144  0.6821  0.4447 -1.7469
 5931SOL    HW229427   3.237   4.440   2.241  1.1316 -0.5523 -0.1037
 5932SOL     OW29428   0.370   4.030   4.064  0.1187  0.8112  0.0596
 5932SOL    HW129429   0.389   3.936   4.063 -0.2807  0.7386 -0.5904
 5932SOL    HW229430   0.457   4.067   4.077  1.7415 -2.4616 -1.6265
 5933SOL     OW29431   3.196   0.103   6.435  0.1062  0.4523 -0.4542
 5933SOL    HW129432   3.288   0.131   6.432 -0.3129  1.8507 -0.4102
 5933SOL    HW229433   3.147   0.170   6.386 -0.1063  1.3077  0.9430
 5934SOL     OW29434   0.878   3.873   8.077  0.4966  0.2391  0.2274
 5934SOL    HW129435   0.825   3.948   8.047 -0.2760 -0.1820  0.5419
 5934SOL    HW229436   0.834   3.806   8.025 -1.6868  2.1310 -0.3874
 5935SOL     OW29437   2.864   4.495   7.140 -0.7369  0.1731 -0.3673
 5935SOL    HW129438   2.943   4.514   7.192 -0.1766 -2.1079 -0.3691
 5935SOL    HW229439   2.823   4.433   7.201 -2.0189  1.5195  0.1265
 5936SOL     OW29440   2.072   3.291   5.163  0.7501 -0.0680 -0.3038
 5936SOL    HW129441   2.138   3.234   5.122  0.5668 -2.2936  2.4961
 5936SOL    HW229442   2.101   3.381   5.147  0.9469 -0.0223  0.3138
 5937SOL     OW29443   0.803   2.868   4.961 -0.7611 -0.0706  0.0974
 5937SOL    HW129444   0.856   2.830   4.891 -0.3177 -0.2159  0.5082
 5937SOL    HW229445   0.769   2.800   5.018 -2.5091 -0.4732 -1.4125
 5938SOL     OW29446   1.330   0.392  10.411 -0.6330 -0.2974 -0.3033
 5938SOL    HW129447   1.254   0.387  10.470 -1.7891 -0.4421 -1.7971
 5938SOL    HW229448   1.322   0.312  10.359 -0.7525 -0.4106 -0.1087
 5939SOL     OW29449   1.275   1.886   1.996  0.9157 -0.1089  0.0053
 5939SOL    HW129450   1.366   1.876   1.969  0.4841  0.0129 -1.5174
 5939SOL    HW229451   1.263   1.793   2.018 -0.3323 -0.2650 -1.3085
 5940SOL     OW29452   1.082   0.101   9.813 -0.3724  0.4657  0.7540
 5940SOL    HW129453   1.177   0.108   9.815 -0.2117 -1.2983 -0.4616
 5940SOL    HW229454   1.047   0.175   9.863 -1.4029  0.5361 -0.0731
 5941SOL     OW29455   1.325   4.355   2.041  0.0460  0.1334 -0.1106
 5941SOL    HW129456   1.230   4.358   2.057 -0.1516 -1.0061 -1.0465
 5941SOL    HW229457   1.326   4.345   1.946  1.2409  0.8534 -0.1678
 5942SOL     OW29458   0.134   1.026   4.007 -0.0684  0.2092 -0.1413
 5942SOL    HW129459   0.135   1.049   3.914  0.0922 -2.2959 -0.7435
 5942SOL    HW229460   0.186   1.102   4.032 -0.4170  0.4040  0.0017
 5943SOL     OW29461   3.467   2.438   7.870 -0.5721 -0.1352 -0.0071
 5943SOL    HW129462   3.383   2.407   7.836 -0.8675 -0.9646  1.4861
 5943SOL    HW229463   3.452   2.429   7.964 -0.2660 -0.3732  0.0174
 5944SOL     OW29464   2.548   2.236  17.409  0.4480 -0.3125  0.3901
 5944SOL    HW129465   2.464   2.260  17.369  0.0021  1.6358  2.5013
 5944SOL    HW229466   2.606   2.263  17.338 -1.8088  3.1452 -0.1580
 5945SOL     OW29467   3.966   3.747   1.580  0.3544  0.1089  0.1087
 5945SOL    HW129468   3.979   3.829   1.629 -1.5421 -0.0225  0.8453
 5945SOL    HW229469   3.994   3.682   1.645 -1.0969  0.0585  0.6903
 5946SOL     OW29470   1.698   4.288  11.624 -0.0611  0.0923 -0.0754
 5946SOL    HW129471   1.633   4.271  11.556 -0.9802  1.7805  0.3942
 5946SOL    HW229472   1.742   4.369  11.599  1.9749 -1.0685 -0.3441
 5947SOL     OW29473   1.970   1.478   3.566  0.3624  0.4775 -0.0309
 5947SOL    HW129474   1.912   1.527   3.509 -0.7010 -0.5203  0.1852
 5947SOL    HW229475   1.921   1.466   3.648  1.1162 -1.7387  0.1056
 5948SOL     OW29476   1.312   0.605   3.003 -0.1291 -0.4089 -0.2125
 5948SOL    HW129477   1.341   0.685   2.959 -0.2990 -1.2828 -1.9096
 5948SOL    HW229478   1.366   0.541   2.957 -0.8810  0.5272 -2.3949
 5949SOL     OW29479   0.064   2.534   7.508 -0.4825  0.5213  0.2784
 5949SOL    HW129480   0.102   2.450   7.484  1.5445  1.2254  1.0640
 5949SOL    HW229481   0.088   2.589   7.434 -0.9815 -0.7401 -0.8338
 5950SOL     OW29482   0.951   2.241  13.793  0.6902  0.0040  1.0354
 5950SOL    HW129483   1.002   2.176  13.841 -0.2303 -2.0052 -0.6969
 5950SOL    HW229484   0.913   2.300  13.859 -0.0185 -1.8756  2.3064
 5951SOL     OW29485   2.428   2.264   5.058 -0.2371  0.4857 -0.0590
 5951SOL    HW129486   2.347   2.228   5.093 -0.9253  0.4580 -1.6782
 5951SOL    HW229487   2.413   2.358   5.064 -1.5801  0.3092 -0.7019
 5952SOL     OW29488   4.301   2.739   3.162 -0.8550 -0.2295 -0.2970
 5952SOL    HW129489   4.299   2.670   3.096 -0.7287 -1.7536  1.2692
 5952SOL    HW229490   4.313   2.687   3.242  0.4111 -0.1467 -0.4418
 5953SOL     OW29491   1.113   3.078   2.030 -0.2561 -0.2320 -0.2019
 5953SOL    HW129492   1.028   3.036   2.048  0.0652 -1.2041 -0.9733
 5953SOL    HW229493   1.158   3.005   1.989  1.7527  0.2385  1.1701
 5954SOL     OW29494   1.262   0.371   7.150  0.7052  0.0195  0.1186
 5954SOL    HW129495   1.196   0.421   7.103 -0.4354 -0.6259  1.0437
 5954SOL    HW229496   1.271   0.295   7.093 -1.8459 -1.0729  1.1814
 5955SOL     OW29497   0.410   3.137   4.198 -0.1755  0.7271 -0.0564
 5955SOL    HW129498   0.454   3.165   4.118 -0.7965 -0.6772 -0.8775
 5955SOL    HW229499   0.435   3.045   4.197 -0.2396  0.6969  1.2581
 5956SOL     OW29500   3.900   2.365   7.641  0.3542 -0.6387  0.1971
 5956SOL    HW129501   3.889   2.287   7.587 -0.2452  0.2217 -0.9306
 5956SOL    HW229502   3.807   2.383   7.651  0.8791  2.1387  0.1897
 5957SOL     OW29503   4.487   2.794   6.627  0.0326 -0.0651 -0.0297
 5957SOL    HW129504   4.507   2.887   6.633  0.7021 -0.3874  2.9520
 5957SOL    HW229505   4.523   2.773   6.713  0.4774  1.7450  0.2160
 5958SOL     OW29506   0.536   0.176   2.995 -0.4574 -0.5005  0.3227
 5958SOL    HW129507   0.489   0.096   3.015 -0.7187 -0.8194 -1.5638
 5958SOL    HW229508   0.477   0.197   2.923  0.6922  0.1966 -0.4224
 5959SOL     OW29509   0.299   1.705  11.124  0.2621  0.3171  0.3211
 5959SOL    HW129510   0.220   1.660  11.096  0.2530 -0.5156  1.6663
 5959SOL    HW229511   0.319   1.660  11.206  1.2370  0.4114  0.1366
 5960SOL     OW29512   1.769   3.284   7.453 -0.2642 -1.0151  0.4152
 5960SOL    HW129513   1.843   3.344   7.447 -2.3741  1.5761  0.2377
 5960SOL    HW229514   1.717   3.315   7.379 -1.2262  0.0809  1.5662
 5961SOL     OW29515   0.090   3.960   1.513  0.3212 -0.1803 -0.2924
 5961SOL    HW129516   0.158   3.909   1.556  0.0491  1.0057  1.5343
 5961SOL    HW229517   0.102   3.951   1.418  1.2372  0.2220 -0.2157
 5962SOL     OW29518   3.507   1.872   8.211  0.3700  0.7600 -0.0209
 5962SOL    HW129519   3.546   1.960   8.214  1.8779  0.1206 -1.0980
 5962SOL    HW229520   3.569   1.816   8.259 -1.5757 -0.4159  1.1233
 5963SOL     OW29521   2.152   0.730   7.518 -0.2620  0.3074 -0.6604
 5963SOL    HW129522   2.107   0.785   7.583 -1.8617 -0.5787 -1.0334
 5963SOL    HW229523   2.144   0.786   7.441  1.1587  1.5466  0.0921
 5964SOL     OW29524   4.321   0.357   2.135  0.0013  0.3627  0.2711
 5964SOL    HW129525   4.257   0.332   2.201  0.1405 -2.6512 -0.7228
 5964SOL    HW229526   4.340   0.267   2.108  3.2834  1.1199  0.1177
 5965SOL     OW29527   3.161   4.463   7.214 -0.2978  0.3415 -0.0835
 5965SOL    HW129528   3.220   4.538   7.220  1.5816 -1.3024  1.9502
 5965SOL    HW229529   3.165   4.432   7.304 -0.1016 -0.5492 -0.3969
 5966SOL     OW29530   1.925   0.847  15.078  0.6450  0.5293 -0.6680
 5966SOL    HW129531   1.943   0.886  14.993  1.0986  2.8623  0.5110
 5966SOL    HW229532   1.913   0.754  15.056  1.0841  0.2068  0.4688
 5967SOL     OW29533   0.948   1.055   5.661 -0.2628 -0.0587  0.1028
 5967SOL    HW129534   0.859   1.032   5.635 -0.2475 -2.0217  1.7599
 5967SOL    HW229535   0.935   1.149   5.671 -0.2128 -0.0665  0.2491
 5968SOL     OW29536   0.800   3.648   3.807 -0.3568 -0.4114  0.1551
 5968SOL    HW129537   0.855   3.571   3.826 -1.2321 -1.5553 -1.9104
 5968SOL    HW229538   0.727   3.631   3.866  0.1609 -0.4405  0.7886
 5969SOL     OW29539   2.059   0.228   7.920 -0.0765 -0.1032 -0.4357
 5969SOL    HW129540   2.024   0.271   7.998  0.0930  0.7741 -0.8488
 5969SOL    HW229541   1.987   0.255   7.863 -1.5004 -2.1466  0.3813
 5970SOL     OW29542   0.143   3.806   5.456  0.2295  0.2581  0.2518
 5970SOL    HW129543   0.189   3.722   5.454 -1.6697 -0.7608  0.1146
 5970SOL    HW229544   0.094   3.780   5.534  0.5291 -0.5664  0.1691
 5971SOL     OW29545   4.463   4.070  10.608 -0.0782  0.3951 -0.5724
 5971SOL    HW129546   4.522   4.080  10.683 -0.1157 -0.5240 -0.4214
 5971SOL    HW229547   4.382   4.039  10.650  1.1855 -1.7685  0.2425
 5972SOL     OW29548   0.519   0.025   1.780 -0.4159  0.2148 -0.2181
 5972SOL    HW129549   0.449   0.024   1.714  0.0724 -0.7399 -0.7165
 5972SOL    HW229550   0.569   0.104   1.758  0.8649 -0.7254 -0.6816
 5973SOL     OW29551   4.444   3.596   4.520  0.4167  1.0948 -0.1293
 5973SOL    HW129552   4.471   3.518   4.568 -1.7839  0.5487  0.1972
 5973SOL    HW229553   4.446   3.674   4.576 -0.4049 -0.0223  1.4405
 5974SOL     OW29554   0.988   2.322  13.308  0.9846 -0.1038  0.1064
 5974SOL    HW129555   0.951   2.335  13.221 -3.9966 -0.7221  2.1694
 5974SOL    HW229556   0.993   2.409  13.348  0.6829  0.0314 -0.1522
 5975SOL     OW29557   0.630   2.090   2.868  0.0366  0.0442 -0.9305
 5975SOL    HW129558   0.724   2.072   2.860  0.3826  1.7025 -0.7198
 5975SOL    HW229559   0.620   2.049   2.954 -2.6780 -0.7434 -1.6176
 5976SOL     OW29560   1.322   0.277   5.241 -0.1174  0.3136  0.4708
 5976SOL    HW129561   1.326   0.275   5.145  1.1773 -1.7522  0.5742
 5976SOL    HW229562   1.406   0.241   5.268 -0.3238 -0.5603 -0.0672
 5977SOL     OW29563   0.519   3.899   7.774 -0.2552  0.1448  0.4267
 5977SOL    HW129564   0.580   3.952   7.722 -0.8626  0.0102 -0.4314
 5977SOL    HW229565   0.458   3.876   7.704  0.5883 -1.0266  0.0783
 5978SOL     OW29566   4.301   2.404   2.231  0.0994 -0.4399 -0.2617
 5978SOL    HW129567   4.323   2.405   2.138 -2.8748 -2.3214 -0.9772
 5978SOL    HW229568   4.207   2.391   2.220  0.2838 -0.1873 -2.1628
 5979SOL     OW29569   4.234   3.716   3.208  0.1977 -0.2090 -0.0328
 5979SOL    HW129570   4.281   3.797   3.188 -0.3315  0.6010  2.0247
 5979SOL    HW229571   4.147   3.733   3.172 -0.5528  0.2606  1.9830
 5980SOL     OW29572   0.935   3.591  14.740 -0.0432 -0.9607  0.0832
 5980SOL    HW129573   1.002   3.525  14.725 -0.4237 -1.8067  2.0415
 5980SOL    HW229574   0.866   3.531  14.715  0.3811 -0.6028 -1.9250
 5981SOL     OW29575   2.650   3.469   5.992  0.2382 -0.0787  0.1863
 5981SOL    HW129576   2.609   3.429   5.916 -0.7579  2.8653 -0.8376
 5981SOL    HW229577   2.606   3.553   6.007  1.9034  0.5759  1.4497
 5982SOL     OW29578   3.958   1.727  15.014 -0.2604 -0.5448  0.2674
 5982SOL    HW129579   3.900   1.660  14.976 -0.7180 -0.6761  1.2060
 5982SOL    HW229580   3.969   1.777  14.933  2.6507  3.4445  3.1730
 5983SOL     OW29581   1.037   0.369   9.975 -0.2691 -0.7811  0.1627
 5983SOL    HW129582   0.955   0.322   9.983  0.2139 -1.2753  2.1932
 5983SOL    HW229583   1.065   0.360  10.066 -1.1787  1.8300  0.7071
 5984SOL     OW29584   0.540   0.091   5.965  0.0660 -0.1028 -0.1709
 5984SOL    HW129585   0.556   0.157   6.032  1.0942 -2.2708  1.7389
 5984SOL    HW229586   0.503   0.134   5.888  1.9683 -1.9837 -2.1311
 5985SOL     OW29587   0.243   2.146   8.186  0.1770  0.2821 -0.1489
 5985SOL    HW129588   0.251   2.228   8.139 -1.6754  0.0108 -0.9375
 5985SOL    HW229589   0.163   2.160   8.237  0.7314 -2.1039  1.4245
 5986SOL     OW29590   4.151   4.407   7.858 -0.9550 -0.1673  0.3198
 5986SOL    HW129591   4.234   4.402   7.812 -0.0839  0.8635  1.7878
 5986SOL    HW229592   4.150   4.336   7.923 -1.7911 -2.1771 -1.8864
 5987SOL     OW29593   3.113   2.547   2.576 -0.6674  0.1660 -0.4038
 5987SOL    HW129594   3.129   2.486   2.504  0.5893 -0.7406  0.6332
 5987SOL    HW229595   3.030   2.509   2.604  0.3763 -1.8514  0.0255
 5988SOL     OW29596   1.615   1.907   8.835 -0.1856 -0.0997 -0.0504
 5988SOL    HW129597   1.556   1.978   8.860 -0.1232 -0.7630  1.9918
 5988SOL    HW229598   1.682   1.960   8.791  0.4475  1.0517  2.2665
 5989SOL     OW29599   0.519   1.573   5.014  0.3269  0.0235 -0.1145
 5989SOL    HW129600   0.583   1.522   5.063  1.5010  0.4672 -1.1847
 5989SOL    HW229601   0.434   1.535   5.033 -0.6987  2.5057  0.3267
 5990SOL     OW29602   3.436   4.693  11.541 -0.2038  0.5947  0.0656
 5990SOL    HW129603   3.529   4.671  11.543 -0.5820 -0.9548  0.3409
 5990SOL    HW229604   3.414   4.671  11.451 -1.6044  0.7652  0.3701
 5991SOL     OW29605   0.265   1.651   6.566 -0.7082  0.7268 -0.2211
 5991SOL    HW129606   0.303   1.626   6.651  0.3057  0.8460 -0.6460
 5991SOL    HW229607   0.176   1.618   6.574  0.4591 -2.8498 -1.6696
 5992SOL     OW29608   2.126   1.208  15.602 -0.0538 -0.2906  0.0459
 5992SOL    HW129609   2.083   1.125  15.581  0.5217 -0.1094 -1.8767
 5992SOL    HW229610   2.209   1.166  15.626 -1.8675 -1.3953  4.4342
 5993SOL     OW29611   0.840   2.390  13.098 -0.2664  0.2851  0.0068
 5993SOL    HW129612   0.866   2.464  13.044  1.4929 -1.4682 -1.5245
 5993SOL    HW229613   0.786   2.342  13.035  0.1473 -0.8814  0.5478
 5994SOL     OW29614   2.329   4.257  10.573 -0.8917  0.3300  0.5479
 5994SOL    HW129615   2.305   4.333  10.625 -0.7567 -0.0674  1.1994
 5994SOL    HW229616   2.410   4.230  10.616 -0.7123 -0.7423 -0.4588
 5995SOL     OW29617   2.729   1.783  17.358  0.1763 -0.1775  0.8564
 5995SOL    HW129618   2.818   1.798  17.391  0.3330  0.6365  0.0497
 5995SOL    HW229619   2.709   1.700  17.400 -0.7652 -0.0182  0.7289
 5996SOL     OW29620   0.734   2.971   3.921 -0.0862 -0.1228 -0.0999
 5996SOL    HW129621   0.740   2.936   3.832  0.0944 -1.2198  0.3406
 5996SOL    HW229622   0.708   2.891   3.967 -0.4835 -0.5135 -1.0059
 5997SOL     OW29623   2.142   3.364   6.776 -0.1569  0.3562 -0.2393
 5997SOL    HW129624   2.102   3.399   6.856 -1.0390  0.4720 -0.7367
 5997SOL    HW229625   2.155   3.445   6.727  0.2891 -0.3676 -1.3036
 5998SOL     OW29626   2.259   4.540   5.300  0.5583 -1.1367  0.1339
 5998SOL    HW129627   2.218   4.455   5.316 -2.3062  0.8642  3.2410
 5998SOL    HW229628   2.213   4.584   5.371  1.9448  0.1956  0.2095
 5999SOL     OW29629   3.757   2.223   3.115 -0.1348 -0.8273  0.0010
 5999SOL    HW129630   3.784   2.315   3.112 -0.4163 -0.7388  0.2386
 5999SOL    HW229631   3.839   2.183   3.146  1.3020  1.0604 -1.3488
 6000SOL     OW29632   2.148   2.722   5.361  0.3852 -0.6541 -1.2016
 6000SOL    HW129633   2.093   2.663   5.413  0.7927 -1.2087 -1.3947
 6000SOL    HW229634   2.112   2.804   5.396  2.3520 -0.3111  0.0485
 6001SOL     OW29635   4.543   3.579   9.411 -0.5671 -0.2828 -0.1801
 6001SOL    HW129636   4.567   3.664   9.375  1.0053 -0.7979 -0.3260
 6001SOL    HW229637   4.519   3.606   9.500 -2.1856 -0.7564 -0.4656
 6002SOL     OW29638   1.734   4.526   5.349 -0.8039 -0.1674  0.6128
 6002SOL    HW129639   1.811   4.582   5.361 -0.2143 -0.9239  0.3720
 6002SOL    HW229640   1.743   4.513   5.254  0.6654  3.7130  0.2003
 6003SOL     OW29641   3.547   2.215   5.161 -0.0519 -0.0589 -0.3598
 6003SOL    HW129642   3.544   2.288   5.222  1.0016 -0.4622  0.1719
 6003SOL    HW229643   3.503   2.248   5.082  0.0400 -0.9413 -0.7867
 6004SOL     OW29644   1.119   1.450   2.218 -0.1966  0.3684 -0.5986
 6004SOL    HW129645   1.034   1.420   2.187  0.3492 -2.3190  0.5607
 6004SOL    HW229646   1.153   1.364   2.242 -0.4996  0.6880  0.9462
 6005SOL     OW29647   2.956   0.460   1.283  0.5003  0.3885  0.2550
 6005SOL    HW129648   3.008   0.504   1.351  1.3439  0.4574 -0.4313
 6005SOL    HW229649   2.873   0.456   1.330  0.0028  0.5266 -0.6004
 6006SOL     OW29650   0.573   0.270   9.178  0.0911 -0.4979 -0.0844
 6006SOL    HW129651   0.529   0.196   9.135 -1.1599  0.2619 -0.1019
 6006SOL    HW229652   0.500   0.331   9.185 -0.6727 -0.9998 -3.6955
 6007SOL     OW29653   3.082   1.390  12.174 -0.4376 -0.0894 -0.1351
 6007SOL    HW129654   3.125   1.334  12.240  1.6676 -0.5441 -1.8841
 6007SOL    HW229655   3.010   1.407  12.234 -0.3884 -0.6811  0.0951
 6008SOL     OW29656   4.171   3.050   3.361  0.0807  0.1686 -0.5043
 6008SOL    HW129657   4.147   3.137   3.394  1.0974  1.0779 -2.1800
 6008SOL    HW229658   4.084   3.017   3.339  1.1942 -1.9256 -1.7346
 6009SOL     OW29659   0.690   2.383  17.040  0.0908 -0.1798  0.0097
 6009SOL    HW129660   0.674   2.293  17.070  1.8335 -0.3008  0.5651
 6009SOL    HW229661   0.610   2.381  16.987 -0.4150  2.8391  0.6699
 6010SOL     OW29662   2.733   3.114  16.380  0.1342  0.1603 -0.4891
 6010SOL    HW129663   2.825   3.093  16.394 -0.2228 -0.7672  0.5516
 6010SOL    HW229664   2.694   3.084  16.462 -0.9276  2.5801 -0.1255
 6011SOL     OW29665   3.356   1.517  17.135 -0.1134  0.6642 -0.2723
 6011SOL    HW129666   3.373   1.453  17.066 -0.9123  1.1199 -0.8896
 6011SOL    HW229667   3.269   1.550  17.110 -0.0930  0.3071 -0.8028
 6012SOL     OW29668   3.758   3.414   6.506 -0.2186  0.0826  0.1755
 6012SOL    HW129669   3.787   3.500   6.475  1.0968 -0.4300 -0.0269
 6012SOL    HW229670   3.695   3.388   6.438  1.3201 -0.1807 -1.1447
 6013SOL     OW29671   0.012   2.268  17.411  0.4405 -0.0577 -0.2673
 6013SOL    HW129672   4.723   2.360  17.404  0.4106 -0.0847 -0.5183
 6013SOL    HW229673   0.029   2.236  17.322 -0.9915 -1.8074  0.0988
 6014SOL     OW29674   0.180   1.430   6.198 -0.0989 -0.0822  0.0580
 6014SOL    HW129675   0.112   1.498   6.201  0.1686  0.1527  0.8953
 6014SOL    HW229676   0.179   1.406   6.291 -0.3612  0.2308  0.1378
 6015SOL     OW29677   1.497   2.099   1.740  0.6754  0.3366  0.4059
 6015SOL    HW129678   1.511   2.078   1.648 -5.0154  1.4774 -0.7172
 6015SOL    HW229679   1.577   2.060   1.774  0.2296 -0.4579  0.5305
 6016SOL     OW29680   4.666   4.029   8.876  0.5163  0.2025  0.4678
 6016SOL    HW129681   4.638   4.073   8.956 -2.1848 -0.0982 -0.3110
 6016SOL    HW229682   0.021   4.049   8.880  0.4969  0.3166  0.3455
 6017SOL     OW29683   1.453   2.980   4.073 -0.1193  0.4007  0.1232
 6017SOL    HW129684   1.463   3.010   4.163  2.8250  1.1541 -0.4433
 6017SOL    HW229685   1.379   3.035   4.045  1.1056  1.4776 -1.0294
 6018SOL     OW29686   0.026   3.163   2.142 -0.3489 -0.0886  0.7488
 6018SOL    HW129687   0.004   3.093   2.081  2.7733 -0.5745  0.1989
 6018SOL    HW229688   0.099   3.205   2.096  0.3570 -0.4828  1.5239
 6019SOL     OW29689   1.612   3.180   2.180 -0.3477  0.9110 -0.0823
 6019SOL    HW129690   1.550   3.119   2.219 -1.1574  2.0298  0.3607
 6019SOL    HW229691   1.674   3.187   2.252 -1.0635  1.9753  0.4288
 6020SOL     OW29692   1.819   3.657   2.471  0.1385  0.3585 -0.6010
 6020SOL    HW129693   1.894   3.598   2.464  0.1634  0.5793 -2.3183
 6020SOL    HW229694   1.761   3.598   2.519  1.6207 -0.9042 -0.3608
 6021SOL     OW29695   1.985   0.988   5.158  0.1295 -0.1271 -0.1805
 6021SOL    HW129696   1.956   1.077   5.177 -1.7819 -1.1635  1.8007
 6021SOL    HW229697   2.075   1.001   5.188  0.2503  0.3883 -0.7581
 6022SOL     OW29698   2.789   2.973  11.097  0.1570  0.1971  0.5459
 6022SOL    HW129699   2.764   2.888  11.132  0.8830 -0.2672 -0.0596
 6022SOL    HW229700   2.861   2.938  11.044 -0.9286  1.0929 -1.5392
 6023SOL     OW29701   4.002   1.387   3.609 -0.4191  0.4636  0.2038
 6023SOL    HW129702   4.064   1.320   3.637  0.0501  1.1606  0.8273
 6023SOL    HW229703   3.948   1.347   3.541  1.5562 -0.7017 -0.6796
 6024SOL     OW29704   4.683   0.179   8.125  0.2168  0.2392 -0.1196
 6024SOL    HW129705   4.674   0.232   8.046 -0.4786 -1.0755 -0.9214
 6024SOL    HW229706   4.675   0.247   8.192 -0.7830  1.0274 -1.0387
 6025SOL     OW29707   2.619   3.161   1.550 -0.2286  0.2755 -0.2392
 6025SOL    HW129708   2.665   3.081   1.526 -1.0273 -0.6190  1.2089
 6025SOL    HW229709   2.584   3.142   1.637  0.0578 -2.4310 -0.7331
 6026SOL     OW29710   3.887   4.323  16.790  0.2791 -0.0246 -0.5546
 6026SOL    HW129711   3.960   4.315  16.851  0.8875  1.7712 -1.0597
 6026SOL    HW229712   3.893   4.234  16.753 -1.8150 -0.8775  1.1550
 6027SOL     OW29713   4.736   1.299   9.320 -0.1445 -0.3353 -0.4322
 6027SOL    HW129714   0.059   1.316   9.391  1.8594 -0.0286 -2.2527
 6027SOL    HW229715   0.055   1.324   9.247 -0.2342  0.4743 -0.2226
 6028SOL     OW29716   3.965   3.269   1.913  0.4619  0.1901 -0.0834
 6028SOL    HW129717   4.007   3.204   1.969 -1.8693  0.5508  2.1000
 6028SOL    HW229718   3.899   3.220   1.863  1.4908 -1.9362  0.6452
 6029SOL     OW29719   0.380   1.432   6.004 -0.2858 -0.1198  0.1359
 6029SOL    HW129720   0.302   1.445   6.058 -0.1284 -0.9174  0.5474
 6029SOL    HW229721   0.454   1.454   6.060 -1.6527  1.7265  1.2370
 6030SOL     OW29722   3.330   3.126   7.723 -0.0690  0.4407  0.0055
 6030SOL    HW129723   3.421   3.148   7.703 -0.4193 -0.4169 -2.5217
 6030SOL    HW229724   3.332   3.105   7.816 -0.5197  2.6373  0.5217
 6031SOL     OW29725   1.649   0.030   4.900 -0.0746  0.4362  0.0275
 6031SOL    HW129726   1.722   0.027   4.837 -0.2405  0.2534 -0.1556
 6031SOL    HW229727   1.580   0.006   4.838 -1.5446  3.2748  0.6098
 6032SOL     OW29728   3.659   0.190  13.990 -0.5596 -0.4286 -0.3940
 6032SOL    HW129729   3.742   0.169  13.948 -1.4260 -0.4508 -2.0853
 6032SOL    HW229730   3.660   0.141  14.073 -1.4161  0.6559  0.2650
 6033SOL     OW29731   0.961   4.018   0.985 -0.0632 -0.1036 -0.4287
 6033SOL    HW129732   0.971   4.114   0.986 -0.5321 -0.0639  0.4768
 6033SOL    HW229733   1.046   3.994   1.023  1.0961  1.1345 -2.2122
 6034SOL     OW29734   2.052   1.648   9.034 -0.1355  0.4216 -0.0785
 6034SOL    HW129735   2.027   1.727   9.082 -2.2549  1.1739 -2.4151
 6034SOL    HW229736   1.963   1.623   9.009 -0.1418 -2.1441  2.4941
 6035SOL     OW29737   0.259   3.595   7.650 -0.2097  0.4698 -0.2121
 6035SOL    HW129738   0.238   3.568   7.739 -0.8402 -0.2579 -0.5727
 6035SOL    HW229739   0.293   3.511   7.617 -0.9091  0.0213  0.2120
 6036SOL     OW29740   3.517   4.626   7.205  0.3006 -0.5631 -0.0721
 6036SOL    HW129741   3.501   4.623   7.299 -2.3518  0.8413 -0.4860
 6036SOL    HW229742   3.568   4.545   7.203  1.0818 -0.0772  0.5351
 6037SOL     OW29743   0.407   2.150   4.877  0.3295 -0.0792 -0.6273
 6037SOL    HW129744   0.409   2.091   4.953 -1.0222 -0.7516 -1.1072
 6037SOL    HW229745   0.340   2.214   4.901  0.0089 -1.4386  2.1999
 6038SOL     OW29746   0.951   0.992   2.063 -0.1109  0.3671 -0.2831
 6038SOL    HW129747   0.964   0.898   2.066 -1.4452  0.2146  0.6830
 6038SOL    HW229748   1.030   1.024   2.020 -0.2437 -1.0870 -1.5971
 6039SOL     OW29749   0.292   4.514   4.775  0.2550  0.0291  0.4945
 6039SOL    HW129750   0.356   4.586   4.771 -0.3219  0.4870 -0.3964
 6039SOL    HW229751   0.355   4.443   4.783  0.0281 -0.2392 -0.1313
 6040SOL     OW29752   4.507   4.581   6.052 -0.0687  0.3212  0.8395
 6040SOL    HW129753   4.557   4.573   6.134 -0.9915  1.2503  1.4942
 6040SOL    HW229754   4.552   4.532   5.983  1.1617 -0.0228  1.8845
 6041SOL     OW29755   0.151   4.593   6.431 -0.4331  0.0970 -0.5210
 6041SOL    HW129756   0.194   4.539   6.496  0.0737  1.1371  0.0071
 6041SOL    HW229757   0.146   4.679   6.472 -0.6321  0.3827 -1.1462
 6042SOL     OW29758   3.809   3.279   3.581  0.2165  0.1078 -0.2568
 6042SOL    HW129759   3.788   3.359   3.534  1.6631  0.3514 -0.4645
 6042SOL    HW229760   3.904   3.286   3.582  0.3272 -1.1263 -1.2353
 6043SOL     OW29761   3.377   2.336   7.512  0.1973  0.2606  0.3314
 6043SOL    HW129762   3.326   2.292   7.580 -1.3369 -1.8763 -2.2185
 6043SOL    HW229763   3.319   2.375   7.447  0.5780 -0.1013 -0.2285
 6044SOL     OW29764   1.851   3.036   5.319  0.0070  0.4408 -0.0821
 6044SOL    HW129765   1.942   3.027   5.291  0.4975  2.1142  0.9706
 6044SOL    HW229766   1.836   3.130   5.333 -1.9041  0.3886 -1.8772
 6045SOL     OW29767   1.926   0.146   4.582  0.0708  0.2898  0.0088
 6045SOL    HW129768   1.837   0.115   4.566  0.5029 -1.1870  0.4913
 6045SOL    HW229769   1.971   0.146   4.497  0.0052  1.2603 -0.0256
 6046SOL     OW29770   4.262   4.186   6.270  0.1121  0.5495 -0.6011
 6046SOL    HW129771   4.288   4.138   6.192  0.5090  1.0348 -0.7682
 6046SOL    HW229772   4.342   4.204   6.321 -0.0876  2.0157 -0.7864
 6047SOL     OW29773   3.866   2.531   0.227 -0.4115 -0.0049  0.0441
 6047SOL    HW129774   3.862   2.574   0.141 -2.6191  0.0842  0.1783
 6047SOL    HW229775   3.955   2.500   0.240 -0.9993 -0.6873  2.4678
 6048SOL     OW29776   3.130   0.541   1.495 -0.0158 -0.0595  0.4411
 6048SOL    HW129777   3.120   0.611   1.559 -1.3686 -0.3441  0.5365
 6048SOL    HW229778   3.221   0.546   1.466 -0.0854 -0.1649  0.2046
 6049SOL     OW29779   4.670   1.770   6.422  0.0145  0.0835  0.0421
 6049SOL    HW129780   4.683   1.756   6.516 -2.5432  1.8389  0.6667
 6049SOL    HW229781   4.626   1.855   6.417  1.4505  0.9942  2.3942
 6050SOL     OW29782   2.259   3.841   1.908  0.1308 -0.2293  0.1209
 6050SOL    HW129783   2.246   3.936   1.913  0.1323 -0.2495  0.5373
 6050SOL    HW229784   2.254   3.830   2.003 -1.8524 -1.2271 -0.1133
 6051SOL     OW29785   0.300   3.137   8.261 -0.7287  0.1801 -0.0498
 6051SOL    HW129786   0.329   3.226   8.283 -0.0359 -0.1264  0.2703
 6051SOL    HW229787   0.218   3.133   8.312 -0.5792 -0.6361  0.1256
 6052SOL     OW29788   1.563   2.709   5.681  0.6271  0.1361  0.5932
 6052SOL    HW129789   1.647   2.694   5.723  0.5141  0.5042  0.9553
 6052SOL    HW229790   1.512   2.731   5.759 -2.9178 -0.1998 -1.5734
 6053SOL     OW29791   3.990   2.183   3.238 -0.3257 -0.1617  0.1185
 6053SOL    HW129792   4.015   2.275   3.236 -1.3795  0.0820 -1.7456
 6053SOL    HW229793   4.055   2.160   3.304  3.3300 -1.0003 -3.7690
 6054SOL     OW29794   2.366   4.617   1.429 -0.7087  0.6085 -0.4419
 6054SOL    HW129795   2.331   4.530   1.407  1.9942  0.1490 -2.8315
 6054SOL    HW229796   2.421   4.640   1.354 -0.2356  1.2124  0.0953
 6055SOL     OW29797   4.710   4.024   7.841 -0.4035  0.3131  0.0664
 6055SOL    HW129798   0.064   4.007   7.821  0.1079 -0.3404  3.0499
 6055SOL    HW229799   4.681   3.941   7.803 -0.1579  0.5210 -0.5876
 6056SOL     OW29800   2.531   4.215   3.468  0.5897  0.2142 -0.3544
 6056SOL    HW129801   2.500   4.305   3.465 -1.7905 -0.5748  0.9536
 6056SOL    HW229802   2.619   4.230   3.502 -0.2210  1.6521  1.0618
 6057SOL     OW29803   3.613   1.332   9.108 -0.3273 -0.2012 -0.1164
 6057SOL    HW129804   3.595   1.246   9.147  0.8503 -0.4779 -0.1740
 6057SOL    HW229805   3.629   1.388   9.183  3.3910 -1.9145  0.3519
 6058SOL     OW29806   1.381   3.631   4.107  0.1005 -0.0845 -0.0573
 6058SOL    HW129807   1.412   3.669   4.189 -0.0784 -0.5529  0.2283
 6058SOL    HW229808   1.344   3.549   4.140 -0.2990  0.4494  0.8295
 6059SOL     OW29809   3.441   1.607   7.751  0.2603 -0.1513  0.4672
 6059SOL    HW129810   3.470   1.607   7.843 -1.0533  0.6065  0.8743
 6059SOL    HW229811   3.350   1.635   7.753  0.2760  0.1252 -2.3046
 6060SOL     OW29812   4.629   4.706  14.455 -0.0608  0.7178 -0.5374
 6060SOL    HW129813   4.557   4.654  14.420 -0.6633  0.0785  1.6630
 6060SOL    HW229814   4.619   0.051  14.409 -0.7428  1.3484  0.7379
 6061SOL     OW29815   2.160   2.160   8.709  0.3238  1.7323 -0.3024
 6061SOL    HW129816   2.143   2.215   8.785  0.8395  1.7348 -0.1837
 6061SOL    HW229817   2.097   2.201   8.650 -1.5706 -2.8196 -1.4081
 6062SOL     OW29818   3.328   3.061  16.296  0.6229 -0.4846 -0.0917
 6062SOL    HW129819   3.418   3.086  16.317 -0.1521 -0.3696  3.0737
 6062SOL    HW229820   3.283   3.141  16.268  1.5323 -0.1202 -0.5352
 6063SOL     OW29821   3.397   0.679   5.234  0.4429  0.2668 -0.0652
 6063SOL    HW129822   3.467   0.743   5.244  0.7515 -0.1045  0.1512
 6063SOL    HW229823   3.419   0.620   5.307  0.2870  1.3510  0.8505
 6064SOL     OW29824   2.810   1.954   6.918  0.5396 -0.3957 -0.3094
 6064SOL    HW129825   2.875   1.891   6.887  0.4287 -0.5196 -0.2904
 6064SOL    HW229826   2.728   1.907   6.903  0.1287  0.4485 -0.7526
 6065SOL     OW29827   1.903   1.563  13.591 -0.4547 -0.5507 -0.2612
 6065SOL    HW129828   1.985   1.515  13.601 -0.8588 -0.8563  1.6026
 6065SOL    HW229829   1.847   1.487  13.574 -1.7308  0.6370 -1.4153
 6066SOL     OW29830   2.522   2.428   6.465  0.3614 -0.2046 -0.1765
 6066SOL    HW129831   2.510   2.423   6.560  1.5909 -1.0587 -0.0691
 6066SOL    HW229832   2.440   2.391   6.432 -1.2240  3.0870  0.1564
 6067SOL     OW29833   1.060   0.510  10.915 -0.0231 -0.3749  0.5784
 6067SOL    HW129834   1.060   0.513  11.011 -2.0361 -1.4412  0.6086
 6067SOL    HW229835   1.075   0.603  10.897  2.5963 -1.2172 -1.5482
 6068SOL     OW29836   3.775   0.514  14.185  0.4218  0.0515 -0.2659
 6068SOL    HW129837   3.810   0.448  14.126 -1.3961 -0.7546 -0.4285
 6068SOL    HW229838   3.843   0.579  14.169  0.6689 -0.5324 -1.5772
 6069SOL     OW29839   1.245   2.881   8.490  0.3973 -0.5015 -0.0444
 6069SOL    HW129840   1.230   2.794   8.526 -0.7624 -0.1556  0.3170
 6069SOL    HW229841   1.158   2.907   8.458  0.5195 -0.9120 -0.7213
 6070SOL     OW29842   3.163   4.318   9.055 -0.0838 -0.1776  0.5311
 6070SOL    HW129843   3.086   4.372   9.074 -1.4392 -2.0265  0.1665
 6070SOL    HW229844   3.124   4.261   8.990 -1.2413  0.2001  0.8948
 6071SOL     OW29845   0.854   0.872   1.760  0.0294  0.4285 -0.2171
 6071SOL    HW129846   0.889   0.784   1.769  1.2160  0.7272 -1.8797
 6071SOL    HW229847   0.933   0.917   1.788  0.8221 -1.5343  0.6589
 6072SOL     OW29848   3.561   0.301   0.869  0.4147 -0.2408 -0.4480
 6072SOL    HW129849   3.496   0.371   0.870  0.2178 -0.4238 -0.2979
 6072SOL    HW229850   3.546   0.259   0.953  0.0239  1.1507  0.1769
 6073SOL     OW29851   1.425   0.795   8.718  0.1087 -0.3585 -0.1088
 6073SOL    HW129852   1.382   0.785   8.634 -0.1262 -1.0857  0.1010
 6073SOL    HW229853   1.373   0.866   8.756 -0.1946 -0.1076 -0.9931
 6074SOL     OW29854   1.323   0.089   2.548 -0.1534  0.2087  0.4299
 6074SOL    HW129855   1.355   0.146   2.478 -2.6135 -0.2572 -1.0663
 6074SOL    HW229856   1.232   0.082   2.518  0.1613 -4.1248  0.4909
 6075SOL     OW29857   0.718   3.281   4.360  0.1134 -0.2753  0.2245
 6075SOL    HW129858   0.797   3.332   4.343  1.3443 -1.5666  2.0969
 6075SOL    HW229859   0.666   3.336   4.418  0.7424 -0.7840  1.2762
 6076SOL     OW29860   2.076   2.830   7.163 -0.0834  0.0956  0.1883
 6076SOL    HW129861   2.013   2.897   7.135  1.2431 -0.0899 -3.2452
 6076SOL    HW229862   2.046   2.748   7.123  0.6698 -0.4381  0.7227
 6077SOL     OW29863   1.769   0.026   6.103 -0.4719  0.7124 -0.3421
 6077SOL    HW129864   1.795   0.101   6.156  2.3781  0.6998 -1.6997
 6077SOL    HW229865   1.678   0.047   6.087 -0.4407 -1.0778 -2.8847
 6078SOL     OW29866   4.531   3.293   3.743  0.0357 -0.0367  0.0782
 6078SOL    HW129867   4.472   3.316   3.814  1.0236  0.2396  0.8070
 6078SOL    HW229868   4.477   3.323   3.670 -1.6250 -1.5814  0.6680
 6079SOL     OW29869   1.036   1.117  15.031  0.3402 -0.0864  0.3836
 6079SOL    HW129870   1.008   1.117  14.939  0.4906  0.0638  0.3371
 6079SOL    HW229871   0.990   1.039  15.063 -2.2651  0.7363 -1.3513
 6080SOL     OW29872   3.469   3.946   5.562  0.0584  0.0928  1.2832
 6080SOL    HW129873   3.424   3.951   5.646 -0.0504 -1.4489  1.3336
 6080SOL    HW229874   3.516   4.025   5.587 -1.1021  1.2511 -0.2293
 6081SOL     OW29875   4.601   2.211   6.093  0.0382  0.3199  0.0321
 6081SOL    HW129876   4.654   2.290   6.104 -2.4022  2.2692 -2.1915
 6081SOL    HW229877   4.537   2.240   6.028  0.7149 -0.5206 -0.9932
 6082SOL     OW29878   1.764   1.219   7.971  0.4998 -0.0483 -0.2428
 6082SOL    HW129879   1.691   1.246   7.916  0.9489  1.0524 -0.2876
 6082SOL    HW229880   1.792   1.303   8.006 -1.2406  0.3790  0.1602
 6083SOL     OW29881   1.678   2.878   2.989  0.6013  0.2948  0.9460
 6083SOL    HW129882   1.766   2.913   3.000  0.5132  1.1875 -1.3574
 6083SOL    HW229883   1.639   2.937   2.925  0.5414 -1.5507 -0.7219
 6084SOL     OW29884   3.760   0.692   8.354  0.2452 -0.2372 -0.2020
 6084SOL    HW129885   3.687   0.644   8.315 -0.1101  0.3531 -0.2616
 6084SOL    HW229886   3.731   0.680   8.444 -1.7669 -0.8039 -0.9205
 6085SOL     OW29887   4.560   1.383   3.222 -0.5520  0.5816  0.1813
 6085SOL    HW129888   4.581   1.386   3.129 -0.5108 -0.7308  0.1387
 6085SOL    HW229889   4.630   1.329   3.259 -0.9143  1.0178  1.4953
 6086SOL     OW29890   2.042   4.454   9.046  0.0106 -0.1058  0.1143
 6086SOL    HW129891   2.070   4.370   9.081 -0.8604 -0.9489 -1.2579
 6086SOL    HW229892   2.108   4.521   9.066  1.3360 -1.6348  0.8463
 6087SOL     OW29893   3.632   2.068   0.223  0.3511  0.2909 -0.0099
 6087SOL    HW129894   3.707   2.127   0.214 -1.5422  3.0672  2.3851
 6087SOL    HW229895   3.563   2.128   0.198 -0.2056 -0.7801 -1.0537
 6088SOL     OW29896   0.664   0.225   2.189 -0.1612 -0.1416 -0.1193
 6088SOL    HW129897   0.601   0.181   2.247 -0.0949  1.0450  0.8604
 6088SOL    HW229898   0.734   0.249   2.249  0.7996 -0.5396 -1.0941
 6089SOL     OW29899   4.318   3.710   8.984 -1.3617 -0.1769 -0.2358
 6089SOL    HW129900   4.229   3.743   8.976 -1.7814 -0.8750  1.5106
 6089SOL    HW229901   4.363   3.762   8.917 -0.0533 -0.3504  0.4999
 6090SOL     OW29902   3.709   0.220   6.860 -0.4584  0.3437  0.4847
 6090SOL    HW129903   3.644   0.287   6.883 -0.3221  0.4875  0.4479
 6090SOL    HW229904   3.700   0.151   6.926  2.5824  0.5682  1.1210
 6091SOL     OW29905   2.778   0.259   7.354  0.0891  0.1468  0.5073
 6091SOL    HW129906   2.692   0.222   7.334  1.5562 -2.8501 -0.2956
 6091SOL    HW229907   2.824   0.175   7.354  0.7003  0.4852 -2.9319
 6092SOL     OW29908   1.567   4.485   7.186 -0.7082 -0.0774  0.8731
 6092SOL    HW129909   1.629   4.557   7.202 -0.4574 -0.5940  2.2676
 6092SOL    HW229910   1.517   4.516   7.111  0.6784 -0.9594 -0.4049
 6093SOL     OW29911   4.654   1.971   8.653 -1.0521  0.1764  0.2803
 6093SOL    HW129912   4.594   2.011   8.591 -2.3364 -2.2836 -0.0663
 6093SOL    HW229913   4.601   1.974   8.733 -0.0482  0.3097  0.9424
 6094SOL     OW29914   0.155   2.284   7.422 -0.5812 -0.5574  0.4418
 6094SOL    HW129915   0.185   2.209   7.474  1.4961  0.1215  0.2197
 6094SOL    HW229916   0.236   2.319   7.387 -0.7165 -0.3143  0.3715
 6095SOL     OW29917   4.229   3.041   4.542 -0.7453  0.0411 -0.2142
 6095SOL    HW129918   4.251   3.019   4.632  0.6894 -0.9244 -0.7963
 6095SOL    HW229919   4.255   2.954   4.510  3.2081  0.2846  2.4504
 6096SOL     OW29920   1.997   3.124   9.075  0.2195 -0.0195 -0.3706
 6096SOL    HW129921   1.992   3.090   8.986  1.6444 -1.3172  0.0448
 6096SOL    HW229922   1.906   3.139   9.097 -0.2367  0.0219 -2.3286
 6097SOL     OW29923   3.186   3.008  13.511 -0.1244  0.3115  0.3056
 6097SOL    HW129924   3.248   2.942  13.478 -1.0560 -1.1157  1.4099
 6097SOL    HW229925   3.234   3.041  13.588  0.3337 -2.8862  1.3956
 6098SOL     OW29926   1.081   4.198   9.081 -0.0158 -0.0846 -0.0300
 6098SOL    HW129927   1.156   4.188   9.022 -0.3159  1.1600 -0.6326
 6098SOL    HW229928   1.030   4.251   9.020 -1.5612  1.0025  2.2109
 6099SOL     OW29929   4.104   0.652  15.212  0.0584  0.5562  0.2429
 6099SOL    HW129930   4.089   0.594  15.287 -1.3726 -0.6078 -0.9456
 6099SOL    HW229931   4.194   0.670  15.240 -0.3412 -0.0419  1.9071
 6100SOL     OW29932   2.585   2.341  11.596  0.3642 -0.1347  0.2130
 6100SOL    HW129933   2.510   2.359  11.653  0.4063 -2.4325  1.0015
 6100SOL    HW229934   2.565   2.397  11.521  2.7215  0.0193 -0.3040
 6101SOL     OW29935   2.563   4.601   9.457 -0.3289  0.1180 -0.0686
 6101SOL    HW129936   2.492   4.559   9.505  0.2573  0.4095  1.0570
 6101SOL    HW229937   2.562   4.692   9.486 -0.1877 -0.6309  2.2602
 6102SOL     OW29938   3.388   1.365   8.024  0.3036 -0.5691  0.9598
 6102SOL    HW129939   3.442   1.443   8.033  0.7733 -0.6307 -1.1838
 6102SOL    HW229940   3.416   1.316   7.946  0.9017 -0.4252  1.0852
 6103SOL     OW29941   0.624   4.186  16.012 -0.0874 -0.0912  0.1386
 6103SOL    HW129942   0.606   4.182  15.918 -0.0572  2.5615  0.0057
 6103SOL    HW229943   0.569   4.261  16.034  2.8397  1.6534  1.4634
 6104SOL     OW29944   1.718   4.135   3.536 -1.1686 -0.5674 -0.5625
 6104SOL    HW129945   1.730   4.229   3.540  0.0556 -0.8252  1.6408
 6104SOL    HW229946   1.627   4.129   3.505 -0.4800 -2.5756 -2.2221
 6105SOL     OW29947   1.555   1.675   6.763  0.0516  0.1488 -0.7093
 6105SOL    HW129948   1.508   1.598   6.795  1.4684 -0.9333 -1.2120
 6105SOL    HW229949   1.490   1.733   6.723  2.6107  2.6297 -1.2717
 6106SOL     OW29950   3.843   3.940  15.682 -0.0846  0.3331  0.0405
 6106SOL    HW129951   3.751   3.914  15.687  0.1366 -0.0873  2.0383
 6106SOL    HW229952   3.855   3.966  15.773 -1.7356 -2.0185  0.9213
 6107SOL     OW29953   0.153   1.303   4.071  0.6321 -0.2442 -0.0583
 6107SOL    HW129954   0.128   1.389   4.037 -0.4509 -0.0212  1.3191
 6107SOL    HW229955   0.073   1.276   4.114  0.9917 -0.5429  0.4196
 6108SOL     OW29956   2.236   4.309   5.711  0.3319 -0.0006 -0.4152
 6108SOL    HW129957   2.239   4.214   5.718  2.2561 -0.2081 -4.0775
 6108SOL    HW229958   2.145   4.316   5.684  0.3545 -1.8705 -0.9490
 6109SOL     OW29959   1.881   1.183   6.207 -0.4383 -0.0321 -0.3954
 6109SOL    HW129960   1.914   1.161   6.294 -1.6500  1.6878  0.4876
 6109SOL    HW229961   1.951   1.242   6.177 -0.5935  0.5421  0.3885
 6110SOL     OW29962   4.053   3.971   1.747 -0.0944 -0.4495  0.1115
 6110SOL    HW129963   4.102   4.028   1.687 -1.3764  0.4748 -0.0605
 6110SOL    HW229964   4.027   4.035   1.813  0.3466 -1.2985  1.1078
 6111SOL     OW29965   4.738   4.636  15.724  0.3165 -0.1887 -0.2493
 6111SOL    HW129966   0.013   4.547  15.756  0.4419 -1.0584 -2.7720
 6111SOL    HW229967   0.071   4.690  15.758 -0.3744  0.4490  0.2112
 6112SOL     OW29968   4.719   1.183   0.585 -0.3536 -0.6680  0.7491
 6112SOL    HW129969   0.035   1.262   0.588  1.4679 -1.8588 -1.4561
 6112SOL    HW229970   4.696   1.168   0.677 -0.5419 -0.8085  0.6793
 6113SOL     OW29971   4.097   4.260  12.149  0.8433 -0.2972 -0.4632
 6113SOL    HW129972   4.103   4.323  12.221 -0.5117  0.0929 -0.6987
 6113SOL    HW229973   4.112   4.171  12.181  0.8386 -1.0872 -2.6600
 6114SOL     OW29974   3.251   2.252   9.705  0.4475  0.3061 -0.2905
 6114SOL    HW129975   3.170   2.277   9.749  0.0963 -1.8191  0.2710
 6114SOL    HW229976   3.212   2.223   9.622 -0.8319 -1.7304  1.0143
 6115SOL     OW29977   1.293   0.670   7.194  0.0324 -0.5502  0.1768
 6115SOL    HW129978   1.222   0.731   7.215 -0.3908 -1.1093  0.3583
 6115SOL    HW229979   1.251   0.587   7.172  0.2412 -1.2406  2.4399
 6116SOL     OW29980   4.232   4.197   4.573 -0.5658  0.2081  0.2504
 6116SOL    HW129981   4.327   4.213   4.573 -0.5009 -0.1410 -0.8168
 6116SOL    HW229982   4.223   4.132   4.642 -2.5883 -1.0077 -1.1730
 6117SOL     OW29983   0.321   3.925   3.078  0.3003 -0.0005 -0.4763
 6117SOL    HW129984   0.239   3.959   3.115  0.0108  0.4519 -1.5539
 6117SOL    HW229985   0.377   3.936   3.155 -0.4028  0.1118  0.0166
 6118SOL     OW29986   3.742   0.892   7.949 -0.1508 -0.0001  0.9941
 6118SOL    HW129987   3.688   0.967   7.972  0.1809  0.9696 -1.3820
 6118SOL    HW229988   3.743   0.901   7.853  2.2599  1.1151  1.1273
 6119SOL     OW29989   2.614   1.805  17.027 -1.1350 -0.1578 -0.2269
 6119SOL    HW129990   2.602   1.713  17.004  0.8724  0.0247 -2.0109
 6119SOL    HW229991   2.549   1.853  16.976 -1.0696  2.3155  2.0000
 6120SOL     OW29992   1.991   0.884   0.050  0.3093 -0.0203  0.6295
 6120SOL    HW129993   1.934   0.904   0.124  2.0445 -0.1535  1.9976
 6120SOL    HW229994   2.010   0.974   0.024 -0.9441  0.3409  0.9776
 6121SOL     OW29995   2.520   3.764   9.451  0.2103  0.2959 -0.4432
 6121SOL    HW129996   2.512   3.739   9.359 -1.7739  0.1176 -0.2187
 6121SOL    HW229997   2.500   3.680   9.492  1.9678 -0.2363 -0.6947
 6122SOL     OW29998   3.636   1.989   9.227  0.1220 -0.0422 -0.3075
 6122SOL    HW129999   3.625   2.074   9.269  2.6204  0.5974 -0.9265
 6122SOL    HW230000   3.726   1.968   9.252  0.0980  0.4268  0.1594
 6123SOL     OW30001   0.831   4.157   2.075  0.1265  0.6312  0.6238
 6123SOL    HW130002   0.889   4.081   2.081  2.7455  2.3717 -2.4535
 6123SOL    HW230003   0.890   4.232   2.067 -0.6170  1.3439  1.9554
 6124SOL     OW30004   0.559   0.414   5.457 -0.2207  0.0543  0.1533
 6124SOL    HW130005   0.651   0.429   5.478 -0.6390 -0.1787  2.1660
 6124SOL    HW230006   0.539   0.327   5.492  1.6006 -0.0096  1.0406
 6125SOL     OW30007   1.240   2.721  10.433 -0.0696 -0.0541  0.2164
 6125SOL    HW130008   1.177   2.783  10.395  0.2860  1.0895  1.4639
 6125SOL    HW230009   1.182   2.655  10.471  0.9661 -0.8497  0.3961
 6126SOL     OW30010   3.238   3.540  15.201  0.1047  0.0542 -0.2319
 6126SOL    HW130011   3.262   3.447  15.204 -2.1161 -0.5024  0.7450
 6126SOL    HW230012   3.320   3.582  15.225  0.2629  0.2099 -1.0678
 6127SOL     OW30013   4.600   1.646   9.380 -0.2943  0.1840 -0.2309
 6127SOL    HW130014   4.597   1.723   9.323 -1.9581 -0.0874 -0.5272
 6127SOL    HW230015   4.689   1.646   9.414 -0.0799 -0.5503 -0.8023
 6128SOL     OW30016   1.025   4.391   1.875  0.1344  0.5465  0.1313
 6128SOL    HW130017   1.044   4.394   1.968 -0.8608 -0.3918  0.3669
 6128SOL    HW230018   1.036   4.297   1.859 -0.3273  0.8845 -2.2227
 6129SOL     OW30019   0.424   4.120   7.951 -0.1086  0.5984  0.1174
 6129SOL    HW130020   0.438   4.153   7.863  3.0649  1.8083  1.0538
 6129SOL    HW230021   0.332   4.093   7.950 -0.4430  1.7675  0.0188
 6130SOL     OW30022   0.843   1.301   0.430  0.4823  0.5896 -0.2249
 6130SOL    HW130023   0.765   1.326   0.381 -1.7711 -2.5913  1.7313
 6130SOL    HW230024   0.908   1.278   0.363  0.4539 -1.7807  0.5903
 6131SOL     OW30025   4.191   3.191  15.877  0.3786 -0.1979  0.5377
 6131SOL    HW130026   4.250   3.221  15.807 -1.6388  0.1729 -0.9970
 6131SOL    HW230027   4.247   3.194  15.955 -2.7509 -3.7929  2.8901
 6132SOL     OW30028   1.303   1.143  16.443  0.4613 -0.3089  0.1709
 6132SOL    HW130029   1.217   1.183  16.433  1.1597  1.2702  0.5883
 6132SOL    HW230030   1.295   1.086  16.519 -1.8619  0.5513  0.5745
 6133SOL     OW30031   0.603   1.374   1.104  0.1456  0.1093  0.2239
 6133SOL    HW130032   0.616   1.381   1.199  2.1967  1.2328 -0.1387
 6133SOL    HW230033   0.552   1.454   1.102 -1.4463 -0.8309  2.7649
 6134SOL     OW30034   4.293   3.557   7.633 -0.1842  0.4152 -0.5122
 6134SOL    HW130035   4.332   3.562   7.546 -0.2896  0.0604 -0.5805
 6134SOL    HW230036   4.204   3.549   7.599 -0.5184 -4.0132  1.4613
 6135SOL     OW30037   0.818   0.269  10.941  0.3308  0.3406  0.0894
 6135SOL    HW130038   0.789   0.326  10.870  2.4889 -0.3507 -1.3439
 6135SOL    HW230039   0.817   0.338  11.008  2.1891 -0.7842  1.2686
 6136SOL     OW30040   4.686   4.104  10.233 -0.1780 -0.6659 -0.1857
 6136SOL    HW130041   0.039   4.076  10.230 -0.3046 -1.0659 -0.2868
 6136SOL    HW230042   4.675   4.106  10.328 -1.9183  1.7274 -0.4374
 6137SOL     OW30043   0.514   1.580  11.586  0.0736  0.2838 -0.2756
 6137SOL    HW130044   0.602   1.618  11.585  0.3456 -0.2708  1.7777
 6137SOL    HW230045   0.546   1.501  11.630  2.1256  1.2010 -0.1352
 6138SOL     OW30046   4.256   3.698   6.173  0.2855 -0.2670  0.5591
 6138SOL    HW130047   4.182   3.647   6.205  0.1268 -0.8869 -0.8179
 6138SOL    HW230048   4.230   3.789   6.190  0.1350 -0.2333  0.1354
 6139SOL     OW30049   4.120   1.209  12.855  0.4672 -0.7862  0.0817
 6139SOL    HW130050   4.057   1.142  12.829  0.2063 -1.5315  2.6498
 6139SOL    HW230051   4.114   1.189  12.949 -0.4154  0.5981  0.3192
 6140SOL     OW30052   3.565   2.851   4.575 -0.2088 -0.1092 -0.8270
 6140SOL    HW130053   3.641   2.899   4.542  0.0627 -0.2404 -0.3976
 6140SOL    HW230054   3.542   2.906   4.650  4.4447  1.0886 -0.2665
 6141SOL     OW30055   0.313   3.019   3.272 -0.5792  0.1294 -0.0068
 6141SOL    HW130056   0.231   3.003   3.224 -1.2987  0.7209  1.0228
 6141SOL    HW230057   0.350   3.093   3.224  0.1634 -0.0021  0.3694
 6142SOL     OW30058   1.870   3.359   1.391 -1.0817  0.3347 -0.0276
 6142SOL    HW130059   1.821   3.298   1.337  1.3399 -1.1353 -0.5853
 6142SOL    HW230060   1.899   3.416   1.320 -0.2843  1.5336  1.2374
 6143SOL     OW30061   0.586   4.022  14.377  0.0686 -0.4751  0.1674
 6143SOL    HW130062   0.679   3.997  14.373 -0.0083 -0.7116 -0.1601
 6143SOL    HW230063   0.549   3.940  14.345  1.9906 -0.3474 -2.4435
 6144SOL     OW30064   2.320   3.681   7.383  0.2288 -0.0847  0.4531
 6144SOL    HW130065   2.320   3.590   7.411 -0.2544  0.3774  1.9671
 6144SOL    HW230066   2.414   3.691   7.368  0.2366 -1.9885 -0.8018
 6145SOL     OW30067   1.991   3.017   1.394  0.4973 -0.0581  0.0116
 6145SOL    HW130068   2.020   3.078   1.462  0.9961  0.5007 -0.7024
 6145SOL    HW230069   2.071   2.964   1.390  1.1852  0.9848 -0.1131
 6146SOL     OW30070   3.063   0.062   5.717  0.0115  0.2265 -0.1333
 6146SOL    HW130071   3.015   4.718   5.710 -1.7195  1.2768 -0.4904
 6146SOL    HW230072   3.132   0.046   5.652 -0.6619 -0.5897 -0.6533
 6147SOL     OW30073   4.056   4.046   4.415 -0.1156  0.1511 -0.4578
 6147SOL    HW130074   4.115   4.100   4.469 -1.4661 -0.8242  1.9681
 6147SOL    HW230075   4.108   3.967   4.398  1.3851  1.1414 -0.5633
 6148SOL     OW30076   1.127   1.162  11.810 -0.5473  0.4536  0.2309
 6148SOL    HW130077   1.109   1.104  11.884 -4.1529 -1.0554 -1.8204
 6148SOL    HW230078   1.200   1.122  11.762  0.0185  1.3928  0.3122
 6149SOL     OW30079   1.788   3.763   3.362  0.1342 -0.1144  0.5863
 6149SOL    HW130080   1.784   3.697   3.431 -0.4530 -0.2178  0.4572
 6149SOL    HW230081   1.848   3.718   3.302 -2.1525 -1.1291 -0.9445
 6150SOL     OW30082   3.734   4.142  14.596  0.2398 -0.5601  0.5060
 6150SOL    HW130083   3.738   4.132  14.500 -0.4556 -2.0489  0.6242
 6150SOL    HW230084   3.821   4.112  14.620  0.3755 -0.0941  0.6014
 6151SOL     OW30085   3.810   2.163   2.007 -0.0921  0.2467 -0.6574
 6151SOL    HW130086   3.776   2.251   1.993  0.4130  0.8237  1.7813
 6151SOL    HW230087   3.766   2.138   2.088  1.4168 -1.8578 -0.4913
 6152SOL     OW30088   0.657   4.534   5.453  0.1908  0.0929 -0.9248
 6152SOL    HW130089   0.623   4.445   5.453 -0.3397  0.2949  0.1872
 6152SOL    HW230090   0.635   4.553   5.362 -0.6483  0.8740 -0.5541
 6153SOL     OW30091   4.416   3.146  11.755  0.1421  0.2559 -0.5716
 6153SOL    HW130092   4.507   3.159  11.725  0.4242 -1.4299 -0.4088
 6153SOL    HW230093   4.428   3.077  11.820 -0.8352 -0.6625 -1.3707
 6154SOL     OW30094   1.783   3.499  11.100  0.4341  0.4843 -0.0418
 6154SOL    HW130095   1.715   3.452  11.052 -0.6384  1.1793  0.8052
 6154SOL    HW230096   1.847   3.428  11.105  0.7448  0.8564  1.0865
 6155SOL     OW30097   3.213   1.101  14.323 -0.0225  0.5116 -0.5217
 6155SOL    HW130098   3.176   1.160  14.258 -0.6651  2.1583  1.3297
 6155SOL    HW230099   3.178   1.019  14.290  0.6421 -0.4164  1.0254
 6156SOL     OW30100   2.759   1.525   9.569 -0.3011 -0.1936 -0.3403
 6156SOL    HW130101   2.829   1.589   9.580  0.4380 -0.7426 -1.8423
 6156SOL    HW230102   2.799   1.450   9.615  0.8969  0.9465  0.4862
 6157SOL     OW30103   4.405   2.316   5.920 -0.5353 -0.4533  0.0077
 6157SOL    HW130104   4.344   2.378   5.959  0.6247  0.9831 -0.4971
 6157SOL    HW230105   4.411   2.352   5.832  0.1266  2.6114  1.3139
 6158SOL     OW30106   1.924   4.225   7.307 -0.0374  0.1720  0.3141
 6158SOL    HW130107   1.861   4.251   7.375 -0.1261  1.0027 -0.0819
 6158SOL    HW230108   1.996   4.280   7.339  0.5824 -1.3083  1.4751
 6159SOL     OW30109   4.388   2.764   1.310 -0.0255  0.0352  0.3849
 6159SOL    HW130110   4.475   2.800   1.321  0.4262 -0.7338 -0.6451
 6159SOL    HW230111   4.356   2.788   1.223 -1.4054  2.1910  1.4900
 6160SOL     OW30112   3.742   0.304   3.962 -0.4162 -0.7680  0.0260
 6160SOL    HW130113   3.664   0.357   3.948  0.2621  0.2998  0.3229
 6160SOL    HW230114   3.790   0.347   4.032  0.1752  0.1382 -0.9390
 6161SOL     OW30115   2.152   0.502   7.339 -0.1554  0.8218  0.2976
 6161SOL    HW130116   2.060   0.500   7.313 -0.3780  1.9156  0.9730
 6161SOL    HW230117   2.161   0.582   7.392  1.5658 -0.5517  2.0326
 6162SOL     OW30118   2.378   2.125  16.646 -0.3909  0.1562  0.5989
 6162SOL    HW130119   2.459   2.130  16.595 -1.2384  0.1123 -0.7455
 6162SOL    HW230120   2.346   2.215  16.643  0.0490  0.3061  0.4290
 6163SOL     OW30121   4.373   0.907   4.370  0.6724 -0.1851 -0.7271
 6163SOL    HW130122   4.439   0.846   4.338 -1.0813 -1.7247 -1.3260
 6163SOL    HW230123   4.422   0.928   4.450 -1.8210 -1.6184  1.1768
 6164SOL     OW30124   3.859   3.368   5.907  0.1147  0.6490  0.2657
 6164SOL    HW130125   3.930   3.392   5.848  0.6953 -0.4122  0.5275
 6164SOL    HW230126   3.784   3.405   5.859  0.9646  1.2433 -0.5945
 6165SOL     OW30127   1.229   4.186   5.488  0.3931 -0.2620  0.0239
 6165SOL    HW130128   1.284   4.224   5.556 -0.7233  2.8823 -0.8014
 6165SOL    HW230129   1.294   4.142   5.433 -1.0740 -2.3584 -0.0460
 6166SOL     OW30130   4.362   2.648  16.597  0.5040  0.4243 -0.0775
 6166SOL    HW130131   4.439   2.591  16.605  0.1761  0.0011  0.0971
 6166SOL    HW230132   4.405   2.733  16.596 -1.8777  1.5950 -0.9825
 6167SOL     OW30133   0.245   2.351   4.085  0.2971  0.0635 -0.1312
 6167SOL    HW130134   0.258   2.257   4.071  1.3250  0.3583 -1.1099
 6167SOL    HW230135   0.192   2.346   4.164 -0.8709 -0.1808 -0.9300
 6168SOL     OW30136   1.646   4.440  10.865  0.2639  0.1004  0.2106
 6168SOL    HW130137   1.655   4.533  10.885 -1.1754  0.0251  1.1718
 6168SOL    HW230138   1.656   4.409  10.955  2.2527 -2.8462 -1.0076
 6169SOL     OW30139   1.194   3.060   3.473 -0.1807  0.2141 -0.1857
 6169SOL    HW130140   1.100   3.075   3.460 -0.0376 -2.3553 -4.0894
 6169SOL    HW230141   1.204   3.012   3.391 -1.7082 -0.3444 -0.0577
 6170SOL     OW30142   4.276   1.231   0.087  0.6797  0.2257  0.2951
 6170SOL    HW130143   4.257   1.288   0.162  0.4257 -1.2428  1.3535
 6170SOL    HW230144   4.309   1.152   0.131  0.2544 -1.7262 -2.8822
 6171SOL     OW30145   0.647   0.990   7.953  0.4887 -0.1029 -0.5444
 6171SOL    HW130146   0.633   0.907   7.908  0.5727 -0.9952  1.0908
 6171SOL    HW230147   0.738   1.009   7.933  0.8386 -1.9831 -0.7186
 6172SOL     OW30148   4.310   2.056   5.037 -0.0510  0.4106  0.1857
 6172SOL    HW130149   4.262   2.047   5.119 -0.7467  1.2661 -0.1371
 6172SOL    HW230150   4.255   2.123   4.998  0.5707 -0.1366 -1.6570
 6173SOL     OW30151   0.600   3.219   1.184 -0.3640  0.0942 -0.1576
 6173SOL    HW130152   0.537   3.235   1.115 -1.3612  0.5316  0.8577
 6173SOL    HW230153   0.680   3.195   1.137  0.7213  2.2859  0.5961
 6174SOL     OW30154   3.906   0.318   8.763 -0.2230  0.7469  0.2962
 6174SOL    HW130155   3.951   0.384   8.710  0.0910  0.4428  0.1849
 6174SOL    HW230156   3.871   0.258   8.696  2.3337 -1.4113  0.9247
 6175SOL     OW30157   3.001   2.990  11.629 -0.3992 -0.3880 -0.3323
 6175SOL    HW130158   3.084   3.036  11.640 -1.1605  0.4512  1.8745
 6175SOL    HW230159   3.040   2.905  11.608 -0.0471 -0.4770  0.6977
 6176SOL     OW30160   2.191   4.502   6.758  0.3881 -0.4824  0.0261
 6176SOL    HW130161   2.275   4.539   6.784  0.4139  1.1777 -2.4573
 6176SOL    HW230162   2.147   4.508   6.842 -0.9256  0.2922 -0.7071
 6177SOL     OW30163   3.460   4.677  16.863 -0.1857 -0.2264 -0.1463
 6177SOL    HW130164   3.394   4.609  16.877 -1.3688  0.7059 -1.2325
 6177SOL    HW230165   3.436   0.004  16.927  1.6680 -0.3168  0.6473
 6178SOL     OW30166   3.422   4.125   6.851  0.9870 -0.4559  0.2557
 6178SOL    HW130167   3.395   4.191   6.787 -0.2780 -1.6962 -0.4802
 6178SOL    HW230168   3.477   4.182   6.905  0.0929 -0.9028  1.6395
 6179SOL     OW30169   3.947   1.637   3.727 -0.4140 -0.1667  0.1806
 6179SOL    HW130170   4.001   1.668   3.654  1.4557 -0.2552  1.4957
 6179SOL    HW230171   3.974   1.545   3.731 -1.6537 -0.4971  0.8085
 6180SOL     OW30172   1.025   1.911  11.512  0.0334 -0.0239  0.1240
 6180SOL    HW130173   1.112   1.870  11.509 -0.1295 -0.4228  0.7119
 6180SOL    HW230174   0.966   1.850  11.467  1.0758 -1.3097  0.4803
 6181SOL     OW30175   4.140   0.893  14.214 -0.0214  0.0609 -0.4319
 6181SOL    HW130176   4.229   0.863  14.230  0.2428  0.9960 -0.1031
 6181SOL    HW230177   4.085   0.825  14.254  0.6342  1.3976  2.7869
 6182SOL     OW30178   1.286   1.859  13.828  0.3297  0.9454  0.2950
 6182SOL    HW130179   1.377   1.882  13.847  1.0744 -0.9861 -0.9927
 6182SOL    HW230180   1.273   1.906  13.745  3.8165  2.7036  0.7331
 6183SOL     OW30181   1.478   0.571   7.827  0.3434  0.1129 -0.2030
 6183SOL    HW130182   1.488   0.601   7.736  0.1059 -1.6806 -0.8140
 6183SOL    HW230183   1.539   0.630   7.871 -0.0998 -1.5115  2.5707
 6184SOL     OW30184   3.976   3.632  10.694 -0.0768  0.4560 -0.1604
 6184SOL    HW130185   3.922   3.584  10.757  1.8906 -2.7058 -0.8826
 6184SOL    HW230186   3.972   3.566  10.624  2.2908 -1.8361  1.8469
 6185SOL     OW30187   3.510   1.126   6.448  0.5394 -0.1413  0.2244
 6185SOL    HW130188   3.549   1.067   6.384  0.1467 -0.5300  0.3431
 6185SOL    HW230189   3.428   1.152   6.407  0.3878  0.9348  1.2054
 6186SOL     OW30190   2.435   0.160   3.738 -0.1478 -0.2589 -0.0782
 6186SOL    HW130191   2.424   0.254   3.724 -1.3737 -0.5270 -0.9051
 6186SOL    HW230192   2.505   0.157   3.803 -1.0927 -1.2973  0.8803
 6187SOL     OW30193   1.822   2.204  15.401 -0.6084 -0.1401 -0.4153
 6187SOL    HW130194   1.815   2.298  15.418  0.3372  0.0915 -1.2861
 6187SOL    HW230195   1.732   2.172  15.403 -1.2164  1.7927  2.0484
 6188SOL     OW30196   3.077   0.247  16.839  0.6309  0.3172  0.1006
 6188SOL    HW130197   3.003   0.274  16.893 -1.4456 -2.3551 -1.4621
 6188SOL    HW230198   3.035   0.179  16.787  1.4062  1.0755 -1.5125
 6189SOL     OW30199   1.454   4.715   8.479 -0.3674 -0.3024 -0.2350
 6189SOL    HW130200   1.406   4.683   8.555  0.4486  2.3704  1.3616
 6189SOL    HW230201   1.542   4.681   8.495 -1.2059 -2.0274  0.7052
 6190SOL     OW30202   0.694   1.544   0.364 -0.2101  0.0583 -0.6217
 6190SOL    HW130203   0.624   1.557   0.299  1.1967  3.6279 -1.4053
 6190SOL    HW230204   0.650   1.529   0.448 -1.5633  1.5724 -1.0453
 6191SOL     OW30205   1.717   4.409   3.609  0.6556 -0.3108  0.2518
 6191SOL    HW130206   1.686   4.487   3.655  1.3993  1.5153 -2.3661
 6191SOL    HW230207   1.805   4.406   3.646  0.2075  4.2363  1.6857
 6192SOL     OW30208   0.189   1.184   7.831 -0.4933 -0.3456  0.7709
 6192SOL    HW130209   0.191   1.269   7.876 -1.2073 -0.4477  1.0049
 6192SOL    HW230210   0.278   1.166   7.801 -0.0877  3.1916 -0.1370
 6193SOL     OW30211   1.485   1.518   6.080 -0.5679 -0.6026  0.4191
 6193SOL    HW130212   1.554   1.523   6.146  0.0065 -2.2461 -0.0424
 6193SOL    HW230213   1.463   1.425   6.079 -1.5205 -0.3672 -0.1429
 6194SOL     OW30214   2.823   1.306   9.286  0.6310 -0.1319 -0.3287
 6194SOL    HW130215   2.792   1.379   9.340  2.7498  0.4129  0.1424
 6194SOL    HW230216   2.876   1.350   9.221  2.1446 -0.8120  0.4525
 6195SOL     OW30217   0.829   2.010   2.521  0.0726 -0.3435  0.0676
 6195SOL    HW130218   0.752   1.982   2.571 -0.2151 -0.6318 -0.5410
 6195SOL    HW230219   0.787   2.053   2.447  1.2320 -2.3589 -1.7442
 6196SOL     OW30220   0.205   2.816   8.384 -0.3341 -0.3298 -0.2138
 6196SOL    HW130221   0.281   2.800   8.440 -1.9237 -2.8031  1.2079
 6196SOL    HW230222   0.187   2.722   8.377 -1.3883 -0.2832  1.9894
 6197SOL     OW30223   0.960   4.427   6.824  0.0978  0.4328 -0.5646
 6197SOL    HW130224   0.917   4.488   6.764  1.1382 -0.1493 -1.8966
 6197SOL    HW230225   0.901   4.352   6.822  0.8631 -0.1361 -1.3730
 6198SOL     OW30226   2.026   2.312   5.476 -0.6940  0.0513  0.0086
 6198SOL    HW130227   2.060   2.234   5.432  1.3066  2.1997 -2.3007
 6198SOL    HW230228   2.033   2.283   5.566  3.5652 -0.0272 -0.3219
 6199SOL     OW30229   0.488   2.528   4.916  0.2267 -0.2695 -0.5982
 6199SOL    HW130230   0.513   2.483   4.835 -0.1181 -3.1524  0.9149
 6199SOL    HW230231   0.393   2.514   4.912  0.0889  0.1948  1.2263
 6200SOL     OW30232   4.697   1.578   4.934 -0.0726 -0.1816 -0.1113
 6200SOL    HW130233   4.644   1.658   4.927 -0.1473 -0.2093  0.1578
 6200SOL    HW230234   4.697   1.573   5.029  3.0317  1.0922 -0.0510
 6201SOL     OW30235   3.095   2.769   6.611 -0.4117 -0.2074  0.4004
 6201SOL    HW130236   3.025   2.813   6.563 -1.8828  1.6899  4.2986
 6201SOL    HW230237   3.081   2.676   6.589 -0.6268 -0.4895  1.7454
 6202SOL     OW30238   1.547   4.500   3.265 -0.1917 -0.1442  0.1174
 6202SOL    HW130239   1.505   4.500   3.351  2.4340 -2.9800  1.4034
 6202SOL    HW230240   1.506   4.574   3.220  0.6620  1.2587  1.6257
 6203SOL     OW30241   0.030   1.375  16.992 -0.5723  0.2005 -0.1351
 6203SOL    HW130242   4.722   1.339  16.917 -0.4073 -1.1653  0.4232
 6203SOL    HW230243   4.730   1.328  17.067  1.8162 -1.6843 -0.0952
 6204SOL     OW30244   1.726   4.233   4.919 -0.4213  0.4238  0.4701
 6204SOL    HW130245   1.757   4.263   4.833 -0.5113 -0.6408  0.0590
 6204SOL    HW230246   1.634   4.258   4.922 -0.1654  1.1208  2.3816
 6205SOL     OW30247   3.591   3.472  17.597 -0.1738  0.0739  0.6171
 6205SOL    HW130248   3.658   3.519  17.647  1.4287 -0.3833 -1.0992
 6205SOL    HW230249   3.612   3.492  17.506  1.2596  0.1404  0.9661
 6206SOL     OW30250   0.266   0.132  14.659  0.0911 -0.0860 -0.1064
 6206SOL    HW130251   0.206   0.062  14.633  1.5446 -1.2106 -0.4364
 6206SOL    HW230252   0.202   0.194  14.694  0.6895 -0.5387  1.7793
 6207SOL     OW30253   1.319   3.028   9.785  0.2078 -0.2530 -0.7012
 6207SOL    HW130254   1.251   2.988   9.839  2.2936 -2.9161 -0.0241
 6207SOL    HW230255   1.333   3.110   9.832  0.0519 -1.3327  1.2031
 6208SOL     OW30256   4.192   0.713   6.795 -0.4166 -0.2695 -0.1687
 6208SOL    HW130257   4.261   0.732   6.731  1.0620 -0.3247  1.4104
 6208SOL    HW230258   4.199   0.617   6.794  0.0488 -0.2401  0.2308
 6209SOL     OW30259   1.767   3.058   5.840  0.4809 -0.7751 -0.2909
 6209SOL    HW130260   1.800   3.026   5.924  0.6590 -0.7951 -0.3668
 6209SOL    HW230261   1.824   3.004   5.785  1.1102 -0.2519 -0.1580
 6210SOL     OW30262   3.616   4.471   8.973  0.4463 -0.1287 -0.4477
 6210SOL    HW130263   3.708   4.451   8.985  0.3341 -1.4379 -1.7966
 6210SOL    HW230264   3.586   4.429   9.054  0.9031  2.2063  0.9181
 6211SOL     OW30265   0.337   2.118  17.042  0.0498  0.2611 -0.3022
 6211SOL    HW130266   0.325   2.200  16.995  1.7368  1.7184  1.8330
 6211SOL    HW230267   0.421   2.127  17.087 -0.3462 -0.0666  0.4956
 6212SOL     OW30268   2.742   0.514  16.286 -0.3492  0.6330  1.0877
 6212SOL    HW130269   2.786   0.445  16.337  0.4609 -0.7294 -1.4464
 6212SOL    HW230270   2.705   0.461  16.215  1.6272  0.3420  0.2695
 6213SOL     OW30271   3.353   1.516   1.543  0.6858  0.6474 -0.1165
 6213SOL    HW130272   3.378   1.496   1.633 -0.6858  1.6992  0.4994
 6213SOL    HW230273   3.268   1.561   1.546  1.0772  1.2867  1.3986
 6214SOL     OW30274   0.725   3.103   7.213 -0.0013 -0.0712 -0.0417
 6214SOL    HW130275   0.745   3.023   7.165  1.4398 -0.5557  1.3891
 6214SOL    HW230276   0.804   3.155   7.194  1.2363 -3.0223 -3.0199
 6215SOL     OW30277   1.661   1.892  12.302  0.2333 -0.1089 -0.0268
 6215SOL    HW130278   1.663   1.850  12.216 -3.1375  2.2972 -1.2862
 6215SOL    HW230279   1.663   1.984  12.275 -0.8691 -0.3386 -0.9262
 6216SOL     OW30280   3.589   4.311  17.046  0.1505 -0.0428  0.0888
 6216SOL    HW130281   3.672   4.345  17.079  0.6523  1.7240 -3.0188
 6216SOL    HW230282   3.607   4.347  16.960  0.2249  2.1004  0.9945
 6217SOL     OW30283   2.637   1.062   3.310 -0.4981  0.1898  0.4445
 6217SOL    HW130284   2.647   1.141   3.363 -0.6938 -0.9946  2.2364
 6217SOL    HW230285   2.606   1.100   3.228 -1.3936 -2.0445 -0.2403
 6218SOL     OW30286   1.279   3.655   1.961  0.0889 -0.0015  0.1169
 6218SOL    HW130287   1.213   3.610   2.014 -0.6790  1.3628  0.3244
 6218SOL    HW230288   1.276   3.617   1.874  1.2188  0.9775 -0.3444
 6219SOL     OW30289   2.363   1.136  11.370 -0.1957  0.2933  0.0042
 6219SOL    HW130290   2.286   1.194  11.374 -0.3365  0.0946  0.1871
 6219SOL    HW230291   2.343   1.078  11.297  1.2863  1.7935 -1.5798
 6220SOL     OW30292   0.902   1.936   5.382 -0.7443 -0.0341  0.2129
 6220SOL    HW130293   0.933   1.977   5.301 -2.1969 -0.6981 -0.6805
 6220SOL    HW230294   0.811   1.938   5.353  0.4050 -1.7899 -3.5066
 6221SOL     OW30295   2.691   4.472  13.126  0.2314 -0.4634 -0.4413
 6221SOL    HW130296   2.689   4.566  13.105 -0.4196 -0.2671  0.4607
 6221SOL    HW230297   2.742   4.437  13.053  0.2614 -0.3025 -0.4973
 6222SOL     OW30298   4.324   4.134   5.810 -0.9120 -0.6631  0.0987
 6222SOL    HW130299   4.394   4.186   5.850 -1.5137  1.7599 -1.9709
 6222SOL    HW230300   4.358   4.133   5.720  2.1203 -1.8297  1.2618
 6223SOL     OW30301   4.629   0.578   4.806 -0.3063  0.4408  0.0646
 6223SOL    HW130302   4.664   0.522   4.737  0.5998  1.7550 -0.5538
 6223SOL    HW230303   4.669   0.663   4.790 -2.2244  1.1525 -0.9882
 6224SOL     OW30304   3.054   3.144  16.563  0.9660 -0.1433  0.0726
 6224SOL    HW130305   3.041   3.104  16.476  0.2221  0.9933 -0.3392
 6224SOL    HW230306   2.965   3.148  16.599  0.2536 -1.4123 -1.5435
 6225SOL     OW30307   1.480   3.204   0.207  0.1053  0.0831 -0.4741
 6225SOL    HW130308   1.541   3.140   0.169 -0.6242 -1.8147  1.5428
 6225SOL    HW230309   1.517   3.213   0.295 -1.7189 -0.5953  0.3536
 6226SOL     OW30310   1.553   3.444   2.271  0.0035 -0.0506 -0.2101
 6226SOL    HW130311   1.484   3.382   2.248 -0.8691 -0.1202  2.5579
 6226SOL    HW230312   1.623   3.379   2.274 -0.4344 -0.5325 -0.3243
 6227SOL     OW30313   3.559   1.009   4.215 -0.6224  0.5337 -0.5422
 6227SOL    HW130314   3.623   0.954   4.169 -1.2676 -1.8910  1.4937
 6227SOL    HW230315   3.622   1.078   4.236 -0.1894 -0.1205  0.3003
 6228SOL     OW30316   4.237   2.384   5.225 -0.1107 -0.0780 -0.5343
 6228SOL    HW130317   4.221   2.357   5.134  2.6032  0.2755 -1.1207
 6228SOL    HW230318   4.183   2.329   5.281  0.5655  0.0187  0.2064
 6229SOL     OW30319   2.256   3.655  12.145  0.0370 -0.0083 -0.4723
 6229SOL    HW130320   2.172   3.669  12.101 -0.0455 -2.9556 -1.2535
 6229SOL    HW230321   2.226   3.618  12.229 -0.9823  1.5039 -0.1775
 6230SOL     OW30322   4.082   2.729   1.933  0.0758 -0.2229 -0.2900
 6230SOL    HW130323   4.145   2.783   1.885 -1.7334  0.7062 -1.5929
 6230SOL    HW230324   4.131   2.646   1.929  2.2595  1.0380  0.2161
 6231SOL     OW30325   3.812   4.033   3.274  0.3777  0.2559 -1.3040
 6231SOL    HW130326   3.867   4.103   3.238 -2.7313  1.5688 -3.5681
 6231SOL    HW230327   3.875   3.999   3.337 -0.5199 -0.0353 -0.5651
 6232SOL     OW30328   2.006   4.386   7.983 -0.4624 -0.0065  0.0131
 6232SOL    HW130329   2.055   4.333   7.919 -0.4848 -0.7238  0.5950
 6232SOL    HW230330   2.071   4.446   8.020 -1.8358  0.0954  2.2075
 6233SOL     OW30331   1.510   1.392   2.166 -0.2971 -0.3659  0.3591
 6233SOL    HW130332   1.577   1.458   2.149 -1.8657  1.4600  1.2111
 6233SOL    HW230333   1.503   1.401   2.262 -1.0524  0.7593  0.1995
 6234SOL     OW30334   1.272   0.672  15.671  0.1687  0.6781  0.7218
 6234SOL    HW130335   1.330   0.603  15.704  0.7421  0.3702 -0.9383
 6234SOL    HW230336   1.281   0.745  15.733 -0.3212  0.7206  0.7430
 6235SOL     OW30337   4.387   3.567   7.377  0.8691  0.4554 -0.6942
 6235SOL    HW130338   4.467   3.515   7.374  1.0661  0.5859  1.8125
 6235SOL    HW230339   4.392   3.630   7.306  1.8957  1.0840 -0.0542
 6236SOL     OW30340   0.798   3.148  12.288  0.2562  0.0565 -0.3376
 6236SOL    HW130341   0.877   3.098  12.309  0.5166  0.8903  0.6783
 6236SOL    HW230342   0.821   3.175  12.199  0.9875 -0.3179 -0.2675
 6237SOL     OW30343   0.910   0.320   5.966  0.4440 -0.6309  0.6866
 6237SOL    HW130344   0.952   0.234   5.973 -0.1936 -1.1577 -2.1748
 6237SOL    HW230345   0.961   0.367   6.033  0.5911  0.1725  0.0077
 6238SOL     OW30346   3.907   0.296   1.523 -0.2467  0.2162 -0.0302
 6238SOL    HW130347   3.886   0.389   1.517  0.0402  0.3063  0.2889
 6238SOL    HW230348   3.826   0.257   1.492 -1.2605  0.7016  1.9920
 6239SOL     OW30349   2.863   0.629   1.715 -0.3296 -0.2301 -0.1360
 6239SOL    HW130350   2.926   0.686   1.671  0.0812 -1.6951 -1.3993
 6239SOL    HW230351   2.807   0.695   1.757  1.8302 -0.4863  3.2172
 6240SOL     OW30352   0.526   0.587   2.854  0.2233 -0.7798  0.0763
 6240SOL    HW130353   0.438   0.579   2.816 -0.1828  0.8022  0.6812
 6240SOL    HW230354   0.511   0.571   2.947 -1.5222 -0.4341 -0.1366
 6241SOL     OW30355   0.808   0.854   4.852 -0.6303  0.6689  1.1905
 6241SOL    HW130356   0.871   0.897   4.910 -0.5360  0.6734  1.0860
 6241SOL    HW230357   0.838   0.887   4.767  0.9581  0.9414  1.8550
 6242SOL     OW30358   4.196   2.493   8.206  0.6128  0.0235 -0.3353
 6242SOL    HW130359   4.237   2.519   8.123 -0.6885  1.2332 -0.6009
 6242SOL    HW230360   4.235   2.410   8.233  2.2506  1.1507  0.7442
 6243SOL     OW30361   2.654   0.036   9.083  0.1185 -0.6850 -0.2879
 6243SOL    HW130362   2.642   0.053   8.990 -0.3634  3.6717  0.5819
 6243SOL    HW230363   2.744   0.004   9.084  0.2534 -0.2615  4.1467
 6244SOL     OW30364   3.397   2.635   7.163 -0.3524  0.3155 -0.2614
 6244SOL    HW130365   3.311   2.595   7.151 -0.6638  1.6871 -2.6844
 6244SOL    HW230366   3.386   2.699   7.092 -1.6099 -1.4567 -1.6693
 6245SOL     OW30367   0.318   1.570   6.814  0.3119  0.0564 -0.0430
 6245SOL    HW130368   0.319   1.476   6.797  0.3919  0.0693 -0.1072
 6245SOL    HW230369   0.253   1.581   6.884 -0.6353 -0.8880 -0.7899
 6246SOL     OW30370   0.140   1.904  11.218 -0.5421 -0.1609  0.1328
 6246SOL    HW130371   0.171   1.833  11.162 -0.7999  0.9009 -1.3566
 6246SOL    HW230372   0.116   1.842  11.288  2.2265  1.0096  2.1100
 6247SOL     OW30373   4.098   0.296   5.232 -0.0730  0.3125  0.4076
 6247SOL    HW130374   4.084   0.281   5.139  0.3231 -1.3215  0.6090
 6247SOL    HW230375   4.059   0.219   5.274 -1.6886  0.6175 -0.5548
 6248SOL     OW30376   1.007   3.857  16.417 -0.0123 -0.6034  0.1894
 6248SOL    HW130377   0.951   3.907  16.358 -1.1730 -0.7355  1.1988
 6248SOL    HW230378   0.995   3.772  16.374  0.9915  1.0662 -3.4420
 6249SOL     OW30379   1.139   0.660   9.664 -0.6957  0.6937  0.0889
 6249SOL    HW130380   1.198   0.731   9.638  1.8313 -0.5187  2.5851
 6249SOL    HW230381   1.120   0.612   9.583  1.1610 -1.2104  0.7986
 6250SOL     OW30382   1.671   0.407  16.479  0.2700 -0.0293  0.1110
 6250SOL    HW130383   1.617   0.377  16.552  1.1843  0.5074  1.0165
 6250SOL    HW230384   1.628   0.355  16.411 -1.8752 -0.1621  1.5913
 6251SOL     OW30385   0.845   0.407  15.270 -0.8321  0.2857  0.2467
 6251SOL    HW130386   0.795   0.357  15.206 -0.2711 -0.2962  0.2637
 6251SOL    HW230387   0.818   0.498  15.254 -0.0585  0.2701 -1.0852
 6252SOL     OW30388   2.941   3.709   6.842  0.1464  0.2325  0.6166
 6252SOL    HW130389   3.032   3.695   6.817  0.2685  1.6701  0.2301
 6252SOL    HW230390   2.937   3.798   6.807  0.8565 -0.4161 -1.1337
 6253SOL     OW30391   1.686   3.603   7.684 -0.0988  0.3073 -0.4980
 6253SOL    HW130392   1.650   3.676   7.734  1.1640  1.4541 -1.2440
 6253SOL    HW230393   1.643   3.606   7.598 -0.4560 -1.6549 -0.3835
 6254SOL     OW30394   1.738   3.114  12.995  0.5710 -0.6161 -0.2954
 6254SOL    HW130395   1.817   3.133  12.945 -0.0420 -0.9350 -1.3645
 6254SOL    HW230396   1.753   3.170  13.072  1.4079  1.7638 -2.1753
 6255SOL     OW30397   3.983   2.106   8.779 -0.5198  0.5668  0.3380
 6255SOL    HW130398   3.960   2.055   8.857 -0.5813 -1.5970 -1.0969
 6255SOL    HW230399   4.018   2.180   8.829 -1.2882  1.7077 -0.8105
 6256SOL     OW30400   1.082   0.009   7.202  0.5515 -0.9174 -0.4328
 6256SOL    HW130401   1.050   0.090   7.163 -0.3530 -0.6591  0.8255
 6256SOL    HW230402   1.144   4.722   7.134 -0.7921 -0.4823 -1.8171
 6257SOL     OW30403   2.956   3.110   3.502 -0.1479 -0.2381 -0.1592
 6257SOL    HW130404   3.029   3.053   3.476 -1.2684 -1.1343 -1.3183
 6257SOL    HW230405   3.002   3.191   3.524 -2.8976  1.4656 -0.6842
 6258SOL     OW30406   4.272   0.607  14.080  0.0762 -0.5844 -0.8516
 6258SOL    HW130407   4.332   0.533  14.075  0.0411 -0.5833 -1.2617
 6258SOL    HW230408   4.329   0.677  14.112  0.2377 -0.6039 -1.0910
 6259SOL     OW30409   3.788   2.834  15.017 -0.0701 -0.1464  0.0340
 6259SOL    HW130410   3.713   2.775  15.015  0.4276 -0.8029  0.5667
 6259SOL    HW230411   3.798   2.843  15.112  1.7136  0.4956 -0.2169
 6260SOL     OW30412   3.134   0.494   2.996  0.0299 -0.9303  0.0998
 6260SOL    HW130413   3.085   0.465   2.919 -0.1912 -0.1662 -0.0409
 6260SOL    HW230414   3.226   0.493   2.968 -0.1939 -0.2384 -0.6678
 6261SOL     OW30415   3.603   1.805   2.395  0.1962  0.7967 -0.1154
 6261SOL    HW130416   3.590   1.891   2.436 -1.3421 -0.6466  2.4217
 6261SOL    HW230417   3.674   1.774   2.452  0.5629  1.4246 -0.2255
 6262SOL     OW30418   1.014   2.605   5.152  0.1833  0.0092 -0.5382
 6262SOL    HW130419   0.993   2.655   5.230  4.6057  0.1560  0.5704
 6262SOL    HW230420   0.926   2.583   5.121 -0.1965 -0.0894  0.6414
 6263SOL     OW30421   4.660   0.186   3.760  0.5890 -0.4415 -0.1903
 6263SOL    HW130422   4.571   0.189   3.796  1.0167 -3.3220  1.1305
 6263SOL    HW230423   4.714   0.202   3.837 -0.3681 -0.6812  0.5304
 6264SOL     OW30424   3.137   3.666   0.767  1.0063  0.3224  0.2131
 6264SOL    HW130425   3.169   3.586   0.808  1.6412 -0.3107 -1.5457
 6264SOL    HW230426   3.205   3.668   0.700  0.9058  1.0727  0.1379
 6265SOL     OW30427   0.531   2.801  11.597 -0.3815 -0.1739  0.3591
 6265SOL    HW130428   0.513   2.873  11.537 -0.3773 -0.8239 -0.4334
 6265SOL    HW230429   0.617   2.821  11.633 -0.7193  1.2391  0.3552
 6266SOL     OW30430   0.649   1.634   7.899 -0.5135  0.1466 -0.2444
 6266SOL    HW130431   0.581   1.601   7.841  0.0574 -0.3054 -0.6610
 6266SOL    HW230432   0.662   1.567   7.966 -3.0165  0.4024  0.4874
 6267SOL     OW30433   0.365   3.522   3.107 -0.0088  0.6835 -0.4192
 6267SOL    HW130434   0.298   3.585   3.081 -0.5419 -0.2315 -1.2623
 6267SOL    HW230435   0.364   3.532   3.202 -1.9917  2.0397 -0.5866
 6268SOL     OW30436   3.849   0.334  16.902 -0.7291  0.0506 -0.1796
 6268SOL    HW130437   3.766   0.366  16.936  0.3747  1.6250  1.0599
 6268SOL    HW230438   3.843   0.362  16.811  1.9283 -1.0156 -0.6876
 6269SOL     OW30439   2.988   2.306   8.774 -0.7413 -0.0339 -0.3347
 6269SOL    HW130440   2.924   2.357   8.824  0.0104  0.1840  0.4009
 6269SOL    HW230441   3.035   2.260   8.843  0.1063  0.3227 -0.6732
 6270SOL     OW30442   3.154   1.143   2.426 -0.1590 -0.3558 -0.1771
 6270SOL    HW130443   3.191   1.221   2.470 -2.0212  0.1981  0.4085
 6270SOL    HW230444   3.073   1.177   2.388  1.0083  0.8522 -1.6264
 6271SOL     OW30445   2.773   4.377   8.228 -0.8145  0.2052 -0.7416
 6271SOL    HW130446   2.847   4.317   8.214 -0.2894  0.0253  2.9091
 6271SOL    HW230447   2.822   4.458   8.210 -0.3942  0.1022 -0.0510
 6272SOL     OW30448   1.778   1.254   4.224 -0.3945 -0.4648  0.0841
 6272SOL    HW130449   1.754   1.166   4.194 -2.9389 -0.5033  2.3235
 6272SOL    HW230450   1.844   1.237   4.291 -0.1282 -0.8742 -0.2838
 6273SOL     OW30451   1.914   2.015   5.583  0.0942  0.1792 -0.5797
 6273SOL    HW130452   1.950   1.930   5.608  0.9750  0.4606 -0.9184
 6273SOL    HW230453   1.856   1.995   5.509  0.7995 -0.6379 -0.8973
 6274SOL     OW30454   3.564   4.606   1.652  0.0527  0.0892 -0.2629
 6274SOL    HW130455   3.601   4.560   1.727  0.0799 -0.4465 -0.5999
 6274SOL    HW230456   3.593   4.696   1.667  0.0068  0.3803 -1.8564
 6275SOL     OW30457   4.720   1.507   2.030 -0.0935  0.2917  0.0480
 6275SOL    HW130458   0.041   1.477   2.099  0.1243  0.6850  0.0276
 6275SOL    HW230459   0.037   1.524   1.954 -1.4729 -0.0424 -1.0339
 6276SOL     OW30460   0.535   4.596   5.203  0.5922 -0.0444  0.2700
 6276SOL    HW130461   0.501   4.532   5.140  2.9142 -0.1982 -0.8428
 6276SOL    HW230462   0.557   4.672   5.150  0.0436 -0.5379 -0.6595
 6277SOL     OW30463   3.582   0.936   1.941  0.4479 -0.5742  0.0621
 6277SOL    HW130464   3.537   1.009   1.899  2.0404  0.5458  0.3109
 6277SOL    HW230465   3.510   0.880   1.970 -2.6292  2.9531 -0.7162
 6278SOL     OW30466   2.397   0.517   4.013 -0.2718 -0.8550 -0.5000
 6278SOL    HW130467   2.443   0.569   3.947 -0.5482  2.0893  1.6195
 6278SOL    HW230468   2.398   0.564   4.097  2.1152 -1.9509  0.1048
 6279SOL     OW30469   1.204   4.638  15.537 -1.1179  0.4975 -0.7077
 6279SOL    HW130470   1.149   4.666  15.610  0.6975 -0.8772  1.1994
 6279SOL    HW230471   1.210   4.718  15.485 -0.4672  1.5396  0.9831
 6280SOL     OW30472   2.586   1.399  16.350  0.2215 -0.3406  0.5524
 6280SOL    HW130473   2.510   1.413  16.293  1.4979 -0.3959 -1.1706
 6280SOL    HW230474   2.632   1.479  16.322  1.3644 -1.3177 -0.3348
 6281SOL     OW30475   1.187   4.397   7.177 -0.8868  0.3238  0.3227
 6281SOL    HW130476   1.198   4.437   7.264  1.0789 -0.1525  0.2844
 6281SOL    HW230477   1.255   4.330   7.178 -1.5935 -0.4302 -3.0169
 6282SOL     OW30478   4.109   1.694   1.404 -0.2944  0.0982 -0.2599
 6282SOL    HW130479   4.143   1.621   1.353  3.6805  0.9494  1.1790
 6282SOL    HW230480   4.055   1.654   1.472 -1.2829  2.1043  0.1341
 6283SOL     OW30481   2.614   1.591   0.624  0.4222 -0.1652 -0.0838
 6283SOL    HW130482   2.592   1.680   0.593  1.7135  0.5267  1.0036
 6283SOL    HW230483   2.632   1.602   0.717 -1.2039 -0.5400  0.2738
 6284SOL     OW30484   3.083   3.314   2.397 -0.2918  0.0631 -0.7243
 6284SOL    HW130485   3.092   3.381   2.464  2.6136  0.1011 -1.1566
 6284SOL    HW230486   3.172   3.283   2.376  0.4086  0.7039  1.3178
 6285SOL     OW30487   3.524   3.315  15.410 -0.2530 -0.5034  0.0851
 6285SOL    HW130488   3.568   3.297  15.493 -1.3281 -0.7975  0.5882
 6285SOL    HW230489   3.504   3.407  15.425  1.1406 -0.0482 -0.8195
 6286SOL     OW30490   0.266   1.870  17.088  0.5777 -0.3015  0.1880
 6286SOL    HW130491   0.260   1.792  17.033  0.6846 -1.3233  1.6166
 6286SOL    HW230492   0.297   1.924  17.016 -0.1390  0.0550  0.1473
 6287SOL     OW30493   1.844   4.017   8.208 -0.0985  0.6674  0.0055
 6287SOL    HW130494   1.866   3.924   8.209  1.2066  0.9681 -0.9013
 6287SOL    HW230495   1.825   4.022   8.114  1.6517  0.0491 -0.3982
 6288SOL     OW30496   0.723   2.611  13.547 -0.0398 -0.0988 -0.1002
 6288SOL    HW130497   0.792   2.547  13.563  1.3008  1.6889  1.2656
 6288SOL    HW230498   0.729   2.625  13.453  3.5490  0.1289  0.1833
 6289SOL     OW30499   0.841   0.424  15.785  0.1365  0.2924 -0.1414
 6289SOL    HW130500   0.865   0.404  15.875 -2.9845 -0.7760  0.4829
 6289SOL    HW230501   0.902   0.495  15.769  1.4196 -0.9655 -0.8522
 6290SOL     OW30502   4.268   2.052  13.934  0.4610  0.4170  0.0037
 6290SOL    HW130503   4.320   1.978  13.901  0.7524  1.5831 -2.1230
 6290SOL    HW230504   4.228   2.083  13.853 -0.5919 -1.2289 -0.1138
 6291SOL     OW30505   2.817   2.747   7.423  0.7702 -0.7358  0.0332
 6291SOL    HW130506   2.732   2.703   7.422 -0.1871  1.0889 -0.1133
 6291SOL    HW230507   2.845   2.734   7.513  1.2484  0.5443  0.0637
 6292SOL     OW30508   1.329   1.167   9.615 -0.0464  0.5098  0.1115
 6292SOL    HW130509   1.253   1.210   9.654 -1.5078  0.0748 -2.3373
 6292SOL    HW230510   1.379   1.248   9.606 -1.3061  1.3739  0.7989
 6293SOL     OW30511   0.170   4.016   2.681 -0.3547  0.1691 -0.0206
 6293SOL    HW130512   0.144   4.064   2.603 -0.0788  0.3330 -0.0140
 6293SOL    HW230513   0.138   4.070   2.753 -0.2639 -1.3961  1.2054
 6294SOL     OW30514   1.083   4.355   2.131 -0.4634  0.1758 -0.0742
 6294SOL    HW130515   1.095   4.291   2.202  0.2030 -0.4586 -0.7567
 6294SOL    HW230516   1.052   4.430   2.182 -0.7725 -0.4133  0.6157
 6295SOL     OW30517   2.491   0.628   4.262 -0.1085 -0.0482  0.2063
 6295SOL    HW130518   2.447   0.637   4.346  0.3777  1.1645  0.3282
 6295SOL    HW230519   2.549   0.554   4.279  0.3913  0.1215 -0.7300
 6296SOL     OW30520   1.999   0.984  13.086 -0.0323 -0.1359 -0.3415
 6296SOL    HW130521   1.928   0.986  13.151 -0.9592 -0.5554 -1.3302
 6296SOL    HW230522   1.991   0.897  13.046 -0.2509  0.2852 -1.1967
 6297SOL     OW30523   1.232   3.895   2.786 -0.3089 -0.1816 -0.3487
 6297SOL    HW130524   1.167   3.838   2.745 -1.6129 -0.5638  2.1932
 6297SOL    HW230525   1.188   3.898   2.872  1.0032  0.9776  0.2712
 6298SOL     OW30526   2.005   1.549   8.242 -0.0862 -0.1423 -0.2043
 6298SOL    HW130527   2.093   1.527   8.270 -0.0398 -1.9346 -1.7364
 6298SOL    HW230528   1.963   1.590   8.318  0.9039 -1.9214  1.2953
 6299SOL     OW30529   4.621   2.465   9.441  0.1099  0.5933 -0.7761
 6299SOL    HW130530   4.560   2.401   9.477  1.0797  0.0961 -0.0272
 6299SOL    HW230531   4.684   2.397   9.417 -0.8043 -0.6034  0.1993
 6300SOL     OW30532   0.252   3.176   8.635  0.3463  0.1857  0.2257
 6300SOL    HW130533   0.295   3.246   8.684  0.5815 -0.3274  0.7582
 6300SOL    HW230534   0.316   3.105   8.645  0.7885  0.8901  2.3608
 6301SOL     OW30535   2.802   3.933   4.237  0.1115  0.1111 -0.1717
 6301SOL    HW130536   2.889   3.971   4.235  0.2020 -0.0823  0.1787
 6301SOL    HW230537   2.832   3.848   4.268  2.7706  0.6520 -1.2632
 6302SOL     OW30538   2.548   2.155   4.821  0.0157 -1.0789  0.0605
 6302SOL    HW130539   2.512   2.197   4.898 -0.6460  2.2901 -2.0809
 6302SOL    HW230540   2.523   2.063   4.826 -0.8705 -0.8658 -0.5034
 6303SOL     OW30541   2.496   2.153   3.999 -0.0244  0.1377 -0.0515
 6303SOL    HW130542   2.470   2.095   4.070 -0.4073  0.0670 -0.2450
 6303SOL    HW230543   2.416   2.170   3.949  0.1904  3.0240  0.5945
 6304SOL     OW30544   3.193   4.409   7.764  0.1344  0.0966 -0.2388
 6304SOL    HW130545   3.136   4.391   7.838 -3.7987 -1.5928 -3.6502
 6304SOL    HW230546   3.215   4.320   7.738 -4.4347 -1.6421  1.8115
 6305SOL     OW30547   2.748   1.952   9.205  0.3226 -0.2583 -0.1236
 6305SOL    HW130548   2.731   2.035   9.160 -0.8995  0.9450  2.5887
 6305SOL    HW230549   2.666   1.909   9.182 -1.0294  3.4837 -2.1319
 6306SOL     OW30550   3.307   1.155   3.323 -0.5826  0.5542 -0.1464
 6306SOL    HW130551   3.256   1.109   3.257 -0.0231 -1.1666  0.6300
 6306SOL    HW230552   3.399   1.132   3.310 -0.6241 -0.0020  0.5473
 6307SOL     OW30553   2.062   3.658   4.478 -0.6204 -0.4716  0.4339
 6307SOL    HW130554   2.034   3.606   4.403 -1.5075  1.2653 -0.4319
 6307SOL    HW230555   2.097   3.732   4.428 -1.6109 -0.1987  0.1456
 6308SOL     OW30556   0.881   3.833   8.778 -0.0258  0.3363  0.1925
 6308SOL    HW130557   0.922   3.777   8.844  0.2486 -1.7130 -1.6997
 6308SOL    HW230558   0.854   3.766   8.715 -0.4180  0.4630  0.2296
 6309SOL     OW30559   3.516   0.883   8.341 -1.0787 -0.7361  0.3235
 6309SOL    HW130560   3.536   0.794   8.368 -0.9316 -0.4809  1.0425
 6309SOL    HW230561   3.569   0.936   8.400  0.2332 -2.7741  0.9815
 6310SOL     OW30562   3.418   2.560   1.956  0.0945  0.0661  0.5109
 6310SOL    HW130563   3.350   2.495   1.943 -0.0002  0.8625 -2.8633
 6310SOL    HW230564   3.484   2.528   1.895  1.3971  2.4674  0.6413
 6311SOL     OW30565   1.889   0.735  13.020  0.1542  0.0794 -0.3307
 6311SOL    HW130566   1.944   0.685  12.960  0.7153 -1.6035  1.5836
 6311SOL    HW230567   1.943   0.731  13.098 -0.0586 -0.3961 -0.2106
 6312SOL     OW30568   1.794   0.143   3.659  0.0624  0.2400 -1.0547
 6312SOL    HW130569   1.707   0.113   3.684  1.4255 -2.3655  0.4832
 6312SOL    HW230570   1.852   0.080   3.701  2.0641  1.6334 -1.7123
 6313SOL     OW30571   4.617   1.559   0.532 -0.3589  0.1207  0.0372
 6313SOL    HW130572   4.616   1.562   0.627  1.3366  1.7998  0.0071
 6313SOL    HW230573   4.627   1.653   0.519  1.9027 -0.4437 -2.3783
 6314SOL     OW30574   1.774   4.136   4.066 -0.1029 -0.3854  0.2276
 6314SOL    HW130575   1.822   4.096   4.138  0.3131  2.5549  1.5673
 6314SOL    HW230576   1.688   4.094   4.065  1.2087 -3.0559 -0.6502
 6315SOL     OW30577   2.445   4.097   2.546 -0.6664 -0.0671  0.6104
 6315SOL    HW130578   2.359   4.072   2.579 -2.3669  1.4279 -2.7513
 6315SOL    HW230579   2.427   4.188   2.521 -1.7455 -0.1980  0.8983
 6316SOL     OW30580   3.115   1.424  14.498  0.4377  0.0577  1.0527
 6316SOL    HW130581   3.089   1.430  14.406  2.0031 -0.7018  0.5478
 6316SOL    HW230582   3.185   1.358  14.503  1.4107  0.9671 -0.6380
 6317SOL     OW30583   3.641   2.171   3.513 -0.0473  0.0304 -0.4420
 6317SOL    HW130584   3.551   2.201   3.504  0.4914  1.4622 -1.0765
 6317SOL    HW230585   3.655   2.130   3.428  0.3322 -0.2689 -0.2360
 6318SOL     OW30586   3.337   0.295   2.226 -0.4187 -0.2646 -1.2935
 6318SOL    HW130587   3.396   0.326   2.294 -3.5090  0.9546  0.7971
 6318SOL    HW230588   3.353   0.200   2.227  0.2187 -0.1020  1.7026
 6319SOL     OW30589   3.252   3.109  11.646 -0.0280 -0.4796 -0.0295
 6319SOL    HW130590   3.227   3.141  11.559  1.4387 -1.1063 -0.6898
 6319SOL    HW230591   3.346   3.131  11.646 -0.0840 -0.2259 -0.4792
 6320SOL     OW30592   1.313   4.273   3.172 -0.1031  0.2217 -0.8248
 6320SOL    HW130593   1.218   4.282   3.162 -0.4992 -3.3038  0.0272
 6320SOL    HW230594   1.337   4.362   3.143  2.2914  0.3766  1.5882
 6321SOL     OW30595   3.113   3.061   1.831  0.0077  0.5601 -0.1911
 6321SOL    HW130596   3.163   2.981   1.844 -0.6662 -0.4519 -3.9173
 6321SOL    HW230597   3.165   3.129   1.874  0.3063  0.0161  0.3022
 6322SOL     OW30598   0.380   1.083  10.467 -0.0691 -0.8543 -0.4574
 6322SOL    HW130599   0.294   1.120  10.445  0.0619  0.4379  1.2622
 6322SOL    HW230600   0.410   1.142  10.536 -1.6189  0.2148 -0.7111
 6323SOL     OW30601   0.399   1.866  17.370  0.6630 -0.2019  0.5095
 6323SOL    HW130602   0.452   1.902  17.298  0.3458 -2.8358 -1.0274
 6323SOL    HW230603   0.401   1.773  17.348 -1.1657 -0.3504  0.9959
 6324SOL     OW30604   4.077   0.324  16.010  0.7754  0.2026 -0.4729
 6324SOL    HW130605   4.143   0.342  16.077 -0.1437  0.8597  0.2362
 6324SOL    HW230606   4.063   0.409  15.967  0.4950 -0.7321 -2.2143
 6325SOL     OW30607   4.349   4.127   1.378  0.1307  0.5375 -0.1142
 6325SOL    HW130608   4.421   4.089   1.328  1.2980  3.7807 -0.9263
 6325SOL    HW230609   4.357   4.219   1.353 -0.6086  1.2894  2.3461
 6326SOL     OW30610   4.459   0.073   5.027 -0.5261 -0.0623 -0.2222
 6326SOL    HW130611   4.518   0.003   5.002  0.0565  1.7844 -3.9320
 6326SOL    HW230612   4.416   0.030   5.101 -0.9201 -0.4287 -0.6705
 6327SOL     OW30613   3.013   1.661   8.318  0.0614 -0.0900  0.5576
 6327SOL    HW130614   2.996   1.567   8.315 -0.7988  0.1378 -1.8199
 6327SOL    HW230615   3.106   1.671   8.299  0.3372 -1.6600  1.1087
 6328SOL     OW30616   0.968   3.594   4.115 -0.3725 -0.7106  0.3502
 6328SOL    HW130617   0.875   3.592   4.137 -0.0290 -2.5529  1.6329
 6328SOL    HW230618   1.001   3.540   4.188  1.7004 -0.0737 -0.1387
 6329SOL     OW30619   3.426   3.961   1.037 -0.0865 -0.3158 -0.1606
 6329SOL    HW130620   3.455   3.921   1.119 -2.5246  2.2398  1.9428
 6329SOL    HW230621   3.508   3.993   1.000  0.7384 -0.4237  1.5498
 6330SOL     OW30622   4.624   2.470  16.229 -0.4100 -0.4179  0.1201
 6330SOL    HW130623   4.570   2.460  16.151  2.2442 -0.4118 -1.7447
 6330SOL    HW230624   4.621   2.379  16.258  1.2636 -0.2602  0.8296
 6331SOL     OW30625   3.759   1.029   9.058  0.6557 -0.0162 -0.4556
 6331SOL    HW130626   3.681   1.052   9.109  1.4296  0.9296  0.2916
 6331SOL    HW230627   3.742   0.939   9.030 -2.7763  0.5340 -0.2001
 6332SOL     OW30628   3.792   1.722   4.187 -0.2715  0.0281 -0.0111
 6332SOL    HW130629   3.705   1.748   4.219 -0.0013  2.1412 -0.9601
 6332SOL    HW230630   3.774   1.705   4.094  0.0415 -1.2637  0.1653
 6333SOL     OW30631   0.831   4.371   8.159  0.0670  0.8356 -0.1932
 6333SOL    HW130632   0.878   4.289   8.174  0.5843  1.0057 -0.8614
 6333SOL    HW230633   0.742   4.344   8.136 -0.0823  0.8199  0.4158
 6334SOL     OW30634   3.793   0.032   4.003 -0.2276 -0.2630  0.0778
 6334SOL    HW130635   3.756   0.119   3.990 -1.3350 -0.7668 -0.1227
 6334SOL    HW230636   3.872   0.050   4.053  0.6593  0.3929 -1.5486
 6335SOL     OW30637   0.038   3.631  12.127  0.4728  0.0961 -0.1643
 6335SOL    HW130638   0.114   3.631  12.068  1.1600 -0.3892  0.7364
 6335SOL    HW230639   0.059   3.706  12.183 -0.1031 -0.2014  0.4494
 6336SOL     OW30640   2.042   1.714  14.345  0.4882  0.6189 -0.5323
 6336SOL    HW130641   2.137   1.726  14.346  0.7674 -1.6135  0.5740
 6336SOL    HW230642   2.001   1.798  14.364  1.6154  1.0855 -0.1995
 6337SOL     OW30643   3.751   1.326   1.560 -0.1917 -0.2560 -0.2091
 6337SOL    HW130644   3.769   1.244   1.607 -2.2941 -0.2412  0.6233
 6337SOL    HW230645   3.781   1.299   1.473 -0.2551  0.1176 -0.3459
 6338SOL     OW30646   4.734   2.872   7.227 -0.1689 -0.4014  0.1209
 6338SOL    HW130647   0.045   2.831   7.156 -3.6322  1.1630 -3.2528
 6338SOL    HW230648   4.660   2.811   7.235 -0.0342 -0.3132  2.0431
 6339SOL     OW30649   3.608   2.194   9.398 -0.3229  0.8252 -0.0415
 6339SOL    HW130650   3.600   2.134   9.473 -1.2992  1.6468  0.5122
 6339SOL    HW230651   3.644   2.268   9.447  2.3940 -0.4998 -0.0400
 6340SOL     OW30652   0.199   4.196  15.962  0.9268 -0.3756  0.6949
 6340SOL    HW130653   0.279   4.240  15.934  0.5891  0.0497  0.4019
 6340SOL    HW230654   0.202   4.199  16.058 -1.1129 -0.0450  0.7459
 6341SOL     OW30655   0.827   1.735  15.648  0.0367 -0.0814  0.5081
 6341SOL    HW130656   0.907   1.785  15.663  1.0661 -1.5163 -0.1483
 6341SOL    HW230657   0.845   1.653  15.694  1.0840 -0.1064  0.0481
 6342SOL     OW30658   3.957   1.645   5.629 -0.0579  0.3964 -0.2423
 6342SOL    HW130659   3.954   1.690   5.714  2.4090 -1.5269  0.8564
 6342SOL    HW230660   4.006   1.565   5.646  0.3572  0.3665 -1.6177
 6343SOL     OW30661   3.092   2.583   9.846 -0.5204  0.2695 -0.4312
 6343SOL    HW130662   3.052   2.498   9.830 -0.0992  0.0561 -0.3695
 6343SOL    HW230663   3.091   2.591   9.942 -0.0164 -0.2695 -0.3751
 6344SOL     OW30664   0.970   4.470   6.042  0.2333  0.0849  0.1854
 6344SOL    HW130665   0.902   4.530   6.074 -1.4962 -0.6932 -2.0392
 6344SOL    HW230666   0.914   4.437   5.972  1.4217 -0.5887 -0.4375
 6345SOL     OW30667   0.010   1.469   1.318 -0.7098  0.4207 -0.2980
 6345SOL    HW130668   4.678   1.523   1.353 -0.9187 -0.0292 -0.0332
 6345SOL    HW230669   0.071   1.537   1.289  1.7784 -1.1020  1.4068
 6346SOL     OW30670   4.598   1.235   2.157  0.6630 -0.6101 -0.0758
 6346SOL    HW130671   4.682   1.280   2.170  0.0703  1.4718 -3.4243
 6346SOL    HW230672   4.533   1.301   2.181  2.2926  1.1058 -0.3623
 6347SOL     OW30673   3.598   3.675   7.985 -0.4520 -0.3067 -0.2111
 6347SOL    HW130674   3.592   3.636   8.073 -2.2344  0.6760  0.1185
 6347SOL    HW230675   3.528   3.741   7.984 -0.0398  0.1431  0.7563
 6348SOL     OW30676   3.041   2.905  10.908 -0.1049  0.2532 -0.1193
 6348SOL    HW130677   3.087   2.823  10.891 -0.3348  0.3680 -1.3256
 6348SOL    HW230678   3.111   2.970  10.904 -1.1176  1.2636 -1.3318
 6349SOL     OW30679   0.078   4.629   5.095  0.3089  0.3784 -0.0878
 6349SOL    HW130680   0.035   4.544   5.091  0.8934  0.0614  0.4290
 6349SOL    HW230681   0.012   4.682   5.051 -0.0397 -0.4595 -0.5796
 6350SOL     OW30682   0.599   0.651   0.101 -0.3198  0.5406  0.5543
 6350SOL    HW130683   0.547   0.727   0.129  0.2755  0.2167  2.5379
 6350SOL    HW230684   0.636   0.678   0.017  0.3571 -1.0976  0.3281
 6351SOL     OW30685   2.354   1.707   5.943  0.4675  0.6219 -0.3685
 6351SOL    HW130686   2.280   1.652   5.914 -0.6531  0.9082  1.9740
 6351SOL    HW230687   2.418   1.675   5.879 -0.1587 -1.6593  0.1373
 6352SOL     OW30688   2.517   1.493  14.756 -0.4751  0.6851 -0.0538
 6352SOL    HW130689   2.527   1.494  14.851 -1.3945 -1.3488  0.0530
 6352SOL    HW230690   2.598   1.540  14.732  0.0587  0.6933  1.7076
 6353SOL     OW30691   4.478   2.826  13.133  0.3676 -0.6388 -0.4873
 6353SOL    HW130692   4.529   2.832  13.214  1.3861 -0.3444 -1.1428
 6353SOL    HW230693   4.406   2.773  13.166  0.2255 -1.0016 -1.3691
 6354SOL     OW30694   2.452   0.900  16.371  0.3921 -0.3105  0.0424
 6354SOL    HW130695   2.504   0.895  16.291  0.6030  1.7277  0.0568
 6354SOL    HW230696   2.480   0.813  16.403 -1.0627 -0.0184  2.1541
 6355SOL     OW30697   0.420   1.866   0.970  0.1200  0.3942  0.1657
 6355SOL    HW130698   0.481   1.929   1.009  0.7067  0.4502 -0.8301
 6355SOL    HW230699   0.401   1.915   0.889  2.1820 -0.7033 -0.9752
 6356SOL     OW30700   1.954   0.052  17.649  0.2370  0.1499  0.1359
 6356SOL    HW130701   1.903   0.030  17.727 -1.0615  1.1898 -0.4084
 6356SOL    HW230702   2.034   0.002  17.666 -1.2145 -2.3868 -0.5042
 6357SOL     OW30703   2.022   4.051  11.533 -0.0368 -0.0143 -0.4141
 6357SOL    HW130704   2.051   3.984  11.472  0.2688  0.6741 -1.0249
 6357SOL    HW230705   1.981   4.101  11.461 -1.4019  1.9944  1.7373
 6358SOL     OW30706   2.296   2.854   8.381 -0.4254  0.3741 -0.3534
 6358SOL    HW130707   2.377   2.803   8.383 -0.1100  0.9023  0.1073
 6358SOL    HW230708   2.325   2.939   8.349  2.0119 -0.3657 -0.0851
 6359SOL     OW30709   0.057   1.324   4.383 -0.5724  0.0124 -0.4320
 6359SOL    HW130710   0.001   1.398   4.406  0.8722  0.0842  2.8188
 6359SOL    HW230711   0.081   1.294   4.470  0.2482  1.8137 -0.0323
 6360SOL     OW30712   0.820   1.911   3.524  0.0408 -0.0667 -0.3947
 6360SOL    HW130713   0.788   1.970   3.593  1.1818 -0.7285  0.7092
 6360SOL    HW230714   0.829   1.824   3.562  0.8875  0.5824  0.8986
 6361SOL     OW30715   4.629   4.140   9.125 -0.2218 -0.5114  0.2204
 6361SOL    HW130716   4.608   4.142   9.218  0.5381 -1.5409  0.4197
 6361SOL    HW230717   4.718   4.175   9.130 -1.3946  2.3875  0.9739
 6362SOL     OW30718   4.284   0.504  13.768  0.6657 -0.2498 -0.2257
 6362SOL    HW130719   4.297   0.464  13.682 -0.7979  0.8664 -0.9637
 6362SOL    HW230720   4.372   0.536  13.789  1.0326 -0.5536 -1.2807
 6363SOL     OW30721   1.795   3.446  17.530 -0.0913 -0.3297 -0.7386
 6363SOL    HW130722   1.879   3.403  17.546 -0.3215 -0.8531 -0.9207
 6363SOL    HW230723   1.810   3.498  17.451  1.8208  0.3842  0.0905
 6364SOL     OW30724   4.158   1.732  16.153 -0.3746  0.1105 -0.2681
 6364SOL    HW130725   4.120   1.785  16.083 -1.5271  0.3854  0.5538
 6364SOL    HW230726   4.171   1.648  16.108 -1.1785 -0.6774  0.9537
 6365SOL     OW30727   2.099   0.333   6.472 -0.5959 -0.1574  0.3006
 6365SOL    HW130728   2.078   0.293   6.388 -1.1355 -2.1810  1.3893
 6365SOL    HW230729   2.116   0.248   6.513  1.3150 -0.7617 -1.7276
 6366SOL     OW30730   1.198   1.733   9.739  0.2748  0.6916  0.0295
 6366SOL    HW130731   1.136   1.674   9.782 -1.0575  1.4307 -0.8703
 6366SOL    HW230732   1.142   1.810   9.739 -0.8955 -0.1566  0.5428
 6367SOL     OW30733   2.935   2.293   7.901  0.6877 -0.5671 -0.1956
 6367SOL    HW130734   2.900   2.211   7.935  0.4809  0.0717  1.1482
 6367SOL    HW230735   2.968   2.276   7.813 -0.7923 -1.9329 -0.4719
 6368SOL     OW30736   0.961   3.321   5.527 -0.2761  0.0391 -0.2209
 6368SOL    HW130737   1.025   3.250   5.528  0.3469  0.6103  0.6573
 6368SOL    HW230738   0.969   3.337   5.621 -0.9051  1.6679 -0.4489
 6369SOL     OW30739   0.039   1.071   8.912 -0.8275 -0.0607  0.4540
 6369SOL    HW130740   0.075   0.991   8.873 -0.4478 -0.1412  0.9666
 6369SOL    HW230741   4.683   1.057   8.910 -0.4550 -2.3757 -2.2010
 6370SOL     OW30742   2.432   1.325   2.347  0.3204  0.3408 -0.2176
 6370SOL    HW130743   2.517   1.321   2.392 -0.2335 -0.6295  0.7280
 6370SOL    HW230744   2.370   1.371   2.404  0.6630  0.4230  0.0917
 6371SOL     OW30745   2.540   2.847   7.147  0.0084  0.4237 -0.2333
 6371SOL    HW130746   2.488   2.824   7.224 -1.5349 -0.3064 -1.4680
 6371SOL    HW230747   2.477   2.896   7.094 -0.8636 -1.0924 -0.5986
 6372SOL     OW30748   4.580   0.842   9.801 -0.1290 -0.1015 -0.4666
 6372SOL    HW130749   4.558   0.891   9.880 -1.6600  0.1215 -1.0143
 6372SOL    HW230750   4.621   0.913   9.753  0.4210  0.4686  0.8674
 6373SOL     OW30751   1.928   1.808  15.681 -0.0097  0.3119 -0.0321
 6373SOL    HW130752   1.881   1.725  15.691  2.3276 -0.9494  0.3899
 6373SOL    HW230753   1.932   1.823  15.587  2.2410 -0.3511 -0.0247
 6374SOL     OW30754   0.815   4.062   9.952  0.4197  0.0496 -0.0088
 6374SOL    HW130755   0.802   3.968   9.940  1.2411  0.1769 -1.8076
 6374SOL    HW230756   0.910   4.066   9.964  0.2414  3.3834  0.2912
 6375SOL     OW30757   1.193   2.022   0.316 -0.1835 -0.1775 -0.1818
 6375SOL    HW130758   1.157   1.946   0.270  0.4777 -0.9964  0.6595
 6375SOL    HW230759   1.147   2.015   0.399 -1.3769  1.3505 -0.7007
 6376SOL     OW30760   0.918   2.887   3.677  0.3882 -0.5837  0.4123
 6376SOL    HW130761   0.970   2.824   3.626  0.6853  1.3895 -1.7460
 6376SOL    HW230762   0.866   2.923   3.606  0.3494 -0.5882  0.4387
 6377SOL     OW30763   3.987   2.468  16.590  0.5050 -0.2417 -0.4293
 6377SOL    HW130764   4.012   2.559  16.606 -0.0376 -0.3061  0.7714
 6377SOL    HW230765   4.068   2.418  16.582  0.8604  0.4000 -0.7638
 6378SOL     OW30766   2.142   0.882   7.295 -0.2829 -0.2244 -0.5772
 6378SOL    HW130767   2.180   0.894   7.208 -1.3989  3.0677 -0.6180
 6378SOL    HW230768   2.055   0.916   7.274  0.4276  0.8401 -1.8491
 6379SOL     OW30769   3.182   2.894   7.380  0.0460  0.0081  0.2751
 6379SOL    HW130770   3.171   2.818   7.323 -2.8056  0.5673  0.0814
 6379SOL    HW230771   3.212   2.854   7.462  2.0169  1.3355  0.1827
 6380SOL     OW30772   2.123   2.899  15.949  0.3182 -0.3313  0.1927
 6380SOL    HW130773   2.105   2.952  16.027 -3.6708 -1.6255  0.1181
 6380SOL    HW230774   2.218   2.889  15.943  0.0814 -1.3290 -1.8464
 6381SOL     OW30775   4.540   1.108   9.251 -0.4301  0.9504 -0.2263
 6381SOL    HW130776   4.513   1.100   9.342 -0.2824 -0.6024 -0.3198
 6381SOL    HW230777   4.610   1.173   9.253  0.2608  0.1953 -0.0222
 6382SOL     OW30778   0.104   4.372   8.963  0.3399  0.1728  0.2024
 6382SOL    HW130779   0.106   4.462   8.931 -0.1206  0.0078 -0.2742
 6382SOL    HW230780   0.101   4.322   8.882 -1.4236 -2.2136  1.7465
 6383SOL     OW30781   4.737   3.788   1.790  0.0869 -0.2415  0.7093
 6383SOL    HW130782   4.732   3.839   1.871  1.4170 -1.9440  1.8588
 6383SOL    HW230783   4.705   3.705   1.824 -1.5932 -0.0762 -0.4311
 6384SOL     OW30784   1.798   3.285   4.250  0.0300 -0.3903  0.1364
 6384SOL    HW130785   1.821   3.203   4.294 -0.6317 -0.2128  0.8249
 6384SOL    HW230786   1.838   3.269   4.165 -1.9075 -0.6422 -0.7211
 6385SOL     OW30787   2.426   0.320  15.973  0.0283 -0.1110 -0.9902
 6385SOL    HW130788   2.439   0.244  15.916  1.3898 -0.5382 -0.1186
 6385SOL    HW230789   2.335   0.301  15.996  0.3196  1.6680  1.5849
 6386SOL     OW30790   2.209   0.974   7.719  0.1102  0.0827  0.4607
 6386SOL    HW130791   2.133   0.917   7.727  1.5132 -1.6230  1.8243
 6386SOL    HW230792   2.178   1.061   7.742 -1.2364 -0.8106  2.0376
 6387SOL     OW30793   2.492   1.073   4.148  0.4150 -0.4750 -0.3343
 6387SOL    HW130794   2.565   1.021   4.111 -0.0326  0.0893 -2.0123
 6387SOL    HW230795   2.437   1.016   4.202  3.2479 -0.6023  2.3919
 6388SOL     OW30796   0.739   4.090   3.325  0.8266  0.8272 -0.1636
 6388SOL    HW130797   0.777   4.174   3.351  0.4256  0.7898  0.5565
 6388SOL    HW230798   0.804   4.020   3.329 -2.7625 -2.4747  0.4902
 6389SOL     OW30799   2.816   4.405   3.414 -0.6631  0.3717  0.2742
 6389SOL    HW130800   2.826   4.493   3.378 -0.7432 -0.1365 -1.0260
 6389SOL    HW230801   2.834   4.348   3.338  0.8529  1.8300 -0.4521
 6390SOL     OW30802   2.513   2.284  12.595 -0.0172  0.4153 -0.1990
 6390SOL    HW130803   2.605   2.280  12.571  0.5361  1.3753  1.7526
 6390SOL    HW230804   2.472   2.303  12.510  1.4430  0.0286 -0.9849
 6391SOL     OW30805   0.741   0.177   9.516 -0.0092  0.4320 -0.2929
 6391SOL    HW130806   0.657   0.208   9.480 -0.0339  1.3153  0.5298
 6391SOL    HW230807   0.723   0.181   9.610 -0.7399 -1.7343 -0.3312
 6392SOL     OW30808   1.220   0.086   1.700  0.2354  0.1400 -0.5362
 6392SOL    HW130809   1.237   0.043   1.784 -2.2516 -2.1939 -1.2240
 6392SOL    HW230810   1.231   0.015   1.638 -2.0596  1.9920 -3.0862
 6393SOL     OW30811   0.915   0.963  14.802 -0.1368 -0.1369 -0.3731
 6393SOL    HW130812   0.842   0.941  14.744 -1.0528  2.2926 -0.1371
 6393SOL    HW230813   0.988   0.955  14.741 -1.6639  0.9978 -2.3443
 6394SOL     OW30814   3.008   3.269   3.184 -0.3325 -0.1537 -0.0727
 6394SOL    HW130815   2.977   3.323   3.111 -0.8331 -0.1148  0.1656
 6394SOL    HW230816   3.003   3.180   3.148  1.8264  0.2725 -1.4172
 6395SOL     OW30817   2.865   2.561   5.559  0.0210  0.5733  0.1360
 6395SOL    HW130818   2.771   2.544   5.557 -0.2233  1.9479 -0.2258
 6395SOL    HW230819   2.907   2.503   5.622  1.3113  1.1743 -0.1701
 6396SOL     OW30820   0.749   2.285  15.919 -0.5060 -0.1412  0.5707
 6396SOL    HW130821   0.718   2.370  15.951 -0.3496 -0.5078  1.6741
 6396SOL    HW230822   0.843   2.300  15.933 -0.4688 -1.7149  1.8796
 6397SOL     OW30823   3.175   2.391  12.708  0.0305 -0.0578 -0.2434
 6397SOL    HW130824   3.205   2.459  12.647 -1.0872  0.9414  0.3012
 6397SOL    HW230825   3.246   2.328  12.713  0.8538  0.8122 -0.9623
 6398SOL     OW30826   0.423   3.979   1.622  0.5045  0.0657 -0.0618
 6398SOL    HW130827   0.376   3.896   1.622 -0.8514  0.8409  0.7452
 6398SOL    HW230828   0.485   3.977   1.549 -0.1400 -1.4958 -0.5615
 6399SOL     OW30829   0.445   3.767   8.926  0.1625  0.0890  0.4209
 6399SOL    HW130830   0.529   3.749   8.968 -0.0483 -0.1096  0.7606
 6399SOL    HW230831   0.400   3.820   8.992 -0.9131 -0.1891 -0.0817
 6400SOL     OW30832   1.364   1.129   6.933  0.5866  0.1378  0.3723
 6400SOL    HW130833   1.426   1.192   6.970  1.5926 -0.4613 -0.2852
 6400SOL    HW230834   1.358   1.061   7.001 -1.0587 -0.9450 -0.8569
 6401SOL     OW30835   3.440   0.162   7.369 -0.8764  0.0218 -0.5066
 6401SOL    HW130836   3.533   0.184   7.374 -0.5672 -0.6830 -3.4689
 6401SOL    HW230837   3.441   0.100   7.443  0.6758 -1.8177 -2.0508
 6402SOL     OW30838   3.509   4.495   3.842  0.0412 -0.7585 -0.3607
 6402SOL    HW130839   3.528   4.427   3.777 -1.2757 -0.5644 -0.9428
 6402SOL    HW230840   3.584   4.485   3.901  0.0397 -1.1136 -0.4204
 6403SOL     OW30841   2.556   1.183  16.025  0.0891  0.2431  0.1602
 6403SOL    HW130842   2.516   1.234  16.095 -0.3065  0.7994 -0.4747
 6403SOL    HW230843   2.477   1.188  15.972 -0.5793  0.1022  1.1465
 6404SOL     OW30844   2.509   2.367  13.941  0.2821 -0.0637 -0.1412
 6404SOL    HW130845   2.589   2.419  13.947 -0.0463  0.3532  0.7069
 6404SOL    HW230846   2.445   2.430  13.908  0.6459 -0.1030 -0.9161
 6405SOL     OW30847   2.952   4.442   2.561 -0.3560  0.2846 -0.2620
 6405SOL    HW130848   2.905   4.360   2.544  0.9162 -0.3490 -0.7356
 6405SOL    HW230849   2.879   4.502   2.554  0.9638  1.8869 -0.2185
 6406SOL     OW30850   3.118   4.569   2.735  0.7281  0.0074 -0.0461
 6406SOL    HW130851   3.068   4.548   2.814 -0.1667  0.0471 -0.6018
 6406SOL    HW230852   3.066   4.519   2.672  1.6857 -1.4811  0.3408
 6407SOL     OW30853   4.018   3.684   2.807 -0.6610 -0.0467  0.4829
 6407SOL    HW130854   3.990   3.598   2.839 -1.0072 -0.1322 -0.0540
 6407SOL    HW230855   4.059   3.669   2.722  0.3158  0.1255  0.9214
 6408SOL     OW30856   1.596   0.528  14.373 -0.0749 -0.2976 -0.2812
 6408SOL    HW130857   1.580   0.592  14.303 -1.5326  1.2666  1.4863
 6408SOL    HW230858   1.535   0.571  14.433  0.1666 -0.1640 -0.1333
 6409SOL     OW30859   0.070   2.383   4.324 -0.1020  0.2114  0.3925
 6409SOL    HW130860   0.031   2.447   4.383  2.3986  3.3720 -1.3829
 6409SOL    HW230861   4.728   2.355   4.282  0.6429  0.8368 -1.4920
 6410SOL     OW30862   2.309   3.260   6.388 -0.0367 -0.4062 -0.0777
 6410SOL    HW130863   2.339   3.247   6.299  0.2696  0.4467 -0.0949
 6410SOL    HW230864   2.330   3.350   6.409 -1.0515  0.0572 -1.0196
 6411SOL     OW30865   4.088   0.239   5.847 -0.1437  0.2144 -0.2633
 6411SOL    HW130866   4.177   0.238   5.883 -0.3684 -0.4354  0.2583
 6411SOL    HW230867   4.106   0.258   5.754  0.4467  1.8384  0.1668
 6412SOL     OW30868   2.516   1.788   4.462  0.2193  0.1785  0.3147
 6412SOL    HW130869   2.533   1.695   4.479 -0.1096  0.3108  1.3618
 6412SOL    HW230870   2.458   1.778   4.386  1.2929 -0.6533 -0.3960
 6413SOL     OW30871   1.051   1.058   7.726  0.3067 -0.4460 -0.3812
 6413SOL    HW130872   0.994   1.085   7.654  0.4554  0.1947 -0.2594
 6413SOL    HW230873   0.992   1.050   7.801  0.1156  0.3199 -0.4544
 6414SOL     OW30874   2.589   4.524   1.046 -0.3492 -0.3522  0.0784
 6414SOL    HW130875   2.668   4.470   1.043  0.6359  1.1917 -1.4302
 6414SOL    HW230876   2.542   4.497   0.968 -1.7281  0.7430  0.5297
 6415SOL     OW30877   1.130   4.682   2.072  0.1889  0.4042 -0.3581
 6415SOL    HW130878   1.215   4.679   2.027  0.6031 -2.2659  0.6585
 6415SOL    HW230879   1.066   4.681   2.001  0.9883  1.0546 -1.0944
 6416SOL     OW30880   2.436   0.966   7.890 -0.1717  0.0278 -0.2856
 6416SOL    HW130881   2.482   1.028   7.833  1.3729 -1.0685 -0.2629
 6416SOL    HW230882   2.351   0.951   7.848 -0.3032  2.0827 -0.7430
 6417SOL     OW30883   0.206   1.805   4.015  0.0038 -0.2435  0.5194
 6417SOL    HW130884   0.138   1.858   3.974  0.0903 -1.4659 -1.2191
 6417SOL    HW230885   0.214   1.843   4.102 -0.6447  0.6801  0.1719
 6418SOL     OW30886   1.949   1.824  17.160 -0.0109 -0.1616  0.3508
 6418SOL    HW130887   1.983   1.911  17.181 -4.7501  1.3858  1.8066
 6418SOL    HW230888   1.955   1.836  17.065 -1.6974  1.2417  0.4176
 6419SOL     OW30889   2.936   1.902   1.890  0.2160 -0.2358 -1.1103
 6419SOL    HW130890   2.893   1.824   1.855  2.8114 -2.7693  1.4247
 6419SOL    HW230891   2.975   1.864   1.969  2.8245  1.6040 -1.5180
 6420SOL     OW30892   2.276   0.501  16.135  0.2777  0.2780  0.1128
 6420SOL    HW130893   2.349   0.442  16.117  0.6437  0.9181 -0.5548
 6420SOL    HW230894   2.306   0.583  16.094  1.1533  0.2371  0.6739
 6421SOL     OW30895   0.921   3.172   3.860 -0.0692  0.2625  0.5834
 6421SOL    HW130896   0.854   3.200   3.798  0.2592 -1.8600 -0.7285
 6421SOL    HW230897   0.884   3.092   3.896 -1.4029 -0.4697 -2.4254
 6422SOL     OW30898   2.736   1.388   2.227 -0.2805  0.3719  0.3165
 6422SOL    HW130899   2.735   1.453   2.297  0.9841  0.7146  0.0205
 6422SOL    HW230900   2.655   1.345   2.252 -0.4466  0.0150 -0.8537
 6423SOL     OW30901   3.028   1.420  13.846  0.5270  0.2327 -0.3934
 6423SOL    HW130902   2.956   1.414  13.908  0.1296 -2.6540 -1.1475
 6423SOL    HW230903   3.056   1.512  13.847  0.1478  0.3480 -0.5135
 6424SOL     OW30904   3.689   3.266  13.645  0.3156  0.2645 -0.2870
 6424SOL    HW130905   3.613   3.315  13.615 -1.4015 -2.3711 -0.2306
 6424SOL    HW230906   3.751   3.305  13.583 -0.0403  0.4114 -0.5457
 6425SOL     OW30907   1.072   4.663  13.247 -0.4943 -0.5343 -0.1506
 6425SOL    HW130908   1.142   4.710  13.292 -0.8224 -0.4422  0.2603
 6425SOL    HW230909   1.041   4.728  13.182 -1.4038  2.0784  2.8898
 6426SOL     OW30910   0.249   3.672   0.393  0.3905  0.1596  0.1346
 6426SOL    HW130911   0.312   3.639   0.329 -1.9785  0.8729 -2.5459
 6426SOL    HW230912   0.198   3.594   0.416  1.0683 -0.4096 -0.3053
 6427SOL     OW30913   2.992   0.872   6.024 -0.3910  0.2453  0.1850
 6427SOL    HW130914   2.973   0.781   6.003 -2.0323  0.4887  0.6126
 6427SOL    HW230915   3.078   0.873   5.984 -0.0376  1.6486  0.9715
 6428SOL     OW30916   3.890   1.243   3.063 -0.3771 -0.8595  0.0728
 6428SOL    HW130917   3.891   1.166   3.007  1.3384 -0.5434 -0.3251
 6428SOL    HW230918   3.928   1.308   3.004 -0.1646 -1.7994 -0.8239
 6429SOL     OW30919   2.653   3.523   9.783 -0.2284  0.0495 -0.0977
 6429SOL    HW130920   2.650   3.463   9.858 -0.5301  1.1755  0.7903
 6429SOL    HW230921   2.736   3.570   9.792  0.0796  0.0957 -3.1642
 6430SOL     OW30922   2.404   0.222   6.763  0.0575  0.4717  0.2196
 6430SOL    HW130923   2.481   0.253   6.715  1.5081 -0.0726  2.1931
 6430SOL    HW230924   2.334   0.287   6.755 -0.6315 -0.3212 -0.2393
 6431SOL     OW30925   2.819   3.065   5.922 -0.2216 -0.4452  0.0944
 6431SOL    HW130926   2.895   3.113   5.955  0.4704 -1.7642  0.4566
 6431SOL    HW230927   2.862   2.980   5.907  3.3826  1.5894 -1.0081
 6432SOL     OW30928   0.434   4.142  12.110 -0.7947  0.2652 -0.2627
 6432SOL    HW130929   0.398   4.187  12.186 -0.3759 -0.5045  0.3995
 6432SOL    HW230930   0.473   4.217  12.067 -0.8182  0.6208  0.3420
 6433SOL     OW30931   2.891   3.354   6.644 -0.3182  0.4549 -0.4008
 6433SOL    HW130932   2.864   3.410   6.572 -1.9477  1.1590  0.7831
 6433SOL    HW230933   2.882   3.404   6.725 -1.4715 -0.6210  0.1399
 6434SOL     OW30934   4.221   0.938   7.727 -0.0670 -0.3752 -0.5177
 6434SOL    HW130935   4.314   0.931   7.709 -0.1687 -2.2377 -0.2557
 6434SOL    HW230936   4.205   1.031   7.707  0.5034 -0.7579 -2.8280
 6435SOL     OW30937   1.503   2.764   9.434  0.2982  1.1172  0.5789
 6435SOL    HW130938   1.583   2.718   9.408  0.1972  1.7067 -0.7783
 6435SOL    HW230939   1.438   2.715   9.385  2.7761 -1.6580  0.0671
 6436SOL     OW30940   4.532   2.757   2.906  0.3408 -0.1437  0.3033
 6436SOL    HW130941   4.609   2.712   2.872 -0.3118 -0.4294 -0.7897
 6436SOL    HW230942   4.473   2.776   2.833 -0.9380 -2.3380  0.7617
 6437SOL     OW30943   1.226   2.727  16.894 -0.1669 -0.0976  0.3091
 6437SOL    HW130944   1.285   2.802  16.909  2.3067 -2.0656  0.3536
 6437SOL    HW230945   1.292   2.662  16.872 -0.9293 -1.3395  1.7198
 6438SOL     OW30946   2.157   2.982   4.573  0.1349 -0.2163  0.7405
 6438SOL    HW130947   2.177   3.031   4.493  3.6500 -2.0017  0.5479
 6438SOL    HW230948   2.129   2.903   4.528  0.4703 -0.7937  1.5395
 6439SOL     OW30949   0.989   2.576  15.951 -0.2403 -0.4670 -0.5642
 6439SOL    HW130950   1.018   2.491  15.917 -1.4705 -1.9296  2.1141
 6439SOL    HW230951   0.980   2.557  16.044 -0.3313  0.5628 -0.3661
 6440SOL     OW30952   0.764   0.966  15.037  0.0930 -0.0278  0.7068
 6440SOL    HW130953   0.681   1.008  15.016  1.4077  1.2228 -1.9114
 6440SOL    HW230954   0.813   0.970  14.955 -0.1066  1.0300  0.6346
 6441SOL     OW30955   0.671   1.005   5.721  0.0754  0.5101  0.2706
 6441SOL    HW130956   0.724   1.041   5.792  0.3875 -0.2106  0.4011
 6441SOL    HW230957   0.620   1.084   5.703 -1.2671 -0.4222 -0.0237
 6442SOL     OW30958   0.553   0.238   4.726 -0.0482  0.2644 -0.1454
 6442SOL    HW130959   0.538   0.314   4.783 -1.1149  0.7496 -1.0646
 6442SOL    HW230960   0.621   0.262   4.663  0.6496 -0.9190  0.1631
 6443SOL     OW30961   4.439   1.779   1.668  0.0391 -0.5178  0.0726
 6443SOL    HW130962   4.420   1.820   1.752 -0.8437  0.3716 -0.5516
 6443SOL    HW230963   4.416   1.687   1.680 -2.4119  0.6776  4.1453
 6444SOL     OW30964   2.777   0.193   1.330 -0.3343 -0.0735 -0.1155
 6444SOL    HW130965   2.752   0.108   1.294  0.1575 -1.3714  2.6098
 6444SOL    HW230966   2.739   0.196   1.417 -0.8539  1.7475 -0.4063
 6445SOL     OW30967   3.871   2.239  11.833 -0.1459  0.3063  0.1205
 6445SOL    HW130968   3.909   2.311  11.783 -0.9440  0.0611 -0.8394
 6445SOL    HW230969   3.941   2.175  11.843 -1.0661 -0.5019  1.4797
 6446SOL     OW30970   2.792   0.996   7.871 -0.0121 -0.2676 -0.1295
 6446SOL    HW130971   2.875   0.961   7.905  0.0338 -1.1120 -1.1166
 6446SOL    HW230972   2.828   1.063   7.812  0.9347  0.7056  1.5493
 6447SOL     OW30973   4.124   1.715  17.707  0.1646 -0.4216 -0.6189
 6447SOL    HW130974   4.101   1.651   0.022  0.2331  0.6294  0.3966
 6447SOL    HW230975   4.089   1.796  17.744  1.3754 -0.3664  0.4036
 6448SOL     OW30976   2.586   0.005   6.096 -0.4586  0.2474 -0.0813
 6448SOL    HW130977   2.512   0.051   6.136  0.1769  0.8934  0.3450
 6448SOL    HW230978   2.663   0.020   6.150 -0.8853 -1.5282  1.0308
 6449SOL     OW30979   3.246   1.992   0.393 -0.1216  0.1117  0.0068
 6449SOL    HW130980   3.179   1.938   0.350  0.5552  0.5566 -1.6064
 6449SOL    HW230981   3.235   1.978   0.487  2.6500 -0.3352  0.2488
 6450SOL     OW30982   3.880   4.398   9.276 -0.0730  0.2247  0.6930
 6450SOL    HW130983   3.829   4.441   9.345 -2.2047 -0.0309 -0.7451
 6450SOL    HW230984   3.814   4.357   9.220  2.4300 -2.8292  0.0126
 6451SOL     OW30985   1.789   1.380   7.174  0.4035 -0.0531 -0.0069
 6451SOL    HW130986   1.855   1.397   7.107 -0.1660  1.5238 -0.1746
 6451SOL    HW230987   1.767   1.287   7.169  1.6422 -0.1561 -3.2270
 6452SOL     OW30988   3.522   2.772  16.445 -0.4672 -0.6873 -0.0657
 6452SOL    HW130989   3.529   2.792  16.351 -0.7461 -1.2088 -0.1959
 6452SOL    HW230990   3.442   2.819  16.469 -0.8124 -0.9689 -0.6580
 6453SOL     OW30991   0.571   3.551   6.222 -0.2113  0.0662 -0.2028
 6453SOL    HW130992   0.640   3.596   6.270  0.1815  0.7381 -1.4123
 6453SOL    HW230993   0.592   3.459   6.242 -2.3020  0.0229  1.7204
 6454SOL     OW30994   1.209   4.388  10.069  0.1873 -0.5899  0.6980
 6454SOL    HW130995   1.197   4.303  10.027 -0.5868  0.2525 -0.7611
 6454SOL    HW230996   1.299   4.405  10.040 -0.0551  1.5733  1.2207
 6455SOL     OW30997   2.388   3.011  15.787 -0.4326  0.1840  0.6347
 6455SOL    HW130998   2.411   3.072  15.858 -2.5430  1.3178  0.3422
 6455SOL    HW230999   2.425   3.057  15.712 -0.4227 -0.3524  0.3136
 6456SOL     OW31000   4.688   2.017   7.035 -0.1363 -0.2137  0.0961
 6456SOL    HW131001   4.660   2.090   6.980 -1.8802  0.5986  2.0747
 6456SOL    HW231002   4.728   1.956   6.973 -1.1185 -1.5723  0.8154
 6457SOL     OW31003   2.377   0.556   7.937  0.5501 -0.1989 -0.1585
 6457SOL    HW131004   2.466   0.535   7.965  0.0954  1.3619  2.4907
 6457SOL    HW231005   2.388   0.605   7.856  0.4996 -0.0596 -0.0806
 6458SOL     OW31006   1.364   1.653   7.068 -0.5933  0.0806 -0.1316
 6458SOL    HW131007   1.455   1.679   7.054 -0.2695 -0.9215  0.0580
 6458SOL    HW231008   1.349   1.656   7.162  3.0477  1.1311  0.4041
 6459SOL     OW31009   3.295   4.543   1.528 -0.0961  0.3498 -0.0242
 6459SOL    HW131010   3.378   4.550   1.575 -0.4574 -1.1207  0.8458
 6459SOL    HW231011   3.257   4.627   1.555  1.8821  1.3495 -0.3492
 6460SOL     OW31012   2.892   0.381   8.502  0.8901  0.5055  0.0403
 6460SOL    HW131013   2.875   0.392   8.408  1.4632  0.7913 -0.0284
 6460SOL    HW231014   2.948   0.304   8.516  0.6300  0.3737  0.3643
 6461SOL     OW31015   1.960   3.749   6.780  0.0798 -0.6349 -0.0014
 6461SOL    HW131016   1.929   3.800   6.855  3.8569 -1.9625  2.4428
 6461SOL    HW231017   1.981   3.815   6.714  0.1584 -0.9261 -0.2650
 6462SOL     OW31018   3.591   1.245  12.620 -0.0071 -0.6284 -1.0134
 6462SOL    HW131019   3.665   1.197  12.583  1.5421  0.9101  0.1120
 6462SOL    HW231020   3.635   1.330  12.621 -1.5992  0.1754 -0.3537
 6463SOL     OW31021   0.096   4.343   1.434 -0.3972 -0.5992  0.0755
 6463SOL    HW131022   0.046   4.384   1.364 -0.2566  0.7338  0.7595
 6463SOL    HW231023   0.076   4.250   1.437  2.1604 -1.1780 -0.5649
 6464SOL     OW31024   1.375   3.972   8.643 -0.0518  0.1382 -0.2121
 6464SOL    HW131025   1.395   3.884   8.611 -0.7542  0.0887 -0.5130
 6464SOL    HW231026   1.443   4.022   8.596 -1.0353  0.1553 -1.6117
 6465SOL     OW31027   1.841   3.305   5.278 -0.4716 -0.5058 -0.1217
 6465SOL    HW131028   1.795   3.388   5.263  2.4687  1.5681  2.0918
 6465SOL    HW231029   1.925   3.311   5.233 -1.1589 -1.6356 -1.5490
 6466SOL     OW31030   2.233   1.261   3.250  0.1637 -0.5572  0.3350
 6466SOL    HW131031   2.194   1.347   3.233 -1.5552 -1.7426 -1.6584
 6466SOL    HW231032   2.323   1.280   3.226 -0.9479 -0.2545 -3.5405
 6467SOL     OW31033   0.829   4.548   7.815 -0.5246 -0.1048 -0.1967
 6467SOL    HW131034   0.910   4.558   7.765 -0.2214 -1.2080  0.0917
 6467SOL    HW231035   0.864   4.561   7.903  1.8740  0.3052 -1.2017
 6468SOL     OW31036   2.862   2.283   6.773  0.2489  0.1437  0.2944
 6468SOL    HW131037   2.836   2.300   6.864 -3.8118 -0.9752 -0.6701
 6468SOL    HW231038   2.780   2.270   6.726  0.9569  0.4077 -1.0162
 6469SOL     OW31039   3.992   0.809   7.669  0.7979  0.3148 -0.0086
 6469SOL    HW131040   4.061   0.855   7.717  2.0789 -1.4448 -0.1831
 6469SOL    HW231041   3.918   0.865   7.693  2.0200  2.0587 -0.3167
 6470SOL     OW31042   2.647   0.460   5.831  1.1526 -0.0910 -0.4866
 6470SOL    HW131043   2.618   0.517   5.902  1.7124 -0.8953  0.3801
 6470SOL    HW231044   2.582   0.469   5.762  1.4568  2.3697 -0.4720
 6471SOL     OW31045   4.034   1.623   6.124 -0.2768 -0.1726 -0.0337
 6471SOL    HW131046   4.097   1.567   6.078  0.7901  0.1226  1.0597
 6471SOL    HW231047   4.077   1.698   6.164 -0.1311  0.4104 -1.2919
 6472SOL     OW31048   2.943   1.017   1.750 -0.3232  0.0243 -0.2382
 6472SOL    HW131049   2.888   0.963   1.808 -0.2670 -0.4082 -0.5811
 6472SOL    HW231050   3.032   0.995   1.778 -1.4255 -0.4813  2.8792
 6473SOL     OW31051   3.785   0.521   5.816 -0.5133  0.1463 -0.1642
 6473SOL    HW131052   3.700   0.546   5.852  0.4321  0.9490  1.5023
 6473SOL    HW231053   3.765   0.541   5.724 -0.0543 -3.4143 -1.0111
 6474SOL     OW31054   2.552   1.981   1.119  0.0834  0.4528  0.9828
 6474SOL    HW131055   2.635   1.997   1.073  0.1872  0.6270  1.2327
 6474SOL    HW231056   2.499   2.058   1.097 -0.2009  0.0018  0.0934
 6475SOL     OW31057   3.587   2.171   6.766  0.0769 -0.3788  0.4142
 6475SOL    HW131058   3.643   2.231   6.717 -1.8022  0.3751 -0.8229
 6475SOL    HW231059   3.585   2.088   6.719 -0.2531  0.4073 -0.9788
 6476SOL     OW31060   1.769   1.675   5.379  0.0282  0.5778 -0.0073
 6476SOL    HW131061   1.744   1.768   5.376 -1.7818  0.0321 -1.9836
 6476SOL    HW231062   1.859   1.689   5.352  0.5946 -0.2653  1.4378
 6477SOL     OW31063   4.019   0.558   8.346  0.2687 -0.1383 -0.7847
 6477SOL    HW131064   4.004   0.480   8.399  1.9358  0.2400  0.2432
 6477SOL    HW231065   3.932   0.597   8.336 -1.5759 -4.0992 -0.0520
 6478SOL     OW31066   4.490   2.770   3.799 -0.2450  0.2299 -0.8257
 6478SOL    HW131067   4.396   2.778   3.786 -0.3065  0.4937 -0.2403
 6478SOL    HW231068   4.530   2.853   3.772  0.8132  0.4447  1.3296
 6479SOL     OW31069   4.357   3.581   7.900 -0.0340  0.1457 -0.4988
 6479SOL    HW131070   4.375   3.579   7.806 -2.9243  1.9367 -1.1217
 6479SOL    HW231071   4.271   3.623   7.908 -0.6456 -1.3814  0.7925
 6480SOL     OW31072   3.549   1.574  11.994 -0.4491  0.5127  0.5457
 6480SOL    HW131073   3.614   1.610  11.934 -1.0901  0.8369  0.0459
 6480SOL    HW231074   3.608   1.532  12.057  2.3978 -0.6302 -2.8701
 6481SOL     OW31075   0.404   1.284   2.996 -0.5329  0.2983  0.6750
 6481SOL    HW131076   0.355   1.235   2.931  1.1865 -0.2327 -0.2086
 6481SOL    HW231077   0.462   1.325   2.932 -0.5148 -0.4886  0.1910
 6482SOL     OW31078   1.724   0.258   2.198  0.2450 -0.1313  0.7732
 6482SOL    HW131079   1.648   0.265   2.140 -0.3673  0.7693  1.7001
 6482SOL    HW231080   1.741   0.346   2.233  1.7605 -0.1439  0.0621
 6483SOL     OW31081   3.199   1.399  15.518  0.0786  0.3473  0.4328
 6483SOL    HW131082   3.238   1.322  15.560  3.0891  1.0653 -1.0362
 6483SOL    HW231083   3.270   1.459  15.499  2.8749 -3.1345 -0.1070
 6484SOL     OW31084   1.627   1.987   5.815  0.0757  0.0471  0.0622
 6484SOL    HW131085   1.703   1.958   5.764 -0.0489  0.4322 -0.3454
 6484SOL    HW231086   1.584   1.905   5.839  1.0093 -0.6885 -0.7649
 6485SOL     OW31087   1.158   1.722   3.608  0.0336 -0.4224 -0.1285
 6485SOL    HW131088   1.163   1.658   3.679  1.3552  1.1003  1.1453
 6485SOL    HW231089   1.203   1.796   3.648 -2.6236 -0.2654  2.5486
 6486SOL     OW31090   4.733   1.676   2.327  0.0795 -0.0085 -0.4147
 6486SOL    HW131091   4.655   1.665   2.381  0.7082 -3.2115 -0.1884
 6486SOL    HW231092   0.002   1.771   2.342 -3.5187  0.2085 -0.0969
 6487SOL     OW31093   1.079   1.311  17.103 -0.4754  0.0231  0.3124
 6487SOL    HW131094   1.013   1.250  17.134 -1.2807  0.0506 -1.3426
 6487SOL    HW231095   1.056   1.315  17.010  0.8581 -0.6300 -0.0504
 6488SOL     OW31096   1.115   1.184  15.270 -0.1523  0.3670 -0.7782
 6488SOL    HW131097   1.090   1.108  15.322 -0.4969  2.0064  1.4277
 6488SOL    HW231098   1.074   1.156  15.188 -1.5685 -0.3464  0.1662
 6489SOL     OW31099   0.056   3.523  13.862 -0.3708  0.2179  0.1135
 6489SOL    HW131100   0.050   3.602  13.916  0.9975  0.1747  0.3256
 6489SOL    HW231101   0.026   3.461  13.928  0.5951 -0.3710 -0.0052
 6490SOL     OW31102   2.247   4.000   4.974  0.5887 -0.5148  0.4584
 6490SOL    HW131103   2.315   4.036   5.030 -0.7898 -0.3441  2.0237
 6490SOL    HW231104   2.170   4.029   5.023  0.5195 -0.6304  0.4176
 6491SOL     OW31105   1.074   3.145   9.548  0.2236  0.1486 -0.0081
 6491SOL    HW131106   1.064   3.138   9.453 -0.3416  2.5535 -0.1148
 6491SOL    HW231107   0.988   3.118   9.579 -0.4566  1.1319 -1.0325
 6492SOL     OW31108   2.877   0.697  10.416 -0.3398 -0.1537  0.2997
 6492SOL    HW131109   2.868   0.788  10.386  0.7538 -0.4448 -0.9308
 6492SOL    HW231110   2.942   0.710  10.485 -0.5128 -0.9046  0.5971
 6493SOL     OW31111   1.996   1.923   8.713 -0.4338 -0.3517 -0.2401
 6493SOL    HW131112   2.004   1.932   8.808 -2.5998 -0.2938 -0.0743
 6493SOL    HW231113   1.932   1.993   8.703 -1.0251 -0.6247  1.5205
 6494SOL     OW31114   2.088   3.778   5.610  0.0175  0.8492  0.3753
 6494SOL    HW131115   2.130   3.699   5.643  0.8620  0.8118 -0.8171
 6494SOL    HW231116   2.080   3.823   5.695  1.5363  0.6688  0.6130
 6495SOL     OW31117   0.478   0.838   4.002  0.4221  0.3804  0.0732
 6495SOL    HW131118   0.415   0.782   4.049  1.1853 -0.2959  0.2811
 6495SOL    HW231119   0.473   0.799   3.914  1.1097 -2.8265  1.4588
 6496SOL     OW31120   3.155   1.833  16.309 -0.2202 -0.2102 -0.2310
 6496SOL    HW131121   3.064   1.840  16.281  0.4165  1.1805 -1.8819
 6496SOL    HW231122   3.199   1.780  16.243  0.9956  0.6664 -0.1135
 6497SOL     OW31123   2.348   0.001   6.280  0.6210 -0.2676  0.7529
 6497SOL    HW131124   2.267   0.029   6.238  0.3356 -2.8364 -0.3966
 6497SOL    HW231125   2.313   4.657   6.311  0.6128 -0.2173  0.8768
 6498SOL     OW31126   1.645   4.389   8.284 -0.6530  0.3132  0.2192
 6498SOL    HW131127   1.692   4.469   8.307 -0.0536  0.0813 -0.2227
 6498SOL    HW231128   1.700   4.321   8.323 -0.3019 -0.0659 -0.9584
 6499SOL     OW31129   1.388   3.875   0.716 -0.2548 -0.4139  0.4621
 6499SOL    HW131130   1.313   3.910   0.667 -0.4679 -0.0949  1.0142
 6499SOL    HW231131   1.422   3.956   0.752  0.4424 -0.4035 -0.2309
 6500SOL     OW31132   1.576   3.434   7.024  0.4530 -0.4411 -0.5981
 6500SOL    HW131133   1.660   3.412   7.065  0.4309  0.6808  0.0328
 6500SOL    HW231134   1.596   3.527   7.017 -0.1231 -0.3518 -1.0494
 6501SOL     OW31135   2.485   2.028   5.936  0.3011 -0.2816  0.2061
 6501SOL    HW131136   2.394   2.011   5.912  0.5394  0.9010 -1.4664
 6501SOL    HW231137   2.487   2.124   5.940 -0.0532 -0.3601  2.3682
 6502SOL     OW31138   0.592   4.385   8.418  0.1859  0.6894  0.1691
 6502SOL    HW131139   0.584   4.363   8.326 -1.1538 -0.5690  0.5896
 6502SOL    HW231140   0.664   4.324   8.437  1.7240  2.2224 -0.6901
 6503SOL     OW31141   1.021   3.101   2.600  0.0443 -0.5099  0.4222
 6503SOL    HW131142   0.960   3.174   2.597  0.3408 -0.2605  0.4994
 6503SOL    HW231143   0.994   3.051   2.677  0.1103 -0.1874  0.6520
 6504SOL     OW31144   3.004   1.211   6.231 -0.1889  0.2968  0.4107
 6504SOL    HW131145   3.020   1.223   6.138 -1.9081 -0.2635  0.0427
 6504SOL    HW231146   2.937   1.146   6.211  0.7766 -0.2918 -0.8359
 6505SOL     OW31147   2.477   0.516  15.469  0.1228 -0.5902  0.1503
 6505SOL    HW131148   2.480   0.483  15.379  1.8597  0.4804 -0.1898
 6505SOL    HW231149   2.414   0.588  15.470  1.0138  0.2172 -2.2435
 6506SOL     OW31150   1.276   0.134   4.107  0.4256  0.0928  0.3365
 6506SOL    HW131151   1.185   0.164   4.118  0.1756 -1.0772  1.5033
 6506SOL    HW231152   1.322   0.216   4.091  0.3447  0.1005  0.1336
 6507SOL     OW31153   1.844   2.592   2.742 -0.6691  0.5530 -0.0834
 6507SOL    HW131154   1.903   2.548   2.680 -1.2983 -0.2002 -0.1504
 6507SOL    HW231155   1.906   2.619   2.810 -1.6222  2.1763  0.1357
 6508SOL     OW31156   2.476   3.037  11.364 -0.1164 -0.1050  0.2923
 6508SOL    HW131157   2.416   3.106  11.392 -1.0658 -0.9388  0.3171
 6508SOL    HW231158   2.536   3.079  11.303 -1.4934 -1.7760 -2.2005
 6509SOL     OW31159   2.473   2.563   3.726 -0.2593  0.4379 -0.2366
 6509SOL    HW131160   2.565   2.536   3.736 -0.1101  1.2418  0.5863
 6509SOL    HW231161   2.436   2.485   3.684  0.3883  0.4248 -0.7787
 6510SOL     OW31162   0.367   2.070   4.288 -0.4721  0.0051 -1.0480
 6510SOL    HW131163   0.291   2.017   4.311 -0.1778  0.4000  0.8131
 6510SOL    HW231164   0.348   2.085   4.196 -1.2065  1.1219 -0.7176
 6511SOL     OW31165   2.738   1.666   8.991  0.4948 -0.0715  0.0449
 6511SOL    HW131166   2.732   1.757   8.961  1.8090  0.2389  0.7330
 6511SOL    HW231167   2.650   1.664   9.030  0.5300 -1.7983  0.0067
 6512SOL     OW31168   4.635   2.211  16.399 -0.9622 -0.6860 -0.1085
 6512SOL    HW131169   4.593   2.238  16.481  3.3322 -0.4713  2.0049
 6512SOL    HW231170   4.704   2.146  16.412  0.0026  0.5324  0.9852
 6513SOL     OW31171   2.360   0.693   7.711  0.0737 -0.1639 -0.3215
 6513SOL    HW131172   2.432   0.753   7.693  0.6324 -0.2174  1.7881
 6513SOL    HW231173   2.289   0.736   7.663 -0.6972  1.5771  2.4317
 6514SOL     OW31174   3.806   1.909   0.009 -0.3312  0.1325 -0.0172
 6514SOL    HW131175   3.748   1.925   0.083  0.3008  1.4943  0.1689
 6514SOL    HW231176   3.886   1.944   0.049 -0.7211  0.1102  0.7692
 6515SOL     OW31177   2.186   3.337   4.177  0.0408 -0.0872 -0.5904
 6515SOL    HW131178   2.175   3.291   4.094  2.0305 -1.8457  0.1205
 6515SOL    HW231179   2.105   3.388   4.177 -0.0283 -0.1939  1.4728
 6516SOL     OW31180   1.884   1.326  12.622  0.3793 -0.3857  0.1941
 6516SOL    HW131181   1.848   1.415  12.622  0.4011 -0.3760  0.0530
 6516SOL    HW231182   1.819   1.273  12.667 -1.3057  2.2268  0.8454
 6517SOL     OW31183   4.632   2.660  11.270  0.1475 -0.0980 -0.0517
 6517SOL    HW131184   4.569   2.589  11.281 -0.5591  0.1395 -2.4292
 6517SOL    HW231185   4.668   2.619  11.191 -0.2326 -0.6774  0.0783
 6518SOL     OW31186   3.094   1.358   3.452  0.5645  0.2417  0.1383
 6518SOL    HW131187   3.149   1.419   3.501  2.1865  0.8968 -2.4946
 6518SOL    HW231188   3.142   1.275   3.453  0.6999  0.2652 -4.8078
 6519SOL     OW31189   0.954   1.377   9.248 -0.2492 -0.1161  0.4257
 6519SOL    HW131190   0.952   1.378   9.152  0.5661  1.7685  0.4161
 6519SOL    HW231191   0.954   1.470   9.270 -0.5976 -0.8386  3.4820
 6520SOL     OW31192   2.669   3.886  16.777  0.3921  0.0543 -0.3413
 6520SOL    HW131193   2.574   3.901  16.773  0.1024 -1.3817  1.3638
 6520SOL    HW231194   2.692   3.959  16.835  0.7579 -1.4445  1.3689
 6521SOL     OW31195   2.242   4.613   7.096 -0.0503  0.0011 -0.0742
 6521SOL    HW131196   2.291   4.592   7.176 -0.1500  2.9553  0.7393
 6521SOL    HW231197   2.246   4.707   7.080 -0.5046  0.0858  0.2908
 6522SOL     OW31198   3.680   4.293   6.965 -0.4653  0.3154  0.3470
 6522SOL    HW131199   3.763   4.259   6.997 -0.3526 -0.0621 -0.3410
 6522SOL    HW231200   3.669   4.369   7.022 -3.6259  0.6150 -0.6248
 6523SOL     OW31201   1.353   2.406   8.610  0.3065  0.3257 -0.2526
 6523SOL    HW131202   1.444   2.428   8.630  0.1274 -1.0722  2.0985
 6523SOL    HW231203   1.329   2.377   8.698  1.5517 -0.5124 -0.1845
 6524SOL     OW31204   0.534   0.731   7.605  0.5871 -0.0519 -0.4266
 6524SOL    HW131205   0.496   0.791   7.540 -0.0761  0.3415  0.3260
 6524SOL    HW231206   0.619   0.775   7.604  1.8175 -2.4843 -0.7424
 6525SOL     OW31207   3.555   2.573   9.452  0.0629  0.1039 -0.6959
 6525SOL    HW131208   3.547   2.655   9.404 -0.6502  0.0338 -0.6875
 6525SOL    HW231209   3.462   2.551   9.457  0.7086 -2.6617 -0.5820
 6526SOL     OW31210   4.531   2.217   8.238  0.6957 -0.4812 -0.8212
 6526SOL    HW131211   4.623   2.229   8.260  0.4403 -0.0862  0.0266
 6526SOL    HW231212   4.502   2.308   8.233  1.5969 -0.1818 -0.5196
 6527SOL     OW31213   2.280   1.515   2.493  0.1096  0.0949  0.3664
 6527SOL    HW131214   2.216   1.587   2.488  2.0721  1.7495 -0.9145
 6527SOL    HW231215   2.360   1.567   2.498  0.1872 -0.0467  0.5945
 6528SOL     OW31216   0.236   3.211   6.502  0.5046 -0.2030 -0.4002
 6528SOL    HW131217   0.171   3.255   6.446 -0.5991  0.0824  1.0956
 6528SOL    HW231218   0.305   3.277   6.498  0.0750  0.1229 -2.5452
 6529SOL     OW31219   1.431   1.498   1.477 -0.3811 -0.2348  0.1476
 6529SOL    HW131220   1.462   1.421   1.525  1.5997  0.0585 -0.6602
 6529SOL    HW231221   1.425   1.555   1.553  0.3531  0.1541 -0.0901
 6530SOL     OW31222   3.630   1.574   1.521 -0.6460 -0.0525 -0.4645
 6530SOL    HW131223   3.539   1.554   1.502 -0.8700  2.0691 -1.5383
 6530SOL    HW231224   3.662   1.483   1.527 -1.1696 -0.2087  0.0080
 6531SOL     OW31225   4.728   0.905  10.409  0.6243  0.1419 -0.8294
 6531SOL    HW131226   4.639   0.939  10.410  0.2685 -0.7530 -2.0997
 6531SOL    HW231227   4.727   0.850  10.331  0.9595 -2.3258  0.8823
 6532SOL     OW31228   1.716   2.984   1.997 -0.3174 -0.7165  0.3701
 6532SOL    HW131229   1.622   2.972   2.006 -0.0679 -1.6872  1.6911
 6532SOL    HW231230   1.742   3.049   2.063  0.2847 -0.1524 -0.4181
 6533SOL     OW31231   3.902   3.418  13.754  0.7476  0.2468  0.4376
 6533SOL    HW131232   3.877   3.452  13.668  0.2480 -0.4339  0.3197
 6533SOL    HW231233   3.843   3.343  13.761 -0.9571  1.7334  1.8845
 6534SOL     OW31234   0.738   1.501  15.347 -0.0949  0.0399 -0.5789
 6534SOL    HW131235   0.682   1.550  15.408  0.1815  0.3857 -0.6049
 6534SOL    HW231236   0.811   1.561  15.330 -0.2369  0.2160 -0.5783
 6535SOL     OW31237   4.379   3.928   3.477  0.0036  0.1672  0.1032
 6535SOL    HW131238   4.394   4.016   3.444  1.0529  0.1363  0.5071
 6535SOL    HW231239   4.388   3.878   3.396  2.0529  0.1447  0.3633
 6536SOL     OW31240   3.738   3.832   1.446  0.0232 -0.2364  0.6577
 6536SOL    HW131241   3.754   3.904   1.386 -0.2339 -1.2674 -0.6419
 6536SOL    HW231242   3.824   3.811   1.482  0.6028  0.6275 -0.2668
 6537SOL     OW31243   0.264   2.616   9.418  0.5085 -0.6941 -0.1193
 6537SOL    HW131244   0.317   2.556   9.366 -0.5569 -0.2719 -1.6706
 6537SOL    HW231245   0.340   2.666   9.447 -0.1269  0.9726 -1.3816
 6538SOL     OW31246   0.108   0.180   5.372  0.6441 -0.0423  0.1639
 6538SOL    HW131247   0.026   0.197   5.326  0.1182  2.3851  2.0321
 6538SOL    HW231248   0.096   0.086   5.385 -1.4757 -0.2946 -3.7056
 6539SOL     OW31249   2.020   1.876  12.527  0.1678 -0.0719  0.5327
 6539SOL    HW131250   1.958   1.924  12.583 -0.5548 -2.5517  1.9027
 6539SOL    HW231251   2.041   1.803  12.586  4.3369  2.9575  2.7733
 6540SOL     OW31252   1.709   0.244  14.866 -0.5292 -0.5360  0.3090
 6540SOL    HW131253   1.671   0.278  14.785 -2.4440  2.9441  2.6850
 6540SOL    HW231254   1.772   0.315  14.880 -0.4323 -0.3095 -1.3344
 6541SOL     OW31255   0.261   4.320   3.422  0.3638  0.2923 -0.1162
 6541SOL    HW131256   0.225   4.326   3.511 -3.8919 -1.9641 -1.6598
 6541SOL    HW231257   0.332   4.259   3.443  0.2537 -0.0200 -0.6667
 6542SOL     OW31258   4.293   0.045   6.357  0.0448 -0.5857  0.0435
 6542SOL    HW131259   4.214   0.041   6.304 -0.3193  0.8243  0.4859
 6542SOL    HW231260   4.307   0.139   6.369 -0.7048 -0.5337  0.4750
 6543SOL     OW31261   3.510   1.027  15.383 -0.0675 -0.2277 -0.1729
 6543SOL    HW131262   3.567   1.078  15.326 -0.0624  0.6420  0.6012
 6543SOL    HW231263   3.576   0.962  15.410  0.1261  0.2253  0.4565
 6544SOL     OW31264   0.491   4.558   1.261  0.3112  0.3347 -0.3702
 6544SOL    HW131265   0.420   4.619   1.282  2.1671  2.5746 -0.5596
 6544SOL    HW231266   0.545   4.610   1.201  0.3150  1.1316  0.3238
 6545SOL     OW31267   4.286   2.277   7.404  0.6193  0.2099  0.4466
 6545SOL    HW131268   4.294   2.315   7.491 -0.1893  2.0757 -0.3003
 6545SOL    HW231269   4.192   2.293   7.398  1.2006  3.0819 -1.1659
 6546SOL     OW31270   1.933   4.235  11.309  0.3893 -0.3794  0.0833
 6546SOL    HW131271   1.917   4.329  11.306  0.2676 -0.3701  1.0314
 6546SOL    HW231272   1.843   4.204  11.321  0.6322 -1.6751 -1.5598
 6547SOL     OW31273   0.297   4.139   4.755 -0.4207 -0.5672  0.0106
 6547SOL    HW131274   0.316   4.142   4.849  0.3383  0.0016 -0.1673
 6547SOL    HW231275   0.380   4.111   4.716 -1.3832 -3.0802 -0.2324
 6548SOL     OW31276   0.458   1.035   8.980  0.3405  0.2589 -0.2730
 6548SOL    HW131277   0.388   1.076   9.031  0.4174 -0.5197  0.4603
 6548SOL    HW231278   0.401   0.972   8.936 -1.5428  2.3598 -0.8422
 6549SOL     OW31279   2.321   2.349  17.315  0.9037 -0.5670  0.3273
 6549SOL    HW131280   2.236   2.323  17.278  0.3603  0.1860  1.0568
 6549SOL    HW231281   2.312   2.442  17.293 -0.6630 -0.7925 -0.0031
 6550SOL     OW31282   0.647   1.846   8.268 -0.4381  0.9799  0.2398
 6550SOL    HW131283   0.614   1.757   8.258  0.3431  0.5173  1.7920
 6550SOL    HW231284   0.718   1.832   8.330 -0.4612  0.6299  0.1822
 6551SOL     OW31285   1.615   4.524   8.620 -0.3040  0.1813 -0.4008
 6551SOL    HW131286   1.705   4.525   8.587 -0.1871 -0.3773 -0.0960
 6551SOL    HW231287   1.644   4.570   8.698  1.2313 -0.6692 -0.4617
 6552SOL     OW31288   2.493   3.913  15.538 -0.9258 -0.3927 -0.3139
 6552SOL    HW131289   2.561   3.845  15.544  0.2688  1.1546  4.3856
 6552SOL    HW231290   2.416   3.869  15.574 -0.3030  0.2178  1.7992
 6553SOL     OW31291   4.032   2.181   9.893  0.0344 -0.3006 -0.0038
 6553SOL    HW131292   3.953   2.198   9.944 -0.5355 -0.8410 -0.7190
 6553SOL    HW231293   4.062   2.271   9.902 -0.5941  0.1248 -2.2106
 6554SOL     OW31294   0.032   0.298  17.692  0.9112 -0.2354  0.6965
 6554SOL    HW131295   4.688   0.294  17.644  0.7455  0.7871  0.8948
 6554SOL    HW231296   0.079   0.224  17.653  1.3956  1.5574 -2.0806
 6555SOL     OW31297   2.553   3.775   3.799  0.0443 -0.2481 -0.2110
 6555SOL    HW131298   2.485   3.776   3.731 -0.6130 -1.0991  0.4382
 6555SOL    HW231299   2.584   3.685   3.806 -2.7170 -0.9543  2.5648
 6556SOL     OW31300   3.934   2.968   5.649  0.2053 -0.0688 -0.1300
 6556SOL    HW131301   3.934   3.058   5.616  0.9467 -0.5669 -1.4987
 6556SOL    HW231302   3.952   2.979   5.742  0.2716 -0.3726 -0.1056
 6557SOL     OW31303   0.777   4.612  13.032  0.0368 -0.2542 -0.4085
 6557SOL    HW131304   0.743   4.692  13.073 -1.3280  0.4039 -2.7667
 6557SOL    HW231305   0.815   4.642  12.949 -1.3698 -0.5407 -1.1603
 6558SOL     OW31306   1.968   1.237   5.514 -0.0639  0.0174  0.5438
 6558SOL    HW131307   1.898   1.214   5.575 -0.5489 -1.5992 -0.6100
 6558SOL    HW231308   2.043   1.183   5.537  0.3771  0.1268 -0.6037
 6559SOL     OW31309   1.615   2.219   5.937 -0.1517 -0.1588 -0.1950
 6559SOL    HW131310   1.609   2.146   5.876 -0.1277 -0.3058 -0.0243
 6559SOL    HW231311   1.574   2.185   6.017 -0.9557  1.0376 -0.1056
 6560SOL     OW31312   0.080   0.242   6.051 -0.0049 -0.0701  0.0362
 6560SOL    HW131313   0.162   0.232   6.098  0.4212 -1.9505 -1.1300
 6560SOL    HW231314   0.083   0.325   6.004 -0.4986  0.7680  1.4756
 6561SOL     OW31315   3.070   4.654   4.921 -0.1044  0.2679  0.0328
 6561SOL    HW131316   3.034   0.003   4.915 -2.5899 -0.6821  0.8213
 6561SOL    HW231317   3.023   4.602   4.856  1.4795 -1.7547  0.5026
 6562SOL     OW31318   2.183   0.739   8.434  0.3146  0.0006  0.0492
 6562SOL    HW131319   2.110   0.686   8.465  0.7805  0.5692  2.1876
 6562SOL    HW231320   2.168   0.733   8.340  0.7662  1.0197 -0.0940
 6563SOL     OW31321   4.688   3.761  15.173 -0.3928 -0.4358  0.1107
 6563SOL    HW131322   4.674   3.799  15.087  1.1562 -1.6204 -0.6735
 6563SOL    HW231323   0.042   3.738  15.165 -1.0720 -2.9443 -0.6881
 6564SOL     OW31324   0.016   3.988   5.658  0.0035 -0.3157  0.0981
 6564SOL    HW131325   4.662   3.972   5.676 -0.3530 -1.1955 -2.5187
 6564SOL    HW231326   0.019   3.980   5.562  2.7620  1.4035  0.0560
 6565SOL     OW31327   2.363   2.302   3.652 -0.5605 -0.4519 -0.2178
 6565SOL    HW131328   2.292   2.326   3.593 -0.3459  0.3430 -0.1468
 6565SOL    HW231329   2.395   2.223   3.608  1.4762  0.1612  0.1460
 6566SOL     OW31330   3.694   0.572   2.763 -0.7461 -0.0005 -0.1953
 6566SOL    HW131331   3.674   0.487   2.802 -0.4566 -1.0725 -2.3662
 6566SOL    HW231332   3.748   0.604   2.834 -1.3588 -0.5805  0.5370
 6567SOL     OW31333   4.461   2.951  11.936 -0.0273  0.0373  0.0449
 6567SOL    HW131334   4.514   2.872  11.930  1.0609  0.6908  1.1046
 6567SOL    HW231335   4.405   2.924  12.009  0.8746  0.8158  1.0196
 6568SOL     OW31336   1.240   1.999  10.727  0.2990 -0.6765  0.0910
 6568SOL    HW131337   1.185   1.972  10.653  0.2514 -0.0138 -0.1182
 6568SOL    HW231338   1.230   2.094  10.729 -0.7045 -0.7628 -0.7170
 6569SOL     OW31339   3.236   2.486   1.612 -0.1608  0.2399 -0.1974
 6569SOL    HW131340   3.254   2.397   1.584  0.5479  0.3679 -0.1531
 6569SOL    HW231341   3.306   2.537   1.571 -0.5757  0.0932 -1.0870
 6570SOL     OW31342   2.957   4.451   0.650  0.2209 -0.7999  0.6263
 6570SOL    HW131343   2.970   4.368   0.694  1.1302 -0.4079  1.0911
 6570SOL    HW231344   2.957   4.513   0.723 -1.1793  0.6520 -0.5811
 6571SOL     OW31345   2.502   1.807   4.909 -0.2357 -0.2030 -0.2202
 6571SOL    HW131346   2.516   1.713   4.921 -0.6174 -0.3848 -1.1245
 6571SOL    HW231347   2.457   1.827   4.991 -0.7966 -0.5750 -0.4338
 6572SOL     OW31348   4.555   0.474   7.887 -0.0934 -0.0402 -0.0592
 6572SOL    HW131349   4.503   0.440   7.813  0.5883  2.0154 -1.4697
 6572SOL    HW231350   4.635   0.516   7.855 -0.1179  1.5841  2.0059
 6573SOL     OW31351   0.818   1.226   8.677  0.1302 -0.5888 -0.0396
 6573SOL    HW131352   0.747   1.269   8.724 -0.7685 -0.4441 -1.5158
 6573SOL    HW231353   0.835   1.292   8.610  0.2371 -0.2658  0.3061
 6574SOL     OW31354   3.617   3.549   4.746  0.2615  0.4331  0.2005
 6574SOL    HW131355   3.685   3.613   4.768  0.8225  0.4477 -1.5246
 6574SOL    HW231356   3.664   3.515   4.670  1.1826  0.5799  0.7115
 6575SOL     OW31357   3.308   4.191   3.902  0.6231 -0.0191 -0.6461
 6575SOL    HW131358   3.379   4.177   3.840  0.6783  2.9814 -1.2630
 6575SOL    HW231359   3.290   4.116   3.959 -0.2594 -0.0204 -0.9216
 6576SOL     OW31360   3.653   1.702   4.757  0.4256 -0.4467 -0.2908
 6576SOL    HW131361   3.673   1.759   4.831 -0.5196 -1.0452  0.4135
 6576SOL    HW231362   3.682   1.616   4.786  0.0126 -0.8833 -1.1741
 6577SOL     OW31363   1.795   0.777   9.004  0.0004  0.0601 -0.6893
 6577SOL    HW131364   1.799   0.858   9.055 -0.4943 -0.1004 -0.3889
 6577SOL    HW231365   1.707   0.742   9.020 -0.2185  0.7229 -0.4311
 6578SOL     OW31366   3.227   1.089  13.061 -0.4123  0.3941 -0.0285
 6578SOL    HW131367   3.224   1.148  13.136 -1.4061 -0.5951  0.7084
 6578SOL    HW231368   3.230   1.148  12.986 -0.8068  1.4577  0.7903
 6579SOL     OW31369   2.171   0.792  10.237 -0.1388 -0.0551  0.2642
 6579SOL    HW131370   2.174   0.697  10.250 -0.1762 -0.2408 -1.0825
 6579SOL    HW231371   2.174   0.834  10.323  2.2868 -3.1544  1.6768
 6580SOL     OW31372   2.193   3.474   3.035  0.1977  0.4436  0.2002
 6580SOL    HW131373   2.256   3.421   3.085 -0.4374 -0.3385  0.1758
 6580SOL    HW231374   2.120   3.420   3.066 -0.0123  0.6498  0.0627
 6581SOL     OW31375   1.742   2.277   9.049 -0.6858  0.5279 -0.2618
 6581SOL    HW131376   1.742   2.285   8.954 -1.7658 -1.3693 -0.4204
 6581SOL    HW231377   1.768   2.364   9.077 -0.4418 -0.5518  2.8961
 6582SOL     OW31378   2.566   3.593   7.634  0.3068  0.0532  0.1217
 6582SOL    HW131379   2.605   3.506   7.644  0.6620  0.4250  2.0613
 6582SOL    HW231380   2.478   3.571   7.663  0.3053  0.5359  0.4806
 6583SOL     OW31381   0.520   3.282   7.361 -0.1708  0.1471  0.0694
 6583SOL    HW131382   0.573   3.302   7.438 -1.9940  0.8085  1.1579
 6583SOL    HW231383   0.589   3.235   7.314  0.3223  0.3650  0.5748
 6584SOL     OW31384   4.680   2.870   7.600  0.2091  0.3879 -0.7995
 6584SOL    HW131385   4.675   2.929   7.675  3.1845 -0.8562  0.4023
 6584SOL    HW231386   0.012   2.920   7.561  0.7902 -1.6259 -2.3475
 6585SOL     OW31387   0.640   1.200   4.808 -0.0147  0.0262 -0.3492
 6585SOL    HW131388   0.559   1.238   4.774 -1.9986 -1.8013  2.3587
 6585SOL    HW231389   0.703   1.253   4.759 -2.8548  4.0476  0.4319
 6586SOL     OW31390   0.974   1.300   7.530 -0.3013  0.2028 -0.0880
 6586SOL    HW131391   0.926   1.364   7.476  3.1296  0.6004 -2.7270
 6586SOL    HW231392   0.981   1.344   7.614 -2.6179  2.1097 -0.8692
 6587SOL     OW31393   3.473   2.593   5.702  0.2805 -1.2914 -0.7994
 6587SOL    HW131394   3.403   2.549   5.654 -0.8544  0.1011 -0.4249
 6587SOL    HW231395   3.428   2.637   5.774 -0.4914 -3.4009  0.0030
 6588SOL     OW31396   1.987   1.081   2.249 -0.6631 -0.2879 -0.3084
 6588SOL    HW131397   2.009   1.008   2.307  1.3103 -0.7897 -1.6819
 6588SOL    HW231398   1.984   1.032   2.167 -2.4366 -2.1437  0.8688
 6589SOL     OW31399   0.245   3.782   4.807 -0.4192 -0.0016 -0.2254
 6589SOL    HW131400   0.288   3.818   4.885  0.3504 -0.4719 -0.4408
 6589SOL    HW231401   0.269   3.690   4.810 -0.2543 -0.0244 -2.0437
 6590SOL     OW31402   2.565   4.317  10.945  0.0082 -0.1500  0.3134
 6590SOL    HW131403   2.595   4.228  10.925  0.1860  0.0241 -0.1830
 6590SOL    HW231404   2.472   4.307  10.968  0.2089 -2.8333  0.0042
 6591SOL     OW31405   3.594   3.162   6.803  0.7480 -0.0228  0.0455
 6591SOL    HW131406   3.672   3.128   6.847  0.0809  0.6883  1.7753
 6591SOL    HW231407   3.600   3.117   6.719 -0.1730  0.8765 -0.5014
 6592SOL     OW31408   2.013   3.617   9.111  0.2086 -0.0471  0.1799
 6592SOL    HW131409   1.967   3.618   9.195 -1.7459  0.0552 -0.8990
 6592SOL    HW231410   1.966   3.680   9.057  2.5056  2.2298  0.8291
 6593SOL     OW31411   1.549   4.548   7.513  0.5753  0.3357  0.6037
 6593SOL    HW131412   1.578   4.544   7.421 -1.2583 -0.9443  0.0828
 6593SOL    HW231413   1.484   4.617   7.517 -1.6038 -1.7464  1.0059
 6594SOL     OW31414   4.556   4.271   4.381 -0.1710 -0.3540 -0.1653
 6594SOL    HW131415   4.585   4.198   4.326  1.2580  0.7263 -0.8400
 6594SOL    HW231416   4.533   4.224   4.461  1.9744 -2.0777 -0.5640
 6595SOL     OW31417   1.636   2.892   3.288 -0.4124  0.2308  0.0099
 6595SOL    HW131418   1.586   2.974   3.284 -0.5878  0.0431 -1.4512
 6595SOL    HW231419   1.655   2.886   3.195  0.3108  0.3492  0.1477
 6596SOL     OW31420   0.115   4.543   1.634 -0.1366  0.2979  0.8208
 6596SOL    HW131421   0.025   4.575   1.625  0.2640  1.1907  0.0106
 6596SOL    HW231422   0.110   4.468   1.573  2.0048  2.3439 -1.8643
 6597SOL     OW31423   1.838   1.385   6.483  0.0338  0.2112 -0.2722
 6597SOL    HW131424   1.920   1.340   6.505 -0.0143  0.4678  0.4217
 6597SOL    HW231425   1.808   1.431   6.561  0.0575 -1.4380  0.7275
 6598SOL     OW31426   1.775   3.702  15.177 -0.3505 -0.2415  0.4345
 6598SOL    HW131427   1.702   3.759  15.150 -0.6850 -1.9368 -2.2722
 6598SOL    HW231428   1.834   3.715  15.102 -1.8255 -0.0298 -0.7038
 6599SOL     OW31429   2.987   0.844   0.173  0.2844 -0.1508  0.0249
 6599SOL    HW131430   2.908   0.798   0.203  0.4877  0.0876  0.8922
 6599SOL    HW231431   3.016   0.895   0.248  3.5573  0.2973 -1.5346
 6600SOL     OW31432   0.718   3.617   6.616 -0.0496 -0.5334 -0.0221
 6600SOL    HW131433   0.720   3.628   6.521 -4.3055  1.0519  0.0613
 6600SOL    HW231434   0.811   3.602   6.631 -0.1565 -2.1193 -0.9540
 6601SOL     OW31435   3.557   1.528   7.174  0.5261 -0.2715 -0.4079
 6601SOL    HW131436   3.646   1.499   7.157  0.6080  0.3280 -0.9670
 6601SOL    HW231437   3.545   1.479   7.256  1.4792  1.8178  0.9789
 6602SOL     OW31438   0.691   0.913  17.281 -0.3843  0.2316 -0.2461
 6602SOL    HW131439   0.715   0.834  17.232 -0.0197 -1.8510  3.3179
 6602SOL    HW231440   0.776   0.934  17.321  0.0322 -1.6095 -0.1851
 6603SOL     OW31441   2.849   3.350  10.359 -0.1139  0.9045  0.2685
 6603SOL    HW131442   2.828   3.423  10.301 -0.0827  1.0993  0.5059
 6603SOL    HW231443   2.896   3.398  10.428 -0.7966 -0.7882  1.9168
 6604SOL     OW31444   0.458   0.548   3.714  0.2507  0.7518  0.0414
 6604SOL    HW131445   0.501   0.629   3.688 -4.1910  2.3111 -2.3739
 6604SOL    HW231446   0.534   0.496   3.743 -0.9923 -1.4886 -0.6885
 6605SOL     OW31447   3.078   3.010   3.014 -0.1862 -0.0461 -0.1654
 6605SOL    HW131448   3.160   2.969   3.041 -1.9021 -2.7030  0.9763
 6605SOL    HW231449   3.095   3.023   2.921  1.9691  2.4613  0.5902
 6606SOL     OW31450   3.747   0.287   9.012  0.1809  0.0198 -0.4917
 6606SOL    HW131451   3.755   0.255   8.922 -1.0792 -1.1959 -0.1721
 6606SOL    HW231452   3.735   0.211   9.069 -0.3328  1.5569  1.4437
 6607SOL     OW31453   0.163   3.787   4.231  0.2574  0.2393  0.0325
 6607SOL    HW131454   0.199   3.763   4.316  0.7981  0.9218 -0.0047
 6607SOL    HW231455   0.068   3.788   4.247  0.1445  1.9655 -0.7488
 6608SOL     OW31456   3.299   1.871   6.836  0.4430  0.0027  0.0363
 6608SOL    HW131457   3.354   1.917   6.773  0.3594  0.3045  0.1809
 6608SOL    HW231458   3.374   1.827   6.877 -0.4719 -1.7832 -0.2393
 6609SOL     OW31459   2.570   4.697   3.568 -0.2525  0.5664  0.4063
 6609SOL    HW131460   2.504   4.717   3.634 -0.4215 -0.6516  0.5951
 6609SOL    HW231461   2.628   4.645   3.623 -0.0865  0.5663  0.2294
 6610SOL     OW31462   2.567   4.494  17.053 -0.1897  0.5088  0.1572
 6610SOL    HW131463   2.615   4.433  16.998 -2.2190 -0.4039 -0.5699
 6610SOL    HW231464   2.576   4.445  17.135 -0.8344  0.2681  0.0820
 6611SOL     OW31465   3.484   0.330   5.655  0.2406  0.1438  0.3495
 6611SOL    HW131466   3.452   0.241   5.671 -0.6421  0.0043 -2.0781
 6611SOL    HW231467   3.561   0.329   5.711 -1.2021 -0.5071  2.3023
 6612SOL     OW31468   4.425   3.340   8.385 -0.4278  0.2169  0.1619
 6612SOL    HW131469   4.439   3.435   8.387  1.2342 -0.0047 -0.3714
 6612SOL    HW231470   4.356   3.338   8.451 -2.0877  0.8865 -1.5524
 6613SOL     OW31471   4.322   3.033   5.776  0.1476  0.2103 -0.5940
 6613SOL    HW131472   4.241   3.052   5.824 -0.1425  0.0565 -1.0182
 6613SOL    HW231473   4.327   3.121   5.739 -2.7581  0.5310 -0.2558
 6614SOL     OW31474   2.589   2.326  14.725  0.4236  0.2320  0.4679
 6614SOL    HW131475   2.552   2.367  14.648  0.4935  2.5907  1.6979
 6614SOL    HW231476   2.584   2.402  14.783 -4.1731 -1.3632  2.1439
 6615SOL     OW31477   0.934   4.185   5.887 -0.0430 -0.0406 -0.0235
 6615SOL    HW131478   0.994   4.234   5.831 -3.3027  1.0655 -2.5868
 6615SOL    HW231479   0.998   4.129   5.931 -0.7872 -1.0025 -0.1660
 6616SOL     OW31480   1.326   3.802   5.268 -0.2615  0.1178 -0.2073
 6616SOL    HW131481   1.414   3.776   5.239  0.3130  1.3932  0.3492
 6616SOL    HW231482   1.326   3.794   5.363  0.8522  2.9502  0.0450
 6617SOL     OW31483   3.795   1.555   5.141 -0.0863  0.6199 -0.6280
 6617SOL    HW131484   3.779   1.587   5.230  0.8627  1.5261 -0.7846
 6617SOL    HW231485   3.782   1.640   5.100 -0.6214  0.0587 -1.6350
 6618SOL     OW31486   1.767   2.539   9.072  0.0072 -0.4576  0.1998
 6618SOL    HW131487   1.780   2.632   9.052 -1.3087  0.0037  1.4211
 6618SOL    HW231488   1.700   2.551   9.140  0.6640  1.6913  0.4600
 6619SOL     OW31489   1.293   4.243   4.209 -0.2196 -0.4060 -0.8752
 6619SOL    HW131490   1.229   4.171   4.211 -1.2482  0.5334  0.1129
 6619SOL    HW231491   1.314   4.258   4.117 -0.7361 -3.9130 -1.5792
 6620SOL     OW31492   3.436   4.060  14.707 -0.2142  0.4150 -0.2976
 6620SOL    HW131493   3.376   3.985  14.711 -0.1208  0.3179 -0.7649
 6620SOL    HW231494   3.513   4.012  14.739 -2.0779 -0.4341  2.9173
 6621SOL     OW31495   0.721   0.643   5.868  0.5160  0.5606 -0.6656
 6621SOL    HW131496   0.687   0.656   5.956  0.2566  3.2817 -1.1606
 6621SOL    HW231497   0.795   0.703   5.872  0.6268  0.3569  0.3127
 6622SOL     OW31498   2.059   1.974   8.966 -0.4734  0.2131  0.0014
 6622SOL    HW131499   2.019   1.982   9.053 -1.2142  2.4401 -0.5525
 6622SOL    HW231500   2.090   2.064   8.961  1.2694 -0.4138 -0.4381
 6623SOL     OW31501   1.484   1.307   9.280  0.1386  0.1379  0.1045
 6623SOL    HW131502   1.548   1.361   9.327 -0.5567  2.4563 -1.6030
 6623SOL    HW231503   1.412   1.370   9.278 -0.5253 -0.5816  1.3508
 6624SOL     OW31504   4.062   2.831  14.796 -0.3003 -0.7222 -0.7954
 6624SOL    HW131505   4.094   2.789  14.876 -0.2528  1.6399  0.4458
 6624SOL    HW231506   4.114   2.791  14.726  1.4220 -0.8267  0.5502
 6625SOL     OW31507   4.407   3.377   4.930  0.3936 -0.7258  0.0200
 6625SOL    HW131508   4.337   3.314   4.945 -2.6583  2.2533 -1.6130
 6625SOL    HW231509   4.486   3.328   4.955  0.0093 -0.8353  1.0151
 6626SOL     OW31510   4.521   1.366   6.630 -0.7462  0.3685 -0.6106
 6626SOL    HW131511   4.545   1.383   6.721  2.0829 -0.7992 -1.1411
 6626SOL    HW231512   4.447   1.425   6.618 -0.2834  1.0038 -0.3909
 6627SOL     OW31513   1.320   2.435   8.169  0.5267  0.1396  0.1150
 6627SOL    HW131514   1.322   2.346   8.203 -0.6860  0.3230  0.6581
 6627SOL    HW231515   1.362   2.418   8.085  0.0204 -0.6813  0.0287
 6628SOL     OW31516   1.380   3.063  14.248 -0.4600  0.0355  0.0744
 6628SOL    HW131517   1.446   2.999  14.276 -0.3695  0.6872  1.3471
 6628SOL    HW231518   1.391   3.069  14.153 -0.1357 -0.4183  0.0837
 6629SOL     OW31519   2.179   4.357   2.955 -0.6450 -0.6603 -0.5697
 6629SOL    HW131520   2.131   4.333   2.876 -1.3050 -2.2330  0.3048
 6629SOL    HW231521   2.106   4.403   2.996  1.7531  2.1418  0.5576
 6630SOL     OW31522   3.880   2.852  12.271 -0.4252  0.4330 -0.3879
 6630SOL    HW131523   3.887   2.797  12.193 -0.4674 -1.2584  0.7957
 6630SOL    HW231524   3.948   2.816  12.328 -1.3929 -1.8642 -0.6902
 6631SOL     OW31525   1.214   3.175   3.999  0.4219 -0.1712  0.1132
 6631SOL    HW131526   1.144   3.110   3.985  0.1278  0.8048 -2.8723
 6631SOL    HW231527   1.160   3.251   3.975 -0.2027 -0.2080  1.3707
 6632SOL     OW31528   1.003   0.166   1.901 -0.1194  0.0754 -0.1474
 6632SOL    HW131529   0.989   0.076   1.870  1.4218 -0.0603 -0.4395
 6632SOL    HW231530   1.035   0.213   1.823  1.8241  0.8000  1.0899
 6633SOL     OW31531   0.970   0.274  14.275 -0.2929  0.0643  0.1985
 6633SOL    HW131532   0.940   0.320  14.353 -1.1580 -1.0593  0.5349
 6633SOL    HW231533   1.065   0.267  14.290 -0.1457  1.0870 -0.2635
 6634SOL     OW31534   2.859   0.557   5.523  0.7971 -0.4569  0.7267
 6634SOL    HW131535   2.824   0.478   5.483  0.9435 -0.6045  0.8932
 6634SOL    HW231536   2.926   0.591   5.464 -0.7128  0.1197 -0.6579
 6635SOL     OW31537   3.429   2.730   1.463 -0.3156 -0.0816 -0.0586
 6635SOL    HW131538   3.451   2.769   1.548 -1.9704  1.2728 -0.2558
 6635SOL    HW231539   3.508   2.741   1.410  0.2917  0.9322  1.0276
 6636SOL     OW31540   0.800   1.518   1.252  0.2378  0.2722  0.2428
 6636SOL    HW131541   0.734   1.539   1.186  0.4753  2.5037  0.7263
 6636SOL    HW231542   0.760   1.577   1.316  0.8079  0.3637  0.5124
 6637SOL     OW31543   1.756   2.883   1.328  0.2612  0.4307  0.2076
 6637SOL    HW131544   1.774   2.825   1.254  0.1410  0.0108  0.5074
 6637SOL    HW231545   1.837   2.930   1.350  0.8452 -1.0359  1.2237
 6638SOL     OW31546   0.568   1.448   6.975  0.1083  0.3740  0.0706
 6638SOL    HW131547   0.609   1.505   6.910 -0.6042 -0.5935 -1.2386
 6638SOL    HW231548   0.509   1.394   6.921 -1.2266  1.0678  0.8350
 6639SOL     OW31549   2.564   2.454  15.746  0.4897 -0.9262 -0.5426
 6639SOL    HW131550   2.618   2.533  15.742  1.1071 -1.3031  0.5163
 6639SOL    HW231551   2.584   2.409  15.664 -2.1507  0.8300 -2.1607
 6640SOL     OW31552   0.652   1.144   6.205  0.3308  0.1937  0.5431
 6640SOL    HW131553   0.593   1.212   6.238 -0.9228 -0.3595 -0.5544
 6640SOL    HW231554   0.738   1.178   6.230  0.8466 -2.3240  2.2519
 6641SOL     OW31555   3.592   3.914   8.842 -0.0244  0.0946  0.0306
 6641SOL    HW131556   3.545   3.978   8.895  1.2546 -0.2101  1.5355
 6641SOL    HW231557   3.531   3.876   8.778 -0.2194  1.4804 -0.6004
 6642SOL     OW31558   1.288   3.249   3.234 -0.9444 -0.3911  0.0192
 6642SOL    HW131559   1.227   3.316   3.201  0.0995  0.3483 -0.4030
 6642SOL    HW231560   1.303   3.274   3.325 -0.3451  1.1468 -0.5046
 6643SOL     OW31561   3.615   1.460   9.346 -0.1519  0.1684 -0.3637
 6643SOL    HW131562   3.654   1.539   9.307  0.2697 -0.2457 -0.7778
 6643SOL    HW231563   3.560   1.496   9.415 -0.3861  0.4393 -0.6887
 6644SOL     OW31564   0.579   2.881   4.742  0.2824 -0.0994  0.3110
 6644SOL    HW131565   0.659   2.883   4.795 -1.3334 -2.6785  2.8638
 6644SOL    HW231566   0.513   2.895   4.811  0.6000  1.2608  0.3317
 6645SOL     OW31567   1.576   4.205   1.565  0.3225 -0.0691  0.1202
 6645SOL    HW131568   1.671   4.205   1.555  0.0704 -2.8364 -2.2889
 6645SOL    HW231569   1.542   4.213   1.476 -0.2202  1.9029  0.4957
 6646SOL     OW31570   3.757   2.299   6.998 -0.2921  0.2529  0.2495
 6646SOL    HW131571   3.696   2.351   7.049 -1.7307 -1.4108  0.2200
 6646SOL    HW231572   3.699   2.238   6.953 -1.6421  1.1345  0.8057
 6647SOL     OW31573   2.505   1.561   5.780 -0.0576 -0.3056 -0.7191
 6647SOL    HW131574   2.545   1.634   5.734  0.2390  1.2525  2.0135
 6647SOL    HW231575   2.578   1.500   5.793 -1.2279 -1.2508  1.4768
 6648SOL     OW31576   1.621   3.165   6.099 -0.1453  1.0650  0.5898
 6648SOL    HW131577   1.684   3.094   6.088 -0.9168  0.0840  2.4529
 6648SOL    HW231578   1.547   3.133   6.047 -0.4801  0.1840  1.6126
 6649SOL     OW31579   3.297   4.723   8.129 -0.0536 -0.1366 -0.7542
 6649SOL    HW131580   3.317   0.061   8.182  1.2343 -0.5425 -0.6557
 6649SOL    HW231581   3.288   4.655   8.196 -0.7890 -0.4206 -1.1432
 6650SOL     OW31582   1.492   3.144  17.614 -1.0952 -0.5634  1.0770
 6650SOL    HW131583   1.567   3.191  17.649 -0.5854  0.2154 -1.0694
 6650SOL    HW231584   1.505   3.060  17.658 -0.1857 -1.5210 -1.0246
 6651SOL     OW31585   3.273   2.611   3.215 -0.3381  0.3028  0.4909
 6651SOL    HW131586   3.235   2.559   3.144  0.3093  1.8516 -0.9908
 6651SOL    HW231587   3.213   2.593   3.288 -0.8649 -0.6269 -0.1679
 6652SOL     OW31588   1.097   1.749   0.713 -0.0998 -0.1291  0.1121
 6652SOL    HW131589   1.084   1.783   0.624 -0.3602  1.0154  0.5886
 6652SOL    HW231590   1.036   1.802   0.765  2.4577  0.5773  2.4009
 6653SOL     OW31591   2.769   3.901   9.613  0.3957 -0.4087  0.1053
 6653SOL    HW131592   2.848   3.869   9.569  0.0832 -1.0457  0.0132
 6653SOL    HW231593   2.736   3.815   9.640  1.1158 -0.6766  0.1367
 6654SOL     OW31594   2.678   4.138   2.250 -0.3257  0.0859 -0.0288
 6654SOL    HW131595   2.728   4.065   2.285  0.9771  0.1151 -1.8730
 6654SOL    HW231596   2.712   4.145   2.161 -1.9214  0.2760 -0.6176
 6655SOL     OW31597   1.628   3.851   7.726 -0.0481  0.1459 -0.8232
 6655SOL    HW131598   1.673   3.893   7.652 -1.0929  1.3179 -0.7826
 6655SOL    HW231599   1.545   3.827   7.683  0.1622 -3.6459  0.8947
 6656SOL     OW31600   0.162   1.030   3.610  0.2263 -0.7245 -0.1760
 6656SOL    HW131601   0.228   1.054   3.675  0.0051  0.6081 -0.4335
 6656SOL    HW231602   0.210   1.056   3.531 -0.2070  0.2415 -0.1198
 6657SOL     OW31603   4.640   1.426   7.814 -0.2251  0.0280 -0.1691
 6657SOL    HW131604   4.614   1.336   7.831  1.1420 -0.1992  0.7535
 6657SOL    HW231605   4.681   1.448   7.898 -0.8939  0.8013 -0.0443
 6658SOL     OW31606   0.441   0.292   8.158 -0.9116  0.6163 -0.0643
 6658SOL    HW131607   0.438   0.206   8.201 -1.1354  0.6276 -0.0589
 6658SOL    HW231608   0.530   0.321   8.175 -0.4830 -1.3877  1.1538
 6659SOL     OW31609   4.062   4.435  17.735 -0.6045  0.1844 -0.0087
 6659SOL    HW131610   3.995   4.492   0.020  0.2235  0.5738  0.8564
 6659SOL    HW231611   4.002   4.380  17.685  0.4579  0.4241 -1.5374
 6660SOL     OW31612   2.589   1.748   9.831  0.3017 -0.7338 -0.4148
 6660SOL    HW131613   2.494   1.741   9.838  0.2329  1.1777  0.5712
 6660SOL    HW231614   2.615   1.693   9.905 -2.6802 -0.0591  1.1462
 6661SOL     OW31615   1.854   1.078  15.637  0.5026 -0.8258 -0.0096
 6661SOL    HW131616   1.848   1.103  15.729 -1.3276  1.3790 -0.7098
 6661SOL    HW231617   1.800   1.139  15.587 -0.4128 -0.3015  1.6250
 6662SOL     OW31618   0.995   4.611   3.427  0.1596 -0.2143 -0.4353
 6662SOL    HW131619   1.047   4.555   3.369  1.5841 -0.4634  1.0626
 6662SOL    HW231620   1.063   4.677   3.438 -0.8792  0.8875 -0.6342
 6663SOL     OW31621   3.577   3.933   2.245  0.0043  0.6715  0.1125
 6663SOL    HW131622   3.557   3.981   2.165  0.9942 -0.1634 -0.6360
 6663SOL    HW231623   3.650   3.879   2.215  1.2932  3.7489 -2.3591
 6664SOL     OW31624   0.187   1.831   9.104  0.3180  0.1523  0.2004
 6664SOL    HW131625   0.235   1.767   9.157 -0.3560  1.7612  2.7716
 6664SOL    HW231626   0.126   1.776   9.054 -0.0781  1.5880 -0.8976
 6665SOL     OW31627   2.596   1.704   0.975 -0.9354 -0.4225  0.0627
 6665SOL    HW131628   2.516   1.701   1.027 -1.9870  1.6854 -1.4250
 6665SOL    HW231629   2.570   1.782   0.925 -0.0607 -1.1415 -1.5200
 6666SOL     OW31630   0.665   4.672   8.362  0.0574  0.1846 -0.1620
 6666SOL    HW131631   0.752   4.667   8.323 -0.1877 -0.0238 -0.6795
 6666SOL    HW231632   0.650   4.578   8.373 -2.1555  0.4576 -0.7769
 6667SOL     OW31633   4.573   4.536   6.577  0.2378  0.0646 -0.5750
 6667SOL    HW131634   4.596   4.598   6.507 -3.1392 -0.7213 -2.4091
 6667SOL    HW231635   4.489   4.505   6.543 -0.3791  0.5741  0.4985
 6668SOL     OW31636   0.380   1.769   4.526 -0.2380  0.0013  0.3048
 6668SOL    HW131637   0.434   1.690   4.536  0.7234  0.6402  0.2093
 6668SOL    HW231638   0.365   1.790   4.434  0.0075 -0.2156  0.2151
 6669SOL     OW31639   3.006   3.654   5.271  0.0640 -1.0236 -0.3734
 6669SOL    HW131640   2.971   3.732   5.228  3.7800  2.1683  2.3940
 6669SOL    HW231641   2.955   3.628   5.348 -1.4071  0.6276 -0.7886
 6670SOL     OW31642   2.603   4.078  15.169 -0.0067 -0.1659 -0.0576
 6670SOL    HW131643   2.530   4.126  15.208  0.0057 -1.0809  1.0762
 6670SOL    HW231644   2.555   4.002  15.135  1.5449 -1.2728  0.2164
 6671SOL     OW31645   2.662   4.306   7.224 -0.0115  0.2563 -0.0097
 6671SOL    HW131646   2.585   4.355   7.253 -0.3046  0.4199 -1.0874
 6671SOL    HW231647   2.659   4.229   7.281 -0.6642 -0.6650 -1.2962
 6672SOL     OW31648   1.469   4.234   8.165 -0.3228  0.0015  0.0276
 6672SOL    HW131649   1.530   4.287   8.216 -0.6116  0.7936 -0.4435
 6672SOL    HW231650   1.410   4.189   8.226 -0.0129 -1.0020 -0.4177
 6673SOL     OW31651   4.120   0.306   5.595 -0.0636 -0.7371  0.0655
 6673SOL    HW131652   4.179   0.382   5.602 -0.3518 -0.3447 -1.8614
 6673SOL    HW231653   4.041   0.347   5.561 -1.2887 -2.8817  0.3325
 6674SOL     OW31654   3.424   4.586   8.494  0.4163  0.6963 -0.2557
 6674SOL    HW131655   3.376   4.554   8.418  0.4123  1.1104 -0.4276
 6674SOL    HW231656   3.363   4.562   8.564  2.3656  2.9890  2.2225
 6675SOL     OW31657   4.235   3.995   4.778  0.0115 -0.2596 -0.1850
 6675SOL    HW131658   4.276   4.043   4.850 -0.8982  1.8152 -1.0389
 6675SOL    HW231659   4.145   3.976   4.804 -0.6751  2.0443 -0.8592
 6676SOL     OW31660   0.900   4.116   8.723  0.1052 -0.1746  0.1166
 6676SOL    HW131661   0.989   4.146   8.703  0.3142 -1.2091 -0.5503
 6676SOL    HW231662   0.911   4.025   8.749 -0.6304 -0.2782  0.0754
 6677SOL     OW31663   2.180   1.323  15.364 -0.3144  0.0197 -0.6709
 6677SOL    HW131664   2.244   1.348  15.431 -1.0924 -0.4385  0.2445
 6677SOL    HW231665   2.138   1.250  15.410  0.8847  0.7955  1.6575
 6678SOL     OW31666   2.646   0.266  10.515  0.2547  0.1653  0.3758
 6678SOL    HW131667   2.717   0.330  10.509  0.2248  0.1531 -0.0933
 6678SOL    HW231668   2.578   0.326  10.545  1.3388 -0.0910  3.3636
 6679SOL     OW31669   0.657   1.795  17.196 -0.1423 -0.2461 -0.7310
 6679SOL    HW131670   0.720   1.730  17.166 -0.9933 -1.0907 -0.6963
 6679SOL    HW231671   0.676   1.877  17.150 -0.7947  0.2986 -0.0201
 6680SOL     OW31672   0.452   1.059   8.372 -0.2371  0.5850  0.0456
 6680SOL    HW131673   0.407   0.995   8.427 -1.5272  2.5593  1.2950
 6680SOL    HW231674   0.525   1.009   8.337 -0.9748  0.8599 -1.8552
 6681SOL     OW31675   1.005   2.391   8.680  0.0716  0.4376 -0.1141
 6681SOL    HW131676   0.939   2.461   8.682 -0.5635 -0.1706  0.0433
 6681SOL    HW231677   0.957   2.309   8.692  1.1629 -0.6157 -2.9559
 6682SOL     OW31678   2.674   3.920   3.087  0.0377 -0.4263 -0.0104
 6682SOL    HW131679   2.757   3.887   3.122  0.8075 -0.0882 -1.5485
 6682SOL    HW231680   2.633   3.968   3.159 -2.2821 -0.6158 -1.1839
 6683SOL     OW31681   0.180   4.240   5.264  0.2535 -0.1836  0.6827
 6683SOL    HW131682   0.227   4.273   5.187 -0.7574 -0.0287  0.1304
 6683SOL    HW231683   0.168   4.147   5.245 -0.9557  0.2059 -0.4227
 6684SOL     OW31684   2.977   2.032   7.236  0.0344 -0.5092  0.8028
 6684SOL    HW131685   2.891   2.062   7.208 -0.5387 -2.5891  0.3689
 6684SOL    HW231686   3.032   2.056   7.162  1.5529 -0.0199  2.0693
 6685SOL     OW31687   2.136   4.699   4.546  0.4546  0.1999 -0.1955
 6685SOL    HW131688   2.183   4.617   4.535 -2.3050 -1.3145 -0.5765
 6685SOL    HW231689   2.062   4.657   4.591 -0.7689  2.0624 -0.4550
 6686SOL     OW31690   0.697   4.677   6.381  0.0253  0.2036 -0.2564
 6686SOL    HW131691   0.761   4.718   6.323 -1.3061  1.0294 -1.1328
 6686SOL    HW231692   0.672   4.597   6.334  0.2676  1.2143 -2.0955
 6687SOL     OW31693   1.182   2.810   5.090  0.7063 -0.2342 -0.4121
 6687SOL    HW131694   1.125   2.733   5.094 -1.2687  1.1490 -1.7957
 6687SOL    HW231695   1.116   2.874   5.118  2.5441  0.6963  1.7927
 6688SOL     OW31696   4.688   1.558  16.626 -0.1380 -0.5832 -0.4701
 6688SOL    HW131697   4.665   1.620  16.557  0.0757 -0.6135 -0.5676
 6688SOL    HW231698   4.606   1.545  16.674  0.0884 -0.5513 -0.0768
 6689SOL     OW31699   2.389   1.279   8.765 -0.0327  0.1637  0.3217
 6689SOL    HW131700   2.378   1.224   8.843  4.1765 -1.2207 -0.0644
 6689SOL    HW231701   2.311   1.328   8.741 -0.6305 -1.6544 -1.4246
 6690SOL     OW31702   2.892   3.745  12.274  0.4558  0.9021 -0.6045
 6690SOL    HW131703   2.851   3.757  12.360  0.2365  2.9556 -1.0073
 6690SOL    HW231704   2.874   3.833  12.242  2.3601  1.0356 -1.3203
 6691SOL     OW31705   0.414   2.832  15.095 -0.0163  0.3445  0.2206
 6691SOL    HW131706   0.413   2.899  15.163 -1.5387  0.4212  0.1278
 6691SOL    HW231707   0.323   2.804  15.087 -0.2641  0.8197  1.4141
 6692SOL     OW31708   4.510   4.236   8.742  0.3228  0.2803 -0.1018
 6692SOL    HW131709   4.472   4.185   8.814 -0.7174  0.3895 -0.5650
 6692SOL    HW231710   4.594   4.192   8.730 -0.2749 -1.0600  0.6990
 6693SOL     OW31711   3.167   2.904   3.308  0.1214 -0.1036  0.1854
 6693SOL    HW131712   3.079   2.866   3.315 -0.2889  1.1282  1.7704
 6693SOL    HW231713   3.210   2.850   3.242  1.2085 -1.3763  1.9294
 6694SOL     OW31714   1.540   4.601  14.261  0.5549 -0.7967  0.1192
 6694SOL    HW131715   1.621   4.574  14.304  0.0881 -1.6332  0.4686
 6694SOL    HW231716   1.513   4.511  14.243 -0.0754 -0.3592 -1.1225
 6695SOL     OW31717   2.019   0.700   3.558  0.6877  0.4296  0.1003
 6695SOL    HW131718   1.961   0.683   3.632  2.6608 -1.0407  1.2959
 6695SOL    HW231719   1.957   0.696   3.485  0.8537 -0.6306  0.0141
 6696SOL     OW31720   3.283   2.759   9.795  0.5216 -0.2179 -0.2336
 6696SOL    HW131721   3.307   2.751   9.703 -1.8394  3.5232 -1.1749
 6696SOL    HW231722   3.211   2.697   9.806 -0.0460 -0.0468 -3.2322
 6697SOL     OW31723   3.286   2.791   8.025  0.5451  0.0139  0.6073
 6697SOL    HW131724   3.330   2.859   8.076 -0.9307  1.0984  0.4315
 6697SOL    HW231725   3.232   2.745   8.089  0.7061 -0.7493  0.2018
 6698SOL     OW31726   2.267   3.173   8.440  0.4528 -0.6988 -0.1757
 6698SOL    HW131727   2.255   3.123   8.521  0.3276 -0.8033 -0.2577
 6698SOL    HW231728   2.237   3.258   8.472  1.0523 -0.0594 -1.3385
 6699SOL     OW31729   4.536   3.263   9.568 -0.7139  0.3680  0.4919
 6699SOL    HW131730   4.479   3.336   9.590 -0.7509  0.6828 -0.6581
 6699SOL    HW231731   4.561   3.246   9.659 -1.6842  0.1843  0.7185
 6700SOL     OW31732   4.300   3.105   6.966  0.4581  0.3806 -0.4730
 6700SOL    HW131733   4.379   3.147   6.932 -0.4717  0.3750 -2.6302
 6700SOL    HW231734   4.312   3.111   7.061 -1.3556 -1.6686 -0.1142
 6701SOL     OW31735   0.172   2.278   8.457 -0.2633  0.7807  0.0265
 6701SOL    HW131736   0.115   2.216   8.413  2.3536 -2.8521  1.7624
 6701SOL    HW231737   0.193   2.230   8.537 -2.1488  1.7689  1.1109
 6702SOL     OW31738   3.603   4.444   1.868  0.0877  0.6889  0.0235
 6702SOL    HW131739   3.592   4.395   1.949  1.2899  1.4625  0.6520
 6702SOL    HW231740   3.537   4.392   1.821 -0.5395 -0.0589  1.7580
 6703SOL     OW31741   0.424   2.185   3.515 -1.0150 -0.1022 -0.0201
 6703SOL    HW131742   0.373   2.160   3.592 -1.3316  1.2837  0.2302
 6703SOL    HW231743   0.354   2.188   3.450 -0.9859 -1.4977 -0.1168
 6704SOL     OW31744   4.480   2.842   2.559 -0.0263 -0.1446 -0.3483
 6704SOL    HW131745   4.516   2.914   2.508  0.2964  0.5495  0.8654
 6704SOL    HW231746   4.531   2.769   2.524 -0.2974 -1.9764  3.0392
 6705SOL     OW31747   1.154   0.138  15.388 -1.0725 -0.2337 -0.5034
 6705SOL    HW131748   1.110   0.201  15.445  1.6140  0.2376  1.0939
 6705SOL    HW231749   1.153   0.178  15.301  0.1871 -1.8351 -1.2530
 6706SOL     OW31750   2.919   1.724  14.568  0.8226 -0.2858  0.0703
 6706SOL    HW131751   3.010   1.751  14.554  0.3228  1.5233  0.2395
 6706SOL    HW231752   2.878   1.780  14.502  0.6317  0.8658  1.1598
 6707SOL     OW31753   0.349   0.507   7.642  0.0125  0.2534  0.4930
 6707SOL    HW131754   0.386   0.586   7.602  0.9244 -0.6701 -0.4987
 6707SOL    HW231755   0.417   0.444   7.619 -0.7108 -0.8362  1.3742
 6708SOL     OW31756   1.139   2.048   0.643  0.1045  0.1670 -0.1693
 6708SOL    HW131757   1.101   2.071   0.728 -2.4739 -0.0711 -1.2485
 6708SOL    HW231758   1.084   2.103   0.587  2.7304  0.1339 -2.7668
 6709SOL     OW31759   2.871   3.723   4.806 -0.2890 -0.4872 -0.1891
 6709SOL    HW131760   2.806   3.654   4.792 -1.0231  0.7687 -2.9733
 6709SOL    HW231761   2.934   3.686   4.867 -1.0964 -1.8864 -0.1906
 6710SOL     OW31762   3.626   2.663   3.561  0.3331  0.1094  0.5984
 6710SOL    HW131763   3.641   2.620   3.477  1.9850 -0.9202  1.4365
 6710SOL    HW231764   3.545   2.711   3.540  1.0120  0.8042 -0.4307
 6711SOL     OW31765   2.634   2.841   4.877 -0.0345 -0.1611  0.2388
 6711SOL    HW131766   2.677   2.863   4.959  2.7185  0.1027 -1.2741
 6711SOL    HW231767   2.590   2.762   4.908  2.3101 -0.4941  2.6605
 6712SOL     OW31768   1.600   1.563   7.227 -0.2733 -0.0301 -0.0481
 6712SOL    HW131769   1.670   1.498   7.231 -0.0063  0.2392 -0.4515
 6712SOL    HW231770   1.656   1.638   7.206 -0.0483 -0.0250  0.5500
 6713SOL     OW31771   3.359   3.057   5.053 -0.0764  0.2012  0.8476
 6713SOL    HW131772   3.442   3.106   5.059 -0.3659  1.0064 -1.9138
 6713SOL    HW231773   3.365   3.020   5.141  0.0473  3.0796  2.0635
 6714SOL     OW31774   0.519   4.084   5.224 -0.1734  0.0083 -0.2694
 6714SOL    HW131775   0.610   4.113   5.212 -0.4752  0.6229 -1.0590
 6714SOL    HW231776   0.540   4.005   5.274 -0.4436 -0.1438 -0.3988
 6715SOL     OW31777   2.527   0.423   8.266  0.2521  0.7190  0.3420
 6715SOL    HW131778   2.586   0.425   8.190  2.7168  1.6542  2.2918
 6715SOL    HW231779   2.501   0.516   8.263  2.6164  1.3162 -2.1030
 6716SOL     OW31780   1.333   0.339   9.665 -0.2993 -0.9096  0.4790
 6716SOL    HW131781   1.336   0.334   9.761  0.3918 -1.5188  0.4243
 6716SOL    HW231782   1.410   0.391   9.645  0.2780 -1.2469  1.8288
 6717SOL     OW31783   0.448   3.268   2.883  0.3299 -0.5022  0.2912
 6717SOL    HW131784   0.370   3.276   2.828  0.8376  3.2358  0.0438
 6717SOL    HW231785   0.485   3.356   2.872  1.6568 -1.2742 -1.5071
 6718SOL     OW31786   1.646   3.458   8.770 -0.4711 -0.1491  0.4746
 6718SOL    HW131787   1.657   3.503   8.686  1.9332  1.2283  1.5353
 6718SOL    HW231788   1.734   3.461   8.805 -0.3107 -0.2227  0.0750
 6719SOL     OW31789   0.693   1.450   5.159 -0.1690 -0.4672  0.1293
 6719SOL    HW131790   0.772   1.503   5.148  0.7519 -1.7714  0.4831
 6719SOL    HW231791   0.727   1.367   5.127 -1.5010 -1.1691  0.5551
 6720SOL     OW31792   4.224   0.908   1.202  0.5178 -0.2761  0.2820
 6720SOL    HW131793   4.202   0.830   1.253 -0.4476 -0.1064  0.1271
 6720SOL    HW231794   4.136   0.940   1.178  1.4165  1.0128 -1.2734
 6721SOL     OW31795   2.574   3.844   7.914  0.5635 -0.1635  0.2003
 6721SOL    HW131796   2.517   3.791   7.970  1.0665  0.0785  0.9365
 6721SOL    HW231797   2.631   3.790   7.859  1.8779  1.3022  0.1255
 6722SOL     OW31798   0.240   1.140   2.822  0.0075 -0.4637 -0.0193
 6722SOL    HW131799   0.256   1.112   2.732  5.0661  2.4419 -0.0536
 6722SOL    HW231800   0.145   1.141   2.828  0.0372 -0.7289  0.4751
 6723SOL     OW31801   2.280   4.339   9.814  0.1937 -0.1888 -0.4713
 6723SOL    HW131802   2.245   4.366   9.899  2.3546 -1.2709  0.7522
 6723SOL    HW231803   2.246   4.251   9.800  1.5647 -0.7458 -0.2376
 6724SOL     OW31804   0.745   3.794   0.257 -0.3401 -0.1284  0.3375
 6724SOL    HW131805   0.664   3.771   0.302 -0.4924 -0.1864  0.0333
 6724SOL    HW231806   0.753   3.880   0.297  1.1818  0.0603 -0.3891
 6725SOL     OW31807   3.860   1.487   4.342  0.1214  0.0728 -0.3438
 6725SOL    HW131808   3.908   1.521   4.266  0.2594  2.8018  0.9571
 6725SOL    HW231809   3.817   1.562   4.384 -1.8551 -1.0791 -0.3138
 6726SOL     OW31810   3.902   3.805  12.479 -0.8113  0.1277  0.1820
 6726SOL    HW131811   3.900   3.759  12.563  3.2483 -1.9945 -0.8938
 6726SOL    HW231812   3.853   3.742  12.426 -1.6578 -0.5269  1.7224
 6727SOL     OW31813   2.863   3.845   3.596  0.3591  0.2646 -0.1935
 6727SOL    HW131814   2.902   3.914   3.543  0.7780  0.8509  0.8765
 6727SOL    HW231815   2.830   3.886   3.676  0.9245  0.1128  0.1155
 6728SOL     OW31816   1.007   2.416   8.011 -0.2048  0.1073  0.2009
 6728SOL    HW131817   0.915   2.436   7.994 -0.4511 -1.4782 -0.3504
 6728SOL    HW231818   1.048   2.498   7.984 -1.8608  2.0763  3.6970
 6729SOL     OW31819   1.475   2.853  17.663  0.1880 -0.3708 -0.2302
 6729SOL    HW131820   1.429   2.795  17.724  0.4498 -1.5751 -1.1764
 6729SOL    HW231821   1.423   2.828  17.586  0.6476 -2.1209  0.0177
 6730SOL     OW31822   0.175   4.425  14.645  0.5825 -0.0355  0.1480
 6730SOL    HW131823   0.164   4.341  14.600 -0.0765 -0.5966  1.3621
 6730SOL    HW231824   0.252   4.453  14.595 -1.1070  1.3388 -1.6523
 6731SOL     OW31825   2.741   4.065   6.976  0.4265  0.0738 -0.2516
 6731SOL    HW131826   2.767   4.007   6.905 -1.0828  2.3224 -2.6295
 6731SOL    HW231827   2.706   4.136   6.923 -0.7508 -0.0308  0.3770
 6732SOL     OW31828   4.171   3.746  10.326  0.0128 -0.0843 -0.0820
 6732SOL    HW131829   4.244   3.765  10.386  2.5534 -0.5352 -3.0144
 6732SOL    HW231830   4.136   3.670  10.373  1.2701 -0.3646  0.4301
 6733SOL     OW31831   3.217   4.711  10.976 -0.6359  0.4311  0.1472
 6733SOL    HW131832   3.189   4.634  11.026  0.1483 -0.2687 -0.4812
 6733SOL    HW231833   3.312   4.710  10.990 -0.6937  3.4534  0.7148
 6734SOL     OW31834   4.695   0.937   2.480 -0.4192 -0.0819  0.1228
 6734SOL    HW131835   0.051   0.924   2.476 -0.5301 -0.4869 -1.1800
 6734SOL    HW231836   4.677   0.919   2.572  1.9367  1.7008  0.9090
 6735SOL     OW31837   1.236   1.190   2.226  0.2838  0.3973 -0.3410
 6735SOL    HW131838   1.194   1.118   2.273  1.1101  0.1487  0.0100
 6735SOL    HW231839   1.224   1.158   2.136 -2.1276  0.3557 -0.0104
 6736SOL     OW31840   1.038   0.028   8.686 -0.4673 -0.6404 -0.2602
 6736SOL    HW131841   1.002   0.113   8.661  1.9465  0.0082 -1.5817
 6736SOL    HW231842   0.970   0.008   8.751 -0.7895  0.7457 -0.1607
 6737SOL     OW31843   4.328   4.592   2.243 -0.3580 -0.2175  0.3673
 6737SOL    HW131844   4.419   4.609   2.265  0.7933 -0.8521 -3.8543
 6737SOL    HW231845   4.313   4.684   2.219 -1.3109 -0.8529 -1.5222
 6738SOL     OW31846   2.389   4.635   5.092  0.2370 -0.1141  0.0822
 6738SOL    HW131847   2.348   4.606   5.174  0.3009  1.2399  0.5947
 6738SOL    HW231848   2.458   4.691   5.127 -1.6102 -0.3036  4.0815
 6739SOL     OW31849   3.098   0.196   1.357 -0.4924  0.1286 -0.4871
 6739SOL    HW131850   3.116   0.230   1.444  0.6846 -1.6969 -0.0178
 6739SOL    HW231851   3.003   0.195   1.365 -0.4836 -0.6962 -0.5003
 6740SOL     OW31852   3.144   0.905   3.568  0.0479 -0.7579  0.5728
 6740SOL    HW131853   3.222   0.912   3.514 -1.6322  2.7572 -1.4043
 6740SOL    HW231854   3.112   0.815   3.559  1.5951 -1.0305 -2.1594
 6741SOL     OW31855   4.088   0.431   1.708  0.0130 -0.3873  0.5900
 6741SOL    HW131856   4.015   0.372   1.688 -1.4594  1.0087  1.8073
 6741SOL    HW231857   4.170   0.388   1.686 -1.1415 -1.2962 -1.8966
 6742SOL     OW31858   3.763   1.005   5.388 -0.3745 -0.2102 -0.4809
 6742SOL    HW131859   3.759   1.090   5.432  1.1918 -0.0740 -0.5896
 6742SOL    HW231860   3.845   0.964   5.416  0.5215  1.4025 -0.8008
 6743SOL     OW31861   4.235   1.067   1.776  0.8678  0.2301 -0.7656
 6743SOL    HW131862   4.272   0.979   1.768 -0.3089 -0.2313 -1.1172
 6743SOL    HW231863   4.258   1.090   1.686  1.5207 -0.1613 -0.7036
 6744SOL     OW31864   1.480   3.254   8.883 -0.2688 -0.0464 -0.5947
 6744SOL    HW131865   1.518   3.182   8.933 -1.3651 -0.7685 -0.7842
 6744SOL    HW231866   1.554   3.302   8.847  0.8212  0.0473  1.7801
 6745SOL     OW31867   3.061   1.833  15.611 -0.2027  0.6573 -1.1720
 6745SOL    HW131868   3.041   1.747  15.649  1.4662  0.8664  0.1537
 6745SOL    HW231869   3.048   1.896  15.681 -2.8778 -0.0877 -0.9718
 6746SOL     OW31870   1.297   3.948   6.466  0.8045 -0.4632 -0.0826
 6746SOL    HW131871   1.387   3.915   6.476  0.5588 -1.6497 -1.8022
 6746SOL    HW231872   1.262   3.935   6.554  0.9603  3.1729  0.5435
 6747SOL     OW31873   2.828   4.730   2.061  0.1154 -0.2400  0.1182
 6747SOL    HW131874   2.764   4.706   2.127 -0.5750 -1.1347 -0.8633
 6747SOL    HW231875   2.907   4.680   2.079 -0.2517 -0.3791  1.3047
 6748SOL     OW31876   2.408   1.563  15.933 -0.0122  0.0252  0.0121
 6748SOL    HW131877   2.359   1.625  15.987 -0.0340  0.5604 -0.6323
 6748SOL    HW231878   2.388   1.473  15.960 -0.4764  0.0194 -0.3466
 6749SOL     OW31879   1.632   3.241  14.559 -0.1034 -0.1527  0.3503
 6749SOL    HW131880   1.553   3.270  14.512 -0.6140  2.3377  2.7365
 6749SOL    HW231881   1.617   3.150  14.588  0.8761  0.2331  2.0230
 6750SOL     OW31882   1.256   0.862   4.242  0.8711 -0.0253  0.4131
 6750SOL    HW131883   1.198   0.797   4.281  1.8749  0.3536  2.5256
 6750SOL    HW231884   1.227   0.856   4.151 -0.0368  0.4634  0.6707
 6751SOL     OW31885   0.026   3.592  12.847  0.0547 -0.1647  0.6835
 6751SOL    HW131886   4.713   3.634  12.777  3.0396 -2.4323 -2.9156
 6751SOL    HW231887   0.112   3.615  12.810  0.2292 -0.1121  1.1266
 6752SOL     OW31888   3.190   4.113   8.635 -0.3820 -0.2714 -0.1807
 6752SOL    HW131889   3.118   4.146   8.580  2.0356  1.5018 -2.2655
 6752SOL    HW231890   3.261   4.125   8.573 -0.2532 -1.2624 -0.2172
 6753SOL     OW31891   1.596   2.314   6.679  0.6079 -0.5503  0.8860
 6753SOL    HW131892   1.561   2.227   6.662 -2.3852  1.1156 -1.4311
 6753SOL    HW231893   1.562   2.369   6.609  1.3098  0.6761  1.4937
 6754SOL     OW31894   2.511   2.493  16.191  0.1371 -0.3134  0.0264
 6754SOL    HW131895   2.516   2.548  16.112  0.3766 -1.3016 -0.6441
 6754SOL    HW231896   2.564   2.420  16.158  1.7345  0.3797  1.0229
 6755SOL     OW31897   3.562   0.158  17.698  0.4261  0.2302  0.0471
 6755SOL    HW131898   3.485   0.196  17.656  0.9735  2.0211  0.7017
 6755SOL    HW231899   3.508   0.101  17.753 -0.4052  0.2123 -0.7894
 6756SOL     OW31900   0.762   0.186   6.730  0.3482  0.1843 -0.1922
 6756SOL    HW131901   0.819   0.259   6.754 -0.4909  1.2374 -1.4662
 6756SOL    HW231902   0.790   0.115   6.788  1.9858 -0.3214 -1.6254
 6757SOL     OW31903   2.745   3.408   4.110  0.0370  0.6382  0.1153
 6757SOL    HW131904   2.656   3.388   4.137  1.3000 -1.6141  2.5598
 6757SOL    HW231905   2.790   3.327   4.088  1.8008  1.5156  0.5055
 6758SOL     OW31906   3.109   1.702  13.861  0.2909  0.2469 -0.5328
 6758SOL    HW131907   3.023   1.721  13.899  0.3788 -2.3758  0.9687
 6758SOL    HW231908   3.135   1.792  13.839  1.3350 -0.1951 -1.1072
 6759SOL     OW31909   4.629   3.753   3.298  0.1875  0.0638  0.3957
 6759SOL    HW131910   4.684   3.730   3.223 -1.2788 -0.0816 -0.6351
 6759SOL    HW231911   4.568   3.807   3.247  1.8236  1.0808 -0.4808
 6760SOL     OW31912   0.335   0.163   3.261 -0.0661  0.5254  0.2425
 6760SOL    HW131913   0.253   0.212   3.261  0.3155  1.1804 -0.5660
 6760SOL    HW231914   0.380   0.230   3.209  1.3691 -1.7419 -1.4617
 6761SOL     OW31915   3.434   4.304  10.010  0.1507 -0.0784 -0.3988
 6761SOL    HW131916   3.423   4.210   9.998  0.8284 -0.2432  0.3413
 6761SOL    HW231917   3.504   4.293  10.074  0.1464 -0.5010 -0.4663
 6762SOL     OW31918   0.943   3.530   6.101  0.4361  0.1418 -0.5263
 6762SOL    HW131919   1.037   3.513   6.090  0.1425 -1.1228 -1.0189
 6762SOL    HW231920   0.912   3.443   6.077  0.3462  0.0843 -0.2074
 6763SOL     OW31921   0.947   3.740  14.511  0.5309 -0.1588  0.7570
 6763SOL    HW131922   0.957   3.709  14.601 -0.6358  0.3226  1.0579
 6763SOL    HW231923   1.007   3.674  14.475  0.1803 -0.9841  1.6691
 6764SOL     OW31924   1.389   3.060  11.053  0.0246  0.0792  0.4177
 6764SOL    HW131925   1.377   3.003  11.129 -0.4512  0.4155  0.5990
 6764SOL    HW231926   1.475   3.097  11.073  0.2435 -0.6830  0.8725
 6765SOL     OW31927   0.683   2.142   7.209  0.3043 -0.1844  0.5775
 6765SOL    HW131928   0.614   2.083   7.178 -0.8322  0.5804  1.6488
 6765SOL    HW231929   0.760   2.093   7.182  0.0190 -0.5683  0.4593
 6766SOL     OW31930   0.940   3.554   5.027  0.4734 -0.4150  0.0313
 6766SOL    HW131931   1.035   3.556   5.038  0.5735 -0.7882 -0.8427
 6766SOL    HW231932   0.931   3.630   4.970  2.9915 -0.9083 -1.0005
 6767SOL     OW31933   2.573   3.540   1.630 -0.2634 -0.5294  0.0324
 6767SOL    HW131934   2.594   3.508   1.718 -0.3858 -1.4783 -0.2760
 6767SOL    HW231935   2.482   3.564   1.642  0.4743  0.5557  3.4372
 6768SOL     OW31936   2.971   4.596   8.814 -0.6540 -0.2979  0.1306
 6768SOL    HW131937   2.953   4.604   8.907  1.9230  1.0491  0.5102
 6768SOL    HW231938   2.986   4.684   8.779 -0.7220 -0.0914  0.6276
 6769SOL     OW31939   3.462   1.728   8.927  0.2750  0.5510  0.2141
 6769SOL    HW131940   3.446   1.727   9.022 -2.1425 -2.2254 -0.2222
 6769SOL    HW231941   3.501   1.642   8.911 -1.2809 -0.4922  2.0538
 6770SOL     OW31942   2.017   1.182   0.083 -0.4583 -0.1447  0.3996
 6770SOL    HW131943   2.048   1.196   0.172  2.2681  0.2909 -0.6186
 6770SOL    HW231944   1.961   1.258   0.068 -1.3091 -0.6064  1.1979
 6771SOL     OW31945   3.361   4.162   3.530  0.1646  0.0746  0.3909
 6771SOL    HW131946   3.356   4.068   3.543 -1.3924 -0.1529 -1.7428
 6771SOL    HW231947   3.442   4.180   3.482 -0.6502  1.8593 -0.3406
 6772SOL     OW31948   2.137   1.889   6.820  0.5051  0.2099  0.8163
 6772SOL    HW131949   2.224   1.881   6.781 -1.0545 -0.1763 -2.5506
 6772SOL    HW231950   2.121   1.802   6.857  0.5042  0.7169  2.0181
 6773SOL     OW31951   0.010   3.625   0.060 -0.2166 -0.2778 -0.4552
 6773SOL    HW131952   0.048   3.604  17.728 -1.1411 -1.0457 -0.6772
 6773SOL    HW231953   4.688   3.552   0.071 -2.5358  1.3563 -2.4727
 6774SOL     OW31954   2.836   1.724   1.717  0.3004  0.5394 -0.3564
 6774SOL    HW131955   2.806   1.634   1.731  0.6247  0.0023 -3.0524
 6774SOL    HW231956   2.756   1.777   1.713 -0.2874 -0.2410  1.1238
 6775SOL     OW31957   2.693   2.609   6.356  0.4533 -0.3281 -0.2714
 6775SOL    HW131958   2.661   2.531   6.402 -0.0463  1.2539  2.0392
 6775SOL    HW231959   2.677   2.674   6.424 -1.6946 -0.5491 -0.5609
 6776SOL     OW31960   2.874   1.476  15.915  0.2142 -0.0510  0.0752
 6776SOL    HW131961   2.801   1.537  15.925  0.6162  0.6789 -1.3291
 6776SOL    HW231962   2.827   1.393  15.924  0.5494 -0.2110  0.3236
 6777SOL     OW31963   2.966   0.628  10.709  0.4687  0.0236 -0.6450
 6777SOL    HW131964   3.048   0.602  10.667  0.9934  2.1088 -0.9088
 6777SOL    HW231965   2.977   0.564  10.780 -1.0039 -1.4629 -1.7316
 6778SOL     OW31966   1.139   3.345   6.288 -0.4489  0.2998 -0.2674
 6778SOL    HW131967   1.219   3.304   6.256 -0.3265  0.1240  0.2692
 6778SOL    HW231968   1.077   3.272   6.288  0.5434 -0.5309 -1.4370
 6779SOL     OW31969   1.136   0.261   9.038 -0.4115 -0.2540 -0.4895
 6779SOL    HW131970   1.091   0.193   8.988  1.6003 -0.3732 -2.1235
 6779SOL    HW231971   1.150   0.215   9.121 -4.2796 -0.2304  0.1847
 6780SOL     OW31972   1.489   3.709   4.368 -0.3490 -0.3228 -0.6158
 6780SOL    HW131973   1.443   3.686   4.449 -1.1279  3.6337  0.0499
 6780SOL    HW231974   1.576   3.670   4.377  0.6586  2.0433 -0.1391
 6781SOL     OW31975   2.851   3.342   8.034 -0.1245 -0.5042  0.0436
 6781SOL    HW131976   2.846   3.324   8.127  0.2302  0.2078  0.2034
 6781SOL    HW231977   2.900   3.267   8.000  2.9134  0.4556  2.3736
 6782SOL     OW31978   1.451   1.057   9.159 -0.2571 -0.4917  0.6251
 6782SOL    HW131979   1.481   1.118   9.226 -1.2941 -0.0615  0.7067
 6782SOL    HW231980   1.369   1.027   9.200 -0.3417 -0.9459  0.1337
 6783SOL     OW31981   4.232   4.201  16.587  0.0078 -0.1141 -0.2764
 6783SOL    HW131982   4.299   4.266  16.608 -2.0717  1.9373 -0.0127
 6783SOL    HW231983   4.269   4.123  16.629 -2.3659 -1.5176 -0.8176
 6784SOL     OW31984   2.629   3.655  14.251  0.1866  0.3993 -0.0964
 6784SOL    HW131985   2.699   3.646  14.316  0.3314  2.0168 -0.0448
 6784SOL    HW231986   2.553   3.653  14.309  0.3584  1.6270  0.1706
 6785SOL     OW31987   1.614   0.939  10.875 -0.3268 -0.0524  0.7839
 6785SOL    HW131988   1.671   1.006  10.836 -0.7931  0.3784  0.8277
 6785SOL    HW231989   1.541   0.926  10.813 -0.9377 -1.6614  1.8472
 6786SOL     OW31990   0.355   1.312  11.865 -0.0389  0.2262  0.1250
 6786SOL    HW131991   0.314   1.246  11.921 -2.5230  1.6202 -0.0604
 6786SOL    HW231992   0.362   1.256  11.787  0.4133  3.4510 -2.1559
 6787SOL     OW31993   0.978   2.677  16.853  0.4693 -0.2499  0.0030
 6787SOL    HW131994   0.949   2.768  16.854  1.6675  0.1432 -1.9331
 6787SOL    HW231995   1.071   2.689  16.871  0.7903 -0.4054 -1.5638
 6788SOL     OW31996   3.894   3.005  11.340  0.0039  0.1990 -0.0728
 6788SOL    HW131997   3.948   3.070  11.385 -0.0124 -1.2818  2.0838
 6788SOL    HW231998   3.870   3.054  11.261 -1.5304  2.0706  1.5666
 6789SOL     OW31999   2.115   0.538   7.827  0.6131  0.0354 -0.1999
 6789SOL    HW132000   2.092   0.616   7.777  1.3697  0.2158 -0.2783
 6789SOL    HW232001   2.209   0.555   7.840  0.2507  1.8912 -0.0910
 6790SOL     OW32002   0.456   1.272  10.689  0.3470 -0.1099  0.5117
 6790SOL    HW132003   0.377   1.313  10.725 -0.2767 -0.4952 -0.4133
 6790SOL    HW232004   0.509   1.350  10.673  0.1506 -0.3942 -1.5939
 6791SOL     OW32005   2.395   2.835   5.466  0.1662  0.0242 -0.1080
 6791SOL    HW132006   2.318   2.790   5.432  0.6594 -0.6231 -0.3630
 6791SOL    HW232007   2.429   2.876   5.386 -1.2859  1.3323 -0.0685
 6792SOL     OW32008   0.695   4.339   4.605 -0.2283 -0.3817  0.4215
 6792SOL    HW132009   0.637   4.352   4.529  0.3445  2.3483  0.4502
 6792SOL    HW232010   0.690   4.428   4.641 -1.2637 -0.0785 -0.4647
 6793SOL     OW32011   4.629   3.847   0.235  0.2901  0.1641 -0.2487
 6793SOL    HW132012   4.684   3.904   0.290 -0.4937  2.2312 -1.6160
 6793SOL    HW232013   4.687   3.772   0.221 -2.3847 -1.5294 -2.0139
 6794SOL     OW32014   4.535   3.166   6.470  0.2339 -0.7960  0.2140
 6794SOL    HW132015   4.623   3.195   6.445 -0.4817  0.9789 -0.2534
 6794SOL    HW232016   4.518   3.126   6.385 -0.8589  0.7292 -0.2881
 6795SOL     OW32017   1.139   1.158   9.089  0.2975 -0.2058  0.0057
 6795SOL    HW132018   1.066   1.149   9.027 -0.2645  0.1027  0.6235
 6795SOL    HW232019   1.163   1.248   9.070  4.3483 -1.7121 -2.0155
 6796SOL     OW32020   1.588   1.968  15.819 -0.3708  0.3861  0.3341
 6796SOL    HW132021   1.605   2.003  15.907  3.2626 -0.2097 -0.1137
 6796SOL    HW232022   1.613   2.044  15.765 -0.7715  1.3045  1.4290
 6797SOL     OW32023   1.736   0.315   2.805 -0.1342 -0.0892  0.2068
 6797SOL    HW132024   1.722   0.245   2.868  2.8618  0.7141  1.7442
 6797SOL    HW232025   1.689   0.280   2.729  0.3244 -2.3545  0.9865
 6798SOL     OW32026   0.381   3.543   7.333 -0.2373 -0.3373 -0.2656
 6798SOL    HW132027   0.343   3.484   7.398  0.0254 -0.8923 -0.6228
 6798SOL    HW232028   0.455   3.487   7.312 -1.9906 -3.3066  1.4802
 6799SOL     OW32029   1.560   4.256   6.762 -0.4255  0.3417 -0.4194
 6799SOL    HW132030   1.535   4.309   6.837 -0.9211 -0.5814  0.0576
 6799SOL    HW232031   1.612   4.186   6.801  0.8174  0.1931 -2.3054
 6800SOL     OW32032   1.503   2.592   2.326  0.6021 -0.2390 -0.0330
 6800SOL    HW132033   1.529   2.619   2.238 -3.0227 -2.7380 -1.8922
 6800SOL    HW232034   1.436   2.525   2.311  0.5212 -0.9212  3.3460
 6801SOL     OW32035   4.613   2.759  17.507 -0.2204 -0.1915  0.6903
 6801SOL    HW132036   4.647   2.701  17.575  1.6417  1.2257  0.9668
 6801SOL    HW232037   4.634   2.835  17.561  0.6211 -0.9185  1.3906
 6802SOL     OW32038   2.182   0.417   9.175  0.2667 -0.7578  0.3154
 6802SOL    HW132039   2.131   0.495   9.197  1.9413 -0.3405  2.6455
 6802SOL    HW232040   2.260   0.466   9.147  1.3231 -0.8174  3.1933
 6803SOL     OW32041   3.009   3.326  11.980  0.0290  0.3369  0.7322
 6803SOL    HW132042   2.950   3.400  11.993 -1.0983 -0.7654  1.9212
 6803SOL    HW232043   3.091   3.374  11.983 -0.5278  1.3443 -0.2318
 6804SOL     OW32044   1.562   3.101  15.595 -0.3324 -0.2669  0.6098
 6804SOL    HW132045   1.587   3.098  15.502 -0.2782  2.2566  0.5317
 6804SOL    HW232046   1.478   3.058  15.580 -0.3472  0.3334 -1.1213
 6805SOL     OW32047   4.445   4.096   7.795 -0.3597  0.3434 -0.7601
 6805SOL    HW132048   4.409   4.010   7.819 -1.0460  0.3416 -1.8316
 6805SOL    HW232049   4.539   4.074   7.790 -0.2381  0.9394 -0.9817
 6806SOL     OW32050   2.722   1.196   1.203 -0.3854 -0.2728 -0.3356
 6806SOL    HW132051   2.659   1.268   1.198  1.6658  1.6468  1.4017
 6806SOL    HW232052   2.780   1.231   1.271 -1.0592  0.3787 -0.0959
 6807SOL     OW32053   2.329   0.912  13.141  0.9619 -0.0672 -0.1930
 6807SOL    HW132054   2.287   0.930  13.226 -2.2128 -1.9579 -1.3220
 6807SOL    HW232055   2.414   0.954  13.148  2.0730 -2.2910 -0.4776
 6808SOL     OW32056   1.716   2.818   6.383 -0.3930  0.3324  0.1220
 6808SOL    HW132057   1.798   2.776   6.408  0.3350  0.9744 -1.1788
 6808SOL    HW232058   1.671   2.805   6.466  0.7994 -1.2627  0.5275
 6809SOL     OW32059   0.849   0.897   9.561 -0.3458 -0.0160 -0.7910
 6809SOL    HW132060   0.876   0.982   9.526  1.3993  0.9128  2.9245
 6809SOL    HW232061   0.902   0.841   9.504  2.6041  1.7328  0.2785
 6810SOL     OW32062   3.412   1.408   2.268 -0.4627  0.3531 -0.1500
 6810SOL    HW132063   3.408   1.315   2.248  0.1786  0.2006  0.4616
 6810SOL    HW232064   3.423   1.437   2.177  1.1372  1.8860  0.5511
 6811SOL     OW32065   2.084   1.339   6.151 -0.1208  0.1425 -0.0783
 6811SOL    HW132066   2.089   1.424   6.196 -2.3491  1.2676 -1.9560
 6811SOL    HW232067   2.176   1.312   6.150 -0.6134 -1.5937  1.6350
 6812SOL     OW32068   2.334   3.700   3.053 -0.0320  0.3310  0.2156
 6812SOL    HW132069   2.274   3.765   3.090  1.4389  1.1200  1.2299
 6812SOL    HW232070   2.277   3.624   3.046 -1.4377  1.6873 -2.9730
 6813SOL     OW32071   2.908   3.131  13.197  0.9668  0.2486  0.1595
 6813SOL    HW132072   2.831   3.094  13.154  1.6189 -0.0583 -0.7499
 6813SOL    HW232073   2.951   3.165  13.118  1.3054 -0.0898  0.2004
 6814SOL     OW32074   3.674   2.112   2.234  0.0216 -0.4229  0.3465
 6814SOL    HW132075   3.728   2.094   2.311  1.7477  0.6965 -0.6156
 6814SOL    HW232076   3.590   2.103   2.280  0.2878 -1.9445  0.5382
 6815SOL     OW32077   3.057   2.256   4.444  0.5579 -0.5645 -0.5510
 6815SOL    HW132078   3.060   2.186   4.510  0.9714  0.1270  0.1703
 6815SOL    HW232079   3.042   2.207   4.364 -0.6412  0.0729 -0.7268
 6816SOL     OW32080   2.351   2.846   4.339  0.2004 -0.0951 -0.2005
 6816SOL    HW132081   2.349   2.941   4.355 -3.1225 -0.0760 -0.7684
 6816SOL    HW232082   2.342   2.842   4.244  0.5833  3.0471 -0.3813
 6817SOL     OW32083   2.764   0.966   7.021  0.6129 -0.1079  0.3749
 6817SOL    HW132084   2.718   0.905   6.964  2.2364 -0.4796 -0.5368
 6817SOL    HW232085   2.725   1.049   6.993  1.0551 -0.3710 -1.0095
 6818SOL     OW32086   0.703   2.139   7.839  0.3874 -0.1838 -0.7226
 6818SOL    HW132087   0.659   2.063   7.876 -3.2587  1.1267 -2.3734
 6818SOL    HW232088   0.794   2.113   7.827  0.5775 -0.2193  0.7691
 6819SOL     OW32089   1.709   3.558   3.571  0.1368 -0.7098  0.0182
 6819SOL    HW132090   1.652   3.510   3.510 -1.5955  1.0211  0.2813
 6819SOL    HW232091   1.757   3.491   3.620 -1.7826 -0.5019  2.1798
 6820SOL     OW32092   3.016   4.477   3.067  0.1253  0.0270  0.8068
 6820SOL    HW132093   2.931   4.432   3.063 -0.9713  2.2759 -1.6904
 6820SOL    HW232094   3.073   4.407   3.098  0.7159  1.2781  2.5180
 6821SOL     OW32095   0.926   2.523  13.926 -0.2123 -0.0515 -0.1670
 6821SOL    HW132096   0.885   2.585  13.866  0.7199 -0.0238 -0.7730
 6821SOL    HW232097   0.988   2.583  13.967  0.0793 -1.2162  1.1185
 6822SOL     OW32098   0.529   0.993  14.135 -0.4537  0.1998  0.2864
 6822SOL    HW132099   0.489   0.927  14.079  0.6464 -1.0853  1.0295
 6822SOL    HW232100   0.508   0.958  14.221  1.9229  1.4722  1.3881
 6823SOL     OW32101   0.341   3.577   5.781  0.1607  0.1960 -0.1252
 6823SOL    HW132102   0.327   3.671   5.793  0.3838 -0.0703  2.2101
 6823SOL    HW232103   0.326   3.565   5.687  0.7867 -3.2054  0.2350
 6824SOL     OW32104   2.397   0.969   7.462 -0.2392 -0.1306 -0.8181
 6824SOL    HW132105   2.433   0.893   7.508 -0.3588  0.6373  0.5305
 6824SOL    HW232106   2.304   0.948   7.467 -0.9774  3.2905 -0.2460
 6825SOL     OW32107   0.182   0.090   7.075 -0.5607 -0.2684  0.1563
 6825SOL    HW132108   0.194   0.080   6.981 -0.5931 -0.9291  0.2220
 6825SOL    HW232109   0.168   0.184   7.089 -2.0505 -0.2652 -1.4736
 6826SOL     OW32110   0.415   0.883   4.739  0.1886 -0.4380  0.4952
 6826SOL    HW132111   0.482   0.931   4.787 -0.2043  0.1620  0.4536
 6826SOL    HW232112   0.375   0.953   4.688  4.7792  1.5410 -0.4164
 6827SOL     OW32113   4.015   0.095   4.653  0.3234  0.2266  0.7493
 6827SOL    HW132114   4.025   0.186   4.681  0.8733  0.6245 -0.7305
 6827SOL    HW232115   3.921   0.084   4.666  0.3573 -1.9166 -0.6978
 6828SOL     OW32116   2.564   3.199   7.293  0.3902 -0.1484 -0.3771
 6828SOL    HW132117   2.532   3.187   7.382 -3.1000 -0.0307 -1.6528
 6828SOL    HW232118   2.521   3.127   7.247 -1.0971  1.0676 -0.8666
 6829SOL     OW32119   3.728   4.220   2.912 -0.7327 -0.0927  0.0060
 6829SOL    HW132120   3.779   4.157   2.862  0.0367 -0.4280  1.2033
 6829SOL    HW232121   3.654   4.221   2.852 -0.8096  0.6565  0.1130
 6830SOL     OW32122   0.834   2.082   6.408 -0.1515 -0.0109 -0.2480
 6830SOL    HW132123   0.750   2.068   6.365 -0.8482  1.3955  0.6653
 6830SOL    HW232124   0.891   2.047   6.340 -0.7490  0.6249 -1.0605
 6831SOL     OW32125   4.642   2.510   8.288 -0.1610  0.4036 -0.4779
 6831SOL    HW132126   4.616   2.508   8.380 -0.2522  1.6776 -0.4755
 6831SOL    HW232127   4.603   2.595   8.266 -0.1119  1.1982  2.5247
 6832SOL     OW32128   1.587   2.664   4.674  0.2683 -0.1872  0.5604
 6832SOL    HW132129   1.608   2.735   4.614  0.5935  0.7914  1.8389
 6832SOL    HW232130   1.492   2.674   4.680 -0.0396 -1.9667 -1.6285
 6833SOL     OW32131   2.504   4.109   6.040  0.1096 -0.8759  0.2531
 6833SOL    HW132132   2.537   4.075   6.124 -0.1050 -1.2723  0.1783
 6833SOL    HW232133   2.408   4.114   6.045  0.1190 -1.8375  1.7567
 6834SOL     OW32134   3.566   3.950  15.775 -0.0336 -0.0566  0.0158
 6834SOL    HW132135   3.536   4.017  15.836 -0.4369 -0.0043 -0.2383
 6834SOL    HW232136   3.486   3.914  15.737 -1.6317  1.3365  2.0900
 6835SOL     OW32137   0.610   3.872   6.154 -0.1267  0.8548 -0.3368
 6835SOL    HW132138   0.690   3.853   6.106 -0.1834  1.5894 -0.7183
 6835SOL    HW232139   0.576   3.783   6.166  0.0698  1.1045  2.1289
 6836SOL     OW32140   0.914   1.685  11.382 -0.0635 -0.0997 -0.7836
 6836SOL    HW132141   0.934   1.627  11.456 -2.0774  0.1963 -0.0264
 6836SOL    HW232142   0.823   1.660  11.369 -0.0801 -0.3601 -0.1643
 6837SOL     OW32143   3.777   3.582   4.486 -0.3419 -0.3187  0.4237
 6837SOL    HW132144   3.819   3.664   4.511 -0.9661 -0.1301  0.8440
 6837SOL    HW232145   3.846   3.520   4.512  0.1222 -0.3956 -0.9834
 6838SOL     OW32146   3.052   3.650   6.353 -0.5497  0.4341  0.5831
 6838SOL    HW132147   2.974   3.597   6.369 -1.1250  0.6166 -1.6591
 6838SOL    HW232148   3.111   3.622   6.423 -0.0832 -0.5137 -0.1853
 6839SOL     OW32149   3.558   1.715   6.153  0.4080  0.7503  0.0437
 6839SOL    HW132150   3.622   1.644   6.151 -0.6306 -0.1521 -1.3111
 6839SOL    HW232151   3.489   1.675   6.205 -0.6495  1.6787 -0.6328
 6840SOL     OW32152   2.774   3.163   1.996  0.8092 -0.1677 -0.6296
 6840SOL    HW132153   2.837   3.093   2.014 -0.0521 -1.5325 -2.8781
 6840SOL    HW232154   2.833   3.234   1.971  1.6187 -1.0571 -1.2649
 6841SOL     OW32155   4.328   2.616   5.661  0.3978 -0.2338 -0.2887
 6841SOL    HW132156   4.365   2.641   5.746  0.0150  3.3844 -1.1812
 6841SOL    HW232157   4.406   2.642   5.613  0.1945 -2.2139 -1.6814
 6842SOL     OW32158   1.617   3.093   7.209 -0.3359  0.0962 -0.2669
 6842SOL    HW132159   1.654   3.047   7.284  0.0331  0.1662 -0.4056
 6842SOL    HW232160   1.580   3.015   7.168  2.6598 -2.3602  1.6893
 6843SOL     OW32161   1.755   3.670   6.259 -0.9084  0.2245 -0.3989
 6843SOL    HW132162   1.826   3.619   6.219 -0.4001  3.4247 -3.5393
 6843SOL    HW232163   1.809   3.746   6.278  0.6627 -1.1303  0.6179
 6844SOL     OW32164   2.250   2.747   3.759  0.1098  0.2651  0.0890
 6844SOL    HW132165   2.192   2.671   3.756 -1.1419  1.1100  2.5408
 6844SOL    HW232166   2.339   2.713   3.748 -1.3309 -3.1809 -0.9503
 6845SOL     OW32167   4.448   4.171   8.460  0.2880  0.0744 -0.4764
 6845SOL    HW132168   4.355   4.148   8.465  0.5384 -0.3349  2.2667
 6845SOL    HW232169   4.472   4.189   8.551  2.4712  2.2982 -1.4970
 6846SOL     OW32170   0.191   1.379   0.719 -0.3929 -0.2386 -0.2302
 6846SOL    HW132171   0.258   1.339   0.775  1.9072 -1.2000 -3.6429
 6846SOL    HW232172   0.121   1.382   0.783 -1.5720 -0.9987 -1.4914
 6847SOL     OW32173   1.453   2.916   2.008  0.0556 -0.1531 -0.1614
 6847SOL    HW132174   1.422   2.944   2.095  0.3592 -1.4015  0.3535
 6847SOL    HW232175   1.385   2.859   1.971  1.9309 -1.8967 -0.9410
 6848SOL     OW32176   3.526   0.861  14.762  0.4399  0.9145 -0.5217
 6848SOL    HW132177   3.548   0.860  14.669  2.2007  2.1673 -0.1146
 6848SOL    HW232178   3.615   0.874  14.796 -0.7882 -0.4632  3.2740
 6849SOL     OW32179   2.623   1.633  10.498 -0.6617  0.2485 -0.1203
 6849SOL    HW132180   2.629   1.538  10.502 -3.4310  0.0093 -1.8787
 6849SOL    HW232181   2.670   1.638  10.415  0.8668 -2.2708  0.6018
 6850SOL     OW32182   1.923   1.261   8.407 -0.2546  0.6401  0.0250
 6850SOL    HW132183   1.977   1.190   8.374 -0.7998  0.8313 -1.2563
 6850SOL    HW232184   1.999   1.317   8.424 -0.1241 -0.2517  2.4700
 6851SOL     OW32185   3.950   3.255  17.692  0.5603  0.0846  0.3193
 6851SOL    HW132186   3.871   3.205  17.670  0.5217 -0.7397  2.3452
 6851SOL    HW232187   3.923   3.346  17.684 -0.6168 -0.3084 -0.1634
 6852SOL     OW32188   0.879   2.441   6.969 -0.4328 -0.1270  0.3692
 6852SOL    HW132189   0.855   2.353   6.940  3.1074 -0.0096 -2.8478
 6852SOL    HW232190   0.920   2.425   7.054  2.8065 -2.0982 -1.5640
 6853SOL     OW32191   0.978   3.299  14.132  0.3395 -0.2078 -0.1550
 6853SOL    HW132192   0.964   3.247  14.052 -1.0852  2.3219 -1.5622
 6853SOL    HW232193   1.028   3.236  14.184  2.2236  2.1058  0.8095
 6854SOL     OW32194   2.527   4.011   8.524 -0.1323  0.2931 -0.5326
 6854SOL    HW132195   2.451   3.971   8.481 -0.0443 -1.3458  0.8483
 6854SOL    HW232196   2.497   4.101   8.534  1.6876  0.8315  0.0350
 6855SOL     OW32197   2.706   0.162  17.648 -0.5267 -0.0172 -0.3951
 6855SOL    HW132198   2.625   0.208  17.671  0.8967  1.5169  1.6169
 6855SOL    HW232199   2.766   0.228  17.684 -0.7979  0.0441 -0.0550
 6856SOL     OW32200   3.149   2.355   2.380  0.0409  0.0317  0.1902
 6856SOL    HW132201   3.196   2.335   2.300 -1.3182  1.8140 -1.0529
 6856SOL    HW232202   3.069   2.393   2.346 -0.1932  0.8053  1.5710
 6857SOL     OW32203   3.885   2.544   6.331  0.0920 -0.5628 -0.0469
 6857SOL    HW132204   3.796   2.570   6.354  0.1740 -1.0617  0.8321
 6857SOL    HW232205   3.938   2.608   6.378 -2.1874  1.3881 -0.1804
 6858SOL     OW32206   0.747   0.175  15.701  0.5036  0.8545 -0.3960
 6858SOL    HW132207   0.804   0.250  15.720  1.4942  0.2277 -0.8952
 6858SOL    HW232208   0.709   0.216  15.623  0.2962  0.2382 -0.6198
 6859SOL     OW32209   1.003   4.416   2.957  0.2923 -0.0214 -0.2529
 6859SOL    HW132210   0.908   4.416   2.943  0.4287  0.1842 -1.1577
 6859SOL    HW232211   1.033   4.386   2.871  1.3110  0.1687  0.0337
 6860SOL     OW32212   1.362   3.423  17.233  0.4195 -0.2364 -0.2157
 6860SOL    HW132213   1.454   3.413  17.259  0.7262  0.6260 -0.9801
 6860SOL    HW232214   1.365   3.498  17.174 -0.1254  1.4705  1.9212
 6861SOL     OW32215   0.584   1.502   8.624 -0.2817  0.0565  0.0371
 6861SOL    HW132216   0.558   1.418   8.661 -1.3652  0.2752 -0.2294
 6861SOL    HW232217   0.537   1.500   8.541 -1.1836 -0.2205  0.5617
 6862SOL     OW32218   2.813   4.364   8.792 -0.3447 -0.3339  0.1575
 6862SOL    HW132219   2.796   4.378   8.699  0.9192  1.0532  0.1269
 6862SOL    HW232220   2.869   4.439   8.813 -3.2174  1.8404  0.1004
 6863SOL     OW32221   0.841   0.492   3.597 -0.1671 -0.1790  0.1597
 6863SOL    HW132222   0.797   0.466   3.677  1.9182 -0.1180  1.3453
 6863SOL    HW232223   0.879   0.577   3.621 -0.7866 -0.7572  3.1363
 6864SOL     OW32224   0.071   4.651   5.391 -0.4347  0.7101  0.1018
 6864SOL    HW132225   0.157   4.619   5.420  0.1323  1.1269 -1.1561
 6864SOL    HW232226   0.072   4.640   5.296 -1.4043  0.0706  0.1652
 6865SOL     OW32227   2.044   3.176   1.817 -0.0758  0.2289  0.1227
 6865SOL    HW132228   2.068   3.269   1.822 -0.1252  0.1967  0.8876
 6865SOL    HW232229   2.097   3.140   1.888 -2.5041 -3.2021  0.1564
 6866SOL     OW32230   3.215   0.235  17.080  0.3994  0.1682 -0.2070
 6866SOL    HW132231   3.302   0.202  17.056 -0.0015 -0.8895 -0.2479
 6866SOL    HW232232   3.154   0.181  17.030 -0.4994  0.0483  1.0357
 6867SOL     OW32233   1.031   0.061   7.666  0.2340 -0.0090  0.4296
 6867SOL    HW132234   1.049   4.720   7.716 -0.8470 -0.9624 -0.7004
 6867SOL    HW232235   1.104   0.066   7.604 -0.6541  0.4630 -0.5702
 6868SOL     OW32236   0.071   3.230   3.180  0.7600  0.7957 -0.3318
 6868SOL    HW132237   0.073   3.135   3.186  0.1386  0.8982  1.4078
 6868SOL    HW232238   0.156   3.259   3.211  0.0027  1.9877  0.6475
 6869SOL     OW32239   3.344   0.881   1.452 -0.6488  0.8467  0.1213
 6869SOL    HW132240   3.400   0.928   1.390  0.5154  1.2826  1.5204
 6869SOL    HW232241   3.345   0.796   1.408  1.9354  1.3305 -0.7919
 6870SOL     OW32242   3.392   3.188  11.977 -0.1328 -0.3781 -0.2518
 6870SOL    HW132243   3.368   3.170  11.886 -2.3478 -0.5101  0.3417
 6870SOL    HW232244   3.467   3.134  12.001  0.2655  1.2204  2.0736
 6871SOL     OW32245   3.660   0.079  13.111  0.0309 -0.0622  0.2678
 6871SOL    HW132246   3.670   0.124  13.195 -2.2577 -0.2402  0.6609
 6871SOL    HW232247   3.635   0.155  13.058  2.1430 -0.2677 -0.9884
 6872SOL     OW32248   2.923   3.006   2.579 -0.2323 -0.2083  0.5221
 6872SOL    HW132249   2.978   3.064   2.631 -0.7934  1.7405 -1.0405
 6872SOL    HW232250   2.857   2.987   2.646 -2.0558  2.0519 -0.6303
 6873SOL     OW32251   3.788   3.734   4.799 -0.0195  0.0317 -0.3682
 6873SOL    HW132252   3.780   3.819   4.756  1.1843  0.6539  0.6234
 6873SOL    HW232253   3.878   3.705   4.787  0.4310  1.6873 -1.0736
 6874SOL     OW32254   2.939   4.222   0.785  0.1519 -0.7021  0.4434
 6874SOL    HW132255   2.934   4.137   0.828 -0.4224 -1.1150 -0.4400
 6874SOL    HW232256   2.867   4.209   0.723 -1.0238 -0.9432  1.8694
 6875SOL     OW32257   3.946   4.509  14.111  0.1764  0.4930 -0.2942
 6875SOL    HW132258   3.872   4.569  14.100 -0.7697 -0.6515 -0.1994
 6875SOL    HW232259   3.924   4.453  14.186 -1.7170 -0.1411 -1.3288
 6876SOL     OW32260   3.836   2.754   4.399  0.5560 -0.0629 -0.2336
 6876SOL    HW132261   3.807   2.775   4.311 -1.1520 -1.6770 -0.0383
 6876SOL    HW232262   3.859   2.843   4.427  0.4643  0.5853 -2.2559
 6877SOL     OW32263   4.660   0.904  14.502  0.3153 -0.4987 -0.7119
 6877SOL    HW132264   0.011   0.874  14.521 -0.3972 -1.9438  0.4112
 6877SOL    HW232265   4.638   0.836  14.439 -0.6492  0.2434 -1.1671
 6878SOL     OW32266   2.019   0.185   4.824 -1.1687  0.3385 -0.4363
 6878SOL    HW132267   1.948   0.244   4.849 -0.3997  0.6516  1.0132
 6878SOL    HW232268   1.983   0.166   4.737 -3.6177  0.5081  0.5369
 6879SOL     OW32269   1.160   3.989   8.315  0.1503 -0.1670 -0.0471
 6879SOL    HW132270   1.213   4.066   8.332  1.3762 -0.2898 -3.2204
 6879SOL    HW232271   1.143   3.955   8.403 -0.7902 -1.9732 -0.9196
 6880SOL     OW32272   3.869   0.932  16.615  0.2336  0.0415  0.1574
 6880SOL    HW132273   3.786   0.894  16.586  0.8093 -0.6555 -0.5550
 6880SOL    HW232274   3.856   1.023  16.587  0.3600 -0.1227 -0.4243
 6881SOL     OW32275   3.584   1.831  11.319  0.1049  0.0452 -0.1826
 6881SOL    HW132276   3.660   1.860  11.270 -1.0692  2.0236 -0.8569
 6881SOL    HW232277   3.621   1.821  11.406 -0.9507  0.1387  0.2782
 6882SOL     OW32278   2.632   4.295   6.858 -0.1435  0.3342 -0.4695
 6882SOL    HW132279   2.686   4.370   6.880 -1.5976  1.0552  0.6096
 6882SOL    HW232280   2.541   4.324   6.867 -0.2751  0.4422 -2.0624
 6883SOL     OW32281   1.212   4.696   0.778  0.5811 -0.7031  0.3031
 6883SOL    HW132282   1.221   0.002   0.862 -1.5217  1.8007 -0.8189
 6883SOL    HW232283   1.299   4.661   0.755  0.3089  0.3078 -2.3040
 6884SOL     OW32284   2.324   0.864   8.166 -0.4281  0.0360  0.2252
 6884SOL    HW132285   2.285   0.776   8.165  0.0917 -0.2244  1.7564
 6884SOL    HW232286   2.391   0.843   8.102 -0.1572 -1.8777  1.1218
 6885SOL     OW32287   1.323   2.340   2.818 -0.0402 -0.4243 -0.0933
 6885SOL    HW132288   1.266   2.296   2.756 -1.8510 -0.6375  1.7170
 6885SOL    HW232289   1.406   2.344   2.771 -0.9644  0.7868 -1.6046
 6886SOL     OW32290   3.429   4.104   8.493 -0.0685 -0.4655 -0.0638
 6886SOL    HW132291   3.478   4.051   8.557  1.2324 -0.6843 -1.2298
 6886SOL    HW232292   3.495   4.171   8.477 -2.0633  1.4094 -0.2891
 6887SOL     OW32293   4.635   0.022   4.100  0.4588 -0.0232 -0.0264
 6887SOL    HW132294   4.690   0.076   4.043  0.4635 -1.8195 -1.7255
 6887SOL    HW232295   4.689   4.682   4.104  0.9115  0.3513  1.2330
 6888SOL     OW32296   2.861   2.363   8.501 -0.8539 -0.4710  0.5483
 6888SOL    HW132297   2.862   2.365   8.597 -0.0551  0.9786  0.5170
 6888SOL    HW232298   2.789   2.303   8.487 -1.6444  0.6301 -0.0751
 6889SOL     OW32299   4.565   2.088   5.142  0.8648  0.2728 -0.1817
 6889SOL    HW132300   4.521   2.125   5.219 -1.4522  0.1415 -1.4165
 6889SOL    HW232301   4.487   2.083   5.085  1.8610 -0.6673 -1.4571
 6890SOL     OW32302   3.051   4.070  11.831 -0.1387 -0.9361 -0.2522
 6890SOL    HW132303   3.041   4.066  11.926 -0.0682  2.9624 -0.0791
 6890SOL    HW232304   2.970   4.118  11.817 -0.2096 -0.5643  1.3850
 6891SOL     OW32305   2.481   3.286   7.577  0.4401 -0.4779 -0.4971
 6891SOL    HW132306   2.572   3.310   7.560 -0.1466  1.3921 -1.0826
 6891SOL    HW232307   2.481   3.254   7.667 -0.2842 -1.7714 -0.9610
 6892SOL     OW32308   3.380   1.361   5.293 -0.3277  0.1157 -0.0527
 6892SOL    HW132309   3.366   1.266   5.298  0.1186  0.0717  0.3692
 6892SOL    HW232310   3.436   1.378   5.368  0.6573 -2.6816 -0.1339
 6893SOL     OW32311   4.658   1.201   5.124  0.2121  0.1001 -0.1780
 6893SOL    HW132312   4.647   1.128   5.063  0.3242  1.6724 -2.0571
 6893SOL    HW232313   4.605   1.264   5.075 -0.4499  0.5802  1.1675
 6894SOL     OW32314   1.391   2.761   5.882  0.0058  0.3884 -0.2067
 6894SOL    HW132315   1.296   2.764   5.868 -0.2046 -0.2876  1.0627
 6894SOL    HW232316   1.387   2.742   5.976  1.5294 -1.0204 -0.4220
 6895SOL     OW32317   1.192   3.317  12.363  0.3126  0.2076 -0.6747
 6895SOL    HW132318   1.248   3.359  12.428  1.3361 -0.3559 -1.1830
 6895SOL    HW232319   1.109   3.362  12.376  0.6717  0.7338 -0.2225
 6896SOL     OW32320   0.774   2.876  12.673 -0.7092  0.5472  0.3958
 6896SOL    HW132321   0.681   2.864  12.651 -0.3660 -1.6229  0.1350
 6896SOL    HW232322   0.829   2.828  12.612 -2.9777 -0.9060 -0.5035
 6897SOL     OW32323   4.573   3.968   4.484 -0.1977  0.3891 -0.3315
 6897SOL    HW132324   4.657   3.938   4.520  1.7509  3.9843 -1.9538
 6897SOL    HW232325   4.526   3.932   4.560 -0.0356  1.9762  0.5233
 6898SOL     OW32326   2.230   1.483   2.938 -0.0911 -0.6277  0.1858
 6898SOL    HW132327   2.253   1.515   3.025  3.1276 -0.5386 -0.6906
 6898SOL    HW232328   2.150   1.435   2.958 -0.1120  0.4268  2.5477
 6899SOL     OW32329   2.083   2.847  16.497 -0.0594  0.0144 -0.4773
 6899SOL    HW132330   2.152   2.829  16.433  1.6072  1.7745  0.8488
 6899SOL    HW232331   2.130   2.811  16.572  1.1604  0.9327 -0.8011
 6900SOL     OW32332   0.275   0.664   6.798  0.8981  0.0192 -0.1075
 6900SOL    HW132333   0.256   0.686   6.707  1.8055 -0.8516 -0.5125
 6900SOL    HW232334   0.359   0.620   6.787  0.1171 -1.0562 -1.8041
 6901SOL     OW32335   0.508   2.331   5.359 -0.0729  0.2450 -0.5492
 6901SOL    HW132336   0.547   2.257   5.406 -0.0864  0.3477 -0.3763
 6901SOL    HW232337   0.530   2.401   5.421 -0.8814  0.2260 -0.2290
 6902SOL     OW32338   1.779   2.202   3.947  0.1161 -0.4290 -0.1772
 6902SOL    HW132339   1.758   2.125   4.000  0.3845  0.9869  1.9811
 6902SOL    HW232340   1.743   2.265   4.010  1.5933 -0.1166  0.3542
 6903SOL     OW32341   3.674   0.844   6.318  0.1112  0.2449 -0.2019
 6903SOL    HW132342   3.737   0.903   6.277 -0.0310 -0.0853 -0.8993
 6903SOL    HW232343   3.695   0.762   6.275 -0.1782 -0.0698  0.2570
 6904SOL     OW32344   1.887   1.399  15.947  0.6600 -0.4368  0.2557
 6904SOL    HW132345   1.905   1.461  15.877 -1.0481 -0.2093  0.0153
 6904SOL    HW232346   1.812   1.442  15.989  1.2237  0.6897  0.0993
 6905SOL     OW32347   4.186   0.557  11.526  0.3965  0.1567  0.7853
 6905SOL    HW132348   4.142   0.599  11.452 -1.7707 -1.7970  0.9604
 6905SOL    HW232349   4.276   0.553  11.495  0.0480 -1.9552  0.0581
 6906SOL     OW32350   2.034   2.003   6.300 -0.4648  0.0221 -0.0185
 6906SOL    HW132351   1.965   2.063   6.328 -1.1917 -0.7200 -0.2438
 6906SOL    HW232352   1.996   1.916   6.309 -0.7428 -0.1363 -2.6983
 6907SOL     OW32353   3.055   1.715   6.816  0.1020  0.3670 -0.1467
 6907SOL    HW132354   3.075   1.672   6.900 -1.0414 -0.9390 -0.5501
 6907SOL    HW232355   3.129   1.776   6.818 -1.6737  2.5145 -0.9728
 6908SOL     OW32356   2.612   3.862   2.559  0.0524 -0.1380  0.3818
 6908SOL    HW132357   2.608   3.810   2.639  0.6773  0.5978  0.8993
 6908SOL    HW232358   2.567   3.942   2.587 -2.3340 -1.4859  0.3325
 6909SOL     OW32359   4.297   2.294   7.001 -0.2218  0.3573  0.0040
 6909SOL    HW132360   4.269   2.203   7.011 -1.4870  0.9017  1.5171
 6909SOL    HW232361   4.369   2.306   7.063 -0.3299  1.8038 -0.1491
 6910SOL     OW32362   1.035   0.745   2.118 -0.8475 -0.2198  0.1056
 6910SOL    HW132363   1.032   0.673   2.181  1.3783  0.1002  0.5551
 6910SOL    HW232364   1.059   0.704   2.035  3.1688 -0.3136  1.3356
 6911SOL     OW32365   2.096   2.106  15.957  0.2578  0.1168 -0.1738
 6911SOL    HW132366   2.051   2.132  16.037  0.8197 -1.0918  0.5344
 6911SOL    HW232367   2.028   2.124  15.891 -1.0945 -1.9998  0.6288
 6912SOL     OW32368   2.983   4.445   6.591  0.1545  0.4834  0.2746
 6912SOL    HW132369   3.025   4.433   6.676 -0.2298  0.8861  0.5240
 6912SOL    HW232370   2.974   4.541   6.587  0.2129  0.4588 -0.5003
 6913SOL     OW32371   4.387   3.242  13.189  0.2399  0.3926  0.1760
 6913SOL    HW132372   4.379   3.215  13.098 -0.6416  1.4294 -0.0487
 6913SOL    HW232373   4.462   3.192  13.222  0.6229  1.1123  0.4166
 6914SOL     OW32374   1.360   4.370   6.520 -0.2425  0.3354 -0.1959
 6914SOL    HW132375   1.434   4.317   6.548  0.3534  1.4859  0.4262
 6914SOL    HW232376   1.309   4.308   6.468 -0.1137  0.2439 -0.2137
 6915SOL     OW32377   4.606   1.878  10.940  0.3139  0.1666  0.2589
 6915SOL    HW132378   4.571   1.948  10.885  2.3689 -0.1679 -1.5036
 6915SOL    HW232379   4.522   1.859  10.982  1.2458  0.4977  2.2664
 6916SOL     OW32380   3.473   0.269   1.938 -0.2943 -0.4371 -0.2807
 6916SOL    HW132381   3.528   0.253   2.015  0.8312 -0.6686 -1.1364
 6916SOL    HW232382   3.383   0.271   1.972  0.0575 -1.6291  0.7295
 6917SOL     OW32383   2.015   3.565  13.878  0.0676  0.2556  0.3930
 6917SOL    HW132384   2.107   3.549  13.899  0.3361 -0.5145 -1.3244
 6917SOL    HW232385   2.032   3.637  13.818  2.2543  0.2476  1.0035
 6918SOL     OW32386   0.818   3.193   7.884  0.4830 -0.0106  0.0963
 6918SOL    HW132387   0.865   3.193   7.801  0.8552  0.8339  0.3055
 6918SOL    HW232388   0.728   3.177   7.856  1.3928 -1.3591 -2.0273
 6919SOL     OW32389   1.164   3.762   3.668 -0.4536  0.4316 -0.1726
 6919SOL    HW132390   1.157   3.666   3.671 -3.2266  0.5881 -2.1471
 6919SOL    HW232391   1.187   3.787   3.758 -1.1713 -1.0229  0.4278
 6920SOL     OW32392   3.792   0.761   5.067  0.0687  0.7066  0.3211
 6920SOL    HW132393   3.884   0.734   5.069 -0.4764 -1.2583 -1.8335
 6920SOL    HW232394   3.799   0.849   5.030 -5.4895  0.1311 -2.1052
 6921SOL     OW32395   0.218   1.462   4.819 -0.1609  0.3274  0.0584
 6921SOL    HW132396   0.232   1.537   4.762 -1.3808  0.9447  0.5694
 6921SOL    HW232397   0.147   1.504   4.868  0.2947  1.9916 -0.7327
 6922SOL     OW32398   3.316   1.029   8.238  0.4050  0.0595 -0.1493
 6922SOL    HW132399   3.357   1.110   8.268 -2.0498  1.2913 -0.0988
 6922SOL    HW232400   3.381   0.974   8.283 -0.0818 -0.3190  0.0869
 6923SOL     OW32401   1.968   4.455  10.374  0.3407  0.7852  0.1789
 6923SOL    HW132402   2.056   4.461  10.411 -0.3516  1.3671  1.7304
 6923SOL    HW232403   1.957   4.366  10.342 -0.1743  0.5938  0.8807
 6924SOL     OW32404   3.146   0.244   4.465 -0.3320  0.4265  0.0687
 6924SOL    HW132405   3.227   0.213   4.506  0.4969  2.8293  0.2170
 6924SOL    HW232406   3.147   0.339   4.469  1.0265  0.3993  0.5269
 6925SOL     OW32407   2.572   3.916   9.804 -0.1554 -0.2355 -0.0327
 6925SOL    HW132408   2.559   3.976   9.878 -1.6709  2.1682 -2.2695
 6925SOL    HW232409   2.643   3.958   9.755 -0.3788  1.4751  1.0792
 6926SOL     OW32410   2.088   3.403  10.779  0.3189 -0.0232  0.0533
 6926SOL    HW132411   2.058   3.313  10.768  0.3400  0.0898 -0.9563
 6926SOL    HW232412   2.089   3.415  10.874 -1.3863 -1.5094  0.2451
 6927SOL     OW32413   0.619   3.093   8.347  0.0953 -0.4808 -0.2073
 6927SOL    HW132414   0.531   3.121   8.373 -0.3933 -1.6013 -0.6502
 6927SOL    HW232415   0.625   3.143   8.266  1.2984  0.8548  0.7205
 6928SOL     OW32416   4.345   2.388   6.713  0.2677  0.4583 -0.3462
 6928SOL    HW132417   4.300   2.356   6.791 -2.9241  1.5187 -1.7615
 6928SOL    HW232418   4.431   2.351   6.732  0.2543  0.0689 -1.0256
 6929SOL     OW32419   2.900   0.594   3.848  0.3241  0.6390 -0.0590
 6929SOL    HW132420   2.855   0.580   3.931  0.0413  1.0679 -0.1416
 6929SOL    HW232421   2.858   0.519   3.805 -0.1646 -0.3572  2.1771
 6930SOL     OW32422   2.597   2.745   8.881  0.1938  0.1715 -0.1877
 6930SOL    HW132423   2.561   2.833   8.866  1.4590  0.7622  0.2023
 6930SOL    HW232424   2.544   2.713   8.953 -0.2138  1.7967  0.2449
 6931SOL     OW32425   3.279   2.079   2.741  0.3058 -0.0226  0.6477
 6931SOL    HW132426   3.227   2.061   2.819 -2.1548 -0.7746 -1.1479
 6931SOL    HW232427   3.221   2.075   2.665  1.6914  1.3292 -0.5036
 6932SOL     OW32428   4.559   0.471  15.654  0.2020 -0.4140 -0.6677
 6932SOL    HW132429   4.598   0.386  15.676  2.0191  0.5115 -0.3117
 6932SOL    HW232430   4.517   0.458  15.568 -3.5921  1.8500  0.8655
 6933SOL     OW32431   0.132   2.397   5.540  0.0914  0.0932 -0.6041
 6933SOL    HW132432   0.172   2.476   5.504 -0.1387  0.5072  0.0432
 6933SOL    HW232433   0.090   2.368   5.460  0.8414  0.0857 -0.9965
 6934SOL     OW32434   3.189   4.344   5.033  0.0074  0.0006  0.0089
 6934SOL    HW132435   3.218   4.414   5.092  0.9240  1.3003 -1.9884
 6934SOL    HW232436   3.234   4.271   5.076  0.1326 -2.0492 -3.6546
 6935SOL     OW32437   4.655   2.795   0.685  1.0218  0.0552  0.1195
 6935SOL    HW132438   4.612   2.712   0.706  0.9729  0.1570  0.4330
 6935SOL    HW232439   4.595   2.836   0.623  0.9401 -0.5651 -0.2183
 6936SOL     OW32440   0.351   3.160   7.947 -0.2297  1.0228 -0.0881
 6936SOL    HW132441   0.258   3.145   7.965 -0.4813  1.7737 -0.7973
 6936SOL    HW232442   0.377   3.127   8.033  3.3772 -1.1851 -2.0178
 6937SOL     OW32443   2.527   1.664   7.077 -0.0373  0.3217  0.4206
 6937SOL    HW132444   2.462   1.598   7.052  0.6866 -0.2767  0.1134
 6937SOL    HW232445   2.507   1.664   7.171  0.3323  0.9747  0.4935
 6938SOL     OW32446   1.641   2.956  14.597  0.6147 -0.2041 -0.1437
 6938SOL    HW132447   1.596   2.905  14.529  1.1203 -0.6177 -0.1643
 6938SOL    HW232448   1.625   2.899  14.673  0.0431 -1.9986 -1.5925
 6939SOL     OW32449   1.780   2.189   5.286 -0.1296  0.3402 -0.6908
 6939SOL    HW132450   1.762   2.281   5.306  1.1050 -0.0422  2.1469
 6939SOL    HW232451   1.834   2.202   5.207  1.2643  1.9341  0.5099
 6940SOL     OW32452   0.951   2.503   6.074 -0.1181  0.2877 -0.4954
 6940SOL    HW132453   0.857   2.495   6.093 -0.0708  1.4692  0.2476
 6940SOL    HW232454   0.962   2.434   6.009 -1.2212  0.2160 -0.6060
 6941SOL     OW32455   2.364   3.179   6.117 -0.0171  0.1001 -0.2253
 6941SOL    HW132456   2.307   3.119   6.071  0.5049 -0.2675 -0.3916
 6941SOL    HW232457   2.452   3.145   6.101  0.1585  0.7020 -0.5480
 6942SOL     OW32458   0.969   1.117   4.917 -0.2179  0.0446 -0.0011
 6942SOL    HW132459   1.016   1.076   4.845  0.2250  1.0761 -0.3007
 6942SOL    HW232460   0.942   1.199   4.876  4.1797  1.5966  0.1820
 6943SOL     OW32461   4.098   1.109  16.760  0.3068 -0.0707 -0.4959
 6943SOL    HW132462   4.135   1.190  16.796 -1.3134  0.1427  0.6395
 6943SOL    HW232463   4.041   1.134  16.687  0.7949  3.6436  0.3760
 6944SOL     OW32464   1.483   1.366   7.008 -0.5529  0.6878  0.3020
 6944SOL    HW132465   1.436   1.432   6.957 -0.5577 -1.1990 -2.1790
 6944SOL    HW232466   1.514   1.406   7.088 -0.6914 -0.6291  1.0243
 6945SOL     OW32467   1.862   3.560   2.822 -0.2691 -0.3778  0.1754
 6945SOL    HW132468   1.788   3.540   2.766  1.4233 -1.5328 -1.6599
 6945SOL    HW232469   1.824   3.542   2.908 -0.8158  3.7390  0.7997
 6946SOL     OW32470   4.112   4.365   8.632  0.3317 -0.1410 -0.5304
 6946SOL    HW132471   4.156   4.449   8.644 -2.5248  1.2230  0.2541
 6946SOL    HW232472   4.158   4.342   8.551 -0.7267  0.6863 -1.3732
 6947SOL     OW32473   2.641   3.508   8.980 -0.2633  0.2939  0.1037
 6947SOL    HW132474   2.715   3.561   8.948 -1.0187  1.9328  1.0792
 6947SOL    HW232475   2.679   3.424   9.005  1.6760  1.0743 -0.2145
 6948SOL     OW32476   0.069   4.435   1.900  0.2393 -0.2130 -0.1775
 6948SOL    HW132477   4.735   4.378   1.877 -0.2652 -0.6203  2.3436
 6948SOL    HW232478   0.096   4.461   1.812 -0.7496 -0.5731 -0.5754
 6949SOL     OW32479   4.487   2.728   7.242  1.0655 -0.3774  0.0656
 6949SOL    HW132480   4.410   2.695   7.288 -0.1800 -0.9770 -2.4497
 6949SOL    HW232481   4.474   2.686   7.157 -2.1005  0.1362  0.3008
 6950SOL     OW32482   0.189   2.233   5.080  0.0849  0.1894  0.3462
 6950SOL    HW132483   0.158   2.173   5.148  1.6438 -0.2121  0.6969
 6950SOL    HW232484   0.200   2.309   5.137 -2.0435  2.0974 -1.7781
 6951SOL     OW32485   2.542   2.228  17.100  0.2459  0.1871 -0.1079
 6951SOL    HW132486   2.575   2.147  17.137  0.6337  0.6063  0.4584
 6951SOL    HW232487   2.592   2.238  17.019 -2.7191  0.4904 -1.8878
 6952SOL     OW32488   3.146   4.026   6.902 -0.0319  0.3617  0.4689
 6952SOL    HW132489   3.188   3.942   6.919 -0.3908  0.7301  3.2031
 6952SOL    HW232490   3.219   4.079   6.870 -0.5483  0.9138  0.2012
 6953SOL     OW32491   0.197   2.369   4.571 -0.2492 -0.3654 -0.5434
 6953SOL    HW132492   0.169   2.317   4.646  2.5980 -2.4137 -0.9017
 6953SOL    HW232493   0.159   2.320   4.499 -2.1247 -1.5562  1.2818
 6954SOL     OW32494   0.133   4.349   8.187  0.1884  0.3532 -0.1785
 6954SOL    HW132495   0.064   4.330   8.251  2.7173 -3.2275  1.4850
 6954SOL    HW232496   0.165   4.259   8.183  1.3045  0.7893 -0.9052
 6955SOL     OW32497   1.918   0.998   8.283  0.1350 -0.1055  0.2222
 6955SOL    HW132498   1.829   1.031   8.276 -0.0331 -0.5811  0.1559
 6955SOL    HW232499   1.902   0.930   8.349  2.5491  0.3247  1.2580
 6956SOL     OW32500   2.468   4.529   7.346  0.2289  0.4245 -0.1451
 6956SOL    HW132501   2.540   4.543   7.408  0.7542 -0.4814 -0.5497
 6956SOL    HW232502   2.393   4.549   7.401 -1.0609  1.0777 -2.1228
 6957SOL     OW32503   4.494   2.022   3.737  0.5541  0.2567  0.5036
 6957SOL    HW132504   4.505   1.968   3.659  0.0244 -2.1244  2.0963
 6957SOL    HW232505   4.431   1.972   3.788 -0.5537  0.4462 -0.6743
 6958SOL     OW32506   4.441   3.161  17.737 -0.0534  0.1892 -0.2150
 6958SOL    HW132507   4.371   3.212   0.025  0.4385  1.0735 -0.4713
 6958SOL    HW232508   4.406   3.077  17.710 -1.8604  0.2704  1.8795
 6959SOL     OW32509   1.120   3.927   6.261  0.5838  0.2199  0.5292
 6959SOL    HW132510   1.049   3.953   6.319  0.7225 -0.8887  1.2132
 6959SOL    HW232511   1.194   3.904   6.318  0.8002  2.2958  1.0784
 6960SOL     OW32512   0.889   3.442  17.556 -0.4293 -0.1656 -0.1962
 6960SOL    HW132513   0.855   3.353  17.544 -0.3039 -0.2528  0.1217
 6960SOL    HW232514   0.973   3.431  17.599 -1.1325 -1.9700  0.7105
 6961SOL     OW32515   4.286   0.517   2.698 -0.4448  0.1149 -0.2525
 6961SOL    HW132516   4.242   0.450   2.646 -1.8844  1.7022 -1.0658
 6961SOL    HW232517   4.215   0.579   2.715 -1.4382 -0.7075 -1.4086
 6962SOL     OW32518   2.450   3.548  15.799 -0.3696  0.8489  0.0293
 6962SOL    HW132519   2.356   3.548  15.785 -0.8293  2.7599  3.1027
 6962SOL    HW232520   2.468   3.610  15.728 -3.6139  0.6505 -0.9322
 6963SOL     OW32521   0.918   1.466   5.388  0.3138  0.0979  0.3728
 6963SOL    HW132522   0.999   1.517   5.381 -1.6309  2.8853 -1.8156
 6963SOL    HW232523   0.928   1.381   5.345  0.3219  0.7742 -0.9654
 6964SOL     OW32524   2.118   0.441   1.843 -0.9474 -0.0641  0.0493
 6964SOL    HW132525   2.031   0.441   1.883 -0.6764  1.1996  0.6479
 6964SOL    HW232526   2.114   0.362   1.788  1.2213  1.7199 -2.6716
 6965SOL     OW32527   1.533   1.414  15.535  0.0497  0.1106  0.1812
 6965SOL    HW132528   1.628   1.402  15.543  0.3068  1.1372 -1.3436
 6965SOL    HW232529   1.492   1.328  15.547 -1.2547  0.7624  0.3971
 6966SOL     OW32530   2.874   2.059   6.541 -0.2704  0.5193 -0.1977
 6966SOL    HW132531   2.848   2.107   6.620  0.3310  1.3027 -0.4720
 6966SOL    HW232532   2.950   2.113   6.519  1.0020 -0.2213  2.3344
 6967SOL     OW32533   0.174   3.872   0.062 -0.0558 -0.1225 -0.0127
 6967SOL    HW132534   0.148   3.791   0.104  2.9111 -0.9537  0.2372
 6967SOL    HW232535   0.269   3.865   0.053 -0.4781 -3.0906 -2.2750
 6968SOL     OW32536   3.135   2.452   7.939 -0.2689 -0.5738 -0.2320
 6968SOL    HW132537   3.061   2.391   7.945 -0.0531 -0.6991  1.1159
 6968SOL    HW232538   3.148   2.466   8.033 -1.9673 -0.2030 -0.0493
 6969SOL     OW32539   2.030   4.732  15.109  0.2781  0.3389  0.0879
 6969SOL    HW132540   2.006   0.081  15.081  0.1788  0.8035  1.6527
 6969SOL    HW232541   2.058   4.679  15.034 -1.1004  0.1271 -0.2627
 6970SOL     OW32542   2.473   4.440   7.668 -0.4711  0.2603 -0.0636
 6970SOL    HW132543   2.458   4.528   7.634 -1.7515  0.0766  0.0374
 6970SOL    HW232544   2.490   4.467   7.759 -1.3817 -0.3525  0.2917
 6971SOL     OW32545   0.900   0.157   6.312 -0.0685  0.1320 -0.0941
 6971SOL    HW132546   0.939   0.240   6.338  1.2408 -0.6457  0.4428
 6971SOL    HW232547   0.811   0.174   6.343 -0.3355 -0.6348 -0.4150
 6972SOL     OW32548   1.536   1.361   9.009 -0.0413  0.1194  0.4320
 6972SOL    HW132549   1.534   1.303   9.085  2.2661 -0.8993 -0.3009
 6972SOL    HW232550   1.626   1.360   8.979  0.3557  3.8800  1.5191
 6973SOL     OW32551   2.877   3.200   3.970 -0.0951  0.0300 -0.4254
 6973SOL    HW132552   2.943   3.269   3.968 -1.8821  1.7423 -1.0857
 6973SOL    HW232553   2.893   3.144   3.895 -1.0577 -1.0462  0.1611
 6974SOL     OW32554   4.369   3.490   0.796  0.2596 -0.1284 -0.1488
 6974SOL    HW132555   4.432   3.419   0.810 -1.8080 -2.2620 -1.6293
 6974SOL    HW232556   4.288   3.441   0.807  0.4868 -0.3265  0.5935
 6975SOL     OW32557   1.541   1.844   1.941  0.2240 -0.8670 -0.0818
 6975SOL    HW132558   1.582   1.759   1.956  0.9681 -0.3539  0.7491
 6975SOL    HW232559   1.617   1.897   1.916  1.8136 -4.0991 -2.0100
 6976SOL     OW32560   2.928   3.019   8.193  0.4105  0.4066 -0.3393
 6976SOL    HW132561   2.933   3.043   8.100  1.9676  1.3594 -0.0111
 6976SOL    HW232562   2.910   2.925   8.188  2.1855  0.0967 -0.7738
 6977SOL     OW32563   0.811   2.418   6.403  0.2959  0.3243  0.7526
 6977SOL    HW132564   0.731   2.414   6.456 -1.1026 -0.9579 -1.4318
 6977SOL    HW232565   0.774   2.395   6.317  1.1092  0.8089  0.2753
 6978SOL     OW32566   3.769   4.653   6.971  0.1800  0.4033 -0.2358
 6978SOL    HW132567   3.734   4.690   7.051  1.3503  3.2335 -1.0055
 6978SOL    HW232568   3.856   4.634   7.006 -0.5719 -0.6448  1.0641
 6979SOL     OW32569   4.131   1.528   6.506 -0.1960  0.6577 -0.0002
 6979SOL    HW132570   4.208   1.511   6.451 -1.1454  1.1133 -1.4582
 6979SOL    HW232571   4.138   1.624   6.513  0.3735  0.4332  2.6672
 6980SOL     OW32572   0.311   3.073  16.371  0.2724  0.1530 -0.0269
 6980SOL    HW132573   0.334   2.984  16.347  2.4053  0.2483  1.7131
 6980SOL    HW232574   0.224   3.065  16.332  0.3672 -0.5564 -0.0909
 6981SOL     OW32575   2.857   4.004  15.272  1.1789  0.1152 -0.4204
 6981SOL    HW132576   2.908   4.075  15.232  1.0301  0.3155 -0.2524
 6981SOL    HW232577   2.773   4.025  15.230  1.7404  0.3248 -1.4342
 6982SOL     OW32578   1.560   2.801   7.967  0.4245  0.2915 -0.0602
 6982SOL    HW132579   1.622   2.833   7.901 -1.2115  2.6777 -0.4183
 6982SOL    HW232580   1.605   2.827   8.047 -0.2430  0.3542  0.2919
 6983SOL     OW32581   4.612   0.208  15.728 -0.5477  0.2375 -0.1109
 6983SOL    HW132582   4.545   0.187  15.793  0.8503 -1.2395  0.8589
 6983SOL    HW232583   4.605   0.132  15.671  0.6358  1.4565 -1.8842
 6984SOL     OW32584   3.699   2.076   5.337 -0.1311  0.0034 -0.2776
 6984SOL    HW132585   3.706   2.153   5.393 -0.9739 -1.2197  1.5034
 6984SOL    HW232586   3.664   2.112   5.255  2.4252 -0.3803 -1.5325
 6985SOL     OW32587   4.447   3.627   8.353 -0.1935  0.0206 -0.3471
 6985SOL    HW132588   4.364   3.658   8.319  0.0578  1.3734  0.2589
 6985SOL    HW232589   4.439   3.690   8.424  0.0092  1.0646 -1.2616
 6986SOL     OW32590   3.257   3.350   3.330  0.1777  0.3030  0.6791
 6986SOL    HW132591   3.322   3.318   3.268 -0.5419  1.8068 -0.8352
 6986SOL    HW232592   3.179   3.337   3.276  0.3548  1.2001  0.2232
 6987SOL     OW32593   0.639   2.553  15.287  0.2890  0.7546  0.1509
 6987SOL    HW132594   0.652   2.472  15.337 -1.6264  0.7553  0.6481
 6987SOL    HW232595   0.615   2.611  15.359 -2.0134  0.0238 -0.0288
 6988SOL     OW32596   1.811   2.908   5.553  0.0448  0.1770  0.0866
 6988SOL    HW132597   1.718   2.888   5.543  0.0519 -1.1236  2.8160
 6988SOL    HW232598   1.826   2.949   5.467 -0.3655  1.6616  0.7190
 6989SOL     OW32599   1.454   2.048   8.105 -0.3696  0.4445 -0.5582
 6989SOL    HW132600   1.501   2.112   8.053  0.4369  0.3753  0.0884
 6989SOL    HW232601   1.448   2.099   8.186 -0.3837 -0.0209 -0.2676
 6990SOL     OW32602   2.455   2.646   4.940 -0.3479 -0.3000 -0.0850
 6990SOL    HW132603   2.401   2.632   4.863  1.6074 -0.5447 -1.4191
 6990SOL    HW232604   2.389   2.638   5.009  0.7532 -1.8521  0.7894
 6991SOL     OW32605   2.379   0.259   4.025 -0.0582 -0.0283 -0.2907
 6991SOL    HW132606   2.401   0.351   4.007 -0.8291  0.2751  0.3333
 6991SOL    HW232607   2.470   0.238   4.048  0.0265  1.4064  0.7398
 6992SOL     OW32608   0.849   4.638   1.493  0.0818  0.1574  0.1777
 6992SOL    HW132609   0.783   4.607   1.431 -0.1002 -1.1312  1.0228
 6992SOL    HW232610   0.812   4.617   1.579  0.5343  0.2102  0.3852
 6993SOL     OW32611   2.388   0.915   4.345  0.2032 -0.3017  0.3887
 6993SOL    HW132612   2.310   0.872   4.308 -1.6159  1.6219  1.9965
 6993SOL    HW232613   2.450   0.843   4.341 -1.2806 -1.6108  1.0484
 6994SOL     OW32614   4.075   1.633   4.191 -0.3107  0.4445  0.7902
 6994SOL    HW132615   4.109   1.661   4.277 -0.3202  2.1502  0.2424
 6994SOL    HW232616   4.029   1.713   4.166 -2.3157 -0.3803  1.8023
 6995SOL     OW32617   0.108   0.851  10.650  0.0905 -0.0361 -0.2930
 6995SOL    HW132618   0.121   0.757  10.644 -2.6936 -0.3635 -1.1822
 6995SOL    HW232619   0.052   0.867  10.574  1.0924  0.1340 -0.9937
 6996SOL     OW32620   0.038   0.941   7.365 -0.4275  0.4629 -0.1953
 6996SOL    HW132621   0.006   0.874   7.305 -0.0877  1.4982 -1.5282
 6996SOL    HW232622   0.081   0.885   7.430  0.5248  1.6178  0.1776
 6997SOL     OW32623   3.904   0.455   6.332  0.0884 -0.4079  0.0733
 6997SOL    HW132624   3.923   0.546   6.353 -2.6801  0.2748 -0.3881
 6997SOL    HW232625   3.940   0.458   6.243  0.8304  1.4937  0.4254
 6998SOL     OW32626   1.814   2.522   0.858 -0.3458 -0.0131  0.5079
 6998SOL    HW132627   1.872   2.587   0.817  1.6793 -2.5762 -0.6730
 6998SOL    HW232628   1.857   2.513   0.943  0.7855 -0.0413 -0.0647
 6999SOL     OW32629   3.941   0.378   2.941 -0.1756  0.1214 -0.3675
 6999SOL    HW132630   3.881   0.409   3.008  1.4262  1.3942  0.4986
 6999SOL    HW232631   3.953   0.285   2.958  1.5128 -0.3703 -4.0643
 7000SOL     OW32632   0.291   3.519   4.777  0.1350  0.5418  0.3154
 7000SOL    HW132633   0.210   3.489   4.817 -0.3257  0.9352 -0.3103
 7000SOL    HW232634   0.269   3.502   4.685  1.2293  0.0647  0.1380
 7001SOL     OW32635   0.238   3.747   3.304 -0.6295  0.6228 -0.7800
 7001SOL    HW132636   0.203   3.829   3.339  0.4002  0.9861 -0.6155
 7001SOL    HW232637   0.170   3.705   3.250 -0.6884 -0.4007  0.0950
 7002SOL     OW32638   1.430   1.589   3.796  0.4201 -0.4503 -0.2608
 7002SOL    HW132639   1.476   1.642   3.861  1.9692 -2.2751  0.1187
 7002SOL    HW232640   1.479   1.590   3.714  0.9914  1.3432  0.1161
 7003SOL     OW32641   0.843   0.732   6.379  0.2745 -0.1738 -0.3608
 7003SOL    HW132642   0.763   0.785   6.374  1.9426  2.3698 -0.1730
 7003SOL    HW232643   0.824   0.662   6.441  0.7226 -1.0221 -1.1750
 7004SOL     OW32644   2.058   2.160  17.035  0.8701 -0.3977  0.0338
 7004SOL    HW132645   2.040   2.077  16.991 -1.1668 -0.6551  1.3573
 7004SOL    HW232646   2.045   2.224  16.965  0.3128  0.5856  1.0330
 7005SOL     OW32647   2.209   1.232   8.469 -0.1313 -0.0667  0.2835
 7005SOL    HW132648   2.263   1.299   8.511  1.8029 -1.1700 -0.4117
 7005SOL    HW232649   2.277   1.174   8.434 -1.7266 -0.5631 -1.9961
 7006SOL     OW32650   0.253   4.056  14.260  0.1244 -0.4708 -0.4780
 7006SOL    HW132651   0.286   3.997  14.192 -2.0307 -2.6610  0.3687
 7006SOL    HW232652   0.216   4.120  14.200 -0.4346 -0.8701 -0.5641
 7007SOL     OW32653   0.160   1.378   1.566 -0.2561 -0.0253 -0.8284
 7007SOL    HW132654   0.189   1.461   1.529  0.1088  0.0589 -0.3518
 7007SOL    HW232655   0.068   1.397   1.588 -0.4569 -0.7577 -1.0154
 7008SOL     OW32656   4.519   0.610   9.187  0.1412  0.2740  0.3576
 7008SOL    HW132657   4.602   0.584   9.146 -0.5894 -0.7801 -0.4609
 7008SOL    HW232658   4.531   0.704   9.182  0.0020  0.4370  3.0589
 7009SOL     OW32659   0.964   2.213   0.493 -0.0423 -0.1949  0.9761
 7009SOL    HW132660   0.949   2.285   0.432  0.9498 -0.2166  0.7074
 7009SOL    HW232661   0.921   2.138   0.451 -0.8024  0.3557  0.7729
 7010SOL     OW32662   1.520   4.430   5.487 -0.1112 -0.5094 -0.5808
 7010SOL    HW132663   1.463   4.506   5.475 -0.8582 -0.9300  0.2546
 7010SOL    HW232664   1.600   4.471   5.454  0.0351  0.3213  0.8194
 7011SOL     OW32665   0.330   1.584   5.318 -0.3007  0.0973 -0.0270
 7011SOL    HW132666   0.324   1.540   5.233  0.1105 -0.6973  0.3614
 7011SOL    HW232667   0.256   1.554   5.371  1.2385  0.5524  2.3550
 7012SOL     OW32668   0.501   0.422   6.172 -0.8294 -0.5368  0.0641
 7012SOL    HW132669   0.427   0.448   6.118 -1.0360 -2.1701 -0.4341
 7012SOL    HW232670   0.561   0.402   6.101 -0.0403 -0.1106  0.6040
 7013SOL     OW32671   2.080   3.430   5.413 -0.0122  0.0982 -0.0249
 7013SOL    HW132672   2.022   3.357   5.436  0.7236 -0.2748  0.6471
 7013SOL    HW232673   2.136   3.422   5.490 -0.4844 -1.2016  0.1914
 7014SOL     OW32674   3.916   0.123  13.871 -0.1064  0.3330 -0.1911
 7014SOL    HW132675   3.973   0.156  13.801 -0.3435 -0.4696 -0.7605
 7014SOL    HW232676   3.912   0.032  13.842  1.4691  0.2657 -0.2194
 7015SOL     OW32677   1.186   3.821   8.976  0.1989 -1.0091 -0.4739
 7015SOL    HW132678   1.185   3.749   9.040 -1.2357  0.3831  1.0666
 7015SOL    HW232679   1.169   3.766   8.900  0.1712 -0.3496 -0.9419
 7016SOL     OW32680   1.586   0.951   6.730  0.0503  0.4758 -0.4626
 7016SOL    HW132681   1.570   0.988   6.643 -0.7850 -1.0860 -0.9714
 7016SOL    HW232682   1.627   1.020   6.782 -0.2376 -0.3511  0.8693
 7017SOL     OW32683   3.002   1.519  14.733 -1.0175  0.2218 -0.1923
 7017SOL    HW132684   3.052   1.491  14.656  0.0209  1.1091  0.1546
 7017SOL    HW232685   2.969   1.596  14.686  0.0188  1.4024  1.0000
 7018SOL     OW32686   1.524   1.684   5.597 -0.3245 -0.0586 -0.4333
 7018SOL    HW132687   1.565   1.743   5.534 -1.7994  1.5592  0.1209
 7018SOL    HW232688   1.563   1.597   5.584  1.1782  0.5083  0.3433
 7019SOL     OW32689   0.135   0.593  10.599 -0.5449  0.3808 -0.2931
 7019SOL    HW132690   0.210   0.549  10.560  0.1965  1.1149  0.3196
 7019SOL    HW232691   0.113   0.535  10.671 -2.6222  0.8961 -0.4910
 7020SOL     OW32692   0.083   0.789   9.190 -0.3733 -0.2883 -0.0907
 7020SOL    HW132693   0.099   0.695   9.180  0.7133 -0.3728  2.3758
 7020SOL    HW232694   0.013   0.803   9.126  1.2513 -1.5341 -2.0885
 7021SOL     OW32695   0.617   4.316   7.435 -0.2651 -0.0425 -0.4675
 7021SOL    HW132696   0.628   4.228   7.471  1.2509  0.5490  0.5148
 7021SOL    HW232697   0.696   4.353   7.474  0.1476 -0.5756 -0.7945
 7022SOL     OW32698   3.324   3.624   3.634  0.6945 -0.3605 -0.0575
 7022SOL    HW132699   3.389   3.628   3.704  1.9824  0.8272 -1.3191
 7022SOL    HW232700   3.328   3.530   3.616  0.4462 -0.1296 -1.3402
 7023SOL     OW32701   1.469   4.634   8.129  0.1271 -0.6644  0.0307
 7023SOL    HW132702   1.401   4.567   8.132 -1.1197  0.7071  2.6923
 7023SOL    HW232703   1.484   4.638   8.224 -2.2252  0.8409  0.3318
 7024SOL     OW32704   0.778   4.461   9.899 -0.2472 -0.3922  0.1309
 7024SOL    HW132705   0.785   4.552   9.871  3.1418 -0.5943  0.3004
 7024SOL    HW232706   0.692   4.438   9.865 -1.2262  2.6409  0.6162
 7025SOL     OW32707   4.489   3.666  12.114 -0.1872  0.4273 -0.1332
 7025SOL    HW132708   4.538   3.593  12.077  0.1169  1.5040 -1.8440
 7025SOL    HW232709   4.552   3.727  12.153  1.2320 -0.3134 -1.3160
 7026SOL     OW32710   2.302   1.309  15.076  0.1891 -0.7751 -0.3400
 7026SOL    HW132711   2.379   1.362  15.056 -0.4377  0.6223  0.8568
 7026SOL    HW232712   2.261   1.342  15.156  0.6239 -0.3460 -0.2942
 7027SOL     OW32713   2.689   2.706  11.423  0.0855  0.6705  0.3048
 7027SOL    HW132714   2.724   2.792  11.447 -0.2864  0.5671  1.1990
 7027SOL    HW232715   2.713   2.695  11.331 -1.2727  1.9201 -0.2093
 7028SOL     OW32716   2.956   0.888  10.810  0.1704  0.3383 -0.1005
 7028SOL    HW132717   2.916   0.876  10.896 -0.7911  2.5629 -0.2490
 7028SOL    HW232718   2.942   0.800  10.773 -2.6505  0.6840  0.1217
 7029SOL     OW32719   0.282   1.339   3.224 -0.0454  0.0043  0.6606
 7029SOL    HW132720   0.333   1.290   3.160 -0.3102  0.9518 -0.2730
 7029SOL    HW232721   0.317   1.423   3.195 -2.6438  0.8190 -0.0475
 7030SOL     OW32722   3.859   2.149   7.420 -0.2018  0.3834 -0.4022
 7030SOL    HW132723   3.834   2.072   7.472 -1.2640 -0.9582 -2.9388
 7030SOL    HW232724   3.772   2.187   7.408 -1.4882 -3.3649 -2.7652
 7031SOL     OW32725   1.974   3.779  11.412  0.8065 -0.1944 -0.1580
 7031SOL    HW132726   1.883   3.761  11.389  0.6631  1.0782 -0.6049
 7031SOL    HW232727   1.986   3.723  11.489  2.9429  2.5668  1.5387
 7032SOL     OW32728   3.026   4.079   4.225 -0.2545  0.3494  0.2319
 7032SOL    HW132729   3.087   4.100   4.295 -0.3374  2.0618 -0.2093
 7032SOL    HW232730   3.014   4.168   4.190  1.3726 -0.3227 -2.0109
 7033SOL     OW32731   4.259   2.018   7.001  0.2103 -0.0481  0.3509
 7033SOL    HW132732   4.174   1.976   7.011 -0.1584  0.4115 -0.8483
 7033SOL    HW232733   4.320   1.947   7.022  0.9725  0.4082 -0.3149
 7034SOL     OW32734   0.546   2.185   6.136  0.1645 -0.3542  0.0495
 7034SOL    HW132735   0.594   2.153   6.059  1.0974  0.0495  0.4654
 7034SOL    HW232736   0.571   2.115   6.195 -1.9415 -1.2052 -0.0604
 7035SOL     OW32737   4.203   0.432   6.773  0.1517  0.3156 -0.2453
 7035SOL    HW132738   4.231   0.377   6.847 -1.6623 -1.3377 -0.7910
 7035SOL    HW232739   4.120   0.387   6.758 -0.3872  0.4653  2.2680
 7036SOL     OW32740   3.790   0.337   4.493 -0.0911  0.0706  0.2291
 7036SOL    HW132741   3.750   0.403   4.550  0.3829  1.6327 -1.2556
 7036SOL    HW232742   3.793   0.261   4.550  0.2214 -0.2140 -0.1692
 7037SOL     OW32743   1.691   4.640   6.402  0.5805  0.1284 -0.0376
 7037SOL    HW132744   1.602   4.605   6.413  0.1369  0.8055 -1.3847
 7037SOL    HW232745   1.735   4.572   6.351  0.4106  0.4168 -0.5718
 7038SOL     OW32746   1.026   1.248   0.245  0.1116  0.1762  0.4730
 7038SOL    HW132747   1.073   1.316   0.196  0.2938  1.3300  2.2424
 7038SOL    HW232748   1.066   1.177   0.195  0.5142  0.4039  0.4682
 7039SOL     OW32749   0.682   0.928   6.638 -0.2338 -0.2335 -0.0616
 7039SOL    HW132750   0.627   1.001   6.608  1.6583  1.2509  0.0927
 7039SOL    HW232751   0.715   0.885   6.559  3.3952  1.2852  0.6668
 7040SOL     OW32752   0.335   2.549  14.327 -0.6569 -0.1727  0.4031
 7040SOL    HW132753   0.266   2.525  14.389  1.4224 -0.9239  2.4753
 7040SOL    HW232754   0.409   2.495  14.356  0.0099 -0.3931 -1.7501
 7041SOL     OW32755   0.717   3.622   4.182 -0.1935  0.4038  0.1068
 7041SOL    HW132756   0.647   3.591   4.239  0.5009  2.0628  1.8561
 7041SOL    HW232757   0.735   3.712   4.210  1.7309 -0.2176  0.8735
 7042SOL     OW32758   4.149   1.891   2.197 -0.5134 -0.1526  0.4524
 7042SOL    HW132759   4.080   1.831   2.227 -1.2265  0.2874 -0.2825
 7042SOL    HW232760   4.111   1.974   2.225  1.8596  1.8702 -2.3716
 7043SOL     OW32761   0.351   1.005   3.791  0.2652  0.0671  0.3874
 7043SOL    HW132762   0.423   0.973   3.736 -0.2519 -1.3011  0.5154
 7043SOL    HW232763   0.368   0.982   3.882  0.0208 -0.9085  0.1865
 7044SOL     OW32764   1.734   3.329   5.748 -0.2070  0.1092  0.0572
 7044SOL    HW132765   1.816   3.349   5.792  0.6030  1.0427 -1.8678
 7044SOL    HW232766   1.739   3.238   5.779 -1.2965 -0.3826 -1.2063
 7045SOL     OW32767   0.924   4.078   7.001 -0.2146  0.5950  0.1015
 7045SOL    HW132768   0.850   4.018   7.003  0.5804 -0.4497 -2.0971
 7045SOL    HW232769   0.977   4.052   7.076 -1.5731 -1.9220  0.1720
 7046SOL     OW32770   1.753   2.930   7.795 -0.2024 -0.2198 -0.3662
 7046SOL    HW132771   1.833   2.934   7.848 -0.9616  1.7460  0.6096
 7046SOL    HW232772   1.757   3.009   7.742 -0.2647  0.4669  0.6583
 7047SOL     OW32773   1.565   2.988   8.455  0.2385 -0.1201 -0.1413
 7047SOL    HW132774   1.470   2.972   8.453  0.1958 -0.0254  0.8288
 7047SOL    HW232775   1.600   2.928   8.521  1.7554  0.9854  0.0616
 7048SOL     OW32776   2.080   2.742   4.062 -0.7257  0.3121 -0.0694
 7048SOL    HW132777   2.048   2.820   4.107 -2.4348 -0.7671  0.6002
 7048SOL    HW232778   2.046   2.676   4.123 -1.6979  0.7273 -0.1617
 7049SOL     OW32779   3.629   4.396  16.801  0.2965 -0.0923 -0.2328
 7049SOL    HW132780   3.602   4.468  16.744  1.0112  1.8325  1.8709
 7049SOL    HW232781   3.724   4.406  16.792  0.2058 -1.7467 -3.0999
 7050SOL     OW32782   1.001   0.833   3.338  0.0481  0.1467  0.1415
 7050SOL    HW132783   1.029   0.762   3.280  0.0314 -0.6333  1.0963
 7050SOL    HW232784   1.051   0.804   3.414  0.1949 -1.9376 -0.7355
 7051SOL     OW32785   3.544   2.137   8.305 -0.5415  0.2899 -0.6143
 7051SOL    HW132786   3.528   2.214   8.358  0.6197 -0.5126  0.9053
 7051SOL    HW232787   3.452   2.111   8.313  0.4050 -3.2689 -1.0211
 7052SOL     OW32788   0.400   0.035   8.279 -0.1725 -0.8022 -0.4574
 7052SOL    HW132789   0.492   0.015   8.298 -0.2086  0.5813  1.1263
 7052SOL    HW232790   0.363   4.693   8.244 -2.1527 -0.6280  1.2813
 7053SOL     OW32791   0.290   0.796   5.529 -0.1479 -0.0790  0.5672
 7053SOL    HW132792   0.209   0.754   5.558  0.6261 -1.0700  1.3201
 7053SOL    HW232793   0.337   0.803   5.612 -1.5321  0.1066  1.3370
 7054SOL     OW32794   1.221   1.966   6.036 -0.0905  0.4179  0.3006
 7054SOL    HW132795   1.203   1.931   5.949  1.4995  3.2726 -1.1884
 7054SOL    HW232796   1.278   1.898   6.073 -0.0759 -0.9551 -2.2643
 7055SOL     OW32797   1.373   0.083  11.041 -0.4124 -0.1138 -0.1005
 7055SOL    HW132798   1.362   0.102  10.948  0.5741 -1.6204 -0.5185
 7055SOL    HW232799   1.290   0.044  11.068 -0.5023  0.0660 -0.1123
 7056SOL     OW32800   2.885   1.972  16.293 -0.4170 -0.1850 -0.3143
 7056SOL    HW132801   2.842   1.917  16.359 -0.1501  0.9009  0.7586
 7056SOL    HW232802   2.916   2.049  16.340  2.0234 -1.7920  0.6951
 7057SOL     OW32803   1.975   2.233   2.849 -0.3102  0.6901 -0.7876
 7057SOL    HW132804   2.001   2.239   2.757 -0.2276  0.0755 -0.8062
 7057SOL    HW232805   2.017   2.149   2.870  0.3471  1.1836 -0.1352
 7058SOL     OW32806   2.821   2.864  16.215  0.4252  0.0465  0.4769
 7058SOL    HW132807   2.791   2.812  16.140 -0.7238 -0.3087  1.1887
 7058SOL    HW232808   2.740   2.907  16.241  0.5176  0.0542  0.7515
 7059SOL     OW32809   2.978   4.505   5.380  0.3019  0.1910 -0.1389
 7059SOL    HW132810   3.005   4.416   5.357  0.3840  0.8094 -2.4303
 7059SOL    HW232811   3.049   4.553   5.337  1.6759 -0.7522  1.0600
 7060SOL     OW32812   4.699   1.984   4.239 -0.4071  0.3255  0.5025
 7060SOL    HW132813   4.684   1.943   4.154  0.5327  1.1114 -0.0436
 7060SOL    HW232814   4.669   2.072   4.217  0.4674  0.8604  1.4393
 7061SOL     OW32815   1.453   2.132  13.394  0.1131  0.2489  0.1530
 7061SOL    HW132816   1.394   2.075  13.443 -1.3901  1.7716  0.1201
 7061SOL    HW232817   1.479   2.075  13.322  0.1795 -0.3229  0.6251
 7062SOL     OW32818   3.581   2.185   4.150 -0.3753  0.0579  0.0016
 7062SOL    HW132819   3.515   2.132   4.105 -1.9173  0.4210  1.7884
 7062SOL    HW232820   3.540   2.191   4.237 -1.4352 -0.3030 -0.4807
 7063SOL     OW32821   1.544   1.535  10.499  0.4218  0.1877  0.7588
 7063SOL    HW132822   1.602   1.522  10.424  1.4286  2.1371  1.1882
 7063SOL    HW232823   1.529   1.445  10.529  2.2053 -0.0874  0.8363
 7064SOL     OW32824   3.781   0.796   0.117 -0.3950  0.5096  0.7407
 7064SOL    HW132825   3.703   0.750   0.086  0.4754  1.6580 -3.1709
 7064SOL    HW232826   3.793   0.868   0.054 -1.2771  0.8517  0.9654
 7065SOL     OW32827   4.154   2.622  11.304 -0.3728 -0.7062 -0.3869
 7065SOL    HW132828   4.110   2.613  11.219  2.1897  0.3251 -1.8191
 7065SOL    HW232829   4.121   2.709  11.326 -0.8219 -0.9244 -0.1878
 7066SOL     OW32830   4.591   4.326   1.744 -0.1702  0.0062 -0.1722
 7066SOL    HW132831   4.514   4.333   1.800 -0.3205  0.5816 -0.4437
 7066SOL    HW232832   4.565   4.263   1.677  1.6408 -1.1620  0.2399
 7067SOL     OW32833   4.175   1.648   2.501 -0.0559 -0.2041 -0.3654
 7067SOL    HW132834   4.111   1.673   2.435 -0.3231  0.4221  0.1322
 7067SOL    HW232835   4.127   1.666   2.582  0.0160 -1.4523 -0.0423
 7068SOL     OW32836   2.214   4.103   1.925  0.2942  0.5291  0.1405
 7068SOL    HW132837   2.167   4.167   1.872 -0.5639 -2.7826 -3.1365
 7068SOL    HW232838   2.302   4.135   1.907  1.1039 -0.4362  2.3622
 7069SOL     OW32839   4.456   1.328   0.467 -0.2071  0.0472  0.2937
 7069SOL    HW132840   4.510   1.400   0.500  0.7078 -0.7347  0.5099
 7069SOL    HW232841   4.518   1.259   0.445 -0.5190 -1.2044  3.3170
 7070SOL     OW32842   3.972   4.332   5.701  0.3829 -0.5393  0.5918
 7070SOL    HW132843   3.941   4.423   5.701  1.8033 -0.0439 -1.4030
 7070SOL    HW232844   3.947   4.308   5.790 -0.1921  2.3899  1.2185
 7071SOL     OW32845   4.312   0.776  11.168 -0.5895 -0.2935 -0.1474
 7071SOL    HW132846   4.246   0.709  11.152 -2.1537  1.2179 -0.0185
 7071SOL    HW232847   4.333   0.762  11.260  1.0074  3.4698  0.0594
 7072SOL     OW32848   3.098   1.829  15.339  0.4157  0.4713 -0.4136
 7072SOL    HW132849   3.157   1.757  15.319  0.2341  0.0684  0.5041
 7072SOL    HW232850   3.085   1.827  15.434  0.0227 -1.7742 -0.5112
 7073SOL     OW32851   2.630   2.954   3.667 -0.0861 -0.4254 -0.5102
 7073SOL    HW132852   2.617   3.042   3.701  3.7290 -0.6394  1.4632
 7073SOL    HW232853   2.575   2.964   3.589  0.5827  1.6663 -0.7068
 7074SOL     OW32854   1.232   2.275  15.378  0.2002  0.0900  0.2899
 7074SOL    HW132855   1.309   2.331  15.371 -0.1411  0.4216 -0.7661
 7074SOL    HW232856   1.173   2.337  15.334 -1.0771 -0.3263  1.4137
 7075SOL     OW32857   1.735   2.855   1.604 -0.6386  0.0289 -0.5308
 7075SOL    HW132858   1.761   2.932   1.654  0.4996 -0.4518 -0.3862
 7075SOL    HW232859   1.720   2.892   1.517 -2.6396  0.5634  0.0433
 7076SOL     OW32860   1.174   0.972   0.423  0.3082  0.0806 -0.4685
 7076SOL    HW132861   1.104   0.908   0.418 -1.0631  1.4555  1.3013
 7076SOL    HW232862   1.131   1.053   0.449  0.6095  0.0157  0.2226
 7077SOL     OW32863   1.612   2.240   7.979 -0.3384 -0.1535 -0.1403
 7077SOL    HW132864   1.585   2.330   7.964 -1.1904 -0.6861 -1.9623
 7077SOL    HW232865   1.707   2.247   7.980 -0.2090 -1.5966 -0.9598
 7078SOL     OW32866   0.771   3.440   1.751  0.1652 -0.4560  0.1295
 7078SOL    HW132867   0.763   3.429   1.656 -1.7140 -1.1315  0.3747
 7078SOL    HW232868   0.738   3.355   1.779 -1.1390 -1.0399 -3.1222
 7079SOL     OW32869   4.525   1.233  10.366 -0.7690  0.6257  0.1354
 7079SOL    HW132870   4.507   1.165  10.430 -0.9830  0.0661 -0.5241
 7079SOL    HW232871   4.601   1.273  10.408  0.3833 -1.3932 -0.0414
 7080SOL     OW32872   2.337   3.398   7.087  0.1095 -0.5687  0.2883
 7080SOL    HW132873   2.359   3.481   7.129  0.1676  0.6122 -2.0575
 7080SOL    HW232874   2.404   3.393   7.019 -0.0938 -0.8041  0.1039
 7081SOL     OW32875   4.502   2.264   1.616 -0.2789 -0.3818 -0.2452
 7081SOL    HW132876   4.506   2.182   1.666 -2.4146 -0.7772 -0.7303
 7081SOL    HW232877   4.457   2.315   1.684  2.5645  0.5748  0.9586
 7082SOL     OW32878   2.735   3.180   5.685  0.0657 -0.3694 -0.2647
 7082SOL    HW132879   2.814   3.229   5.705  0.4101 -0.6015 -1.0564
 7082SOL    HW232880   2.731   3.130   5.766  0.8323 -0.2823 -0.1778
 7083SOL     OW32881   0.668   3.442   3.405  0.5099 -1.0051  0.0927
 7083SOL    HW132882   0.578   3.461   3.432  0.6769 -1.9219  1.3154
 7083SOL    HW232883   0.698   3.524   3.367  1.6846 -0.2467  2.6259
 7084SOL     OW32884   0.250   1.255   1.801 -0.1270  0.1484  0.1727
 7084SOL    HW132885   0.233   1.161   1.796 -1.1094  0.2509  1.5078
 7084SOL    HW232886   0.212   1.281   1.716  1.4273  1.4382 -0.1206
 7085SOL     OW32887   1.212   3.526   6.022  0.3939 -0.5238  0.4112
 7085SOL    HW132888   1.231   3.598   6.081 -0.9417 -0.8870  1.2775
 7085SOL    HW232889   1.299   3.491   6.003 -0.4400 -1.0518 -2.5183
 7086SOL     OW32890   4.140   4.528  15.881 -0.1683 -1.1649  0.2881
 7086SOL    HW132891   4.145   4.518  15.786  3.5381 -0.7446  0.4387
 7086SOL    HW232892   4.110   4.618  15.897 -0.8753 -1.5995  1.5043
 7087SOL     OW32893   4.407   2.197   1.895  0.1953  0.1465  0.6105
 7087SOL    HW132894   4.434   2.106   1.910 -0.0658 -0.0092  0.1255
 7087SOL    HW232895   4.322   2.195   1.938 -0.4047  1.8674 -0.5021
 7088SOL     OW32896   0.064   2.483   3.642 -0.0181  0.2045  1.1416
 7088SOL    HW132897   0.117   2.449   3.715  1.2087 -0.2883  0.0278
 7088SOL    HW232898   4.718   2.466   3.683 -0.4434 -0.2348  0.0658
 7089SOL     OW32899   1.190   1.589  17.475  0.1694  0.0040 -0.5294
 7089SOL    HW132900   1.120   1.642  17.438  1.1698  2.0794  0.5410
 7089SOL    HW232901   1.222   1.639  17.550 -1.0261 -2.3387  1.5438
 7090SOL     OW32902   2.250   3.246   2.025  0.2284 -0.1645 -0.5015
 7090SOL    HW132903   2.271   3.337   2.047 -0.6654  0.0308 -0.4771
 7090SOL    HW232904   2.212   3.216   2.107  0.8721  0.0956 -0.1055
 7091SOL     OW32905   3.048   3.565   5.836 -0.2478  0.0263 -0.2746
 7091SOL    HW132906   3.059   3.624   5.910  0.5052  0.9865 -1.1464
 7091SOL    HW232907   2.958   3.593   5.824 -0.1906 -0.2526 -1.3973
 7092SOL     OW32908   2.370   0.514  16.787 -0.7760  0.3751 -0.3143
 7092SOL    HW132909   2.299   0.455  16.763 -1.7885  2.2551 -1.9600
 7092SOL    HW232910   2.325   0.598  16.789 -0.3982  0.5400  1.2105
 7093SOL     OW32911   3.145   2.879   7.808 -0.2703  0.0320 -0.1737
 7093SOL    HW132912   3.198   2.835   7.873 -0.4410 -0.0583 -0.0942
 7093SOL    HW232913   3.207   2.945   7.776 -0.9834  1.0867  0.6120
 7094SOL     OW32914   0.121   0.060   8.579 -0.2951 -0.0621 -0.1024
 7094SOL    HW132915   0.141   0.098   8.493  1.5434  0.6243  0.6210
 7094SOL    HW232916   0.149   4.708   8.571 -2.5294 -0.9454  2.1350
 7095SOL     OW32917   0.639   3.376  14.726  0.4373  0.1857 -0.6680
 7095SOL    HW132918   0.714   3.343  14.677  1.4218 -0.6378  1.3978
 7095SOL    HW232919   0.561   3.343  14.681 -0.4040  0.3096  0.7004
 7096SOL     OW32920   2.644   0.053   2.338 -0.9762 -0.1117  0.0889
 7096SOL    HW132921   2.580   4.734   2.297 -0.0457  0.8144 -2.6821
 7096SOL    HW232922   2.607   0.137   2.309 -1.4609  0.5471  2.6314
 7097SOL     OW32923   2.661   3.685   6.302  0.1998 -0.7933  0.2467
 7097SOL    HW132924   2.582   3.645   6.338 -0.0946 -1.3094 -0.9930
 7097SOL    HW232925   2.672   3.760   6.360  0.1026  0.1537 -0.9729
 7098SOL     OW32926   2.281   3.582   1.455 -0.0192 -0.4851  0.4343
 7098SOL    HW132927   2.328   3.499   1.453 -1.6110 -1.3199 -2.9756
 7098SOL    HW232928   2.325   3.617   1.532 -0.6064  0.4786  0.3334
 7099SOL     OW32929   0.533   1.550  10.591  0.6620 -0.2861 -0.9173
 7099SOL    HW132930   0.466   1.607  10.554 -0.8029 -0.2885  1.7463
 7099SOL    HW232931   0.569   1.598  10.666  1.2814 -3.1626  0.6065
 7100SOL     OW32932   4.143   1.967   1.863 -0.1241 -0.2902 -0.2820
 7100SOL    HW132933   4.193   1.896   1.902 -0.3144  0.3655  1.1641
 7100SOL    HW232934   4.128   1.943   1.772  1.2529 -1.4112 -0.2077
 7101SOL     OW32935   1.770   2.319  16.871  0.0071  0.2392 -0.1748
 7101SOL    HW132936   1.801   2.233  16.842  0.4330  0.7170 -1.1216
 7101SOL    HW232937   1.676   2.306  16.864 -0.2287  0.1023  2.8934
 7102SOL     OW32938   0.147   2.368   7.792  0.1419 -0.2836 -0.3691
 7102SOL    HW132939   0.135   2.459   7.768  2.8379  0.4188  0.9501
 7102SOL    HW232940   0.234   2.375   7.831  0.2635 -0.7560 -0.5533
 7103SOL     OW32941   1.812   0.934   1.793  0.0874 -0.3236  0.1295
 7103SOL    HW132942   1.848   0.854   1.754 -1.0199 -0.8276  0.1426
 7103SOL    HW232943   1.736   0.899   1.840  0.0954 -1.1888 -0.5071
 7104SOL     OW32944   0.556   2.220   1.714  0.0629  0.1124  0.0940
 7104SOL    HW132945   0.523   2.232   1.803 -0.0860  2.8230 -0.3314
 7104SOL    HW232946   0.477   2.238   1.664  0.0851 -0.2489 -0.0679
 7105SOL     OW32947   0.409   0.789   8.447  0.1050  0.2622 -0.4631
 7105SOL    HW132948   0.346   0.793   8.519  0.6534  1.9868 -0.0859
 7105SOL    HW232949   0.390   0.700   8.416  0.5790  0.5711 -1.6362
 7106SOL     OW32950   2.767   1.590  10.246 -0.0445 -0.3384  0.4345
 7106SOL    HW132951   2.855   1.627  10.236 -0.2613 -0.4261 -1.7766
 7106SOL    HW232952   2.770   1.525  10.176  1.4727  0.7868 -0.5276
 7107SOL     OW32953   0.409   0.981   7.170 -0.1017  0.1658 -0.0823
 7107SOL    HW132954   0.314   0.965   7.165  0.2985 -2.1015 -0.4257
 7107SOL    HW232955   0.430   0.961   7.079  1.0216  2.0305 -0.2329
 7108SOL     OW32956   4.481   1.423   9.275  0.5919  0.1784 -0.2057
 7108SOL    HW132957   4.572   1.396   9.290  1.1270  1.8259 -0.5031
 7108SOL    HW232958   4.482   1.510   9.315  1.4229 -1.0879  2.5077
 7109SOL     OW32959   2.261   2.494   3.425 -0.5284 -0.8516 -0.0195
 7109SOL    HW132960   2.194   2.447   3.474 -2.9097  1.5646 -0.9813
 7109SOL    HW232961   2.223   2.463   3.343 -0.2889  0.8585 -0.7609
 7110SOL     OW32962   1.512   0.158   1.814  0.5119 -0.5946  0.3842
 7110SOL    HW132963   1.502   0.199   1.900 -0.8566 -1.2076  0.5123
 7110SOL    HW232964   1.552   0.079   1.849 -0.1255 -1.4180 -0.7484
 7111SOL     OW32965   0.557   3.393   6.567  0.0148 -0.5641  0.5745
 7111SOL    HW132966   0.620   3.463   6.586  1.9967 -2.0623 -0.4422
 7111SOL    HW232967   0.500   3.411   6.641  0.0708  0.6913  0.3152
 7112SOL     OW32968   2.876   4.181   6.574  0.4246  0.4926 -0.5424
 7112SOL    HW132969   2.934   4.257   6.567 -0.1147  0.9147 -0.4207
 7112SOL    HW232970   2.824   4.202   6.497 -0.7115 -1.4372 -0.2999
 7113SOL     OW32971   2.938   0.715   6.803 -0.1497  0.1524 -0.7385
 7113SOL    HW132972   2.938   0.651   6.875 -1.6916  1.9798  0.9167
 7113SOL    HW232973   2.968   0.796   6.846 -1.0577 -0.5780  1.3029
 7114SOL     OW32974   2.018   3.384  12.070  0.1903  0.2492  0.7556
 7114SOL    HW132975   1.980   3.412  11.987  2.3613  1.1628  0.0633
 7114SOL    HW232976   2.064   3.304  12.046 -1.8500  0.0572 -2.4327
 7115SOL     OW32977   2.769   1.458  13.480  0.4003  0.0726 -0.3580
 7115SOL    HW132978   2.771   1.368  13.513  0.2856 -0.4691 -1.8015
 7115SOL    HW232979   2.768   1.438  13.386  1.7933 -0.5971 -0.2233
 7116SOL     OW32980   1.568   1.150  15.887  0.4084 -0.3670  0.6466
 7116SOL    HW132981   1.663   1.163  15.894 -0.2036  3.0595  2.6610
 7116SOL    HW232982   1.562   1.134  15.793  0.3348  2.8766  0.0791
 7117SOL     OW32983   2.401   0.322  12.003  0.8244  1.1421 -0.1380
 7117SOL    HW132984   2.448   0.405  12.015 -0.0157  1.6380 -0.2426
 7117SOL    HW232985   2.470   0.289  11.945 -0.6654  1.0795 -1.8743
 7118SOL     OW32986   2.046   4.573   3.358 -0.2510 -0.0704  0.1858
 7118SOL    HW132987   2.033   4.662   3.392 -0.6381 -0.8479  2.0655
 7118SOL    HW232988   2.132   4.576   3.316  0.0382 -2.2014  0.6610
 7119SOL     OW32989   4.144   3.906   8.062  0.2601 -0.7587 -0.2373
 7119SOL    HW132990   4.209   3.914   7.993  2.6213  0.6201  2.1567
 7119SOL    HW232991   4.075   3.848   8.031  0.7000 -1.0551 -0.6587
 7120SOL     OW32992   3.756   0.470   7.432 -0.1338 -0.3824  0.6302
 7120SOL    HW132993   3.783   0.490   7.522  1.0841  0.7836 -0.0096
 7120SOL    HW232994   3.661   0.470   7.441 -0.1516 -1.8830  0.3934
 7121SOL     OW32995   3.429   2.970   2.140  0.2030 -0.2218 -0.2308
 7121SOL    HW132996   3.505   2.969   2.083  0.4769 -2.2585  0.1484
 7121SOL    HW232997   3.375   2.906   2.092  0.9093 -0.2253 -1.0119
 7122SOL     OW32998   4.481   3.914   2.901  0.2754 -0.1279  0.3000
 7122SOL    HW132999   4.413   3.968   2.861  0.4500 -0.2805 -0.2074
 7122SOL    HW233000   4.530   3.891   2.821  0.8676  1.1879  0.2860
 7123SOL     OW33001   2.148   0.083   8.837 -0.2415  0.1419 -0.1859
 7123SOL    HW133002   2.087   0.010   8.837 -0.4529  0.3187  0.2911
 7123SOL    HW233003   2.192   0.074   8.752  0.7312  0.3927  0.2854
 7124SOL     OW33004   3.133   3.551   4.356  0.2920  0.0846 -0.2364
 7124SOL    HW133005   3.119   3.457   4.351 -0.5985  0.2374 -0.6026
 7124SOL    HW233006   3.114   3.566   4.449  0.8696  1.4297 -0.3301
 7125SOL     OW33007   3.103   0.671   3.197  0.2379  0.1438 -0.5511
 7125SOL    HW133008   3.012   0.701   3.196  0.3534  0.5204  0.0452
 7125SOL    HW233009   3.117   0.624   3.115 -0.9454 -0.0746 -0.6193
 7126SOL     OW33010   0.608   3.564   3.002 -1.2470  0.4262 -0.0667
 7126SOL    HW133011   0.649   3.486   3.041 -1.9868 -0.8029 -1.7541
 7126SOL    HW233012   0.522   3.564   3.045 -1.6917 -0.1639 -0.9506
 7127SOL     OW33013   1.952   3.922   2.185  0.7068  0.2578 -0.4294
 7127SOL    HW133014   1.907   3.943   2.266 -2.0279  0.2734 -1.9414
 7127SOL    HW233015   1.896   3.964   2.120 -0.7449 -0.5668  0.2761
 7128SOL     OW33016   3.147   1.755   7.100 -0.5250 -0.1158  0.9217
 7128SOL    HW133017   3.238   1.760   7.129 -0.4314  0.9555  0.4502
 7128SOL    HW233018   3.136   1.849   7.083  0.7674 -0.0817  0.2802
 7129SOL     OW33019   0.281   2.691   2.400 -0.4998  0.1422 -0.1831
 7129SOL    HW133020   0.349   2.644   2.351  1.9807  1.8474  1.5665
 7129SOL    HW233021   0.250   2.760   2.341  1.2179 -2.0373 -3.6490
 7130SOL     OW33022   1.325   1.495   0.696  0.2483 -0.2825 -0.3730
 7130SOL    HW133023   1.309   1.442   0.618  0.8245  3.3580 -2.9692
 7130SOL    HW233024   1.400   1.450   0.734  0.4757  0.9548  0.6258
 7131SOL     OW33025   1.942   0.092   2.639  0.0547  0.0374 -0.1396
 7131SOL    HW133026   1.871   0.156   2.639  0.7766  0.8229 -0.7915
 7131SOL    HW233027   1.971   0.102   2.548 -1.8624 -2.6647 -1.0550
 7132SOL     OW33028   2.949   1.191   8.225  0.3014 -0.6550  0.4002
 7132SOL    HW133029   3.001   1.245   8.285  0.3649  3.4035 -3.3464
 7132SOL    HW233030   2.999   1.173   8.146  0.1387 -0.5753  0.2806
 7133SOL     OW33031   0.960   3.308   1.988  0.3064 -0.3398  0.2431
 7133SOL    HW133032   0.865   3.308   1.977  0.4811 -1.0517 -1.1610
 7133SOL    HW233033   0.986   3.218   1.968 -1.1678 -0.3488 -1.6126
 7134SOL     OW33034   0.942   1.662   9.281 -0.2066 -0.5857  0.3189
 7134SOL    HW133035   0.986   1.747   9.283 -1.8941  0.2757  0.8352
 7134SOL    HW233036   0.884   1.683   9.207  0.1442  0.5118  0.3582
 7135SOL     OW33037   4.093   0.878   7.983 -0.3562 -0.1827 -0.4707
 7135SOL    HW133038   4.154   0.880   7.909  0.7198  1.3072  0.4478
 7135SOL    HW233039   4.057   0.790   7.971  1.9475 -1.7877  3.9923
 7136SOL     OW33040   3.715   0.821   5.652  0.1304  0.5671 -0.4995
 7136SOL    HW133041   3.810   0.827   5.653  0.0961  0.4786  1.5350
 7136SOL    HW233042   3.719   0.732   5.617 -0.5902  0.0585  0.7494
 7137SOL     OW33043   4.670   0.208   2.252 -0.4550 -0.0699 -0.2242
 7137SOL    HW133044   4.617   0.275   2.297  1.3827  2.3456 -1.6472
 7137SOL    HW233045   4.628   0.224   2.168 -0.3009  3.5193  0.3727
 7138SOL     OW33046   3.544   3.992   3.857 -0.8905 -0.3972 -0.2158
 7138SOL    HW133047   3.566   3.926   3.792  0.8981  1.2017 -1.2389
 7138SOL    HW233048   3.606   3.966   3.925 -2.7553 -1.7593  0.9825
 7139SOL     OW33049   0.214   3.399   0.559  0.0040 -0.4595  0.1371
 7139SOL    HW133050   0.164   3.405   0.640 -1.1406  1.2093 -0.7111
 7139SOL    HW233051   0.282   3.344   0.599 -0.5691 -1.3726 -0.1516
 7140SOL     OW33052   4.121   2.215   1.954 -0.1585 -0.1077 -0.0553
 7140SOL    HW133053   4.130   2.121   1.934 -2.6059 -0.2940 -0.2602
 7140SOL    HW233054   4.039   2.218   2.003  0.8883  1.0241  1.6139
 7141SOL     OW33055   3.558   1.594   8.014  0.3121  0.2197  0.2053
 7141SOL    HW133056   3.588   1.631   8.097 -0.2145 -1.0527  0.9456
 7141SOL    HW233057   3.639   1.575   7.966  1.3983  0.7238  1.8171
 7142SOL     OW33058   2.724   0.905  15.366  0.3774  0.0703  0.3724
 7142SOL    HW133059   2.725   0.991  15.324 -1.0918 -1.1995 -2.2274
 7142SOL    HW233060   2.741   0.841  15.298  2.1628 -1.0796  1.9036
 7143SOL     OW33061   4.604   2.500  17.360  0.2438  0.0972 -0.4107
 7143SOL    HW133062   4.569   2.570  17.415  1.5707  2.2423 -2.2934
 7143SOL    HW233063   4.530   2.442  17.343  0.2028 -0.6426  2.2291
 7144SOL     OW33064   0.592   1.096   9.443  0.6564 -0.0334  0.4114
 7144SOL    HW133065   0.512   1.105   9.392  1.0152  2.9372  0.3748
 7144SOL    HW233066   0.643   1.174   9.423 -1.4616  1.1087 -0.4660
 7145SOL     OW33067   0.060   4.668  14.659  0.2640 -0.2747  0.6671
 7145SOL    HW133068   4.737   4.680  14.587  2.1568  0.9172 -0.7437
 7145SOL    HW233069   0.091   4.581  14.635 -3.1671 -1.0669 -0.9155
 7146SOL     OW33070   3.545   1.718   6.751  0.4151  0.2405 -1.2622
 7146SOL    HW133071   3.602   1.740   6.824 -2.2881  1.4396  0.4739
 7146SOL    HW233072   3.560   1.795   6.697  0.2622  0.3539 -1.1399
 7147SOL     OW33073   1.960   2.975   4.140  0.4854 -0.1267  0.2200
 7147SOL    HW133074   1.871   2.993   4.111 -0.0830  0.1584  2.1505
 7147SOL    HW233075   1.995   3.058   4.110 -1.3841  0.4330 -0.4173
 7148SOL     OW33076   0.464   2.321   8.437 -0.1327  0.1259 -0.2170
 7148SOL    HW133077   0.450   2.406   8.396  2.6264  0.5226 -0.3410
 7148SOL    HW233078   0.392   2.263   8.410 -0.6545  1.1522 -1.0272
 7149SOL     OW33079   0.128   0.282   9.718 -0.2823  0.7651  0.1058
 7149SOL    HW133080   0.223   0.276   9.708 -0.4296 -1.2466 -0.1330
 7149SOL    HW233081   0.103   0.232   9.640 -1.0206  2.1354 -0.5415
 7150SOL     OW33082   0.060   0.155  10.770 -0.0092 -0.5346  0.8962
 7150SOL    HW133083   0.141   0.123  10.730 -1.1438 -1.1398 -0.9405
 7150SOL    HW233084   0.053   0.086  10.836 -0.3556 -0.7288  0.6593
 7151SOL     OW33085   2.098   3.562   9.471  0.4236  0.5875 -0.0186
 7151SOL    HW133086   2.089   3.468   9.461  1.6212  0.3599  1.0413
 7151SOL    HW233087   2.192   3.573   9.460  0.0759  1.9453 -1.6454
 7152SOL     OW33088   0.879   2.170   8.787  0.3653  0.1516 -0.4672
 7152SOL    HW133089   0.799   2.138   8.744 -0.1340  1.5424 -0.5856
 7152SOL    HW233090   0.839   2.234   8.846  2.0886  1.2711 -0.4907
 7153SOL     OW33091   1.297   0.332   3.137 -0.4638 -0.1143  0.2821
 7153SOL    HW133092   1.242   0.297   3.208  0.1020 -0.5953  0.4896
 7153SOL    HW233093   1.334   0.412   3.176 -0.1710  0.0248 -0.2907
 7154SOL     OW33094   3.086   1.562   5.903 -0.2007  0.2700  0.3815
 7154SOL    HW133095   3.001   1.601   5.881 -0.7160 -1.1847 -0.2050
 7154SOL    HW233096   3.114   1.523   5.821 -0.8554  0.1815  0.2023
 7155SOL     OW33097   4.150   4.569  16.276  0.7122 -0.0228  0.6434
 7155SOL    HW133098   4.086   4.630  16.237  0.5735 -1.4065 -1.2849
 7155SOL    HW233099   4.094   4.515  16.331 -0.8967  1.0513  0.0914
 7156SOL     OW33100   3.114   1.365   1.835  0.6872 -0.1543  0.5428
 7156SOL    HW133101   3.078   1.454   1.826  1.3395  0.3518  2.8158
 7156SOL    HW233102   3.206   1.391   1.834  0.0266  2.1433 -0.4286
 7157SOL     OW33103   1.443   2.115  17.186 -0.2934  0.3304 -0.3403
 7157SOL    HW133104   1.516   2.111  17.124 -0.3006 -0.9830 -0.2683
 7157SOL    HW233105   1.379   2.052  17.153  2.8018 -2.3881 -1.1655
 7158SOL     OW33106   3.145   1.202  12.354 -0.0515  0.3627  0.1484
 7158SOL    HW133107   3.104   1.118  12.375 -1.2237  1.2390  1.3102
 7158SOL    HW233108   3.203   1.216  12.429 -1.2824 -2.3691  1.6284
 7159SOL     OW33109   1.324   3.996   1.939  0.0548  0.0038  0.4643
 7159SOL    HW133110   1.379   3.918   1.944 -0.7088 -0.5956 -0.4625
 7159SOL    HW233111   1.352   4.060   2.004  0.0778  1.2170 -0.7318
 7160SOL     OW33112   2.345   2.623   2.415  0.0571 -0.5866  0.5136
 7160SOL    HW133113   2.422   2.600   2.363 -0.7241 -1.2137 -0.3744
 7160SOL    HW233114   2.378   2.707   2.447 -1.4503  0.6281 -1.1282
 7161SOL     OW33115   1.229   3.908   7.879 -0.4818  0.4236 -0.5034
 7161SOL    HW133116   1.318   3.872   7.890 -0.6368 -0.1601 -1.1744
 7161SOL    HW233117   1.188   3.848   7.942  1.2096  0.4902  0.6641
 7162SOL     OW33118   4.600   2.554   1.334  0.4924 -0.2551 -0.0474
 7162SOL    HW133119   4.588   2.600   1.251  0.9565  0.5855  0.3572
 7162SOL    HW233120   4.616   2.631   1.388  1.5637 -0.5918  0.1128
 7163SOL     OW33121   0.682   2.255   3.554  0.2406 -0.3257 -0.3271
 7163SOL    HW133122   0.684   2.251   3.649 -2.7298 -1.6037 -0.3261
 7163SOL    HW233123   0.594   2.223   3.538  1.0224 -1.8971 -1.5188
 7164SOL     OW33124   4.184   1.442   9.465 -0.1452 -0.0729  0.7342
 7164SOL    HW133125   4.277   1.437   9.486 -0.3564 -1.5806  1.2947
 7164SOL    HW233126   4.161   1.532   9.488 -2.3649 -0.2487 -0.7819
 7165SOL     OW33127   3.609   0.464   6.357  0.3664 -0.1229 -0.6111
 7165SOL    HW133128   3.704   0.461   6.370  0.3490  3.5937  0.1647
 7165SOL    HW233129   3.602   0.532   6.290 -3.1275  0.3354  0.2603
 7166SOL     OW33130   1.372   3.059   3.677  0.2060  0.5121 -0.0837
 7166SOL    HW133131   1.306   3.038   3.743 -0.2505 -0.2355 -0.7682
 7166SOL    HW233132   1.306   3.089   3.615 -0.0460  3.5780  1.6697
 7167SOL     OW33133   3.031   0.810   2.394 -0.5213 -0.2792  0.3163
 7167SOL    HW133134   2.938   0.787   2.402 -0.9257  1.5704  1.0069
 7167SOL    HW233135   3.036   0.853   2.308  2.9019  0.3627  0.8226
 7168SOL     OW33136   0.321   0.010   1.622 -0.1993  0.2219  0.2801
 7168SOL    HW133137   0.279   4.667   1.647 -0.7522  0.7987  1.2473
 7168SOL    HW233138   0.301   4.732   1.530 -2.1779 -1.4161  1.0152
 7169SOL     OW33139   2.418   2.720   3.489  0.4389 -0.2450 -0.0502
 7169SOL    HW133140   2.482   2.697   3.557 -0.2726  1.2131  1.1127
 7169SOL    HW233141   2.390   2.633   3.461  1.2416  0.4035 -2.8545
 7170SOL     OW33142   1.578   0.283   4.722 -0.0560 -0.1706  0.5127
 7170SOL    HW133143   1.496   0.325   4.746 -0.9848 -1.5247 -0.2987
 7170SOL    HW233144   1.544   0.194   4.715 -0.2574 -0.1935  1.8355
 7171SOL     OW33145   1.437   2.118   8.898  0.0092  0.3903 -0.1726
 7171SOL    HW133146   1.384   2.196   8.881  0.9617  0.6332 -2.0698
 7171SOL    HW233147   1.410   2.101   8.988 -0.5710  1.0284 -0.2246
 7172SOL     OW33148   3.581   1.936  12.083  0.1878  0.1948 -0.6430
 7172SOL    HW133149   3.623   1.881  12.017  1.6904  0.4997  0.0761
 7172SOL    HW233150   3.652   1.955  12.144 -0.6340  1.6976 -0.1530
 7173SOL     OW33151   1.757   0.695  13.287  0.0754  0.0210  0.8329
 7173SOL    HW133152   1.752   0.785  13.255 -0.4783 -0.5228 -0.6287
 7173SOL    HW233153   1.735   0.646  13.208  1.2376 -2.0648  1.8108
 7174SOL     OW33154   0.834   1.187   1.017  0.3161 -0.8120 -0.7378
 7174SOL    HW133155   0.790   1.260   1.060 -1.4929 -1.6344 -1.1669
 7174SOL    HW233156   0.864   1.129   1.086  0.0349  0.0642  0.1135
 7175SOL     OW33157   2.536   3.713   5.011 -0.1240  0.1873  0.2113
 7175SOL    HW133158   2.565   3.804   5.017  4.8440 -1.4832  1.3726
 7175SOL    HW233159   2.540   3.702   4.916 -0.0776  1.2100  0.0907
 7176SOL     OW33160   4.361   2.210   4.361  0.6140  0.7043  0.5145
 7176SOL    HW133161   4.316   2.285   4.400 -1.0209 -0.3506  0.6604
 7176SOL    HW233162   4.418   2.179   4.431 -0.8555 -0.2447  1.2850
 7177SOL     OW33163   0.502   2.303   7.366 -0.4029 -0.1199 -0.2326
 7177SOL    HW133164   0.577   2.344   7.408  0.2790 -1.2365 -0.3759
 7177SOL    HW233165   0.558   2.254   7.306  0.1176  1.0209 -0.6933
 7178SOL     OW33166   0.587   0.843   9.293  0.2512  0.0946  0.6447
 7178SOL    HW133167   0.654   0.863   9.358  1.4636  2.4291 -1.3248
 7178SOL    HW233168   0.553   0.932   9.284 -1.4027 -0.8062 -1.8733
 7179SOL     OW33169   2.762   3.085   6.849  0.5672 -0.2111  0.3498
 7179SOL    HW133170   2.763   3.130   6.933  0.5566  0.6264 -0.0961
 7179SOL    HW233171   2.670   3.061   6.860  1.2120 -2.1065  1.6419
 7180SOL     OW33172   1.837   1.138  15.917 -0.6655 -0.5545  0.4634
 7180SOL    HW133173   1.893   1.107  15.988  0.5441 -0.9419 -0.6445
 7180SOL    HW233174   1.842   1.233  15.923 -0.3468 -0.5389 -0.0156
 7181SOL     OW33175   1.843   0.180   6.407  0.1325 -0.2045 -0.2832
 7181SOL    HW133176   1.766   0.213   6.362 -1.5257 -1.5687  1.5967
 7181SOL    HW233177   1.852   0.233   6.486 -0.4619  0.3776 -0.6043
 7182SOL     OW33178   2.947   4.074   1.771  0.3164 -0.0165 -0.1022
 7182SOL    HW133179   2.948   4.001   1.710  2.7432  0.4338 -0.5900
 7182SOL    HW233180   2.960   4.148   1.713 -1.5245 -2.2500 -3.3700
 7183SOL     OW33181   2.717   4.638  10.821  0.1457  0.5374 -0.0318
 7183SOL    HW133182   2.699   4.667  10.732 -0.3175 -1.0912 -0.4634
 7183SOL    HW233183   2.633   4.644  10.866 -0.8603 -1.8919 -1.6208
 7184SOL     OW33184   4.517   2.135   9.297  0.5834  0.1833  0.2432
 7184SOL    HW133185   4.597   2.139   9.349  0.0705 -0.6375  1.1012
 7184SOL    HW233186   4.466   2.205   9.339 -1.7889 -0.9618 -0.7155
 7185SOL     OW33187   2.605   0.680  16.466 -0.0735 -0.0619  0.8732
 7185SOL    HW133188   2.663   0.630  16.408 -1.7818 -0.7708 -0.2059
 7185SOL    HW233189   2.675   0.737  16.498  1.0360  0.2723 -2.1965
 7186SOL     OW33190   0.537   0.508   8.540  0.4822  0.2590  0.4235
 7186SOL    HW133191   0.472   0.449   8.503  1.4540  0.2042 -1.1945
 7186SOL    HW233192   0.601   0.522   8.470  1.1687 -0.1168  0.9728
 7187SOL     OW33193   4.498   4.711   4.676  0.0842  0.5142 -0.5272
 7187SOL    HW133194   4.503   4.655   4.598  0.8431 -0.1147 -0.0160
 7187SOL    HW233195   4.410   4.680   4.700  0.1464  0.1024 -0.8131
 7188SOL     OW33196   3.077   4.469  11.064 -0.3050  0.2489 -0.2624
 7188SOL    HW133197   3.059   4.431  11.150 -0.7749 -2.2448 -1.4478
 7188SOL    HW233198   2.992   4.472  11.020 -0.3609  2.8199 -0.0014
 7189SOL     OW33199   2.510   2.098  14.082  0.1090 -0.4133 -0.1051
 7189SOL    HW133200   2.514   2.177  14.028 -3.7166 -0.7095 -0.8578
 7189SOL    HW233201   2.420   2.108  14.113 -0.7642 -0.2999 -2.6636
 7190SOL     OW33202   1.407   0.998  14.339 -0.1712  0.1227 -0.0959
 7190SOL    HW133203   1.431   0.959  14.255 -0.6814 -1.1479  0.3505
 7190SOL    HW233204   1.321   1.031  14.313 -0.3207 -0.2702 -0.1027
 7191SOL     OW33205   1.340   4.036   8.943 -0.5022  0.3570  0.0379
 7191SOL    HW133206   1.279   3.963   8.953 -0.4686  0.2208 -0.8132
 7191SOL    HW233207   1.350   4.030   8.848 -0.3150  1.7614 -0.0303
 7192SOL     OW33208   0.470   3.171  14.954 -0.4286 -0.3667  0.6183
 7192SOL    HW133209   0.496   3.253  14.995  1.3909  0.9592 -3.2216
 7192SOL    HW233210   0.462   3.199  14.863  2.7561 -1.5709 -0.0647
 7193SOL     OW33211   4.187   2.453   6.037  0.4862  0.1801 -0.5711
 7193SOL    HW133212   4.092   2.440   6.039  0.4721  0.5414  0.8581
 7193SOL    HW233213   4.196   2.484   6.127  2.1763  1.9538 -1.3582
 7194SOL     OW33214   1.197   3.396   9.749  0.3967 -0.1171  0.1427
 7194SOL    HW133215   1.159   3.336   9.685  1.2032 -1.9829  1.4087
 7194SOL    HW233216   1.265   3.338   9.785 -0.2839 -1.3929 -0.6369
 7195SOL     OW33217   4.426   0.163  13.542 -0.4963  0.8239 -0.2903
 7195SOL    HW133218   4.451   0.102  13.472 -2.4646  0.1592 -0.4289
 7195SOL    HW233219   4.417   0.237  13.482  0.7013  0.4933 -0.8715
 7196SOL     OW33220   2.110   4.408   6.047  0.2549 -0.9819  0.0115
 7196SOL    HW133221   2.035   4.451   6.007  2.2581  0.9639 -1.6569
 7196SOL    HW233222   2.077   4.324   6.078 -2.3531  0.0033 -0.0544
 7197SOL     OW33223   2.622   4.166   7.873  0.0512  0.3816 -0.0340
 7197SOL    HW133224   2.532   4.140   7.853  0.1813  1.7021 -2.3908
 7197SOL    HW233225   2.621   4.255   7.908 -0.6538  0.3223  0.0912
 7198SOL     OW33226   1.040   4.359   4.747  0.2251  0.3531 -0.3977
 7198SOL    HW133227   1.096   4.434   4.727  0.0233  0.2074 -1.4871
 7198SOL    HW233228   1.029   4.383   4.839 -0.6376 -1.7239  0.0286
 7199SOL     OW33229   4.562   2.330  16.680 -0.5597  0.5424 -0.4225
 7199SOL    HW133230   4.562   2.363  16.770 -1.4594 -1.5772  0.3572
 7199SOL    HW233231   4.654   2.314  16.662 -0.1226  1.0430  1.4222
 7200SOL     OW33232   3.273   2.052   8.369 -0.5958  0.0789  0.2592
 7200SOL    HW133233   3.227   2.134   8.352  0.2382  0.5302  0.2082
 7200SOL    HW233234   3.280   2.015   8.281  0.9407 -0.3997  0.5768
 7201SOL     OW33235   1.615   2.783   8.654 -0.2938  1.0959  0.0477
 7201SOL    HW133236   1.616   2.779   8.749  2.3126 -1.5033 -0.0800
 7201SOL    HW233237   1.699   2.821   8.629 -0.1402 -0.2785 -1.5497
 7202SOL     OW33238   1.994   2.568  16.225 -0.0497  0.2279  0.5602
 7202SOL    HW133239   1.960   2.618  16.151  0.5335 -2.1250 -1.2897
 7202SOL    HW233240   2.031   2.496  16.174  0.8703 -0.9135  2.8219
 7203SOL     OW33241   2.259   2.164   7.844  0.4608 -0.1168  0.4176
 7203SOL    HW133242   2.308   2.146   7.924  0.8094 -0.9708  0.0180
 7203SOL    HW233243   2.168   2.143   7.866 -0.2966  0.1365 -2.4845
 7204SOL     OW33244   1.193   2.221   3.298 -0.0695 -0.0616  0.0464
 7204SOL    HW133245   1.129   2.259   3.357  1.7322 -2.5240  3.5903
 7204SOL    HW233246   1.244   2.300   3.277  2.0850 -1.4733 -0.0702
 7205SOL     OW33247   4.157   0.409   1.387 -0.0012 -0.1422  0.0447
 7205SOL    HW133248   4.096   0.342   1.418  1.5583 -1.1557  0.9518
 7205SOL    HW233249   4.131   0.410   1.295  0.3073 -2.5178 -0.0482
 7206SOL     OW33250   4.640   2.894  17.751  0.1857 -0.4581  0.2842
 7206SOL    HW133251   4.581   2.967   0.019  0.5842 -0.3816  1.1319
 7206SOL    HW233252   4.709   2.919   0.060 -1.7438  1.1220  1.7914
 7207SOL     OW33253   2.977   4.713   0.381 -0.5628  0.6361  0.0501
 7207SOL    HW133254   3.031   4.655   0.435 -0.4098 -1.7058 -2.6472
 7207SOL    HW233255   2.905   4.722   0.443  1.0063  0.2362  1.9750
 7208SOL     OW33256   4.100   1.439   6.874 -0.4065 -0.4124 -0.0257
 7208SOL    HW133257   4.019   1.439   6.823 -0.3980  2.9400 -0.0634
 7208SOL    HW233258   4.155   1.367   6.846 -2.1308 -1.8713  0.3228
 7209SOL     OW33259   2.589   1.332   8.215 -0.5368  0.2626  0.1361
 7209SOL    HW133260   2.570   1.338   8.308 -1.7140 -2.4003  0.0518
 7209SOL    HW233261   2.622   1.243   8.207  1.1404  0.8284  0.6838
 7210SOL     OW33262   3.293   0.784   2.933 -0.1219 -0.7984 -0.1382
 7210SOL    HW133263   3.202   0.805   2.910 -0.8183 -3.0516  0.5653
 7210SOL    HW233264   3.306   0.691   2.912 -0.9062 -0.6499 -1.2889
 7211SOL     OW33265   4.610   2.319   6.846 -0.5412  0.5914 -0.4183
 7211SOL    HW133266   4.698   2.303   6.809 -0.4536  0.1564 -0.0218
 7211SOL    HW233267   4.560   2.239   6.828 -1.2426  0.5372  1.8701
 7212SOL     OW33268   2.733   4.476   3.689 -0.0595  0.9233  0.3691
 7212SOL    HW133269   2.762   4.411   3.625 -0.4322  1.1477 -0.0220
 7212SOL    HW233270   2.726   4.430   3.773  1.5083  0.3883  0.2004
 7213SOL     OW33271   0.290   1.955  10.644 -0.0698  0.1107 -0.3131
 7213SOL    HW133272   0.246   2.040  10.650  0.7175  0.4430  0.8468
 7213SOL    HW233273   0.211   1.904  10.662  0.3554 -0.2274  0.6213
 7214SOL     OW33274   3.716   2.266   2.526 -0.0313 -0.4952  0.2844
 7214SOL    HW133275   3.621   2.263   2.541 -0.3124 -0.2573 -1.4124
 7214SOL    HW233276   3.738   2.186   2.573 -0.5276  0.0392  1.4453
 7215SOL     OW33277   1.142   1.562   3.884  0.4078 -0.7086  0.0442
 7215SOL    HW133278   1.166   1.496   3.819  1.4948 -0.2329 -0.0471
 7215SOL    HW233279   1.182   1.527   3.964 -0.9169 -1.7125  0.2696
 7216SOL     OW33280   3.493   3.378  13.501 -0.2151  0.4019 -0.0105
 7216SOL    HW133281   3.458   3.369  13.413 -1.2302 -4.5304  0.8739
 7216SOL    HW233282   3.413   3.394  13.552 -1.1989  0.5947 -1.6129
 7217SOL     OW33283   4.346   1.774   0.256  0.0571 -0.2502  0.0520
 7217SOL    HW133284   4.293   1.760   0.177  2.4398  2.7678 -2.0924
 7217SOL    HW233285   4.287   1.732   0.318  1.3845 -1.5703  0.3887
 7218SOL     OW33286   3.343   2.780   5.870 -0.1316 -0.0318  0.1982
 7218SOL    HW133287   3.305   2.846   5.812 -1.2052 -1.3155 -0.5721
 7218SOL    HW233288   3.271   2.729   5.907  1.5758 -2.3151  0.3433
 7219SOL     OW33289   0.200   4.461  16.995 -0.4125  0.3706 -0.7577
 7219SOL    HW133290   0.158   4.496  16.917 -2.9830  1.4776  1.1051
 7219SOL    HW233291   0.130   4.438  17.057 -1.4813  2.5503 -1.1451
 7220SOL     OW33292   2.654   4.379   4.680  0.1350  0.3734  0.0312
 7220SOL    HW133293   2.717   4.441   4.716  1.3076 -0.2125 -0.9813
 7220SOL    HW233294   2.700   4.295   4.684 -1.2727 -0.2770  2.4518
 7221SOL     OW33295   1.507   0.344  16.680 -0.0739 -0.5060  0.2446
 7221SOL    HW133296   1.494   0.255  16.712  0.3093 -0.6712 -0.0478
 7221SOL    HW233297   1.535   0.390  16.759 -1.1655  2.0609 -0.8373
 7222SOL     OW33298   2.919   3.213  12.442 -0.8048  0.5463 -0.0175
 7222SOL    HW133299   2.886   3.297  12.410  2.7635  1.7753 -0.3828
 7222SOL    HW233300   2.994   3.243  12.493 -0.8485 -0.1225  0.4495
 7223SOL     OW33301   2.360   3.780   6.682 -0.2052 -0.4752 -0.2545
 7223SOL    HW133302   2.371   3.860   6.631  0.1270  0.5881  1.4862
 7223SOL    HW233303   2.411   3.796   6.761  2.3574  3.0771 -2.5923
 7224SOL     OW33304   3.389   3.639   0.616  0.4710  0.1817 -0.2804
 7224SOL    HW133305   3.470   3.678   0.582 -0.7660  1.2735 -1.9527
 7224SOL    HW233306   3.421   3.583   0.688  1.9532  0.7142 -0.5252
 7225SOL     OW33307   3.196   3.392   7.467  0.2563 -0.3296  0.3713
 7225SOL    HW133308   3.173   3.358   7.381  0.1178  3.4575 -1.1135
 7225SOL    HW233309   3.291   3.404   7.459  0.4637 -2.0909  0.1340
 7226SOL     OW33310   4.324   1.518   7.405 -0.6342  0.4808  0.1876
 7226SOL    HW133311   4.353   1.609   7.401 -0.2987  0.3508 -0.2977
 7226SOL    HW233312   4.289   1.510   7.494 -0.0532 -1.3775  0.2408
 7227SOL     OW33313   0.949   1.681  15.326  0.8502  0.0909  0.2063
 7227SOL    HW133314   1.023   1.683  15.387  0.4708  0.0128  0.6639
 7227SOL    HW233315   0.915   1.767  15.348 -0.1195 -0.4542  0.8384
 7228SOL     OW33316   1.696   2.883   8.179 -0.6749 -0.2525 -0.8117
 7228SOL    HW133317   1.763   2.950   8.167  0.3721 -0.5493  3.5363
 7228SOL    HW233318   1.632   2.934   8.230  0.1016 -0.4100  0.3199
 7229SOL     OW33319   0.852   3.181  12.629 -0.3570  0.2245  0.0042
 7229SOL    HW133320   0.826   3.094  12.660 -0.5675  0.5143  0.6461
 7229SOL    HW233321   0.905   3.147  12.557 -0.0151 -1.9792  1.2799
 7230SOL     OW33322   0.952   0.126  13.065  0.8175 -0.4206  0.0168
 7230SOL    HW133323   0.858   0.109  13.071  0.7486  0.1502  0.4945
 7230SOL    HW233324   0.961   0.219  13.085  0.1959 -0.3058 -0.2352
 7231SOL     OW33325   1.527   2.275  12.968 -0.2557 -0.1971 -0.7255
 7231SOL    HW133326   1.594   2.214  12.938 -0.2756  0.6432 -2.4797
 7231SOL    HW233327   1.578   2.331  13.026  0.0638 -1.6566  0.3898
 7232SOL     OW33328   3.373   2.796   3.551  1.1953 -0.3987  0.8261
 7232SOL    HW133329   3.281   2.817   3.542  0.9301 -0.8856  2.3540
 7232SOL    HW233330   3.373   2.758   3.639  0.5666 -1.0168  0.5574
 7233SOL     OW33331   3.896   2.523  12.286  0.0033  0.1214 -0.1199
 7233SOL    HW133332   3.803   2.530  12.262 -0.1864 -1.4773  0.1418
 7233SOL    HW233333   3.933   2.589  12.228  1.1825 -2.0381 -1.8061
 7234SOL     OW33334   1.261   3.572   6.927  0.0584 -0.0470 -0.3988
 7234SOL    HW133335   1.222   3.517   6.994  0.1729 -1.4066 -1.4502
 7234SOL    HW233336   1.296   3.506   6.867 -0.8329 -0.1441 -0.8195
 7235SOL     OW33337   2.238   2.110   6.450  0.5130 -0.2750  0.4441
 7235SOL    HW133338   2.196   2.109   6.535 -1.7645  1.1196 -0.6619
 7235SOL    HW233339   2.179   2.048   6.406  1.1647 -1.3405  1.0640
 7236SOL     OW33340   2.676   3.826   1.619 -0.1505 -0.3487 -0.1377
 7236SOL    HW133341   2.625   3.880   1.559  0.2304 -1.6143 -1.6135
 7236SOL    HW233342   2.633   3.741   1.629  0.6166 -0.7087  0.1368
 7237SOL     OW33343   2.811   1.981   5.999  0.2417  0.4276 -0.4182
 7237SOL    HW133344   2.838   1.973   6.090 -0.9662  1.6393  0.0538
 7237SOL    HW233345   2.715   1.976   6.006  0.4434 -3.8936 -0.7983
 7238SOL     OW33346   3.035   3.932   5.613 -0.6009 -0.4180  0.3412
 7238SOL    HW133347   3.063   3.856   5.663 -0.2684 -0.0947  0.6489
 7238SOL    HW233348   2.980   3.880   5.554  0.2489 -1.5621  0.5561
 7239SOL     OW33349   1.463   1.341   4.206 -0.4673 -0.2998 -0.0039
 7239SOL    HW133350   1.414   1.259   4.197 -0.6824 -0.3087  1.1404
 7239SOL    HW233351   1.548   1.303   4.189  0.6304  1.0507  2.3472
 7240SOL     OW33352   0.785   2.585   5.701 -0.1131 -0.1959 -0.0908
 7240SOL    HW133353   0.796   2.677   5.724 -2.6996  0.1489 -0.2234
 7240SOL    HW233354   0.735   2.564   5.780  0.5034  1.2165  0.6640
 7241SOL     OW33355   3.988   1.041   4.327  0.0904 -0.3475  0.4709
 7241SOL    HW133356   3.919   1.102   4.354 -0.9888 -0.5232 -1.8901
 7241SOL    HW233357   3.966   1.020   4.237 -0.7902 -0.7190  0.7666
 7242SOL     OW33358   2.547   3.768   8.201  0.6320 -0.1790  0.0905
 7242SOL    HW133359   2.577   3.789   8.290 -0.6633  0.6260  0.3229
 7242SOL    HW233360   2.633   3.756   8.160 -0.6220 -1.7959 -2.0784
 7243SOL     OW33361   1.364   2.598   6.749 -0.7075  0.0796  0.1154
 7243SOL    HW133362   1.424   2.563   6.815 -3.2454 -3.1888  0.6985
 7243SOL    HW233363   1.283   2.547   6.759 -1.3162  1.0406  0.1782
 7244SOL     OW33364   1.858   2.935   4.912 -0.3922  0.2767  0.1604
 7244SOL    HW133365   1.827   2.923   4.822  2.3274 -0.1627 -0.7263
 7244SOL    HW233366   1.857   3.027   4.936 -1.7419 -0.0125  1.1732
 7245SOL     OW33367   4.607   1.088   1.936  0.7037  0.0880  0.6143
 7245SOL    HW133368   4.626   1.130   2.020  0.2583 -0.0944  0.8034
 7245SOL    HW233369   4.620   0.994   1.952 -0.2781 -0.2871 -0.7864
 7246SOL     OW33370   0.123   3.468  16.303  0.2828  0.4205  0.0567
 7246SOL    HW133371   0.051   3.488  16.362 -0.0332 -1.0120  0.1374
 7246SOL    HW233372   0.080   3.413  16.238 -1.5953  1.9953 -0.0187
 7247SOL     OW33373   1.869   0.384   1.948 -0.4499  0.2700  0.2929
 7247SOL    HW133374   1.776   0.400   1.937 -0.5953 -0.8793 -0.1171
 7247SOL    HW233375   1.891   0.453   2.011  1.2722  1.8388 -2.0230
 7248SOL     OW33376   3.847   0.342   1.975  0.4674 -0.7102  0.4902
 7248SOL    HW133377   3.803   0.269   2.019 -0.3816 -2.1305 -2.7907
 7248SOL    HW233378   3.803   0.415   2.018 -0.0359 -1.1234  0.6681
 7249SOL     OW33379   4.459   2.815   5.298 -0.3795  0.0508  0.2064
 7249SOL    HW133380   4.396   2.743   5.297  1.0845 -1.2129 -1.2151
 7249SOL    HW233381   4.418   2.847   5.379 -0.7005 -0.4357  0.2336
 7250SOL     OW33382   2.244   1.842   4.035  0.2937  0.5623  0.0291
 7250SOL    HW133383   2.285   1.928   4.019  2.8840 -0.8895 -1.1098
 7250SOL    HW233384   2.152   1.861   4.018 -0.2753 -0.4024  2.1463
 7251SOL     OW33385   1.780   1.518   3.097 -0.4850  0.3473  0.3763
 7251SOL    HW133386   1.751   1.454   3.162 -1.7443  0.6223  0.0799
 7251SOL    HW233387   1.793   1.587   3.163  2.7897 -1.6456  1.8548
 7252SOL     OW33388   1.611   1.572   4.169  0.4371 -0.1158  0.4797
 7252SOL    HW133389   1.677   1.533   4.111  1.7359 -1.9893  3.2203
 7252SOL    HW233390   1.542   1.509   4.189  0.2938 -0.2442 -0.4077
 7253SOL     OW33391   4.561   2.912   6.135  0.0717  0.7099  0.1138
 7253SOL    HW133392   4.482   2.960   6.157 -0.2398 -0.3515  1.3223
 7253SOL    HW233393   4.536   2.855   6.063  1.5257  0.4781 -0.2077
 7254SOL     OW33394   1.950   2.782  10.949  0.3747 -0.3967  0.1293
 7254SOL    HW133395   1.910   2.707  10.904  0.9488  0.0047 -1.0347
 7254SOL    HW233396   1.880   2.847  10.943  0.6099  0.2154  4.0957
 7255SOL     OW33397   0.945   3.409   2.488 -0.2659 -0.1090 -0.8587
 7255SOL    HW133398   1.010   3.455   2.434  0.3890 -0.9472 -0.7908
 7255SOL    HW233399   0.951   3.318   2.459  0.9078 -0.5005  0.6303
 7256SOL     OW33400   2.885   2.053  15.339  0.2813  0.3762  0.9035
 7256SOL    HW133401   2.805   2.043  15.289  0.7941  0.1722  0.1276
 7256SOL    HW233402   2.871   2.003  15.420 -0.3336  0.5765  0.9213
 7257SOL     OW33403   2.405   4.672   6.855 -0.1250 -0.2572  0.5242
 7257SOL    HW133404   2.470   4.650   6.921  0.0783  1.4918  0.8917
 7257SOL    HW233405   2.406   0.028   6.840  0.4374 -0.4583 -0.6934
 7258SOL     OW33406   3.499   3.070   3.792  0.1006  0.1074 -0.3405
 7258SOL    HW133407   3.424   3.087   3.849  0.3445  3.1055 -0.9103
 7258SOL    HW233408   3.461   3.067   3.704 -1.2139  2.1901  0.1758
 7259SOL     OW33409   3.412   4.326  14.676  0.7060  0.3614  0.4995
 7259SOL    HW133410   3.406   4.340  14.582  2.7066 -2.1853 -0.0425
 7259SOL    HW233411   3.419   4.230  14.674  1.5931  0.4882 -2.4205
 7260SOL     OW33412   1.986   3.775  15.797 -0.4948  0.0834  0.3513
 7260SOL    HW133413   1.917   3.825  15.840 -1.0492  2.0870 -2.8809
 7260SOL    HW233414   1.990   3.807  15.706 -2.8884  0.9912  0.5720
 7261SOL     OW33415   0.094   2.651   4.498  0.2386  0.2118  0.1026
 7261SOL    HW133416   0.169   2.593   4.514 -0.0510  0.3604  1.9456
 7261SOL    HW233417   0.052   2.670   4.581 -1.4006  0.4778 -0.7871
 7262SOL     OW33418   1.041   2.632   9.334  0.3383 -0.3658  0.4154
 7262SOL    HW133419   1.007   2.637   9.244  1.0086 -2.3751  0.0460
 7262SOL    HW233420   0.973   2.591   9.387 -0.9619 -0.1461 -1.0780
 7263SOL     OW33421   0.750   2.929   0.778  0.2687 -0.4247  0.1044
 7263SOL    HW133422   0.822   2.959   0.722 -0.2908  1.6410  0.4990
 7263SOL    HW233423   0.792   2.861   0.830 -0.2349 -0.3780  0.5632
 7264SOL     OW33424   3.217   4.044   9.773 -0.3272 -0.0208 -0.0733
 7264SOL    HW133425   3.149   4.104   9.805  1.1272  1.0267  1.0778
 7264SOL    HW233426   3.222   4.040   9.678 -0.8468  2.2685 -0.1833
 7265SOL     OW33427   2.674   1.992  13.771 -0.7541  0.5025  0.3430
 7265SOL    HW133428   2.720   2.073  13.788  0.8623 -0.8249  2.2519
 7265SOL    HW233429   2.747   1.931  13.761 -0.7427  0.5819 -0.0466
 7266SOL     OW33430   2.909   2.013  17.480  0.4299 -0.2740 -0.6070
 7266SOL    HW133431   2.928   2.095  17.526  0.5606 -0.6966  0.0830
 7266SOL    HW233432   2.993   1.970  17.497 -0.3791 -0.9795  1.5792
 7267SOL     OW33433   1.301   0.143   3.709 -0.0942  0.0300 -0.0839
 7267SOL    HW133434   1.229   0.204   3.726 -0.3293 -0.1675 -0.3688
 7267SOL    HW233435   1.263   0.070   3.758 -1.2432  0.8192  0.2009
 7268SOL     OW33436   1.748   2.816  15.579 -0.3776 -0.6314  0.1688
 7268SOL    HW133437   1.824   2.806  15.522 -0.2454 -0.2691  0.2812
 7268SOL    HW233438   1.754   2.738  15.634  0.1138 -1.6443 -1.3007
 7269SOL     OW33439   4.444   0.123   7.326  0.2628 -0.5265 -0.1414
 7269SOL    HW133440   4.398   0.206   7.333  1.7254  0.2581  0.1663
 7269SOL    HW233441   4.430   0.080   7.410 -1.5631  0.3527 -0.0084
 7270SOL     OW33442   2.851   3.070   0.498 -0.1334 -0.5149  0.0562
 7270SOL    HW133443   2.814   3.127   0.431  0.5961  0.4395  0.4685
 7270SOL    HW233444   2.930   3.122   0.515  0.0782 -0.6099 -0.6626
 7271SOL     OW33445   2.197   4.344   4.626  0.6174  0.8503  0.1928
 7271SOL    HW133446   2.190   4.307   4.714 -1.0090 -0.6436 -0.5498
 7271SOL    HW233447   2.261   4.412   4.645  0.9025  0.5163  0.4452
 7272SOL     OW33448   3.938   0.687   3.373 -0.5106  0.2004  0.0770
 7272SOL    HW133449   3.969   0.602   3.340 -2.1702 -1.1574  2.0525
 7272SOL    HW233450   3.891   0.659   3.451 -2.3934  0.3936 -0.9762
 7273SOL     OW33451   0.729   2.054   4.510  0.4795 -0.0498 -0.1164
 7273SOL    HW133452   0.636   2.075   4.505  0.3121 -1.2988 -2.4773
 7273SOL    HW233453   0.733   1.968   4.467 -0.6670 -0.1938  0.0748
 7274SOL     OW33454   2.925   2.728   8.172 -0.2693 -0.7578 -0.3708
 7274SOL    HW133455   2.870   2.678   8.112  2.0328  0.9758 -3.9104
 7274SOL    HW233456   2.867   2.725   8.248 -2.0460  2.9026 -1.5210
 7275SOL     OW33457   1.806   4.604  10.567  0.2232 -0.0540  0.6981
 7275SOL    HW133458   1.806   4.529  10.626  0.3388  0.4248  1.3194
 7275SOL    HW233459   1.851   4.573  10.488  1.1867 -0.3252  1.3468
 7276SOL     OW33460   1.504   2.586  11.541  0.4726 -0.4875 -0.0780
 7276SOL    HW133461   1.438   2.565  11.607  0.1903 -0.9368 -0.5133
 7276SOL    HW233462   1.527   2.670  11.582 -2.0925 -1.1150  2.6593
 7277SOL     OW33463   0.613   2.380  13.274 -0.1490 -0.0622 -0.3612
 7277SOL    HW133464   0.567   2.461  13.252 -1.2522 -0.4361  0.5446
 7277SOL    HW233465   0.680   2.382  13.206  1.4793  2.1250  1.3040
 7278SOL     OW33466   3.453   3.707   5.861  0.6782 -0.0538  0.4934
 7278SOL    HW133467   3.518   3.765   5.899  2.2740 -1.7598  0.4158
 7278SOL    HW233468   3.386   3.710   5.929  0.0750 -0.0660 -0.0891
 7279SOL     OW33469   1.775   4.511   8.013 -0.2710 -0.0803  0.3179
 7279SOL    HW133470   1.807   4.536   8.100 -1.8824  0.0972  0.8550
 7279SOL    HW233471   1.863   4.481   7.988 -1.2725 -3.1229  0.4123
 7280SOL     OW33472   1.921   3.091   3.607  0.0882 -0.0427  0.5991
 7280SOL    HW133473   1.909   3.092   3.512 -0.3803 -0.8846  0.6444
 7280SOL    HW233474   1.891   3.002   3.628 -2.3785 -0.1801 -3.3721
 7281SOL     OW33475   0.152   1.935   7.223 -0.2222 -0.5294  0.1146
 7281SOL    HW133476   0.090   1.962   7.156  0.6449  0.5989 -0.2471
 7281SOL    HW233477   0.099   1.887   7.287 -0.4348 -3.1306 -2.0295
 7282SOL     OW33478   0.725   3.538   5.806 -0.0240  0.7429  0.0748
 7282SOL    HW133479   0.673   3.498   5.877  1.4640 -1.0244  0.1693
 7282SOL    HW233480   0.814   3.527   5.839 -0.1477 -1.1622 -0.1981
 7283SOL     OW33481   3.625   0.117   1.751  0.0076  0.1802 -0.5420
 7283SOL    HW133482   3.562   0.160   1.809 -0.0463  0.6124 -0.9229
 7283SOL    HW233483   3.698   0.117   1.813 -0.4970 -3.4209  0.0770
 7284SOL     OW33484   1.196   0.803   5.042 -0.4127 -0.3068 -0.5441
 7284SOL    HW133485   1.236   0.787   4.956 -0.8001  1.3980 -1.0462
 7284SOL    HW233486   1.203   0.718   5.085  0.1504  0.9939  1.8850
 7285SOL     OW33487   0.165   2.443  16.483 -0.0371  0.4088  0.7515
 7285SOL    HW133488   0.074   2.471  16.489 -0.2771 -0.4250  1.1562
 7285SOL    HW233489   0.203   2.504  16.546 -1.0005  1.8112 -0.0436
 7286SOL     OW33490   4.663   3.309   0.024  0.1153 -0.1051  0.3261
 7286SOL    HW133491   4.608   3.233   0.008  0.6759 -1.2803  3.9234
 7286SOL    HW233492   4.620   3.374  17.721  0.7121 -1.2200 -1.4313
 7287SOL     OW33493   0.317   1.840  10.308  0.3740 -0.5454  0.0079
 7287SOL    HW133494   0.385   1.841  10.376 -0.5896 -1.5208  0.9962
 7287SOL    HW233495   0.291   1.932  10.308  0.9819 -0.3801  1.4490
 7288SOL     OW33496   0.003   3.002   5.377 -0.1629  0.1806 -0.4678
 7288SOL    HW133497   4.705   3.090   5.364 -3.2542 -0.7999  1.6679
 7288SOL    HW233498   4.723   2.995   5.470  2.7703  0.1851  0.1116
 7289SOL     OW33499   1.887   0.711  11.918 -0.2253  0.4158  0.0618
 7289SOL    HW133500   1.928   0.749  11.841 -0.2623  1.2426  0.4534
 7289SOL    HW233501   1.797   0.707  11.885  0.1229  0.8649 -0.9238
 7290SOL     OW33502   3.900   2.849  16.097  0.2797 -0.6133 -0.3739
 7290SOL    HW133503   3.806   2.866  16.090  0.3338 -0.2282 -0.1432
 7290SOL    HW233504   3.914   2.867  16.190  0.6275 -0.6128 -0.4297
 7291SOL     OW33505   2.291   2.319  16.967  0.3727  0.4139 -0.0017
 7291SOL    HW133506   2.226   2.254  16.995 -1.7527  1.3769 -2.7401
 7291SOL    HW233507   2.367   2.308  17.024  1.6653  0.2952 -1.7317
 7292SOL     OW33508   0.205   0.680   6.165 -0.8415  0.6172  1.3713
 7292SOL    HW133509   0.232   0.644   6.081 -0.1188  0.1463  1.8095
 7292SOL    HW233510   0.163   0.602   6.200  1.9704 -2.4506 -2.2141
 7293SOL     OW33511   3.534   0.642   3.133 -0.3373  0.4500  0.2625
 7293SOL    HW133512   3.494   0.608   3.213  2.2735 -1.0999  0.9398
 7293SOL    HW233513   3.460   0.657   3.075 -0.7444 -0.2755  0.5855
 7294SOL     OW33514   3.652   3.716   8.349  0.9723  0.2262  0.0266
 7294SOL    HW133515   3.715   3.782   8.321 -0.0082  0.5158 -1.5143
 7294SOL    HW233516   3.677   3.699   8.439 -1.2296 -1.5410  0.3111
 7295SOL     OW33517   0.468   1.340  10.336  0.5754  0.2265  0.1506
 7295SOL    HW133518   0.391   1.360  10.390 -0.0192  0.5711 -0.8177
 7295SOL    HW233519   0.519   1.420  10.326  2.3432 -0.8805  0.3861
 7296SOL     OW33520   0.122   4.357  10.446 -0.3835 -0.1642 -0.5012
 7296SOL    HW133521   0.189   4.299  10.409  0.0519  0.3629 -0.5284
 7296SOL    HW233522   0.061   4.284  10.458 -2.3410  1.4479 -0.8229
 7297SOL     OW33523   2.931   0.309  17.210  0.3374 -0.4548  0.4295
 7297SOL    HW133524   3.023   0.325  17.186  0.8275 -1.4896  1.6612
 7297SOL    HW233525   2.936   0.339  17.301 -0.1020 -0.2206  0.3758
 7298SOL     OW33526   0.143   3.920   0.480  0.5090  0.0249 -0.3123
 7298SOL    HW133527   0.140   3.976   0.403 -0.6596 -1.0622 -1.0658
 7298SOL    HW233528   0.199   3.848   0.450  2.2348  0.8892  0.8779
 7299SOL     OW33529   4.598   0.090   1.659  0.1130 -0.4119 -0.1431
 7299SOL    HW133530   4.512   0.119   1.690  0.2907 -0.1136  0.0656
 7299SOL    HW233531   4.598   4.733   1.667  0.9246 -0.5553 -1.9499
 7300SOL     OW33532   4.194   2.928   9.920  0.5461 -0.1305 -0.1346
 7300SOL    HW133533   4.288   2.942   9.913  0.4340  2.3062  2.9894
 7300SOL    HW233534   4.171   2.974  10.001 -1.0788 -1.7610  0.3372
 7301SOL     OW33535   3.512   2.809  16.162  0.2287  0.3054 -0.6689
 7301SOL    HW133536   3.482   2.751  16.093 -2.2596  1.0141 -0.1889
 7301SOL    HW233537   3.565   2.871  16.112  1.4008 -0.7046 -0.6758
 7302SOL     OW33538   3.555   0.678   8.551  0.4373  0.2570  0.5500
 7302SOL    HW133539   3.594   0.661   8.637 -1.7829  0.3089  1.5556
 7302SOL    HW233540   3.463   0.695   8.568 -0.2274 -1.1749 -1.6474
 7303SOL     OW33541   4.728   1.281  10.024 -0.2378  0.1897 -0.1415
 7303SOL    HW133542   0.052   1.235  10.079  0.7347  2.6422  0.8282
 7303SOL    HW233543   0.026   1.370  10.028  1.8904 -0.7082  0.1651
 7304SOL     OW33544   3.017   0.929   6.944 -0.3200  0.3315  0.0463
 7304SOL    HW133545   3.093   0.976   6.976 -0.6878  1.4823 -0.7663
 7304SOL    HW233546   2.952   0.955   7.009  0.5640 -0.6221  1.3048
 7305SOL     OW33547   3.723   3.429   4.254 -0.0411  0.2384 -0.1723
 7305SOL    HW133548   3.723   3.479   4.335 -1.3780  2.8580 -1.7834
 7305SOL    HW233549   3.634   3.459   4.234 -0.3374 -0.0534  0.7022
 7306SOL     OW33550   3.517   4.409  14.431 -0.4815  0.2216 -0.9585
 7306SOL    HW133551   3.468   4.407  14.348 -1.6222  1.5765 -0.3135
 7306SOL    HW233552   3.607   4.384  14.410 -0.0646  0.6726  0.3133
 7307SOL     OW33553   1.687   2.108  12.165 -0.7139 -0.5027  0.1460
 7307SOL    HW133554   1.722   2.142  12.083 -0.4417  1.6872  1.1554
 7307SOL    HW233555   1.657   2.190  12.205  0.6563  0.7148 -1.3070
 7308SOL     OW33556   2.008   3.397  10.113 -0.1299 -0.2195  0.3431
 7308SOL    HW133557   1.924   3.420  10.074 -0.1238 -2.6693 -1.1284
 7308SOL    HW233558   2.014   3.478  10.164  2.3380  0.1184 -0.4646
 7309SOL     OW33559   0.468   2.264  17.418  0.0679 -0.2973  0.0721
 7309SOL    HW133560   0.436   2.183  17.459  1.9571  0.0382  2.1459
 7309SOL    HW233561   0.561   2.249  17.435  0.2685  0.2055 -0.5473
 7310SOL     OW33562   0.635   1.986   1.080 -0.3321 -0.1525 -0.3524
 7310SOL    HW133563   0.711   1.927   1.078  0.2657  0.6448 -1.3107
 7310SOL    HW233564   0.671   2.070   1.051  1.1502 -0.1588  1.5154
 7311SOL     OW33565   2.518   0.165   2.797  0.6161 -0.1885  0.1717
 7311SOL    HW133566   2.557   0.190   2.881  2.1288  0.4546 -0.7179
 7311SOL    HW233567   2.522   0.070   2.801 -1.3316 -0.3175 -1.2340
 7312SOL     OW33568   3.974   0.155   4.933  0.1613  0.0006 -0.4874
 7312SOL    HW133569   3.898   0.133   4.986 -1.2652 -1.6232 -3.2252
 7312SOL    HW233570   4.040   0.115   4.989 -0.7022 -1.6072 -0.6236
 7313SOL     OW33571   3.315   2.841   1.919  0.1363  0.7142  0.0172
 7313SOL    HW133572   3.340   2.821   1.828 -0.4686 -0.3828  0.0968
 7313SOL    HW233573   3.361   2.768   1.961  0.6827  0.5235 -0.9072
 7314SOL     OW33574   4.379   0.803  14.230 -0.3576 -0.0696  0.4533
 7314SOL    HW133575   4.461   0.767  14.264  0.1202 -0.2749 -0.9082
 7314SOL    HW233576   4.431   0.866  14.182  0.6896 -0.0450  1.6264
 7315SOL     OW33577   0.821   2.397   1.504 -0.1815 -0.2293  0.1436
 7315SOL    HW133578   0.792   2.312   1.473  1.6992 -0.8903  0.2250
 7315SOL    HW233579   0.741   2.434   1.542  0.7424  1.5572  0.3409
 7316SOL     OW33580   2.320   2.065  12.368 -0.4324 -0.1029 -1.0559
 7316SOL    HW133581   2.355   2.015  12.295  1.2960  0.1972 -0.4263
 7316SOL    HW233582   2.361   2.152  12.366  1.3091 -0.8871  1.3853
 7317SOL     OW33583   4.332   0.700  16.486 -0.1587  0.2509 -0.5336
 7317SOL    HW133584   4.268   0.762  16.452 -0.7392  0.4433  0.8925
 7317SOL    HW233585   4.281   0.657  16.555 -1.3116  0.5905 -1.1802
 7318SOL     OW33586   0.907   4.088   8.240  0.3328 -0.0354  0.2731
 7318SOL    HW133587   0.897   4.024   8.170  0.2083  0.5081 -0.2130
 7318SOL    HW233588   0.992   4.065   8.276  0.8390  1.2429 -0.1090
 7319SOL     OW33589   0.181   4.449   2.820 -0.3140  0.8586 -0.0705
 7319SOL    HW133590   0.171   4.355   2.804 -2.2750  1.0132  0.2452
 7319SOL    HW233591   0.200   4.480   2.731  1.2829 -0.9954 -0.3848
 7320SOL     OW33592   2.665   2.251   2.293  0.0352  0.0478  0.4439
 7320SOL    HW133593   2.694   2.320   2.233  1.0948  0.4939  1.4626
 7320SOL    HW233594   2.608   2.197   2.238 -0.3619 -0.0735  0.9726
 7321SOL     OW33595   0.450   3.592   8.601  0.2454  0.0302  0.1258
 7321SOL    HW133596   0.446   3.636   8.686  0.8238 -0.9687  0.6626
 7321SOL    HW233597   0.360   3.583   8.570 -0.7649 -0.9282  3.2981
 7322SOL     OW33598   4.674   3.676   7.478  0.0022 -0.2137 -0.3103
 7322SOL    HW133599   4.608   3.733   7.438  0.7976  0.9365  0.0183
 7322SOL    HW233600   0.014   3.729   7.473 -0.0061 -0.0800  0.8607
 7323SOL     OW33601   3.306   4.095   6.438  0.2669  0.6454  0.2512
 7323SOL    HW133602   3.277   4.186   6.444 -1.1037  0.2388 -0.2116
 7323SOL    HW233603   3.226   4.043   6.429  1.1810 -0.4753 -1.5343
 7324SOL     OW33604   2.735   2.088   4.540 -0.2543 -0.5797 -0.0419
 7324SOL    HW133605   2.720   2.153   4.472  0.7732 -3.5623 -3.1152
 7324SOL    HW233606   2.665   2.105   4.602 -1.0726 -1.8634 -0.6083
 7325SOL     OW33607   4.057   1.076   5.460 -0.0815 -0.1087 -0.7861
 7325SOL    HW133608   3.994   1.148   5.459 -1.2616 -1.1120  0.8594
 7325SOL    HW233609   4.138   1.111   5.498 -0.3150 -1.3060  0.8201
 7326SOL     OW33610   4.602   0.207   3.095 -0.3252  0.3670 -0.0257
 7326SOL    HW133611   4.591   0.158   3.176  0.1015  2.3881  1.2564
 7326SOL    HW233612   4.541   0.278   3.114 -1.2266 -0.0104 -1.4510
 7327SOL     OW33613   3.258   0.377   4.068  0.1308 -0.1732 -0.3699
 7327SOL    HW133614   3.300   0.308   4.119  2.2355  1.3752  0.0066
 7327SOL    HW233615   3.170   0.343   4.085  0.7252 -1.6174 -0.1890
 7328SOL     OW33616   0.616   2.636   1.497 -0.0602  0.0361 -0.0029
 7328SOL    HW133617   0.537   2.689   1.508  0.0404  0.5428 -1.6995
 7328SOL    HW233618   0.612   2.626   1.402 -1.3748 -3.4065  0.4250
 7329SOL     OW33619   2.407   1.885   0.234 -0.5254 -0.1549 -0.2965
 7329SOL    HW133620   2.393   1.849   0.147 -1.2017 -1.8265  0.5031
 7329SOL    HW233621   2.499   1.913   0.228 -0.2369 -1.3824 -1.3717
 7330SOL     OW33622   3.626   3.914  14.828 -0.3047  0.5035  0.3817
 7330SOL    HW133623   3.711   3.957  14.830 -1.8772  3.5769 -0.0966
 7330SOL    HW233624   3.653   3.825  14.805  0.1686  1.0488 -1.1941
 7331SOL     OW33625   3.692   0.127   4.603  0.0072 -0.3591  0.0516
 7331SOL    HW133626   3.615   0.141   4.548  0.4245  2.7510  0.2823
 7331SOL    HW233627   3.711   0.036   4.581 -1.9545 -0.2200 -2.2414
 7332SOL     OW33628   2.546   2.781   7.664  0.5156  0.2156 -0.2376
 7332SOL    HW133629   2.583   2.869   7.660  1.7161 -0.2378  0.6915
 7332SOL    HW233630   2.456   2.795   7.691  1.0672 -0.4241  1.9392
 7333SOL     OW33631   4.470   0.728  10.343  0.2910  0.3417 -0.1532
 7333SOL    HW133632   4.407   0.778  10.291 -0.5342 -3.1874 -2.5331
 7333SOL    HW233633   4.532   0.709  10.273  0.5782  0.5082  0.0607
 7334SOL     OW33634   2.167   0.073   4.060  0.5063  0.4254  0.2175
 7334SOL    HW133635   2.188   0.018   3.984 -0.5253  0.4100 -0.0533
 7334SOL    HW233636   2.235   0.141   4.055  0.3575  0.6042  0.6324
 7335SOL     OW33637   1.573   0.099   5.275  0.2064 -0.4166  0.3111
 7335SOL    HW133638   1.586   0.004   5.274  0.1932 -0.3829 -1.7909
 7335SOL    HW233639   1.640   0.137   5.218  0.9193  0.0884  1.4781
 7336SOL     OW33640   4.352   4.566   7.593  0.1023 -0.3563 -0.0726
 7336SOL    HW133641   4.392   4.498   7.648  0.3879  0.3882  0.6382
 7336SOL    HW233642   4.398   4.553   7.510 -0.4672 -2.3553 -0.0808
 7337SOL     OW33643   0.609   0.214   8.587 -0.3090  0.2483 -0.3355
 7337SOL    HW133644   0.695   0.217   8.546 -0.0361  1.2249  0.2930
 7337SOL    HW233645   0.579   0.123   8.584  2.3219 -0.6145 -0.2134
 7338SOL     OW33646   1.333   0.406   4.938  0.4889 -0.0860 -0.2595
 7338SOL    HW133647   1.262   0.460   4.903 -0.8047 -0.5540  1.6166
 7338SOL    HW233648   1.379   0.475   4.987  0.0076  0.9538 -1.2772
 7339SOL     OW33649   3.726   1.968   7.672  0.4971 -0.0241  0.0865
 7339SOL    HW133650   3.762   1.885   7.705 -0.2889 -0.9447 -1.3964
 7339SOL    HW233651   3.747   2.020   7.750  0.9567  3.0371 -2.0657
 7340SOL     OW33652   4.384   3.332  15.733 -0.0749  0.3200  0.0978
 7340SOL    HW133653   4.364   3.416  15.691 -0.8214  0.2510  0.3234
 7340SOL    HW233654   4.475   3.324  15.704 -0.7862  1.4101 -2.4427
 7341SOL     OW33655   1.856   0.732  11.374 -0.0636  0.2346  0.0768
 7341SOL    HW133656   1.878   0.771  11.289 -0.9241 -2.6489 -1.4721
 7341SOL    HW233657   1.779   0.786  11.392  0.9127  1.2116  1.2690
 7342SOL     OW33658   2.622   2.963  11.574 -0.2285  0.6956 -0.1507
 7342SOL    HW133659   2.554   2.991  11.512  0.4503 -1.1906 -1.7499
 7342SOL    HW233660   2.578   2.890  11.616 -0.8182  1.8899  1.3103
 7343SOL     OW33661   0.523   3.644   1.774 -0.0212 -0.4852  0.2897
 7343SOL    HW133662   0.564   3.651   1.688  0.3275  3.7948  0.7723
 7343SOL    HW233663   0.546   3.729   1.813 -0.2789 -1.0275  1.6091
 7344SOL     OW33664   1.498   3.398   7.739 -0.0462  0.2747 -0.1778
 7344SOL    HW133665   1.573   3.458   7.742  0.3778 -0.1281 -2.5329
 7344SOL    HW233666   1.456   3.430   7.659  0.7278 -0.8296 -1.0455
 7345SOL     OW33667   1.456   0.676  14.572 -0.1355 -0.1744  0.2720
 7345SOL    HW133668   1.428   0.759  14.612  1.5442  1.6977 -2.4175
 7345SOL    HW233669   1.531   0.660  14.629 -0.4940 -1.0706  0.4885
 7346SOL     OW33670   2.054   4.472   7.641  0.7029  0.4882 -0.1268
 7346SOL    HW133671   1.960   4.488   7.649  0.3167 -1.9907  0.5687
 7346SOL    HW233672   2.092   4.541   7.696  0.6935 -0.7066  1.3848
 7347SOL     OW33673   2.089   0.235   5.278 -0.7353  0.1606  0.1780
 7347SOL    HW133674   2.042   0.315   5.253 -0.9996 -0.1953 -0.4552
 7347SOL    HW233675   2.145   0.221   5.202  1.1183  3.8543  0.8108
 7348SOL     OW33676   3.155   2.346   4.973 -0.1946  0.4338  0.0505
 7348SOL    HW133677   3.121   2.257   4.961  1.8213 -0.3253  0.0383
 7348SOL    HW233678   3.173   2.349   5.067  1.1518  2.4736 -0.2792
 7349SOL     OW33679   0.871   3.905   1.911 -0.1401  0.0508 -0.4027
 7349SOL    HW133680   0.871   3.810   1.898  0.5062 -0.2319  1.6607
 7349SOL    HW233681   0.782   3.922   1.881  0.4667  2.2518 -0.9551
 7350SOL     OW33682   4.275   3.071   6.655  0.4257 -0.2607  0.4261
 7350SOL    HW133683   4.222   3.001   6.694 -0.3527 -0.4956 -1.0634
 7350SOL    HW233684   4.293   3.120   6.735  1.3148 -2.7205  1.7701
 7351SOL     OW33685   3.169   1.591   9.191  0.4702 -0.4277  0.6681
 7351SOL    HW133686   3.127   1.676   9.181  0.8052 -0.3336  0.0542
 7351SOL    HW233687   3.130   1.533   9.126 -1.0808  0.0739  1.1609
 7352SOL     OW33688   1.210   4.397   3.913 -0.2926 -0.3946 -0.2343
 7352SOL    HW133689   1.268   4.379   3.840  0.4997  0.0695  0.2855
 7352SOL    HW233690   1.130   4.348   3.892 -1.2482  0.2458  1.8489
 7353SOL     OW33691   0.447   4.529   3.858  0.0299 -0.0672  0.3716
 7353SOL    HW133692   0.402   4.591   3.801  3.2943  0.1484 -1.9950
 7353SOL    HW233693   0.387   4.489   3.921 -0.7621 -0.4324 -0.6191
 7354SOL     OW33694   3.598   1.748   0.343  0.1493  0.4910 -0.3110
 7354SOL    HW133695   3.535   1.791   0.286  0.4483  0.2169 -0.8574
 7354SOL    HW233696   3.588   1.792   0.427 -1.6438 -0.9891  0.2496
 7355SOL     OW33697   1.991   2.810   2.516 -0.1632  0.0181  0.0156
 7355SOL    HW133698   2.033   2.892   2.489 -0.3553  0.6188  1.5716
 7355SOL    HW233699   2.054   2.762   2.569 -0.3110  0.7689  0.8725
 7356SOL     OW33700   2.765   2.344   7.456 -0.0285  0.4012 -0.5837
 7356SOL    HW133701   2.792   2.364   7.366  1.7555 -3.2449 -0.8816
 7356SOL    HW233702   2.708   2.415   7.484  0.1747  1.2576 -2.3380
 7357SOL     OW33703   0.070   0.467   5.380  0.0072  0.1010 -0.2559
 7357SOL    HW133704   0.103   0.381   5.404  0.3570  0.1922 -0.3969
 7357SOL    HW233705   0.133   0.491   5.311 -1.6290 -1.2260 -2.2176
 7358SOL     OW33706   0.465   2.554   0.339  0.5012 -0.0288  0.0743
 7358SOL    HW133707   0.383   2.536   0.383  1.0334 -2.0851  0.2054
 7358SOL    HW233708   0.446   2.630   0.284  2.0009 -0.7948 -1.4979
 7359SOL     OW33709   0.198   1.262  10.220  0.2178  0.1708 -0.2540
 7359SOL    HW133710   0.162   1.243  10.307 -0.9502  1.9520 -0.3314
 7359SOL    HW233711   0.292   1.275  10.229  0.0486  1.3997 -0.1916
 7360SOL     OW33712   0.607   3.858   6.561 -0.9966 -0.0334  0.1723
 7360SOL    HW133713   0.664   3.933   6.579  0.1283 -0.5587 -1.2112
 7360SOL    HW233714   0.642   3.783   6.609 -0.1304  0.3877  0.2028
 7361SOL     OW33715   0.606   4.640   2.408  0.3592 -0.1849 -0.0414
 7361SOL    HW133716   0.604   4.555   2.364  2.1833  0.0995 -0.6812
 7361SOL    HW233717   0.553   4.694   2.350  0.2658 -0.1247  0.1007
 7362SOL     OW33718   0.210   2.401  14.098 -0.0068  0.4885 -0.7168
 7362SOL    HW133719   0.278   2.432  14.158  1.7136  0.0225 -2.4097
 7362SOL    HW233720   0.258   2.326  14.061  0.5141  0.2168  0.5037
 7363SOL     OW33721   1.782   3.866   5.454 -0.1465  0.2364 -0.4799
 7363SOL    HW133722   1.757   3.780   5.420 -0.4657  0.3969 -0.6509
 7363SOL    HW233723   1.868   3.887   5.418  0.2833 -2.1157 -0.8527
 7364SOL     OW33724   1.087   0.063  15.846  0.4245 -0.0984  0.1205
 7364SOL    HW133725   1.047   0.116  15.915 -0.0162 -1.8133  1.1789
 7364SOL    HW233726   1.130   0.129  15.791  2.3065 -1.1345  0.3415
 7365SOL     OW33727   4.569   4.680  12.031  0.1552  0.2304  0.4433
 7365SOL    HW133728   4.619   4.620  11.975  0.3757  3.3113 -2.6246
 7365SOL    HW233729   4.594   0.024  11.991 -3.8110  1.3462  0.2858
 7366SOL     OW33730   0.705   3.003   8.871  0.1169 -0.1081 -0.0350
 7366SOL    HW133731   0.730   3.073   8.931  0.7748 -1.5913  1.4209
 7366SOL    HW233732   0.758   3.019   8.792  0.9109  0.6903  0.6584
 7367SOL     OW33733   1.014   1.561  13.305  0.1817  0.1531  0.0434
 7367SOL    HW133734   0.975   1.545  13.391 -0.7665  1.2330 -0.1828
 7367SOL    HW233735   0.934   1.553  13.253 -0.4005  1.5236  0.7209
 7368SOL     OW33736   0.779   4.602   3.152 -0.0281  0.4806 -0.6622
 7368SOL    HW133737   0.775   4.570   3.061 -0.3697 -1.4185  0.0308
 7368SOL    HW233738   0.848   4.668   3.147  0.3055  0.2182  0.4527
 7369SOL     OW33739   0.144   3.498  13.551  0.0646  0.3597 -0.8100
 7369SOL    HW133740   0.204   3.429  13.578 -0.1921  0.0553 -1.0164
 7369SOL    HW233741   0.089   3.515  13.627  1.7441  0.2535  0.4332
 7370SOL     OW33742   0.567   1.085  11.528  0.7741  0.2301  0.3175
 7370SOL    HW133743   0.595   1.088  11.436  3.3212 -0.8363  1.0350
 7370SOL    HW233744   0.600   0.998  11.550  0.4363 -0.2252 -0.9735
 7371SOL     OW33745   2.691   1.487   4.770  0.1063  0.2884 -0.0263
 7371SOL    HW133746   2.745   1.412   4.796  1.6832  0.1847 -3.7002
 7371SOL    HW233747   2.631   1.477   4.844  1.1411 -0.3994  0.7153
 7372SOL     OW33748   2.537   3.363   5.784 -0.6884  0.0820 -0.3652
 7372SOL    HW133749   2.444   3.370   5.763 -0.7979  1.5709  0.6408
 7372SOL    HW233750   2.565   3.297   5.720  0.0666 -0.6155  0.6797
 7373SOL     OW33751   2.062   0.196  13.965 -0.1912 -0.1912  0.5145
 7373SOL    HW133752   2.125   0.149  14.020  0.0081 -0.0909  0.3755
 7373SOL    HW233753   2.073   0.278  14.015 -1.5577  0.5741 -0.4586
 7374SOL     OW33754   3.973   1.502   0.566  0.1905 -0.3978  0.2976
 7374SOL    HW133755   3.907   1.501   0.497  0.4255  0.7795  0.0495
 7374SOL    HW233756   4.004   1.417   0.534  2.5678  0.5895 -0.0096
 7375SOL     OW33757   2.719   0.206   5.736 -0.1285 -0.1625 -0.1577
 7375SOL    HW133758   2.647   0.152   5.768  0.3898 -0.5306  0.3844
 7375SOL    HW233759   2.705   0.288   5.783 -0.0322  0.1492 -0.6650
 7376SOL     OW33760   2.992   0.887   4.627  0.0879  0.2204  0.3749
 7376SOL    HW133761   2.961   0.913   4.714 -0.6579 -0.3282  0.2723
 7376SOL    HW233762   3.085   0.904   4.642 -0.3500  1.9986  1.1129
 7377SOL     OW33763   1.381   2.720   1.738 -0.0528  0.2661 -0.1127
 7377SOL    HW133764   1.398   2.649   1.677  0.9875 -0.6887  1.2724
 7377SOL    HW233765   1.371   2.790   1.674  0.1026 -1.6507 -2.2151
 7378SOL     OW33766   2.322   3.646   1.722  0.0424 -0.3481  0.9206
 7378SOL    HW133767   2.370   3.613   1.798  0.2338 -0.9411  0.5447
 7378SOL    HW233768   2.278   3.724   1.757 -0.3215  0.1512 -0.6420
 7379SOL     OW33769   0.728   1.591  14.913  0.0538  0.3710 -0.1476
 7379SOL    HW133770   0.690   1.675  14.938  0.5404  0.7876 -0.7938
 7379SOL    HW233771   0.705   1.602  14.821 -0.0325 -1.5363 -0.3605
 7380SOL     OW33772   3.589   1.034   3.757  0.0401  0.9505 -0.3400
 7380SOL    HW133773   3.677   1.004   3.781 -1.2123 -3.2748 -0.9351
 7380SOL    HW233774   3.570   0.982   3.679 -2.2104 -0.7511  1.3404
 7381SOL     OW33775   3.274   1.659  15.235  0.1900  0.4438 -0.1303
 7381SOL    HW133776   3.325   1.723  15.185  0.6811 -0.4769 -0.8071
 7381SOL    HW233777   3.224   1.620  15.163 -0.5570  0.5763  0.3222
 7382SOL     OW33778   3.974   0.599   2.281 -0.8136  0.0053 -0.2267
 7382SOL    HW133779   4.064   0.586   2.253 -0.5074  0.2791  0.6350
 7382SOL    HW233780   3.984   0.603   2.376  1.7754 -0.3068 -0.4973
 7383SOL     OW33781   3.201   2.928   5.671  0.0399 -0.0679 -0.1832
 7383SOL    HW133782   3.110   2.900   5.685  0.2446 -1.8022 -2.3485
 7383SOL    HW233783   3.234   2.860   5.613 -3.5052  0.5618 -2.9564
 7384SOL     OW33784   4.728   3.052   4.448  0.0407 -0.2752 -0.4326
 7384SOL    HW133785   0.081   3.072   4.433 -0.0584 -0.6605 -1.5137
 7384SOL    HW233786   4.715   2.960   4.424 -0.7802  0.1257 -1.5394
 7385SOL     OW33787   0.972   3.000   5.143  0.1745 -0.3305 -0.1347
 7385SOL    HW133788   0.914   2.987   5.069 -0.3703  1.4896 -0.0156
 7385SOL    HW233789   0.917   3.053   5.201  0.8977  0.4777 -0.1804
 7386SOL     OW33790   2.330   4.242   7.220 -0.6216 -0.0736  0.8882
 7386SOL    HW133791   2.319   4.148   7.231  2.2328 -0.7696 -2.4135
 7386SOL    HW233792   2.317   4.277   7.308 -1.4653 -2.7148  1.8184
 7387SOL     OW33793   0.723   0.302  14.819 -0.0296 -0.0834 -0.6076
 7387SOL    HW133794   0.743   0.209  14.815 -1.5795 -0.4063 -0.9635
 7387SOL    HW233795   0.657   0.313  14.751 -0.9503  0.6962  0.4144
 7388SOL     OW33796   2.699   2.938   8.087  0.2886  0.1854 -1.5790
 7388SOL    HW133797   2.717   2.934   7.993  1.2793 -1.0005 -1.3438
 7388SOL    HW233798   2.657   3.023   8.095 -0.6079 -0.2727 -1.3945
 7389SOL     OW33799   2.063   4.206   6.531 -0.0574  0.0760  1.1074
 7389SOL    HW133800   2.070   4.182   6.624 -2.3896  0.9790  1.5028
 7389SOL    HW233801   2.039   4.298   6.541 -1.4712 -0.2064  0.3065
 7390SOL     OW33802   1.808   4.194   8.400 -0.0438 -0.0415 -0.7995
 7390SOL    HW133803   1.890   4.173   8.446  0.9900  0.6270 -2.3419
 7390SOL    HW233804   1.805   4.132   8.327  0.0263  1.4003 -2.0063
 7391SOL     OW33805   1.083   4.023  10.009 -0.3641  0.0162 -0.4593
 7391SOL    HW133806   1.129   4.102   9.981  0.8340  0.1221  1.7880
 7391SOL    HW233807   1.060   4.044  10.100  0.9332  1.0410 -0.3775
 7392SOL     OW33808   1.338   3.840  14.830  0.2017 -0.1850 -0.2058
 7392SOL    HW133809   1.325   3.839  14.735 -2.1593  0.9674  0.1014
 7392SOL    HW233810   1.245   3.841  14.854 -0.1124 -3.3483 -1.2392
 7393SOL     OW33811   4.524   0.032  13.348 -0.2792  0.0757  0.0068
 7393SOL    HW133812   4.470   0.008  13.272 -1.2761 -0.5013  0.8934
 7393SOL    HW233813   4.601   4.714  13.347 -1.1446 -1.0995 -0.1622
 7394SOL     OW33814   0.273   3.473  12.301  0.2938  0.0624  0.3905
 7394SOL    HW133815   0.267   3.473  12.205  2.8449 -1.9316  0.2441
 7394SOL    HW233816   0.333   3.399  12.312  1.7671  1.2679  0.4721
 7395SOL     OW33817   4.295   3.862   7.847 -0.1637 -0.0011  0.1228
 7395SOL    HW133818   4.219   3.834   7.796 -1.7430  0.6633  2.1099
 7395SOL    HW233819   4.361   3.819   7.792  0.2610  1.5409 -0.5776
 7396SOL     OW33820   2.596   1.954   2.478  0.1419  0.5429  0.2302
 7396SOL    HW133821   2.581   2.048   2.490 -2.2911  0.4547 -2.1426
 7396SOL    HW233822   2.680   1.937   2.521  0.9814 -1.6262 -2.2524
 7397SOL     OW33823   2.605   0.834   8.036  0.3388  0.4036  0.1945
 7397SOL    HW133824   2.683   0.851   7.983  0.2858 -1.6294 -0.5165
 7397SOL    HW233825   2.537   0.866   7.977 -0.5307  0.9219  1.4542
 7398SOL     OW33826   0.651   0.829  11.381 -0.1317 -0.3102  0.1065
 7398SOL    HW133827   0.706   0.770  11.330 -1.2488  1.6036 -3.3272
 7398SOL    HW233828   0.694   0.914  11.369  0.2129 -0.6454 -1.0468
 7399SOL     OW33829   0.669   2.105  15.262  0.2694 -0.3851  0.0044
 7399SOL    HW133830   0.691   2.019  15.297  0.2923 -1.0500 -1.6720
 7399SOL    HW233831   0.663   2.090  15.168 -0.1496 -0.5937  0.0658
 7400SOL     OW33832   3.487   1.007  12.488  0.8918 -0.3124 -0.4963
 7400SOL    HW133833   3.406   0.999  12.539  0.3560  1.9581 -1.0163
 7400SOL    HW233834   3.515   1.096  12.508 -1.6744  0.1205  1.1910
 7401SOL     OW33835   2.415   0.692   1.124 -0.7448  0.0850  0.5616
 7401SOL    HW133836   2.337   0.719   1.173 -1.3650 -0.3596 -0.1917
 7401SOL    HW233837   2.371   0.672   1.042  0.7637  0.5577 -0.3571
 7402SOL     OW33838   0.222   0.417   8.628  0.1438  0.0845 -0.4652
 7402SOL    HW133839   0.199   0.490   8.570  2.8937  1.6276  0.3630
 7402SOL    HW233840   0.190   0.350   8.569  0.4851 -0.8326  0.3956
 7403SOL     OW33841   2.084   4.704   7.807 -0.2376  0.2247 -0.0515
 7403SOL    HW133842   2.114   0.057   7.810  0.9034 -0.1579 -0.0284
 7403SOL    HW233843   1.990   4.717   7.818  0.0413  0.4148  2.0615
 7404SOL     OW33844   1.732   4.129   4.462  0.0501 -0.1251  0.4601
 7404SOL    HW133845   1.641   4.137   4.433  0.7356  2.4767 -0.9012
 7404SOL    HW233846   1.774   4.086   4.388 -1.5214 -1.1726  0.1648
 7405SOL     OW33847   4.402   2.362   0.357 -0.1178 -0.3278 -0.2613
 7405SOL    HW133848   4.482   2.336   0.402 -0.1995  1.4667  0.8947
 7405SOL    HW233849   4.434   2.388   0.271 -1.9428  1.3601 -0.4409
 7406SOL     OW33850   0.736   0.044  14.747 -0.7109  0.0974 -0.0405
 7406SOL    HW133851   0.770   4.711  14.693 -1.2126 -1.3067  1.5195
 7406SOL    HW233852   0.680   4.736  14.809 -1.0164  1.5846  0.7922
 7407SOL     OW33853   4.196   1.384   1.409 -0.2391 -0.0676 -0.2808
 7407SOL    HW133854   4.164   1.329   1.338 -2.1157  0.6428  0.0068
 7407SOL    HW233855   4.284   1.359   1.439 -1.0579  0.1278  2.3020
 7408SOL     OW33856   0.329   3.387  17.651  0.2362 -0.3814 -0.4202
 7408SOL    HW133857   0.280   3.320  17.698 -0.1530 -0.7784 -1.3926
 7408SOL    HW233858   0.396   3.419  17.712 -1.8418  4.4997 -0.6784
 7409SOL     OW33859   2.340   2.988   9.098  0.7504  0.3879 -0.0770
 7409SOL    HW133860   2.433   2.968   9.104  0.6068  0.3890  2.0365
 7409SOL    HW233861   2.338   3.080   9.071 -3.0906  0.6501  1.0949
 7410SOL     OW33862   0.801   3.791   9.919  0.2165  0.1353 -0.3453
 7410SOL    HW133863   0.874   3.789   9.857  0.6361 -1.7819  0.2027
 7410SOL    HW233864   0.835   3.735   9.988 -0.0733 -1.5717 -1.5889
 7411SOL     OW33865   0.192   2.552   8.475  0.2962  0.4109  0.6303
 7411SOL    HW133866   0.167   2.459   8.473  1.5067  0.0181  2.7182
 7411SOL    HW233867   0.212   2.560   8.569  0.5219  2.0000  0.4453
 7412SOL     OW33868   1.187   1.359   2.550  0.4633 -0.1457  0.0993
 7412SOL    HW133869   1.102   1.318   2.536  0.1528  0.3654  0.4631
 7412SOL    HW233870   1.163   1.434   2.604  3.6768  1.8914 -1.2734
 7413SOL     OW33871   1.710   3.165   1.245  0.0284 -0.9236  0.1263
 7413SOL    HW133872   1.777   3.097   1.237  1.0336  0.1607 -0.7299
 7413SOL    HW233873   1.666   3.146   1.163  1.8961 -1.9247 -0.6229
 7414SOL     OW33874   3.824   0.992  17.489  0.2832  0.5513 -0.5517
 7414SOL    HW133875   3.745   0.986  17.542  0.7363  0.8829  0.1727
 7414SOL    HW233876   3.889   1.023  17.553  0.0112  0.5528 -0.2752
 7415SOL     OW33877   3.166   1.846   4.316  0.1472 -0.3147 -0.3479
 7415SOL    HW133878   3.230   1.781   4.343  1.0187  1.2343  1.2844
 7415SOL    HW233879   3.089   1.795   4.291  0.5707 -0.7438 -0.7668
 7416SOL     OW33880   2.189   4.082  12.291  0.4519 -0.0995  0.3973
 7416SOL    HW133881   2.217   4.121  12.208 -0.1150 -0.8025 -0.1274
 7416SOL    HW233882   2.181   4.162  12.342  0.8292  0.2784 -0.1322
 7417SOL     OW33883   1.190   1.283   8.782 -0.8343  0.3299 -0.3988
 7417SOL    HW133884   1.146   1.305   8.864  1.6612  0.0136  1.0266
 7417SOL    HW233885   1.254   1.354   8.788 -1.0208  0.3413  1.3306
 7418SOL     OW33886   3.693   2.644  13.794 -0.1749  0.1144 -0.4257
 7418SOL    HW133887   3.633   2.710  13.759 -1.1115  0.7859  2.4867
 7418SOL    HW233888   3.773   2.692  13.814 -2.6581  3.0187  2.3817
 7419SOL     OW33889   4.222   1.321   6.669 -0.5862  0.0749  0.0339
 7419SOL    HW133890   4.175   1.379   6.610 -4.0067 -3.1548 -0.4225
 7419SOL    HW233891   4.145   1.265   6.673 -0.9666  0.5371 -0.9075
 7420SOL     OW33892   1.115   2.186   1.192 -0.4841  0.2002 -0.0658
 7420SOL    HW133893   1.027   2.148   1.189  1.2057 -3.5634 -1.1507
 7420SOL    HW233894   1.088   2.274   1.167  2.8193  1.1522 -0.2419
 7421SOL     OW33895   1.999   0.092   9.838 -0.0919  0.0668  0.2595
 7421SOL    HW133896   2.030   0.002   9.852 -1.3869 -0.4580 -0.3142
 7421SOL    HW233897   1.911   0.062   9.861  0.6633 -1.2802  1.3673
 7422SOL     OW33898   3.441   2.373   8.411 -0.0723  0.0845  0.0070
 7422SOL    HW133899   3.481   2.451   8.449 -0.7436  0.7429 -0.6394
 7422SOL    HW233900   3.383   2.345   8.483  0.3717  2.5607  1.3094
 7423SOL     OW33901   2.262   2.311   6.894 -0.0665  0.2188  0.2482
 7423SOL    HW133902   2.229   2.350   6.813  0.1440  0.3596  0.2309
 7423SOL    HW233903   2.323   2.246   6.858 -0.7681 -0.5186  0.3870
 7424SOL     OW33904   4.206   0.749   4.790 -0.7162  0.2636 -0.6160
 7424SOL    HW133905   4.251   0.665   4.781  0.6013  1.0912 -1.6676
 7424SOL    HW233906   4.166   0.763   4.704 -0.9353 -0.6777 -0.6702
 7425SOL     OW33907   0.015   3.884   4.694 -0.3228 -0.2085  0.3213
 7425SOL    HW133908   4.691   3.836   4.748 -1.7764  1.1863 -0.1209
 7425SOL    HW233909   0.100   3.852   4.725  1.6952  1.8847 -3.0807
 7426SOL     OW33910   2.126   1.033   6.741  0.0477  0.7228  0.1571
 7426SOL    HW133911   2.221   1.032   6.731 -0.0744 -0.7579 -0.9200
 7426SOL    HW233912   2.108   0.950   6.696  3.1981 -0.5296  1.1666
 7427SOL     OW33913   1.533   2.563  11.982  0.3801 -0.0770 -0.3325
 7427SOL    HW133914   1.596   2.561  12.054  0.6176  4.1662 -0.4534
 7427SOL    HW233915   1.589   2.541  11.907  0.7489  0.4867 -0.2205
 7428SOL     OW33916   4.617   2.844   3.461  0.4148 -0.2335 -0.3168
 7428SOL    HW133917   4.614   2.816   3.370 -0.9403 -2.8927  0.5378
 7428SOL    HW233918   4.564   2.923   3.453 -2.6374 -2.4253 -1.9129
 7429SOL     OW33919   2.892   0.470   4.445 -0.1095  0.0668  0.2385
 7429SOL    HW133920   2.899   0.565   4.442 -2.6018  0.3077  1.5622
 7429SOL    HW233921   2.977   0.454   4.486 -0.2932 -1.5756 -0.0020
 7430SOL     OW33922   4.469   0.698   8.062 -0.0747  0.4024  0.3043
 7430SOL    HW133923   4.508   0.618   8.027  2.4347  1.1894  1.2865
 7430SOL    HW233924   4.384   0.660   8.084 -0.9967  1.4393 -1.5254
 7431SOL     OW33925   4.187   3.279   0.103  0.2645  0.0756 -0.4680
 7431SOL    HW133926   4.182   3.370   0.073 -1.0720 -0.5689 -2.2527
 7431SOL    HW233927   4.098   3.251   0.080  0.3374 -0.6287  0.1108
 7432SOL     OW33928   0.038   4.052  15.781  0.0724 -0.5426  0.2740
 7432SOL    HW133929   0.010   3.978  15.835 -1.8103  0.3897  0.5724
 7432SOL    HW233930   0.096   4.095  15.843  0.1957  0.4314 -0.5135
 7433SOL     OW33931   0.510   0.872   2.053  0.1037  0.0307 -0.2320
 7433SOL    HW133932   0.421   0.906   2.064  0.6041  0.9151  1.1066
 7433SOL    HW233933   0.531   0.934   1.984 -1.9444  0.6358 -0.3334
 7434SOL     OW33934   1.328   1.753  17.673 -0.0289  0.7081 -0.5564
 7434SOL    HW133935   1.261   1.811  17.709  1.1599  2.0656 -0.5324
 7434SOL    HW233936   1.401   1.767  17.734 -0.7452  0.4560  0.3517
 7435SOL     OW33937   3.737   0.964   7.670  0.2206 -0.1205 -0.5093
 7435SOL    HW133938   3.729   1.053   7.636 -0.4111  0.9900  2.5217
 7435SOL    HW233939   3.666   0.932   7.614 -0.1845 -0.2656  0.0864
 7436SOL     OW33940   2.521   2.034  16.400  0.0415 -0.0783  0.3087
 7436SOL    HW133941   2.547   2.028  16.308 -0.2933  1.4979  0.1125
 7436SOL    HW233942   2.526   1.940  16.420  0.5783  0.1033  1.0218
 7437SOL     OW33943   3.111   1.249  15.264 -0.2881 -0.1875 -0.3732
 7437SOL    HW133944   3.150   1.291  15.188 -1.6628 -0.0407 -0.9980
 7437SOL    HW233945   3.089   1.324  15.320  0.3099 -0.1503 -0.1848
 7438SOL     OW33946   0.962   3.663   8.308  0.3023 -0.2948  0.1136
 7438SOL    HW133947   0.969   3.747   8.261 -1.5457  0.4205  1.0958
 7438SOL    HW233948   0.927   3.605   8.240  0.3433 -0.8191  0.5410
 7439SOL     OW33949   4.158   1.397  16.842 -0.4192 -0.0692  0.5149
 7439SOL    HW133950   4.246   1.403  16.879 -0.1633 -1.8225  0.1889
 7439SOL    HW233951   4.150   1.469  16.779 -1.2423  1.5514  2.4781
 7440SOL     OW33952   0.034   0.560   2.144 -0.1266 -0.2309  0.7108
 7440SOL    HW133953   4.691   0.547   2.192 -0.2990 -2.1491 -0.1033
 7440SOL    HW233954   0.042   0.655   2.143 -0.9078 -0.1886 -1.2324
 7441SOL     OW33955   1.556   3.171   1.511 -0.1721  0.0560 -0.1446
 7441SOL    HW133956   1.554   3.266   1.525  2.1002 -0.2394  2.2956
 7441SOL    HW233957   1.624   3.146   1.573 -0.8620 -2.3434 -0.3636
 7442SOL     OW33958   1.918   3.965   4.275 -0.0358  0.4406  0.5341
 7442SOL    HW133959   2.013   3.972   4.262 -0.1737 -1.9925 -1.6814
 7442SOL    HW233960   1.896   3.879   4.240  2.5392  0.1947 -0.5178
 7443SOL     OW33961   2.193   1.422   9.037 -0.3696  0.2979  0.1197
 7443SOL    HW133962   2.142   1.501   9.051 -0.0526  0.4422  0.4789
 7443SOL    HW233963   2.237   1.407   9.121  2.6984  3.3817 -0.9313
 7444SOL     OW33964   3.617   1.082   5.659  0.1616  0.0598 -0.0481
 7444SOL    HW133965   3.527   1.064   5.632  0.8271 -2.2886 -0.6932
 7444SOL    HW233966   3.652   0.994   5.647  0.6330  0.1832  0.4385
 7445SOL     OW33967   2.185   4.344  16.229  0.2521 -0.4155 -0.0312
 7445SOL    HW133968   2.128   4.365  16.303 -0.5618  1.3713 -1.1455
 7445SOL    HW233969   2.141   4.270  16.188  2.0779 -0.3983 -1.9999
 7446SOL     OW33970   3.312   1.254  12.569 -0.0961  0.3527 -0.2116
 7446SOL    HW133971   3.395   1.260  12.616  0.4305  0.0585 -1.0957
 7446SOL    HW233972   3.273   1.181  12.616  3.3036 -0.8541  0.7167
 7447SOL     OW33973   3.725   1.464   6.154 -0.1370  0.0660 -0.6527
 7447SOL    HW133974   3.697   1.380   6.189  2.7661  0.5935  2.9591
 7447SOL    HW233975   3.696   1.467   6.062 -2.0776 -1.5474 -0.0990
 7448SOL     OW33976   1.016   1.161   9.973  0.1880  0.5147 -0.4009
 7448SOL    HW133977   1.049   1.095   9.913 -1.5829  0.3857 -1.2491
 7448SOL    HW233978   0.928   1.172   9.936  0.6580  1.5127 -1.1906
 7449SOL     OW33979   2.156   2.249   5.127 -0.4008 -0.1843  0.3953
 7449SOL    HW133980   2.155   2.188   5.201 -0.7867  1.1396  1.4753
 7449SOL    HW233981   2.118   2.323   5.174 -0.9483  0.2913 -0.7924
 7450SOL     OW33982   0.158   0.156   4.377 -0.3321  0.4233  0.2074
 7450SOL    HW133983   0.116   0.242   4.373  1.0224  1.0892  0.3658
 7450SOL    HW233984   0.085   0.103   4.408  0.6088 -1.4429 -0.7900
 7451SOL     OW33985   4.709   1.759   5.462 -0.2254 -0.1038 -0.0594
 7451SOL    HW133986   0.038   1.824   5.446 -0.0321 -0.0187  1.1056
 7451SOL    HW233987   4.630   1.809   5.478  0.8113  1.7057 -0.5622
 7452SOL     OW33988   3.336   2.142   1.058  1.1748 -0.5871  0.0848
 7452SOL    HW133989   3.423   2.104   1.062  0.3338 -2.1682  3.5599
 7452SOL    HW233990   3.324   2.147   0.963 -3.7589 -1.7526  0.6625
 7453SOL     OW33991   2.874   3.878   8.589  0.8044 -0.5629 -0.2529
 7453SOL    HW133992   2.782   3.860   8.573  0.2152  1.0358  1.3850
 7453SOL    HW233993   2.903   3.887   8.498  0.1109 -2.0538 -0.6214
 7454SOL     OW33994   4.648   0.904   1.575 -0.4506  0.0269 -0.1258
 7454SOL    HW133995   4.571   0.846   1.571  0.2899 -0.9427 -0.2128
 7454SOL    HW233996   4.662   0.916   1.481 -0.3972 -2.8496 -0.4864
 7455SOL     OW33997   3.929   1.329   8.005  0.3255  0.5956  0.0855
 7455SOL    HW133998   3.978   1.323   7.923  2.4444 -1.2697  1.5122
 7455SOL    HW233999   3.881   1.410   7.984  0.3274 -0.1041 -2.6671
 7456SOL     OW34000   2.289   3.098   3.693  0.3240 -0.1958  0.6931
 7456SOL    HW134001   2.325   3.167   3.639 -0.0734  0.1865  0.9206
 7456SOL    HW234002   2.267   3.028   3.631  1.1662  2.4874 -2.5779
 7457SOL     OW34003   0.046   1.716   8.630  0.3193  0.2628 -0.3984
 7457SOL    HW134004   4.709   1.660   8.644  0.2325  0.5151  0.1565
 7457SOL    HW234005   0.013   1.789   8.681  1.0725  0.9042 -0.8257
 7458SOL     OW34006   2.545   2.273   5.951 -0.1152  0.4144 -0.6566
 7458SOL    HW134007   2.568   2.320   6.031  0.6095 -0.6604 -0.2328
 7458SOL    HW234008   2.632   2.250   5.920 -0.0419 -1.1590  0.6683
 7459SOL     OW34009   0.812   3.452  14.286  0.3473 -0.3554 -0.1175
 7459SOL    HW134010   0.829   3.540  14.253  2.1900 -0.4731  0.5094
 7459SOL    HW234011   0.848   3.401  14.214  0.5668  0.9645 -0.9340
 7460SOL     OW34012   0.315   2.443   5.921  0.9610  0.0474  0.6394
 7460SOL    HW134013   0.318   2.391   6.001 -1.1935  0.6392  1.0943
 7460SOL    HW234014   0.225   2.421   5.897  1.6447 -2.3351  0.2290
 7461SOL     OW34015   0.987   4.736   1.053 -0.2547 -0.6696  0.3670
 7461SOL    HW134016   1.056   0.063   1.061 -0.6372 -0.1735 -0.3071
 7461SOL    HW234017   1.003   4.678   1.126  2.9123  1.3692  1.3088
 7462SOL     OW34018   0.133   4.609  16.540 -0.7462 -0.5332  0.3223
 7462SOL    HW134019   0.107   4.605  16.632 -1.2721 -1.0995  0.1515
 7462SOL    HW234020   0.054   4.578  16.495 -1.5665  0.9043  0.7730
 7463SOL     OW34021   1.627   3.395  17.282 -0.1483 -0.5549  0.0345
 7463SOL    HW134022   1.670   3.316  17.250  1.0514 -0.1997  0.7821
 7463SOL    HW234023   1.703   3.451  17.270 -0.0047 -1.5360 -3.5663
 7464SOL     OW34024   4.560   1.527   4.121  0.4979 -0.1902 -0.2428
 7464SOL    HW134025   4.540   1.433   4.113  2.6881 -0.6818 -0.0069
 7464SOL    HW234026   4.541   1.536   4.214  1.5815  1.9075 -0.2218
 7465SOL     OW34027   0.011   1.292   4.682 -0.6764 -0.6763 -0.3678
 7465SOL    HW134028   0.011   1.356   4.754 -0.8597 -1.5771  0.4353
 7465SOL    HW234029   4.657   1.276   4.668 -1.6303  2.2903  2.5312
 7466SOL     OW34030   3.876   0.539   8.932  0.8661 -0.4178  0.0973
 7466SOL    HW134031   3.847   0.459   8.976 -0.7164 -0.7401 -1.5652
 7466SOL    HW234032   3.927   0.493   8.865 -0.1572 -1.4345  0.0172
 7467SOL     OW34033   4.301   3.073  14.626  0.3708  0.1772 -0.3499
 7467SOL    HW134034   4.395   3.090  14.622  0.5467 -0.8184 -0.1673
 7467SOL    HW234035   4.274   3.106  14.712  1.0132  0.3718 -0.2195
 7468SOL     OW34036   3.133   4.459   3.415  0.0557 -0.5573 -0.0036
 7468SOL    HW134037   3.133   4.387   3.352  0.1608 -0.7819  0.2545
 7468SOL    HW234038   3.110   4.404   3.490  1.1949 -0.6127  0.3063
 7469SOL     OW34039   4.442   3.835   4.693 -0.6079 -0.2637  0.1836
 7469SOL    HW134040   4.371   3.894   4.717  0.1898  0.0198  1.8696
 7469SOL    HW234041   4.496   3.816   4.770  0.1228  0.0618 -0.2430
 7470SOL     OW34042   0.286   2.657   5.449  0.3436 -0.1540  0.2739
 7470SOL    HW134043   0.258   2.689   5.535 -0.9396 -0.3850 -0.0514
 7470SOL    HW234044   0.366   2.703   5.426 -1.0007  1.5600 -0.9388
 7471SOL     OW34045   3.721   4.042   9.147 -0.0210  0.2610 -0.4769
 7471SOL    HW134046   3.806   4.085   9.138 -0.0620  0.7879  1.6396
 7471SOL    HW234047   3.659   4.112   9.170 -1.7438 -1.3207 -0.3544
 7472SOL     OW34048   2.103   3.589  12.409  0.6907  0.0793  0.0665
 7472SOL    HW134049   2.083   3.574  12.501  1.1043 -0.4451  0.0691
 7472SOL    HW234050   2.122   3.681  12.423 -0.0530  0.2133  0.2237
 7473SOL     OW34051   2.123   1.452  16.448 -0.3632  0.1612  0.0080
 7473SOL    HW134052   2.198   1.392  16.448  1.1737  2.0670  0.4639
 7473SOL    HW234053   2.082   1.425  16.366 -1.5994  1.3469  0.2410
 7474SOL     OW34054   0.392   4.322   2.653  0.6780  0.3122 -0.4855
 7474SOL    HW134055   0.396   4.366   2.569  1.7381 -1.6149 -1.4574
 7474SOL    HW234056   0.426   4.384   2.717 -0.6227 -0.6657  1.1604
 7475SOL     OW34057   0.166   1.196  15.271 -0.1289  0.3436 -0.0647
 7475SOL    HW134058   0.134   1.126  15.214  2.3984 -0.1186 -0.9203
 7475SOL    HW234059   0.101   1.206  15.341 -0.1503 -2.4347  0.2956
 7476SOL     OW34060   1.457   0.227  15.782 -0.1686 -0.2691  0.1130
 7476SOL    HW134061   1.375   0.211  15.736 -0.6447  1.0111  0.5311
 7476SOL    HW234062   1.499   0.147  15.751 -1.1723 -0.3357 -1.0635
 7477SOL     OW34063   1.162   3.385  16.213 -0.0645 -0.1360  0.2003
 7477SOL    HW134064   1.107   3.362  16.139 -0.1597  2.0896 -0.4304
 7477SOL    HW234065   1.148   3.306  16.265  3.5783 -0.9280 -0.0273
 7478SOL     OW34066   2.217   0.272   9.776 -0.8280 -0.0614 -0.0931
 7478SOL    HW134067   2.146   0.218   9.810 -0.3142 -0.5304  0.2184
 7478SOL    HW234068   2.268   0.209   9.726 -0.5940  0.1961 -0.1785
 7479SOL     OW34069   3.000   1.187   5.972  0.1137 -0.0370 -1.0020
 7479SOL    HW134070   2.993   1.193   5.877 -0.8516  0.8892 -0.8734
 7479SOL    HW234071   3.000   1.092   5.981 -1.6931  0.1087  0.4405
 7480SOL     OW34072   4.493   1.991   0.299  0.5137  0.5285 -0.4248
 7480SOL    HW134073   4.442   1.911   0.289 -1.1305  1.2190  2.3648
 7480SOL    HW234074   4.570   1.964   0.350  0.9670  2.3950 -0.0864
 7481SOL     OW34075   4.120   2.782   5.451 -0.4327  0.4170  0.0281
 7481SOL    HW134076   4.049   2.722   5.476  0.0382 -0.5305 -0.9240
 7481SOL    HW234077   4.064   2.848   5.408 -0.7866 -1.0611 -1.7871
 7482SOL     OW34078   2.733   4.169   4.373 -0.8340 -0.3535 -0.1493
 7482SOL    HW134079   2.721   4.119   4.454 -0.1606 -0.5051 -0.1416
 7482SOL    HW234080   2.728   4.097   4.310 -1.2529  0.4920 -1.0793
 7483SOL     OW34081   3.073   4.274   5.361  0.0583 -0.0939  0.2570
 7483SOL    HW134082   3.118   4.248   5.280  0.3195 -0.1545  0.4205
 7483SOL    HW234083   3.133   4.241   5.428  0.5550 -0.8631 -0.5614
 7484SOL     OW34084   1.320   1.064  11.660  0.6575 -0.3566  0.7409
 7484SOL    HW134085   1.342   1.155  11.641 -2.0225  0.3635  1.1077
 7484SOL    HW234086   1.403   1.016  11.651 -0.3493 -1.9758  0.1452
 7485SOL     OW34087   1.658   0.694   6.469  0.4724  0.2728  0.3948
 7485SOL    HW134088   1.707   0.620   6.503 -1.2374 -1.4598 -0.9448
 7485SOL    HW234089   1.646   0.676   6.375 -2.5844  1.0478  0.6233
 7486SOL     OW34090   3.626   0.919  16.495 -0.2251 -0.2678  0.1657
 7486SOL    HW134091   3.543   0.952  16.531 -1.0653  0.1144 -2.1028
 7486SOL    HW234092   3.643   0.992  16.435 -1.2274 -0.2448 -0.0899
 7487SOL     OW34093   2.542   3.616  11.193 -0.3955 -0.6406  0.4851
 7487SOL    HW134094   2.503   3.644  11.275  1.5979  0.1625  1.1561
 7487SOL    HW234095   2.623   3.581  11.231 -0.8316 -2.9436 -0.6988
 7488SOL     OW34096   1.070   2.139   7.922  0.3410 -0.4663 -0.0481
 7488SOL    HW134097   1.097   2.112   8.010 -0.2549 -2.8139 -0.6047
 7488SOL    HW234098   1.047   2.230   7.944  2.2828 -0.2809  1.2413
 7489SOL     OW34099   2.250   2.427   0.288 -0.1416  0.0769 -0.2296
 7489SOL    HW134100   2.258   2.460   0.198  1.1116 -1.9156 -0.8545
 7489SOL    HW234101   2.248   2.502   0.347 -1.4873  1.0884 -1.5803
 7490SOL     OW34102   4.161   3.340   4.099 -0.5060 -0.6955 -0.0598
 7490SOL    HW134103   4.077   3.384   4.083  0.1084  0.3878 -0.2865
 7490SOL    HW234104   4.196   3.408   4.157 -0.4990 -2.5962  2.1471
 7491SOL     OW34105   0.743   4.600   1.742  0.2775 -0.4558 -0.2873
 7491SOL    HW134106   0.654   4.632   1.731  0.0809 -0.6683  0.6481
 7491SOL    HW234107   0.729   4.506   1.751 -1.8252 -0.0607  0.4589
 7492SOL     OW34108   1.746   3.969   8.916 -0.1344 -0.1937  0.3188
 7492SOL    HW134109   1.747   3.951   8.822  0.7148 -0.6089  0.4059
 7492SOL    HW234110   1.731   4.063   8.911  0.5277 -0.0157  1.6842
 7493SOL     OW34111   3.030   3.414   0.433 -0.0216  0.9462 -0.2780
 7493SOL    HW134112   2.944   3.372   0.431 -0.5836  1.8646  2.8653
 7493SOL    HW234113   3.075   3.363   0.366 -0.3610  2.2371 -1.5012
 7494SOL     OW34114   1.401   3.513   7.507 -0.5439 -0.3755  0.3547
 7494SOL    HW134115   1.419   3.441   7.446 -1.7185 -1.1910  0.9796
 7494SOL    HW234116   1.456   3.581   7.467  1.1582 -1.9237  0.0347
 7495SOL     OW34117   2.186   2.497   6.655 -0.6526 -0.4275  0.6151
 7495SOL    HW134118   2.122   2.557   6.692  0.5235  1.8798 -1.1176
 7495SOL    HW234119   2.139   2.462   6.578 -0.5585 -0.8674  0.7564
 7496SOL     OW34120   0.502   1.167   5.553  0.0513 -0.1355  0.2774
 7496SOL    HW134121   0.551   1.217   5.488 -0.2559  1.2203  1.0873
 7496SOL    HW234122   0.477   1.233   5.617 -0.2339  0.1637 -0.1469
 7497SOL     OW34123   1.139   3.199  12.859 -0.1573 -0.0844 -0.3391
 7497SOL    HW134124   1.137   3.181  12.765  0.9231 -2.2814  0.0803
 7497SOL    HW234125   1.213   3.147  12.891 -1.9649 -2.2715  0.2855
 7498SOL     OW34126   4.556   2.827   3.192  0.2040  0.0611 -0.7291
 7498SOL    HW134127   4.462   2.813   3.190  0.1969 -0.0357  0.1746
 7498SOL    HW234128   4.573   2.866   3.106 -3.0777  0.3634 -1.2140
 7499SOL     OW34129   1.193   1.389   5.733  0.0221 -0.4222  0.5008
 7499SOL    HW134130   1.183   1.483   5.749  1.1254 -0.3132  0.5741
 7499SOL    HW234131   1.260   1.398   5.664 -0.5477 -0.4221 -0.0584
 7500SOL     OW34132   1.678   1.255  11.701 -0.1233 -0.1239 -0.0267
 7500SOL    HW134133   1.726   1.176  11.675  1.1888 -0.1037  2.3840
 7500SOL    HW234134   1.669   1.246  11.795 -0.1314 -0.3532 -0.0497
 7501SOL     OW34135   1.966   4.201   5.606  0.2279 -0.6790 -0.5937
 7501SOL    HW134136   1.939   4.293   5.597 -0.3087 -0.7585  0.2530
 7501SOL    HW234137   1.909   4.163   5.540 -0.0488  1.1941 -1.4324
 7502SOL     OW34138   0.623   2.966  14.041 -0.4744 -0.0196  0.1815
 7502SOL    HW134139   0.687   2.979  14.111  1.4387 -1.5393 -1.2739
 7502SOL    HW234140   0.551   3.019  14.074 -0.9120  0.8960 -2.2640
 7503SOL     OW34141   1.180   0.477   7.670  0.1969  0.6505 -0.4129
 7503SOL    HW134142   1.162   0.514   7.756  1.6625 -3.2274  1.5588
 7503SOL    HW234143   1.231   0.543   7.623  1.0400 -0.5831 -1.2197
 7504SOL     OW34144   3.232   2.755  14.705  0.0433  0.4528 -0.8008
 7504SOL    HW134145   3.302   2.785  14.647  0.9010  2.0614  1.0494
 7504SOL    HW234146   3.281   2.720  14.779 -1.2901  1.1457  0.4055
 7505SOL     OW34147   0.351   2.608  17.418  0.0246 -0.2577 -0.5108
 7505SOL    HW134148   0.275   2.654  17.384 -0.8383  0.0506  1.8398
 7505SOL    HW234149   0.367   2.545  17.347 -1.4136 -0.2735 -0.8230
 7506SOL     OW34150   3.657   1.759   5.777 -0.4298  0.1054 -0.3097
 7506SOL    HW134151   3.738   1.764   5.828 -1.9133  0.1625  2.0469
 7506SOL    HW234152   3.666   1.815   5.700  1.3924  0.3870  0.1116
 7507SOL     OW34153   2.295   2.341   6.319  0.2549 -0.1741  0.3837
 7507SOL    HW134154   2.272   2.264   6.371  2.1736 -1.2722 -0.3963
 7507SOL    HW234155   2.269   2.311   6.232  0.8842  0.6548 -0.0901
 7508SOL     OW34156   3.636   3.986  11.331 -0.1136  0.5056 -0.1289
 7508SOL    HW134157   3.688   3.907  11.347 -2.5076 -1.2872 -1.1136
 7508SOL    HW234158   3.563   3.967  11.390  2.1092 -0.6970  2.2233
 7509SOL     OW34159   1.746   1.141   5.669  0.0797  0.8896  0.0490
 7509SOL    HW134160   1.712   1.142   5.759  0.1487 -1.2367  0.1089
 7509SOL    HW234161   1.728   1.054   5.633 -1.4600  2.1967 -2.3399
 7510SOL     OW34162   4.484   3.106   8.266 -0.4750 -0.2821 -0.2004
 7510SOL    HW134163   4.466   3.196   8.293 -1.3224 -0.5782  0.2145
 7510SOL    HW234164   4.464   3.116   8.173 -1.2512  1.7046  0.1893
 7511SOL     OW34165   4.696   0.899  15.506  0.2457  0.0250 -0.7645
 7511SOL    HW134166   0.018   0.959  15.549  1.2925 -0.5418 -1.4542
 7511SOL    HW234167   4.670   0.830  15.567 -1.0597  1.0301 -0.1714
 7512SOL     OW34168   2.878   3.739   0.057 -0.0320 -1.2845  0.1495
 7512SOL    HW134169   2.789   3.762   0.032 -0.1083 -1.5415  0.1806
 7512SOL    HW234170   2.905   3.663   0.005  2.2913  0.1369 -0.7398
 7513SOL     OW34171   2.473   2.374   2.488 -0.2396 -0.2634  0.0173
 7513SOL    HW134172   2.397   2.355   2.433 -0.9288  1.2469  0.4274
 7513SOL    HW234173   2.538   2.316   2.449 -0.2027  0.6880 -1.3508
 7514SOL     OW34174   0.688   0.461   4.569 -0.6431  0.1969  0.1437
 7514SOL    HW134175   0.677   0.552   4.598 -0.5268  0.0867  0.5380
 7514SOL    HW234176   0.778   0.455   4.603  0.0017 -1.4984 -1.8604
 7515SOL     OW34177   0.580   0.333   7.834  0.5985 -0.3878 -0.0565
 7515SOL    HW134178   0.494   0.292   7.824  0.0682  0.7718 -0.3561
 7515SOL    HW234179   0.627   0.300   7.758  2.6335 -0.9306  1.4534
 7516SOL     OW34180   4.057   2.314   1.577  0.5479 -0.4661 -0.1630
 7516SOL    HW134181   3.999   2.325   1.502 -0.2524 -0.6607  0.4260
 7516SOL    HW234182   3.991   2.273   1.634  1.7143 -0.9732  0.8377
 7517SOL     OW34183   3.211   4.730   6.143 -0.0692 -0.0004  0.2847
 7517SOL    HW134184   3.232   4.733   6.236  0.1020  0.9522  0.2118
 7517SOL    HW234185   3.296   4.707   6.106 -0.2503  1.2418 -0.8993
 7518SOL     OW34186   2.187   1.772   2.409  0.2330 -0.4022 -0.7094
 7518SOL    HW134187   2.265   1.824   2.385  0.4002 -0.5801 -0.5491
 7518SOL    HW234188   2.125   1.792   2.339  1.1669  1.3604 -1.0389
 7519SOL     OW34189   4.691   3.174   0.457 -0.0941  0.3443 -0.0011
 7519SOL    HW134190   4.656   3.234   0.391 -2.1964 -0.6285  0.2209
 7519SOL    HW234191   0.046   3.191   0.453 -0.2291  0.5936 -1.9765
 7520SOL     OW34192   4.550   2.619   7.580  0.4363  0.1447  0.0317
 7520SOL    HW134193   4.583   2.709   7.581  0.1556  0.2679 -0.9895
 7520SOL    HW234194   4.630   2.568   7.566 -0.3071 -0.8158 -0.6835
 7521SOL     OW34195   1.052   0.767   7.328  0.0877 -0.4297 -0.4746
 7521SOL    HW134196   1.050   0.791   7.421  0.6070 -0.5778 -0.4242
 7521SOL    HW234197   0.957   0.769   7.320  0.1101 -1.0325 -0.8867
 7522SOL     OW34198   1.152   0.599   1.906  0.6362  0.1053 -0.1086
 7522SOL    HW134199   1.063   0.568   1.890  0.4753  1.0210 -0.9530
 7522SOL    HW234200   1.209   0.523   1.896 -0.0449 -0.1496 -2.1208
 7523SOL     OW34201   0.886   1.258   6.240 -0.1732  0.5356 -0.6841
 7523SOL    HW134202   0.933   1.278   6.321  0.2018  0.0436 -0.7811
 7523SOL    HW234203   0.938   1.289   6.166  2.6345 -3.7307 -0.4939
 7524SOL     OW34204   2.770   2.084   3.915 -0.5485 -0.0249 -0.2094
 7524SOL    HW134205   2.806   2.023   3.979  1.8184 -0.2087 -1.7003
 7524SOL    HW234206   2.675   2.086   3.918 -0.5323 -1.5081  1.1082
 7525SOL     OW34207   3.682   1.409   3.974  0.3012 -0.2899  0.3513
 7525SOL    HW134208   3.626   1.375   3.904 -2.3714  2.6115  1.0332
 7525SOL    HW234209   3.695   1.500   3.948  1.7228 -0.6456 -0.1717
 7526SOL     OW34210   1.599   0.684  16.390  0.1202 -0.1266  0.2929
 7526SOL    HW134211   1.682   0.700  16.346 -0.3426 -1.1394 -0.9436
 7526SOL    HW234212   1.605   0.595  16.423  0.8395 -1.0562 -2.3116
 7527SOL     OW34213   0.141   2.740  17.333 -0.5282 -0.5048  0.0718
 7527SOL    HW134214   0.144   2.834  17.348 -0.6741 -0.4154 -0.4882
 7527SOL    HW234215   0.053   2.718  17.364 -0.7996  1.5848  0.8083
 7528SOL     OW34216   0.044   3.698   7.173 -0.3331  0.6467  0.5951
 7528SOL    HW134217   0.126   3.689   7.124 -0.8814 -0.5781 -0.1009
 7528SOL    HW234218   0.040   3.616   7.222  0.4709  0.7938  0.9099
 7529SOL     OW34219   0.115   2.673   2.607  0.2563  0.0205  0.4298
 7529SOL    HW134220   0.130   2.767   2.618  0.0854  0.1240 -0.2499
 7529SOL    HW234221   0.164   2.656   2.527  2.0252 -1.6050  1.8386
 7530SOL     OW34222   0.431   4.512   7.598  0.4088  0.2060  0.5901
 7530SOL    HW134223   0.494   4.578   7.628 -2.2620  2.8482  0.4307
 7530SOL    HW234224   0.484   4.476   7.526  1.1513  1.2565  0.6087
 7531SOL     OW34225   2.538   1.349  15.383  0.1766 -0.2242 -0.2109
 7531SOL    HW134226   2.595   1.389  15.317 -2.0325  3.1892  0.0036
 7531SOL    HW234227   2.575   1.378  15.466 -0.7233  0.7768 -0.1657
 7532SOL     OW34228   0.084   1.875   6.845 -0.3363 -0.2327  0.2140
 7532SOL    HW134229   0.035   1.800   6.812 -2.1463  1.2721 -0.4988
 7532SOL    HW234230   0.156   1.885   6.783 -0.0193 -0.2260  0.5816
 7533SOL     OW34231   3.444   3.673  12.323 -0.0591  0.3966 -0.3667
 7533SOL    HW134232   3.360   3.717  12.309 -0.2653 -0.3890 -1.5670
 7533SOL    HW234233   3.475   3.672  12.233  0.4500 -0.5250 -0.1816
 7534SOL     OW34234   2.513   0.446   9.461  0.5134 -0.1586  0.2240
 7534SOL    HW134235   2.559   0.401   9.390 -1.9012 -2.2161 -0.0201
 7534SOL    HW234236   2.489   0.522   9.409  0.8569 -2.1908 -2.8963
 7535SOL     OW34237   1.490   2.165  16.893  0.1901 -0.7115 -0.0839
 7535SOL    HW134238   1.504   2.071  16.881 -0.2552 -0.9115  0.9878
 7535SOL    HW234239   1.449   2.196  16.811 -2.0155  1.0665  1.6604
 7536SOL     OW34240   1.457   2.308  15.168  0.4017  0.2651 -0.1462
 7536SOL    HW134241   1.532   2.356  15.204 -0.6440  1.8150 -0.0588
 7536SOL    HW234242   1.445   2.254  15.246 -0.0124  2.0792  1.0452
 7537SOL     OW34243   2.602   2.138  10.350  0.5071  0.8313 -0.1294
 7537SOL    HW134244   2.562   2.059  10.384  0.0428  1.6003  1.0800
 7537SOL    HW234245   2.520   2.181  10.326 -0.2086 -0.7553 -0.5545
 7538SOL     OW34246   0.893   1.739   8.342 -0.4265 -0.5190  0.1117
 7538SOL    HW134247   0.965   1.691   8.301 -0.5846 -0.2327 -0.5046
 7538SOL    HW234248   0.923   1.725   8.431 -0.0654  0.5465  0.1578
 7539SOL     OW34249   0.874   2.973   2.070 -0.4516 -0.2011 -0.5653
 7539SOL    HW134250   0.874   2.881   2.044  0.1799 -0.2065 -0.5547
 7539SOL    HW234251   0.783   2.983   2.099 -0.4150  2.1172 -1.2442
 7540SOL     OW34252   4.412   2.887   2.008 -0.2817  0.1249  0.4817
 7540SOL    HW134253   4.445   2.871   1.920 -0.9740 -2.0725  0.6200
 7540SOL    HW234254   4.483   2.850   2.060 -0.3559  0.6137  0.9254
 7541SOL     OW34255   0.601   2.460   0.591  0.3649 -0.5001 -0.3136
 7541SOL    HW134256   0.558   2.468   0.506  0.3495  1.5950 -0.1117
 7541SOL    HW234257   0.533   2.465   0.657 -0.2278 -0.7409 -0.9024
 7542SOL     OW34258   0.038   2.537   0.560  0.0753  0.1479 -0.8378
 7542SOL    HW134259   0.003   2.605   0.503  1.7669 -0.4348 -2.5590
 7542SOL    HW234260   0.097   2.581   0.622  0.2372  2.0117 -2.3308
 7543SOL     OW34261   1.406   0.839   2.866  0.0891 -0.0457 -0.7128
 7543SOL    HW134262   1.403   0.931   2.840 -1.6839 -0.1114 -0.7413
 7543SOL    HW234263   1.496   0.823   2.893  0.5822  3.4956 -0.3049
 7544SOL     OW34264   1.515   4.334  16.313 -0.0686  0.1624  0.3265
 7544SOL    HW134265   1.506   4.239  16.305 -0.3322  0.2828 -0.7548
 7544SOL    HW234266   1.607   4.356  16.297 -0.0357 -1.5775 -1.8701
 7545SOL     OW34267   3.604   3.590   2.041 -0.5276 -0.2428 -0.2769
 7545SOL    HW134268   3.685   3.562   2.000  0.0443  0.2481  0.5111
 7545SOL    HW234269   3.537   3.550   1.986 -0.1505 -0.0395 -0.8741
 7546SOL     OW34270   4.652   4.176   4.081  0.0590 -0.5100 -0.0591
 7546SOL    HW134271   4.728   4.161   4.137 -1.8657  1.1296  3.0090
 7546SOL    HW234272   4.662   4.123   4.002  2.9058  0.0037 -0.0395
 7547SOL     OW34273   2.583   0.038   8.428  0.1511 -0.2469 -0.5122
 7547SOL    HW134274   2.583   0.113   8.487  2.2724  0.7437 -1.7706
 7547SOL    HW234275   2.646   0.073   8.365 -0.2509  2.0253  0.3802
 7548SOL     OW34276   2.646   2.181   1.690 -0.3457 -0.0298 -0.1828
 7548SOL    HW134277   2.673   2.208   1.602  0.6778 -1.5413 -0.3365
 7548SOL    HW234278   2.567   2.234   1.703  0.7103  1.6341 -0.5491
 7549SOL     OW34279   0.677   1.115   3.081  0.0727 -0.8065  0.2139
 7549SOL    HW134280   0.606   1.071   3.128  1.1857 -0.6477  2.0669
 7549SOL    HW234281   0.749   1.056   3.104  0.8897  0.6502  1.4206
 7550SOL     OW34282   2.132   2.942   9.231 -0.6177 -0.5737 -0.2811
 7550SOL    HW134283   2.075   3.013   9.201  1.1753  0.5925 -1.0022
 7550SOL    HW234284   2.215   2.963   9.187  0.4675 -1.8784  1.1557
 7551SOL     OW34285   4.228   4.142   1.627 -0.0310 -0.1663 -0.2478
 7551SOL    HW134286   4.271   4.206   1.683 -0.3668 -0.1266 -0.0359
 7551SOL    HW234287   4.282   4.129   1.549 -0.2810 -1.8135 -0.1460
 7552SOL     OW34288   1.945   2.567   5.454  0.5164  0.1452 -0.5296
 7552SOL    HW134289   1.870   2.558   5.512 -0.2087  2.6818 -1.0557
 7552SOL    HW234290   1.993   2.487   5.474  0.3649  0.1569 -0.1259
 7553SOL     OW34291   3.771   3.799   6.782 -0.1153  0.0877 -0.6458
 7553SOL    HW134292   3.771   3.878   6.729  0.5462  1.1895  1.0116
 7553SOL    HW234293   3.830   3.743   6.731  0.0203 -1.2737  0.9650
 7554SOL     OW34294   0.693   3.947  15.229  0.2859 -0.0427 -0.5242
 7554SOL    HW134295   0.750   3.910  15.161  1.1069  2.7968 -1.3547
 7554SOL    HW234296   0.725   4.037  15.228  1.2271 -0.3725  0.3827
 7555SOL     OW34297   0.267   3.735   4.471  1.0213 -0.3191 -0.1906
 7555SOL    HW134298   0.349   3.780   4.450  0.6915 -0.0120 -0.8471
 7555SOL    HW234299   0.240   3.772   4.555 -0.2378  0.0159 -0.7372
 7556SOL     OW34300   1.890   4.593   2.748 -0.1478  0.3027  0.0382
 7556SOL    HW134301   1.845   4.597   2.832 -0.0128 -0.3847  0.1485
 7556SOL    HW234302   1.912   4.685   2.734 -1.9313  0.7622  0.2479
 7557SOL     OW34303   4.468   0.840   3.816 -0.0065 -0.1647 -0.0214
 7557SOL    HW134304   4.386   0.799   3.843  0.4107  0.5083  2.2730
 7557SOL    HW234305   4.443   0.876   3.731  1.7461 -1.3025 -1.0076
 7558SOL     OW34306   1.773   3.606   9.758  0.0387  0.1366 -0.2323
 7558SOL    HW134307   1.747   3.698   9.755 -0.9287 -0.1545 -0.7713
 7558SOL    HW234308   1.863   3.610   9.726  0.4675 -1.3883  0.7874
 7559SOL     OW34309   2.214   1.523   7.485  0.8312 -0.0483  0.0720
 7559SOL    HW134310   2.206   1.565   7.571  0.5719 -3.0010  1.4784
 7559SOL    HW234311   2.254   1.443   7.519  1.4253  0.1476 -0.1689
 7560SOL     OW34312   0.567   1.731   6.286  0.3355  0.1928  0.7231
 7560SOL    HW134313   0.644   1.691   6.325  0.5074  1.7613  1.9918
 7560SOL    HW234314   0.506   1.659   6.302  0.6702 -0.3361 -0.3538
 7561SOL     OW34315   0.658   1.597   1.477 -0.0572  0.8775 -0.1851
 7561SOL    HW134316   0.722   1.637   1.536 -0.5009  2.2681 -0.6336
 7561SOL    HW234317   0.578   1.627   1.520 -0.8292  2.2811 -2.5811
 7562SOL     OW34318   2.767   3.680   5.806  0.0742  0.1593 -0.1105
 7562SOL    HW134319   2.733   3.592   5.827  0.6972 -0.3240 -1.1349
 7562SOL    HW234320   2.720   3.739   5.865  0.9733 -0.0517  0.8157
 7563SOL     OW34321   4.501   1.499   2.709 -0.1719 -0.1400 -0.3762
 7563SOL    HW134322   4.506   1.546   2.626 -0.0234 -0.0755 -0.3317
 7563SOL    HW234323   4.534   1.568   2.768  0.0881  1.5379 -2.4794
 7564SOL     OW34324   2.941   1.590   7.155 -0.0120 -0.5259  0.2321
 7564SOL    HW134325   2.896   1.664   7.196 -0.1113  0.4016 -1.5227
 7564SOL    HW234326   3.012   1.649   7.130 -1.4718  0.6468 -1.2031
 7565SOL     OW34327   1.243   0.451   8.218 -0.7664 -0.1337  0.1119
 7565SOL    HW134328   1.201   0.530   8.251  2.6414  1.5055  0.5134
 7565SOL    HW234329   1.312   0.486   8.162 -3.3207  1.6826 -1.8832
 7566SOL     OW34330   0.688   0.360   4.310  0.5132  0.3887  0.6034
 7566SOL    HW134331   0.694   0.396   4.399 -1.2026  0.3302  0.7375
 7566SOL    HW234332   0.598   0.330   4.306  1.0887 -1.3188  0.2761
 7567SOL     OW34333   3.396   0.249   1.061  0.2688  0.7970  0.5469
 7567SOL    HW134334   3.407   0.297   1.144  1.0374  0.9595  0.3533
 7567SOL    HW234335   3.343   0.176   1.092  0.2562 -0.1729 -1.7571
 7568SOL     OW34336   0.018   0.068  13.923  0.2941 -0.3619  0.0955
 7568SOL    HW134337   0.082   0.097  13.858 -0.3387  0.9237  0.0473
 7568SOL    HW234338   4.716   4.734  13.875  1.1975  1.4127 -3.3495
 7569SOL     OW34339   4.605   3.058   2.833 -0.2638 -0.2959 -0.2328
 7569SOL    HW134340   4.640   2.968   2.832  1.2130  0.2673  0.1390
 7569SOL    HW234341   4.684   3.103   2.802  0.9185 -1.3306  1.2348
 7570SOL     OW34342   0.022   0.963   7.743  1.0771  0.1836  0.3471
 7570SOL    HW134343   0.085   0.936   7.809  0.9831  2.4497  1.3448
 7570SOL    HW234344   0.063   1.045   7.718 -0.5515  0.2025 -2.3508
 7571SOL     OW34345   3.265   4.006   7.227 -0.2108  0.3809 -0.1111
 7571SOL    HW134346   3.178   3.975   7.253  0.1730 -0.0204  0.6860
 7571SOL    HW234347   3.304   3.928   7.186 -0.2044  1.4785 -2.2108
 7572SOL     OW34348   0.685   3.159   6.496  0.2301 -0.1097  0.1590
 7572SOL    HW134349   0.635   3.235   6.524  2.1526  1.1673  0.1236
 7572SOL    HW234350   0.657   3.165   6.405 -0.9190 -0.5542  0.4723
 7573SOL     OW34351   3.272   4.255  10.385  0.1740  0.8950 -0.7337
 7573SOL    HW134352   3.325   4.201  10.444 -0.0417  0.8190 -0.6106
 7573SOL    HW234353   3.306   4.340  10.410 -0.9868  0.8981  0.8138
 7574SOL     OW34354   3.817   3.471  13.501 -0.0957  0.3331 -0.0788
 7574SOL    HW134355   3.871   3.540  13.462 -1.6975  1.3947 -0.4450
 7574SOL    HW234356   3.752   3.462  13.432 -2.2359 -1.1351  2.1478
 7575SOL     OW34357   1.145   1.912   0.007 -0.0143  0.8033 -0.3243
 7575SOL    HW134358   1.102   1.878   0.085 -0.2529  1.6959 -0.0750
 7575SOL    HW234359   1.091   1.989  17.745 -1.3596 -0.0418  0.1997
 7576SOL     OW34360   3.051   0.169  12.904 -0.4680  0.3858  0.2798
 7576SOL    HW134361   3.019   0.241  12.849 -2.3238 -0.7591 -0.1715
 7576SOL    HW234362   3.146   0.172  12.903 -0.4111 -1.2663  0.9786
 7577SOL     OW34363   1.455   3.468   5.884  0.1383 -1.0406 -0.4323
 7577SOL    HW134364   1.513   3.488   5.957 -0.2725  0.8418 -0.6265
 7577SOL    HW234365   1.517   3.477   5.811  1.9945 -1.6074  1.0826
 7578SOL     OW34366   1.610   4.422   8.993 -0.2160 -0.3880 -0.4318
 7578SOL    HW134367   1.617   4.516   8.978  0.9719 -0.4736 -0.4347
 7578SOL    HW234368   1.686   4.384   8.949  0.5501 -0.7468  1.1767
 7579SOL     OW34369   1.075   2.276   2.271  0.1796 -0.0717  0.1335
 7579SOL    HW134370   1.088   2.368   2.250 -0.6602 -0.0024 -0.0628
 7579SOL    HW234371   1.104   2.243   2.186 -0.3755  0.4921 -0.2686
 7580SOL     OW34372   4.564   1.321   2.943  0.3359  0.3552 -0.4987
 7580SOL    HW134373   4.651   1.356   2.960 -0.1512  0.2212  2.2472
 7580SOL    HW234374   4.535   1.356   2.859  1.0720 -1.0030 -1.3076
 7581SOL     OW34375   3.324   3.905  13.971 -0.0003  0.8374  0.5033
 7581SOL    HW134376   3.404   3.882  13.923 -1.2795  1.8619 -2.0951
 7581SOL    HW234377   3.260   3.910  13.901  0.0886 -0.3796  0.3212
 7582SOL     OW34378   0.950   1.187   2.500 -0.5402  0.3272 -0.2642
 7582SOL    HW134379   0.863   1.208   2.467 -0.2793  0.1694 -1.0656
 7582SOL    HW234380   0.994   1.153   2.422 -1.7199  0.6397 -1.0578
 7583SOL     OW34381   2.005   2.328   3.853 -0.8252  0.2225  0.2296
 7583SOL    HW134382   1.930   2.271   3.870 -0.2715 -0.4752  0.2918
 7583SOL    HW234383   1.966   2.414   3.872 -3.0871 -0.8239  0.3613
 7584SOL     OW34384   4.242   1.348   2.729  0.1781 -1.0828  0.3645
 7584SOL    HW134385   4.210   1.417   2.788 -0.9038 -1.3230  0.0629
 7584SOL    HW234386   4.334   1.367   2.708  0.4615 -1.2641  1.4629
 7585SOL     OW34387   4.067   1.527   0.131  0.3921 -0.1002 -0.0659
 7585SOL    HW134388   4.144   1.491   0.175  0.9956  0.9560 -0.2532
 7585SOL    HW234389   4.002   1.502   0.197  0.0926 -1.2354 -0.7871
 7586SOL     OW34390   4.451   2.621  12.613 -0.1502 -0.0605 -0.7622
 7586SOL    HW134391   4.440   2.715  12.601 -0.8026 -0.2024 -1.2580
 7586SOL    HW234392   4.546   2.622  12.605  0.0644  1.9851  1.8300
 7587SOL     OW34393   3.248   3.975   6.041  0.0051  0.4576  0.2496
 7587SOL    HW134394   3.195   4.032   6.096  1.8836  1.1291  1.3665
 7587SOL    HW234395   3.335   4.001   6.072  1.8813 -4.3089 -0.9870
 7588SOL     OW34396   4.385   3.424   2.872 -0.0773  0.1576 -0.6024
 7588SOL    HW134397   4.381   3.426   2.967 -0.8060  1.0815 -0.6441
 7588SOL    HW234398   4.341   3.340   2.858 -0.2718  0.5835 -2.5441
 7589SOL     OW34399   3.500   1.268   3.786 -0.0920 -0.9316 -0.5089
 7589SOL    HW134400   3.458   1.296   3.705 -0.2981 -1.0264 -0.4331
 7589SOL    HW234401   3.519   1.176   3.773  2.0677 -0.9540  2.8315
 7590SOL     OW34402   4.457   3.893  10.388  0.6149 -0.2779 -0.3947
 7590SOL    HW134403   4.546   3.858  10.385  0.5117 -0.5110 -0.7167
 7590SOL    HW234404   4.476   3.957  10.457 -1.9992  0.7016 -0.5783
 7591SOL     OW34405   2.132   3.759   7.623  0.4016 -0.1251  0.4681
 7591SOL    HW134406   2.178   3.707   7.689  0.5514  1.8521  1.9040
 7591SOL    HW234407   2.113   3.699   7.550  0.9726 -0.1146  0.3170
 7592SOL     OW34408   0.517   2.672   7.141 -0.5065  0.1558 -0.3110
 7592SOL    HW134409   0.522   2.642   7.051 -2.6871  0.0749 -0.4123
 7592SOL    HW234410   0.491   2.762   7.122 -0.1144 -0.1494 -2.2627
 7593SOL     OW34411   2.973   2.453  10.654 -0.0700 -0.4701 -0.3002
 7593SOL    HW134412   2.988   2.459  10.748  0.9826  1.6898 -0.5988
 7593SOL    HW234413   2.920   2.374  10.656 -0.3207 -0.3055 -0.5152
 7594SOL     OW34414   0.668   0.350  17.580  0.1295  0.0933  0.2401
 7594SOL    HW134415   0.719   0.422  17.617  1.4317 -1.3026  1.1689
 7594SOL    HW234416   0.674   0.371  17.487  3.1073  1.7183  0.8014
 7595SOL     OW34417   3.677   1.044  11.520  0.2272  0.3415  0.3780
 7595SOL    HW134418   3.614   1.109  11.487  0.6726  0.1274 -0.9036
 7595SOL    HW234419   3.752   1.099  11.540  0.0677  1.1728 -1.3489
 7596SOL     OW34420   3.637   4.153   2.465 -0.3837  0.5510  0.0414
 7596SOL    HW134421   3.729   4.136   2.487  0.1942  0.3316 -2.6083
 7596SOL    HW234422   3.610   4.070   2.427  2.0438 -0.4308  0.4702
 7597SOL     OW34423   0.207   3.122   7.648 -0.1279 -0.4292  0.0464
 7597SOL    HW134424   0.125   3.146   7.691 -0.1456  0.7510 -0.6532
 7597SOL    HW234425   0.172   3.051   7.594 -0.0180 -0.7862  0.4441
 7598SOL     OW34426   4.335   4.696  13.130  0.5784 -0.4632 -0.1491
 7598SOL    HW134427   4.386   4.737  13.060  0.6339 -0.1105  0.0978
 7598SOL    HW234428   4.301   4.619  13.084 -0.5681 -1.0715  1.7430
 7599SOL     OW34429   2.839   3.032   7.598 -0.2016  0.3893  0.1942
 7599SOL    HW134430   2.840   3.035   7.503  1.6417  3.8016  0.2944
 7599SOL    HW234431   2.918   3.081   7.621  0.9024 -0.9836 -0.6894
 7600SOL     OW34432   1.968   4.655   6.371 -0.3564 -0.6357 -0.1867
 7600SOL    HW134433   1.916   4.732   6.393  0.2192 -0.3666  0.2470
 7600SOL    HW234434   1.899   4.588   6.370  1.2567 -2.3479  1.1719
 7601SOL     OW34435   2.279   4.002  17.426 -0.8126  0.1861  0.1276
 7601SOL    HW134436   2.355   4.037  17.380 -1.7768  0.1035 -1.5334
 7601SOL    HW234437   2.309   4.008  17.517 -0.8287 -3.3561  0.3475
 7602SOL     OW34438   3.663   3.021  16.113  0.2948 -0.2702 -0.1699
 7602SOL    HW134439   3.675   3.060  16.200 -1.9511  0.9469 -0.3720
 7602SOL    HW234440   3.712   3.074  16.049  0.6792 -0.4125  0.0105
 7603SOL     OW34441   4.281   3.286   0.362  0.0566 -0.0107  0.4791
 7603SOL    HW134442   4.260   3.287   0.269  2.7293  0.3331 -0.1228
 7603SOL    HW234443   4.300   3.192   0.368 -3.8467 -0.9043 -0.8484
 7604SOL     OW34444   1.910   1.417   4.043 -0.0575 -0.1345  0.4179
 7604SOL    HW134445   1.853   1.349   4.081 -0.0737 -0.5077 -0.2758
 7604SOL    HW234446   1.968   1.434   4.117 -0.2083  1.0178  0.2741
 7605SOL     OW34447   3.108   1.627   1.631  0.0045 -0.3508  0.4225
 7605SOL    HW134448   3.099   1.633   1.726 -0.0610 -1.1049  0.4708
 7605SOL    HW234449   3.037   1.676   1.589 -0.2178 -1.8827 -0.9993
 7606SOL     OW34450   0.960   2.645   1.464 -0.5473 -0.4170  0.3228
 7606SOL    HW134451   0.910   2.702   1.522 -0.2250  1.5098 -1.2774
 7606SOL    HW234452   0.902   2.571   1.448  1.2773 -1.8318  0.2420
 7607SOL     OW34453   1.159   3.565   7.738 -0.0600  0.0617  0.3305
 7607SOL    HW134454   1.186   3.477   7.765 -0.9558 -0.0862  0.7636
 7607SOL    HW234455   1.234   3.621   7.758 -0.4132  0.9673 -0.9031
 7608SOL     OW34456   4.512   0.639  13.842  0.3072 -0.3317 -0.3754
 7608SOL    HW134457   4.466   0.711  13.886 -1.3470 -1.6844  0.0949
 7608SOL    HW234458   4.602   0.671  13.851 -0.0332 -0.2899  2.5943
 7609SOL     OW34459   0.485   4.657   2.034 -0.0691 -0.5878 -0.1858
 7609SOL    HW134460   0.512   4.712   1.960 -1.5741  1.1330  0.5427
 7609SOL    HW234461   0.420   4.713   2.075 -0.7826 -2.1249  0.7613
 7610SOL     OW34462   0.838   1.148   9.737  0.3712 -0.4574 -0.0965
 7610SOL    HW134463   0.833   1.057   9.767  0.1361 -0.0737  1.0423
 7610SOL    HW234464   0.774   1.138   9.666  0.0487  0.5310  0.0465
 7611SOL     OW34465   1.473   3.777  17.332  0.0821 -0.3541 -0.6245
 7611SOL    HW134466   1.460   3.745  17.243 -1.8649  1.6169 -1.0507
 7611SOL    HW234467   1.381   3.780  17.360  1.1132 -0.0091  2.6715
 7612SOL     OW34468   3.194   1.397   7.441  0.0574 -0.4233 -0.0523
 7612SOL    HW134469   3.144   1.475   7.464  0.6680 -0.7385  2.3037
 7612SOL    HW234470   3.140   1.373   7.366  0.9908 -1.4409 -0.3990
 7613SOL     OW34471   4.366   3.687   3.632 -0.2794  0.2607  0.0958
 7613SOL    HW134472   4.370   3.769   3.582  0.6264 -0.6274 -1.2851
 7613SOL    HW234473   4.446   3.643   3.603  0.4175  1.6503 -0.0830
 7614SOL     OW34474   0.671   1.785   5.260 -0.1213  0.5551  0.0432
 7614SOL    HW134475   0.733   1.765   5.190 -0.2069 -0.9350  0.3966
 7614SOL    HW234476   0.612   1.837   5.206  1.9996  1.0175 -1.8565
 7615SOL     OW34477   0.406   3.672  14.984 -0.0550 -0.4364  0.1156
 7615SOL    HW134478   0.334   3.609  14.997  0.8989 -1.6219 -0.3433
 7615SOL    HW234479   0.373   3.757  15.014 -0.3946 -0.9914  1.3171
 7616SOL     OW34480   4.618   0.504  11.283 -0.1097  0.3813  0.6649
 7616SOL    HW134481   4.685   0.479  11.219 -1.2766 -0.0221 -0.3964
 7616SOL    HW234482   4.624   0.440  11.353 -1.4897 -0.8548 -0.3551
 7617SOL     OW34483   3.881   0.621   0.421  0.0554  0.0631  0.2083
 7617SOL    HW134484   3.816   0.626   0.491  0.4832 -1.7759  0.7408
 7617SOL    HW234485   3.825   0.569   0.363 -1.1811 -1.8879  3.1191
 7618SOL     OW34486   0.189   1.365   3.551  0.4430 -0.4527 -0.2375
 7618SOL    HW134487   0.225   1.450   3.575  0.1672 -0.2702 -0.4780
 7618SOL    HW234488   0.208   1.320   3.633  1.0488  1.5008  0.6718
 7619SOL     OW34489   3.683   3.624  11.828  0.8572  0.3369  0.2805
 7619SOL    HW134490   3.665   3.540  11.871  3.3179  0.3044  1.2379
 7619SOL    HW234491   3.600   3.653  11.790  0.1209 -0.5370  1.1944
 7620SOL     OW34492   2.467   3.415   2.459 -0.0388 -0.4719 -0.3530
 7620SOL    HW134493   2.549   3.447   2.498 -0.4893  0.6519 -0.3191
 7620SOL    HW234494   2.445   3.492   2.406 -0.0867  0.5467  1.1581
 7621SOL     OW34495   4.431   2.123   5.388  0.0373  0.6946  0.0374
 7621SOL    HW134496   4.450   2.202   5.438  2.4859 -0.9437  1.7172
 7621SOL    HW234497   4.336   2.129   5.379 -0.0909  1.0923  1.6153
 7622SOL     OW34498   3.904   0.660  10.010  0.0145  0.2656 -0.0577
 7622SOL    HW134499   3.924   0.566  10.012  0.3588  0.3749  1.6684
 7622SOL    HW234500   3.946   0.690   9.930  0.3599  0.7029  0.2873
 7623SOL     OW34501   3.727   3.441  12.712 -0.0523 -0.5780 -0.3027
 7623SOL    HW134502   3.651   3.490  12.679 -1.8245 -1.1265  2.9513
 7623SOL    HW234503   3.734   3.358  12.664  1.2001 -0.2694 -0.6391
 7624SOL     OW34504   2.787   4.331   3.054 -0.0074  0.1795  0.6777
 7624SOL    HW134505   2.696   4.302   3.053  0.5093 -1.2660 -1.8904
 7624SOL    HW234506   2.824   4.250   3.019  0.1885 -0.3175  2.0102
 7625SOL     OW34507   2.679   2.041   3.318  0.1086  0.4207 -0.3261
 7625SOL    HW134508   2.612   2.063   3.382 -0.0020  0.8756 -0.5944
 7625SOL    HW234509   2.756   2.018   3.370 -2.6020 -1.9534  2.6671
 7626SOL     OW34510   2.989   4.507   6.205 -0.2629  0.4931 -0.0001
 7626SOL    HW134511   2.907   4.555   6.197 -1.0192 -1.0218 -1.3909
 7626SOL    HW234512   3.056   4.574   6.191 -0.5551  0.4592 -1.5346
 7627SOL     OW34513   4.294   2.461   3.947  0.0497 -0.2103 -0.4291
 7627SOL    HW134514   4.330   2.383   3.989  2.7310  1.2777  0.0757
 7627SOL    HW234515   4.238   2.409   3.890 -1.3002  0.5351  0.2267
 7628SOL     OW34516   4.457   1.176   8.920  0.3285 -0.1006 -0.2188
 7628SOL    HW134517   4.500   1.261   8.911 -1.4236  0.8409  0.2414
 7628SOL    HW234518   4.428   1.152   8.832 -0.5760 -1.6670  0.4843
 7629SOL     OW34519   1.339   1.728   2.424 -0.0876  0.1507 -0.5250
 7629SOL    HW134520   1.372   1.794   2.362  2.5573 -0.3895  0.3534
 7629SOL    HW234521   1.335   1.770   2.510 -0.3104  0.5795 -0.7437
 7630SOL     OW34522   4.701   0.117   6.778 -0.1054 -0.0827 -0.2479
 7630SOL    HW134523   4.694   0.074   6.693 -1.1311  0.5412 -0.4835
 7630SOL    HW234524   4.655   0.057   6.837  0.4520 -0.2020  0.0615
 7631SOL     OW34525   2.993   1.698   2.724 -0.3460  0.3545  0.0555
 7631SOL    HW134526   2.969   1.664   2.810 -0.8915 -0.1406 -0.2812
 7631SOL    HW234527   3.066   1.642   2.696 -1.5699 -0.0853 -2.3017
 7632SOL     OW34528   3.829   0.199   3.291  0.0010  0.1169 -0.0161
 7632SOL    HW134529   3.806   0.126   3.347 -2.5374  0.5858 -0.4585
 7632SOL    HW234530   3.897   0.173   3.229 -1.0257  0.3461 -1.2425
 7633SOL     OW34531   3.132   1.443   0.218 -0.7953 -0.4428 -0.3089
 7633SOL    HW134532   3.082   1.382   0.164  0.0526  2.1083 -3.9215
 7633SOL    HW234533   3.218   1.401   0.219  0.3154  1.8482  1.0698
 7634SOL     OW34534   1.025   2.972   4.033 -0.0670 -0.2037  0.4806
 7634SOL    HW134535   0.943   2.940   4.071  1.4070 -1.3282  2.7430
 7634SOL    HW234536   1.035   2.903   3.967 -1.7781 -0.5938  0.6399
 7635SOL     OW34537   1.164   3.752   3.381 -0.4468  0.6807  0.3171
 7635SOL    HW134538   1.234   3.808   3.348  0.9613 -1.5226 -0.4429
 7635SOL    HW234539   1.176   3.756   3.476 -1.5925  0.1558  0.4864
 7636SOL     OW34540   0.905   1.224   8.942 -0.2117  0.5325  0.2405
 7636SOL    HW134541   0.856   1.297   8.980 -2.0789  0.1422 -1.3954
 7636SOL    HW234542   0.872   1.212   8.853 -0.1244  0.5299  0.2088
 7637SOL     OW34543   3.962   3.508   3.193  0.0734  0.0470  0.1536
 7637SOL    HW134544   4.049   3.532   3.224  0.3953 -0.7545 -0.1296
 7637SOL    HW234545   3.908   3.503   3.272 -0.5570  2.0911 -0.1485
 7638SOL     OW34546   4.013   4.224   9.509 -0.9917 -0.2370 -0.2869
 7638SOL    HW134547   4.013   4.238   9.604  1.2576  1.3331 -0.5443
 7638SOL    HW234548   3.921   4.216   9.481 -1.4971  0.7532  1.1148
 7639SOL     OW34549   0.353   4.730   9.702  0.1811 -0.1801 -0.1668
 7639SOL    HW134550   0.358   0.022   9.612 -2.7297  2.5514  0.5977
 7639SOL    HW234551   0.333   4.637   9.693 -0.3904 -0.0523 -0.2066
 7640SOL     OW34552   3.790   4.079   6.764  0.5566 -0.0154 -0.1145
 7640SOL    HW134553   3.756   4.138   6.697  0.5194 -1.1518 -1.0887
 7640SOL    HW234554   3.734   4.113   6.834  0.0761  0.9708 -0.9890
 7641SOL     OW34555   0.762   2.819   5.281  0.1748  0.2347 -0.8102
 7641SOL    HW134556   0.851   2.800   5.310  0.8071  0.4599 -2.5830
 7641SOL    HW234557   0.754   2.901   5.329  1.9662 -0.0414 -0.0191
 7642SOL     OW34558   2.747   1.526   8.094  0.0029  0.1100 -0.0660
 7642SOL    HW134559   2.677   1.474   8.133  0.4536  0.0553  0.6517
 7642SOL    HW234560   2.711   1.615   8.093  0.7669  0.4340  3.3140
 7643SOL     OW34561   2.447   0.457  16.532 -0.7647 -0.5127 -0.2767
 7643SOL    HW134562   2.457   0.489  16.621 -1.1054  0.4928 -0.5953
 7643SOL    HW234563   2.495   0.524  16.482 -0.9153  0.2478  0.5973
 7644SOL     OW34564   4.299   4.544   8.757  0.2702 -0.7277  0.4688
 7644SOL    HW134565   4.283   4.634   8.782  2.6830  0.2198 -1.3674
 7644SOL    HW234566   4.394   4.549   8.749 -0.0435  2.7304 -0.9626
 7645SOL     OW34567   4.192   1.318   7.237 -0.0999 -0.2650  0.5093
 7645SOL    HW134568   4.116   1.266   7.262 -0.0859 -0.8929 -0.7694
 7645SOL    HW234569   4.191   1.393   7.296  3.3088  1.0786 -1.1006
 7646SOL     OW34570   2.999   1.425   8.518 -0.2320 -0.3486  0.2649
 7646SOL    HW134571   3.024   1.368   8.591  0.0339 -2.7037 -1.6803
 7646SOL    HW234572   3.072   1.485   8.531  1.5808 -2.7857  1.4082
 7647SOL     OW34573   1.617   3.012   0.106 -0.4100  0.2447  0.3903
 7647SOL    HW134574   1.567   2.940   0.143  1.1647 -1.0965 -0.0748
 7647SOL    HW234575   1.670   2.960   0.045 -0.9118 -1.2688  1.2484
 7648SOL     OW34576   3.074   4.166   8.854 -0.3221 -0.3298 -0.2616
 7648SOL    HW134577   2.985   4.133   8.847 -0.1471 -1.1915  1.5784
 7648SOL    HW234578   3.112   4.133   8.773  0.0242 -0.6673  0.0438
 7649SOL     OW34579   0.758   0.979  15.332 -0.4180 -0.0515 -0.1622
 7649SOL    HW134580   0.732   0.944  15.246  1.9826  0.8735 -1.2674
 7649SOL    HW234581   0.751   1.073  15.320  1.1708 -0.0137 -0.7458
 7650SOL     OW34582   1.153   0.811   7.708 -0.2843 -0.3355 -0.4286
 7650SOL    HW134583   1.108   0.887   7.744 -0.2737  0.4352 -2.0655
 7650SOL    HW234584   1.245   0.838   7.715  0.6145 -3.3588 -0.5922
 7651SOL     OW34585   1.165   4.658   9.416  0.0024 -0.3170 -0.2542
 7651SOL    HW134586   1.095   4.668   9.481  2.8348  0.9790  2.5647
 7651SOL    HW234587   1.159   4.567   9.388 -1.4905  0.1843 -1.5704
 7652SOL     OW34588   4.315   2.979   6.205 -0.3297  0.4086  0.6556
 7652SOL    HW134589   4.244   3.006   6.264 -1.4104  1.3890 -1.0917
 7652SOL    HW234590   4.282   2.899   6.163  0.0735  2.0146 -2.6947
 7653SOL     OW34591   0.234   1.385   7.175 -0.0873 -0.1328 -0.1360
 7653SOL    HW134592   0.259   1.321   7.108 -1.7970 -2.2037  1.1823
 7653SOL    HW234593   0.187   1.322   7.230 -1.5345 -0.1431 -1.3743
 7654SOL     OW34594   3.623   3.478   8.168  0.2027  0.2666  0.5376
 7654SOL    HW134595   3.655   3.559   8.207 -1.1537  0.2337  1.6932
 7654SOL    HW234596   3.570   3.436   8.235  0.7251  2.8916  2.5869
 7655SOL     OW34597   2.047   3.517   8.111  0.2997  0.4747 -0.2337
 7655SOL    HW134598   2.111   3.486   8.047 -0.1728  1.2159 -1.0711
 7655SOL    HW234599   2.097   3.525   8.192 -2.0629  0.0689  1.2778
 7656SOL     OW34600   3.720   3.010  16.405  0.0197  0.2704 -0.0655
 7656SOL    HW134601   3.666   2.933  16.425  0.2723 -1.0054 -4.2181
 7656SOL    HW234602   3.799   3.007  16.458 -0.3289 -1.2618  0.3657
 7657SOL     OW34603   2.050   4.216   8.242  0.4367  0.5805  0.0712
 7657SOL    HW134604   2.098   4.244   8.165 -2.0338 -0.0789 -1.7180
 7657SOL    HW234605   1.964   4.197   8.203  0.0175  1.1477  0.7062
 7658SOL     OW34606   0.966   1.263   5.977 -0.4605 -0.1237  0.9643
 7658SOL    HW134607   1.038   1.325   5.987 -1.7957  1.5461  0.1303
 7658SOL    HW234608   1.021   1.197   5.935 -0.5160  0.5131 -0.1217
 7659SOL     OW34609   3.169   2.533   4.774 -0.4421  0.8422  0.1684
 7659SOL    HW134610   3.184   2.467   4.842 -0.3107  2.3525  1.5833
 7659SOL    HW234611   3.094   2.501   4.722 -0.3502 -1.1867  1.2884
 7660SOL     OW34612   3.642   2.990   1.957 -0.2586  0.1265 -0.1919
 7660SOL    HW134613   3.707   2.925   1.987 -2.0622 -1.4504  0.2992
 7660SOL    HW234614   3.702   3.033   1.896 -1.1557  0.8325 -0.5723
 7661SOL     OW34615   3.393   1.842   4.731  0.7587  0.1596  0.3488
 7661SOL    HW134616   3.478   1.797   4.733  1.4649  1.3695 -2.6011
 7661SOL    HW234617   3.340   1.762   4.741 -0.5082  1.1409  1.5607
 7662SOL     OW34618   1.386   1.256   6.696 -0.2690  0.4149 -0.4140
 7662SOL    HW134619   1.372   1.343   6.732  1.4056  1.2099 -1.6774
 7662SOL    HW234620   1.389   1.203   6.776 -1.3582 -0.2144 -0.7854
 7663SOL     OW34621   3.086   3.611   7.325 -0.1896 -0.2628 -0.1427
 7663SOL    HW134622   3.089   3.693   7.374 -2.0763  0.2685 -0.9357
 7663SOL    HW234623   3.095   3.539   7.387  2.7849 -1.9523 -2.4996
 7664SOL     OW34624   0.316   2.143   5.866  0.4960 -0.6131  0.1107
 7664SOL    HW134625   0.234   2.127   5.912  0.6164  0.9394  0.8816
 7664SOL    HW234626   0.302   2.233   5.837 -0.8368 -0.4419  1.2607
 7665SOL     OW34627   1.903   3.658   8.414 -0.4951 -0.3397  0.3608
 7665SOL    HW134628   1.982   3.645   8.467 -0.1137  2.5206  0.5182
 7665SOL    HW234629   1.855   3.580   8.441  0.9540 -1.7864 -1.2749
 7666SOL     OW34630   2.691   1.707   7.839  0.5508  0.9567  0.0486
 7666SOL    HW134631   2.638   1.647   7.787 -0.0361  1.7270 -0.2393
 7666SOL    HW234632   2.626   1.757   7.888 -0.8220 -2.1629  1.4013
 7667SOL     OW34633   4.241   4.507  12.396  0.0418 -0.1097 -0.0765
 7667SOL    HW134634   4.248   4.517  12.301  3.9318  2.6423  0.5040
 7667SOL    HW234635   4.179   4.435  12.402  1.3175 -1.2644 -0.7445
 7668SOL     OW34636   1.876   1.698   5.012  0.1421  0.7807 -0.0802
 7668SOL    HW134637   1.967   1.709   5.037 -0.0288  2.2332 -0.1131
 7668SOL    HW234638   1.884   1.705   4.917  0.7728 -3.0819 -0.3105
 7669SOL     OW34639   3.004   3.024  16.348  0.0447 -0.2634  0.0806
 7669SOL    HW134640   2.960   2.957  16.295  0.2914 -0.6576  0.3707
 7669SOL    HW234641   3.094   3.010  16.318 -0.3130 -1.2516 -0.5486
 7670SOL     OW34642   3.610   2.221   7.297  0.5483  0.2214 -0.4032
 7670SOL    HW134643   3.535   2.195   7.349  0.6329  1.0236  0.1161
 7670SOL    HW234644   3.557   2.207   7.218  0.5904  0.6972 -0.5208
 7671SOL     OW34645   2.092   1.487   7.221 -0.0899  0.2289  0.8605
 7671SOL    HW134646   2.026   1.554   7.235  0.8272  1.2133  0.4066
 7671SOL    HW234647   2.105   1.460   7.312  0.9025  1.6535  1.1321
 7672SOL     OW34648   0.510   1.345   6.350 -0.3451  0.4695 -0.0279
 7672SOL    HW134649   0.573   1.383   6.411  0.1600 -1.0232  0.3712
 7672SOL    HW234650   0.539   1.392   6.272  0.2326  0.6529  0.3028
 7673SOL     OW34651   3.133   1.515   8.880  0.4227 -0.4137 -0.5735
 7673SOL    HW134652   3.163   1.428   8.907  1.3364  0.3937  1.0614
 7673SOL    HW234653   3.162   1.508   8.789 -0.7174 -1.6707 -0.8264
 7674SOL     OW34654   2.267   3.158   6.666  0.5157  0.0598 -0.8078
 7674SOL    HW134655   2.305   3.198   6.587 -0.8782 -1.1264 -2.0776
 7674SOL    HW234656   2.237   3.237   6.711 -0.1110 -1.4365  1.3762
 7675SOL     OW34657   4.036   0.791   0.246  0.1478 -1.0278 -0.7795
 7675SOL    HW134658   3.997   0.739   0.315 -1.8073 -0.5836 -1.5362
 7675SOL    HW234659   3.951   0.805   0.204  0.5186  0.7362 -0.9687
 7676SOL     OW34660   2.255   2.119  16.310  0.3269  0.3931  0.2910
 7676SOL    HW134661   2.223   2.029  16.320  2.0209 -0.3782 -1.1590
 7676SOL    HW234662   2.350   2.114  16.324  0.1410  0.8244  1.6635
 7677SOL     OW34663   3.781   1.675   8.986  0.1387 -0.3076 -0.6142
 7677SOL    HW134664   3.801   1.587   8.955  0.8325 -0.6160  0.7308
 7677SOL    HW234665   3.784   1.714   8.899 -0.5042  1.4635  0.1539
 7678SOL     OW34666   3.295   3.261   4.748 -0.3015  0.2304 -0.5471
 7678SOL    HW134667   3.233   3.230   4.814 -0.2988 -2.2397 -1.7302
 7678SOL    HW234668   3.318   3.347   4.785  2.2857 -1.3054  1.4636
 7679SOL     OW34669   4.502   0.765   2.041 -0.2075 -0.4513 -0.2062
 7679SOL    HW134670   4.570   0.780   1.976  0.7840  3.2538  1.7015
 7679SOL    HW234671   4.530   0.814   2.118 -1.1571  0.2963 -0.3356
 7680SOL     OW34672   1.192   2.880   3.827  0.1168 -0.1556  0.1456
 7680SOL    HW134673   1.178   2.786   3.820 -0.6428 -0.0064 -0.3304
 7680SOL    HW234674   1.105   2.907   3.796 -0.8420  0.0472  3.0071
 7681SOL     OW34675   4.476   4.642   8.015 -0.6602  0.0098  0.5380
 7681SOL    HW134676   4.551   4.640   8.074 -0.1485 -0.8005 -0.1383
 7681SOL    HW234677   4.518   4.648   7.930 -3.4685  0.5595 -0.8125
 7682SOL     OW34678   4.056   1.479  17.574  0.1626  0.0731  0.1728
 7682SOL    HW134679   4.057   1.557  17.629 -1.3300 -0.2385  0.6579
 7682SOL    HW234680   3.962   1.460  17.578 -0.3808  2.4848 -1.4991
 7683SOL     OW34681   4.628   0.142   4.490  0.7896 -0.2622 -0.0669
 7683SOL    HW134682   4.621   0.087   4.568 -1.0505  0.5232  0.3135
 7683SOL    HW234683   4.534   0.149   4.472  0.9746 -1.4803 -1.4783
 7684SOL     OW34684   1.480   2.054   6.606 -0.4251 -0.3902  0.2925
 7684SOL    HW134685   1.430   2.111   6.548  2.3929  1.6326 -0.1620
 7684SOL    HW234686   1.421   1.989   6.643 -0.2967 -0.4677  0.3598
 7685SOL     OW34687   2.124   4.482   1.967  0.4707  0.7658 -0.1025
 7685SOL    HW134688   2.105   4.411   2.028  3.0605  0.3599  0.2046
 7685SOL    HW234689   2.034   4.515   1.964  1.0540  2.3942 -0.0760
 7686SOL     OW34690   4.034   3.832   2.204 -0.1031  0.5339  0.3424
 7686SOL    HW134691   4.031   3.737   2.216 -1.6609  0.1355 -3.2093
 7686SOL    HW234692   3.958   3.849   2.148  0.9414  1.5217 -0.7748
 7687SOL     OW34693   1.268   1.138  17.493  0.1405  0.2640 -0.1633
 7687SOL    HW134694   1.225   1.217  17.526 -1.2672 -0.4748 -0.2522
 7687SOL    HW234695   1.266   1.157  17.400  1.9460  3.1175  0.3776
 7688SOL     OW34696   0.553   1.328   7.462 -0.3900  0.3803 -0.0614
 7688SOL    HW134697   0.497   1.257   7.432 -0.4118 -0.3987  1.8680
 7688SOL    HW234698   0.524   1.400   7.406 -0.3923 -0.1012 -0.6740
 7689SOL     OW34699   4.631   3.576   1.910 -0.1808 -0.8644  0.2752
 7689SOL    HW134700   4.557   3.517   1.907 -0.8572  0.1588 -3.0128
 7689SOL    HW234701   4.677   3.556   1.991  0.9101  4.4528  0.9818
 7690SOL     OW34702   4.519   1.686  11.160 -0.6245  0.2819 -0.0536
 7690SOL    HW134703   4.474   1.767  11.185 -1.6188 -1.3345  3.2722
 7690SOL    HW234704   4.543   1.640  11.240  0.1432  0.3973 -0.2143
 7691SOL     OW34705   0.551   4.151   6.167 -0.4745  0.6251 -0.0128
 7691SOL    HW134706   0.569   4.061   6.194 -0.7577 -0.1458 -2.4292
 7691SOL    HW234707   0.574   4.148   6.074  0.2354  0.6446  0.1623
 7692SOL     OW34708   2.377   4.672   7.601  0.3398  0.5808  0.6777
 7692SOL    HW134709   2.317   0.004   7.575 -0.0867  0.5004  1.4562
 7692SOL    HW234710   2.424   4.717   7.671  1.7251  0.4502 -0.1647
 7693SOL     OW34711   1.601   2.174   3.166 -0.3992  0.3243 -0.4317
 7693SOL    HW134712   1.596   2.174   3.071 -0.1794 -0.2942 -0.4368
 7693SOL    HW234713   1.581   2.264   3.193 -4.1651 -0.7306  0.3582
 7694SOL     OW34714   0.590   3.633   7.517  0.2423 -0.0722 -0.2134
 7694SOL    HW134715   0.495   3.642   7.504  0.4724 -1.0381 -2.4454
 7694SOL    HW234716   0.607   3.705   7.578 -0.6985  2.2061 -2.5980
 7695SOL     OW34717   0.639   3.398   7.613  0.2029  0.3305  0.0060
 7695SOL    HW134718   0.623   3.480   7.565 -0.1469  0.3732  0.1936
 7695SOL    HW234719   0.603   3.412   7.700  0.1710  0.4456 -0.0256
 7696SOL     OW34720   1.164   1.662   4.359 -0.1532 -0.0482  0.3021
 7696SOL    HW134721   1.179   1.617   4.441 -1.5699 -0.3522  0.4007
 7696SOL    HW234722   1.142   1.596   4.293  2.9019 -1.6386  0.8846
 7697SOL     OW34723   2.268   2.081   7.468 -0.2489 -0.3176  0.0249
 7697SOL    HW134724   2.307   2.130   7.540  0.7469  0.3314 -0.9614
 7697SOL    HW234725   2.292   2.130   7.389 -1.3609 -0.1034 -0.1732
 7698SOL     OW34726   1.382   1.704   2.894  0.1862 -0.0737 -0.4394
 7698SOL    HW134727   1.303   1.663   2.929  0.3450 -1.5060 -1.7647
 7698SOL    HW234728   1.438   1.704   2.972  1.5091  0.7225 -1.3942
 7699SOL     OW34729   3.180   4.496   8.663 -1.0284 -0.2397  0.2560
 7699SOL    HW134730   3.100   4.490   8.715  0.4452 -1.5124  2.3804
 7699SOL    HW234731   3.246   4.492   8.732 -3.5259 -0.3070  2.5897
 7700SOL     OW34732   3.423   2.921  11.027  0.2631  0.4367  0.1185
 7700SOL    HW134733   3.489   2.987  11.049  1.0204  0.4186 -2.1313
 7700SOL    HW234734   3.350   2.979  11.006  0.3169  0.5600  0.2695
 7701SOL     OW34735   1.739   2.211   2.010 -0.6122  0.0905 -0.2124
 7701SOL    HW134736   1.756   2.305   1.999 -2.9592  0.4682 -0.8084
 7701SOL    HW234737   1.643   2.215   2.007 -0.6344  0.6032  1.5260
 7702SOL     OW34738   3.836   4.423  17.119  0.0872 -0.1684 -0.1609
 7702SOL    HW134739   3.882   4.465  17.046 -0.5495  3.1524  1.3256
 7702SOL    HW234740   3.910   4.381  17.162 -1.0062  0.4675  2.3592
 7703SOL     OW34741   4.556   4.560   1.633  0.0245  0.0558  0.2070
 7703SOL    HW134742   4.461   4.557   1.640 -0.0624 -0.7341 -1.3962
 7703SOL    HW234743   4.576   4.478   1.677  1.1197  0.8688  1.2289
 7704SOL     OW34744   2.761   1.713   6.397  0.3898 -0.5828 -0.2801
 7704SOL    HW134745   2.798   1.692   6.482  1.6056  1.9849 -0.1892
 7704SOL    HW234746   2.667   1.698   6.408  0.2343  0.9747  0.4529
 7705SOL     OW34747   4.049   0.645   7.301  0.1325 -0.0801  0.0844
 7705SOL    HW134748   3.966   0.681   7.332 -0.1841 -0.4439 -0.3312
 7705SOL    HW234749   4.027   0.660   7.209 -1.0883  0.7669  0.5148
 7706SOL     OW34750   0.287   3.664  11.078 -0.0613  0.0146 -0.0278
 7706SOL    HW134751   0.217   3.623  11.128  1.0533 -3.3578 -1.1854
 7706SOL    HW234752   0.333   3.584  11.052 -1.0554 -0.1929 -1.1647
 7707SOL     OW34753   0.046   3.191   3.503 -0.3721 -0.4529 -0.0404
 7707SOL    HW134754   4.731   3.114   3.524 -2.1648  0.1263 -2.5646
 7707SOL    HW234755   0.063   3.235   3.586 -0.0162 -1.3720  0.3768
 7708SOL     OW34756   1.936   3.091  17.689 -0.2098  0.0771  0.1418
 7708SOL    HW134757   1.902   3.002  17.678 -1.2856  0.6221 -0.9617
 7708SOL    HW234758   1.854   3.141  17.683  1.6752  3.0641 -0.5613
 7709SOL     OW34759   3.511   4.167   7.374  0.1643  0.3147  0.4571
 7709SOL    HW134760   3.437   4.150   7.317 -0.3740  2.5129  0.5198
 7709SOL    HW234761   3.566   4.089   7.369 -0.4937 -0.4070  3.9302
 7710SOL     OW34762   3.982   2.366   2.287  0.4216 -0.3513  0.1151
 7710SOL    HW134763   3.998   2.447   2.240  1.4751 -1.1736 -0.9242
 7710SOL    HW234764   3.927   2.393   2.361  0.2824  2.7726 -1.1430
 7711SOL     OW34765   3.622   0.109   6.612  0.3787  0.2947 -0.1713
 7711SOL    HW134766   3.553   0.147   6.558 -1.2208  0.7745  2.1892
 7711SOL    HW234767   3.653   0.190   6.654  2.9554 -0.7892  0.0032
 7712SOL     OW34768   1.636   3.567   6.665  0.0168  0.0142 -0.1071
 7712SOL    HW134769   1.712   3.521   6.699 -1.4611 -2.4149 -0.0606
 7712SOL    HW234770   1.625   3.545   6.573 -1.1751  2.7180 -0.6167
 7713SOL     OW34771   1.428   1.242   1.953 -0.5122  0.1085  0.4275
 7713SOL    HW134772   1.430   1.272   2.044  1.1727  2.0839 -0.2468
 7713SOL    HW234773   1.513   1.204   1.929 -0.2971  0.3372  0.8101
 7714SOL     OW34774   4.068   3.062   7.381  0.1082 -0.2719 -0.4750
 7714SOL    HW134775   4.043   2.973   7.357  2.0438 -1.2052  0.9330
 7714SOL    HW234776   4.025   3.107   7.309  0.0178 -0.5287 -0.5815
 7715SOL     OW34777   0.155   3.297   5.229  0.4090  0.3110  0.0668
 7715SOL    HW134778   0.140   3.308   5.322  2.5967 -0.6442  0.5302
 7715SOL    HW234779   0.225   3.361   5.214 -0.5483  0.7664 -2.5211
 7716SOL     OW34780   3.445   3.169   3.173  0.0825  0.5430 -0.6395
 7716SOL    HW134781   3.433   3.093   3.229 -1.8870  1.1193 -0.2857
 7716SOL    HW234782   3.402   3.143   3.091  0.9101 -1.0426 -0.5726
 7717SOL     OW34783   2.831   1.930  16.026 -0.5707  0.1917  0.1124
 7717SOL    HW134784   2.749   1.979  16.037 -0.5635 -0.1226  1.4950
 7717SOL    HW234785   2.861   1.937  16.116  3.8725 -2.2057 -1.1638
 7718SOL     OW34786   0.791   0.987   5.325  0.0965 -0.2552 -0.8114
 7718SOL    HW134787   0.762   0.921   5.388  0.8386 -0.0136 -0.2154
 7718SOL    HW234788   0.870   0.944   5.290 -1.6380 -2.4692 -1.9851
 7719SOL     OW34789   0.428   0.051   7.273  0.2301  0.1331  0.1988
 7719SOL    HW134790   0.367   0.113   7.233 -0.0303  1.7481  3.0759
 7719SOL    HW234791   0.440   4.727   7.202 -0.2178  1.5007 -1.0750
 7720SOL     OW34792   2.511   3.761   6.898  0.4228  0.3221  0.3825
 7720SOL    HW134793   2.565   3.731   6.824  1.3995  0.2642  1.1168
 7720SOL    HW234794   2.554   3.719   6.973  1.2982  0.8086  0.1550
 7721SOL     OW34795   3.970   2.398   4.346 -0.0606 -0.3243  0.0232
 7721SOL    HW134796   3.946   2.307   4.364  1.5292 -0.6007  0.7324
 7721SOL    HW234797   3.902   2.411   4.279 -2.2121 -1.4366  1.9867
 7722SOL     OW34798   3.550   0.638  16.394  0.8293 -0.9851 -0.2282
 7722SOL    HW134799   3.457   0.651  16.415  1.3903 -0.4576  2.0196
 7722SOL    HW234800   3.561   0.713  16.336  0.1518  0.4240  1.4506
 7723SOL     OW34801   4.626   0.370   3.536 -0.0350  0.1684 -0.0775
 7723SOL    HW134802   4.593   0.447   3.582 -2.5897 -0.9471 -0.0361
 7723SOL    HW234803   4.641   0.315   3.612  2.0371  1.1903  0.2323
 7724SOL     OW34804   2.155   1.895   1.488  0.2175  0.3697 -0.9689
 7724SOL    HW134805   2.186   1.888   1.397 -1.4883 -0.2765 -1.5060
 7724SOL    HW234806   2.137   1.803   1.509 -0.9332  1.0259  0.8615
 7725SOL     OW34807   0.597   0.629   0.387  0.2634 -0.3880  0.8425
 7725SOL    HW134808   0.671   0.586   0.429  0.4941  0.9201  1.7726
 7725SOL    HW234809   0.622   0.622   0.295 -0.9219  0.5485  0.4399
 7726SOL     OW34810   0.432   3.290  15.942  0.0808  0.5402 -0.1355
 7726SOL    HW134811   0.448   3.320  16.032  0.1983  2.1210 -0.6799
 7726SOL    HW234812   0.440   3.371  15.892  1.8195 -1.1811 -2.6619
 7727SOL     OW34813   0.868   0.698  11.245  0.0280  0.1222 -0.3490
 7727SOL    HW134814   0.900   0.608  11.250 -1.9590 -0.5300  0.4554
 7727SOL    HW234815   0.946   0.744  11.276 -0.6898  0.3750  1.0908
 7728SOL     OW34816   0.718   0.877   3.309 -0.0837  0.0372  0.3953
 7728SOL    HW134817   0.799   0.829   3.292 -0.1799  0.4138 -1.1228
 7728SOL    HW234818   0.764   0.953   3.343  0.2803  1.0485 -2.3414
 7729SOL     OW34819   2.894   2.685   9.659  0.4497  0.2046  0.2741
 7729SOL    HW134820   2.926   2.775   9.660  0.6328  0.1517 -0.6191
 7729SOL    HW234821   2.964   2.646   9.711 -0.3441 -0.1689  1.0606
 7730SOL     OW34822   3.867   0.027   9.296  0.1051  0.4741  0.0379
 7730SOL    HW134823   3.907   4.725   9.219  0.8661 -2.0721  1.7785
 7730SOL    HW234824   3.937   0.076   9.339  0.8898 -2.3161  1.9165
 7731SOL     OW34825   4.032   3.860   5.901 -0.1655 -0.7098 -0.6701
 7731SOL    HW134826   3.954   3.849   5.846 -0.8695  0.0422  0.1900
 7731SOL    HW234827   4.021   3.789   5.965  0.6812 -1.1655 -1.0230
 7732SOL     OW34828   4.323   2.221   4.092 -0.1960 -0.1583  0.3062
 7732SOL    HW134829   4.307   2.203   4.185 -0.3899 -2.0392 -0.0810
 7732SOL    HW234830   4.243   2.181   4.059 -1.9479  1.8314  2.1774
 7733SOL     OW34831   0.172   2.543  17.106  0.0534 -0.4992  0.0875
 7733SOL    HW134832   0.192   2.618  17.161 -1.4192  0.0890 -0.2028
 7733SOL    HW234833   0.249   2.491  17.133  0.0720 -0.5298 -0.0228
 7734SOL     OW34834   4.111   1.292   4.695 -0.0329 -0.4398 -0.2662
 7734SOL    HW134835   4.121   1.298   4.600  0.6809 -0.7400 -0.2097
 7734SOL    HW234836   4.018   1.271   4.707 -0.1577  1.0587  1.3616
 7735SOL     OW34837   3.063   3.782   7.549 -0.1317 -0.2533  0.4008
 7735SOL    HW134838   3.024   3.792   7.636 -0.3459  1.2857  0.1377
 7735SOL    HW234839   3.036   3.864   7.506 -2.6783 -1.7114 -0.7736
 7736SOL     OW34840   2.058   0.926  15.330 -0.3428 -0.5885  0.7803
 7736SOL    HW134841   1.997   0.904  15.260  1.2383 -1.8039 -0.1954
 7736SOL    HW234842   2.136   0.882  15.296 -0.4936  0.3819 -0.7995
 7737SOL     OW34843   2.506   1.895  10.489  0.0307 -0.2634  0.0872
 7737SOL    HW134844   2.456   1.815  10.508  1.3763 -0.8299  1.3011
 7737SOL    HW234845   2.588   1.853  10.463  0.3716 -0.8179  2.0338
 7738SOL     OW34846   1.132   3.171  14.297 -0.1196  0.0408  0.2156
 7738SOL    HW134847   1.116   3.179  14.391  0.7431  0.1849  0.3513
 7738SOL    HW234848   1.218   3.130  14.285 -0.9638 -1.7435  0.2735
 7739SOL     OW34849   2.556   0.748   8.683  0.2436  0.3646  0.0660
 7739SOL    HW134850   2.503   0.827   8.676 -0.3674 -0.2785 -2.7095
 7739SOL    HW234851   2.598   0.749   8.769 -1.6728 -3.5297  1.0301
 7740SOL     OW34852   0.510   2.620  15.720  0.2358  0.8694 -0.0092
 7740SOL    HW134853   0.534   2.685  15.653 -1.4507  1.5702  0.0760
 7740SOL    HW234854   0.586   2.631  15.778 -1.2666  0.8306  1.9682
 7741SOL     OW34855   4.344   0.852  13.824 -0.4038 -0.5623 -0.3849
 7741SOL    HW134856   4.360   0.885  13.912 -0.3066 -2.1113  0.1779
 7741SOL    HW234857   4.252   0.833  13.840 -0.0150 -0.1837  2.3067
 7742SOL     OW34858   3.402   3.043   1.664 -0.4900 -0.2886 -1.1330
 7742SOL    HW134859   3.452   2.962   1.662 -1.0026 -0.6110 -1.0336
 7742SOL    HW234860   3.314   3.022   1.632  0.1515 -2.7229 -1.2769
 7743SOL     OW34861   2.028   3.922   5.382 -0.3412  0.5082 -0.3743
 7743SOL    HW134862   2.042   3.839   5.336  1.1406 -0.1374  1.1993
 7743SOL    HW234863   2.051   3.895   5.471 -0.0298 -0.5239 -0.7616
 7744SOL     OW34864   2.782   3.920   3.849  0.0977  0.6533  0.0878
 7744SOL    HW134865   2.738   3.968   3.919 -1.1231  0.2353 -0.3954
 7744SOL    HW234866   2.719   3.852   3.826  0.7267  0.0232  0.2234
 7745SOL     OW34867   0.746   1.332  15.022  0.2921  0.6499 -0.5151
 7745SOL    HW134868   0.735   1.426  15.009  0.5875  0.7718  0.1238
 7745SOL    HW234869   0.743   1.298  14.932 -2.5668 -0.7698  0.1357
 7746SOL     OW34870   0.219   3.477   9.225  0.1424 -0.0410  0.0726
 7746SOL    HW134871   0.134   3.439   9.204  0.6359 -0.0362 -1.9513
 7746SOL    HW234872   0.195   3.502   9.314  1.1326  2.3959 -0.3385
 7747SOL     OW34873   1.799   0.422   5.917  0.5201  0.0931  0.5992
 7747SOL    HW134874   1.763   0.400   5.831  1.0669 -0.6778  0.5674
 7747SOL    HW234875   1.838   0.508   5.899  0.3620  0.2327  0.9335
 7748SOL     OW34876   1.358   2.153   4.400 -0.3349  0.2907  0.4260
 7748SOL    HW134877   1.308   2.225   4.363 -1.2060 -2.0237 -2.9175
 7748SOL    HW234878   1.303   2.080   4.371  1.7797 -0.7503 -0.9426
 7749SOL     OW34879   1.332   2.008  15.616  0.5213 -0.6223 -0.1721
 7749SOL    HW134880   1.341   2.088  15.667  2.4312 -0.6271 -0.4800
 7749SOL    HW234881   1.257   2.040  15.566  0.5714 -0.4673 -0.1483
 7750SOL     OW34882   3.678   0.627   7.940 -0.2907 -0.2858  0.2229
 7750SOL    HW134883   3.741   0.695   7.962  1.1648 -0.9423 -1.9916
 7750SOL    HW234884   3.671   0.581   8.024  0.3687 -1.1821 -0.2076
 7751SOL     OW34885   2.305   4.626   9.058  0.3446  0.6532  0.1221
 7751SOL    HW134886   2.343   4.704   9.019 -1.1292  2.3665  2.1412
 7751SOL    HW234887   2.365   4.554   9.037 -0.0866  0.8002 -1.5822
 7752SOL     OW34888   1.606   1.589   9.341 -0.8444  0.0485 -0.0439
 7752SOL    HW134889   1.644   1.673   9.364 -1.5510  0.7317 -1.3885
 7752SOL    HW234890   1.668   1.544   9.284 -0.5266 -0.8739  1.0328
 7753SOL     OW34891   3.376   0.856   3.362 -0.2565 -0.6242  0.3284
 7753SOL    HW134892   3.376   0.769   3.322 -2.2116 -0.7040  0.5111
 7753SOL    HW234893   3.333   0.906   3.293 -0.3164  0.1208  0.9016
 7754SOL     OW34894   0.392   1.407   8.120  0.0158 -0.3571 -0.3008
 7754SOL    HW134895   0.369   1.362   8.201  0.0481  1.8830  0.9751
 7754SOL    HW234896   0.426   1.334   8.069 -1.3582 -0.5774 -0.9080
 7755SOL     OW34897   1.516   4.526   5.156  0.0391 -0.2458  0.1589
 7755SOL    HW134898   1.484   4.452   5.104 -2.7032 -0.2334  1.7973
 7755SOL    HW234899   1.599   4.541   5.112 -1.6198 -0.8563 -3.1848
 7756SOL     OW34900   2.109   0.649  10.666  0.1508 -0.1040  0.0414
 7756SOL    HW134901   2.020   0.673  10.640 -0.5372 -1.3856  1.2194
 7756SOL    HW234902   2.153   0.656  10.581  0.1935 -2.8425 -0.1727
 7757SOL     OW34903   2.770   2.512  13.960 -0.1481 -0.0997  0.0299
 7757SOL    HW134904   2.842   2.531  13.901  1.3230  0.7239  2.0891
 7757SOL    HW234905   2.796   2.562  14.038 -0.6378 -1.4018  1.0288
 7758SOL     OW34906   4.411   0.198   3.910  0.7399  0.2540  0.0887
 7758SOL    HW134907   4.321   0.225   3.925  0.4209 -1.9999  2.1845
 7758SOL    HW234908   4.452   0.227   3.991  1.7883 -1.0027  0.0200
 7759SOL     OW34909   2.589   0.316  15.655  0.4129  0.1975 -0.4501
 7759SOL    HW134910   2.567   0.224  15.640  0.1705  0.1802  0.0138
 7759SOL    HW234911   2.539   0.354  15.582 -1.0080 -0.9118 -0.0605
 7760SOL     OW34912   3.308   2.668   4.994 -0.0241 -0.6357 -0.5043
 7760SOL    HW134913   3.254   2.743   5.021  1.2793  0.3652 -0.7130
 7760SOL    HW234914   3.252   2.646   4.920 -2.2903  2.4463  0.2506
 7761SOL     OW34915   1.450   4.334   1.809 -0.2584  0.3971  0.7054
 7761SOL    HW134916   1.489   4.262   1.760 -0.0374  0.6544  0.5050
 7761SOL    HW234917   1.522   4.376   1.855  0.0953  1.6442 -0.9927
 7762SOL     OW34918   3.104   3.901   3.849 -0.6704 -0.2868  0.1143
 7762SOL    HW134919   3.167   3.932   3.914 -1.1109 -1.9301  1.3180
 7762SOL    HW234920   3.026   3.955   3.861  0.7241  1.3572  1.8192
 7763SOL     OW34921   3.260   0.770  11.359  0.1081 -0.4401  0.2657
 7763SOL    HW134922   3.277   0.763  11.453 -1.0923  2.0425  0.6579
 7763SOL    HW234923   3.220   0.857  11.356  2.1484  0.4919  0.4255
 7764SOL     OW34924   2.380   2.784  17.081 -0.1145 -0.0818 -0.6502
 7764SOL    HW134925   2.314   2.835  17.034 -0.4389 -0.2558 -0.3848
 7764SOL    HW234926   2.336   2.701  17.099 -0.9150  0.7619  1.3331
 7765SOL     OW34927   3.750   1.180   2.605  0.4305  0.4739  0.2634
 7765SOL    HW134928   3.799   1.251   2.645 -0.6485  2.3150 -1.6744
 7765SOL    HW234929   3.706   1.227   2.534  0.1276  1.6837  1.2568
 7766SOL     OW34930   2.397   4.048  12.909 -0.7441  0.2817  0.3236
 7766SOL    HW134931   2.449   4.116  12.866  1.0682 -0.1464  1.8362
 7766SOL    HW234932   2.426   4.069  12.998  1.9477  1.1767 -0.7731
 7767SOL     OW34933   4.418   1.160   7.191 -0.3883  0.4127  0.3212
 7767SOL    HW134934   4.351   1.228   7.188  1.0204  1.7679  0.0771
 7767SOL    HW234935   4.369   1.088   7.151  2.2020 -1.8731  1.2451
 7768SOL     OW34936   0.793   2.714  13.785  0.3107 -0.2542 -0.1450
 7768SOL    HW134937   0.720   2.775  13.775  0.9077  0.7013  1.3662
 7768SOL    HW234938   0.785   2.666  13.702 -1.6764 -0.6605  0.2867
 7769SOL     OW34939   0.271   2.065   7.569  0.1937 -0.2951 -0.1414
 7769SOL    HW134940   0.265   1.972   7.594  0.3662 -0.5026 -0.8655
 7769SOL    HW234941   0.357   2.093   7.601 -0.2648 -0.1247  0.9663
 7770SOL     OW34942   2.511   0.114   5.879  0.2156 -0.0533  0.0552
 7770SOL    HW134943   2.438   0.155   5.925  0.3173 -0.3863  0.5175
 7770SOL    HW234944   2.546   0.055   5.946 -1.6813  0.4751  1.5080
 7771SOL     OW34945   3.111   4.683  16.518 -0.4900 -0.3477  0.0755
 7771SOL    HW134946   3.054   4.704  16.592  0.2065 -1.6847  0.9870
 7771SOL    HW234947   3.193   4.702  16.563  0.2791  2.8323 -2.6346
 7772SOL     OW34948   1.057   1.768  11.157 -0.0893 -0.0477 -0.2998
 7772SOL    HW134949   1.042   1.862  11.171  0.2376 -0.0777  0.2737
 7772SOL    HW234950   1.011   1.724  11.229 -0.1319 -0.2465 -0.4486
 7773SOL     OW34951   4.161   0.464   7.656  0.0099  0.2599  0.4416
 7773SOL    HW134952   4.074   0.481   7.692 -0.5587  2.5630 -2.0298
 7773SOL    HW234953   4.180   0.550   7.620 -0.7314  0.5571  0.7562
 7774SOL     OW34954   1.496   4.440   9.582  0.5656 -0.2685  0.7443
 7774SOL    HW134955   1.464   4.509   9.640  0.0293  0.5257 -0.5021
 7774SOL    HW234956   1.526   4.485   9.503 -2.3578 -0.0207 -0.2366
 7775SOL     OW34957   1.924   1.735   3.511 -0.0403  0.4680 -0.4601
 7775SOL    HW134958   1.967   1.713   3.593  2.2524  1.6838 -1.3188
 7775SOL    HW234959   1.907   1.828   3.528 -1.8911  0.0748 -0.1162
 7776SOL     OW34960   0.826   1.826   5.027 -0.5507 -0.0805 -0.4637
 7776SOL    HW134961   0.829   1.869   4.942 -1.7871  0.1912 -0.3719
 7776SOL    HW234962   0.878   1.885   5.080  1.2519 -1.4430 -0.7279
 7777SOL     OW34963   1.835   2.057  16.767  0.5370 -0.1339  0.2084
 7777SOL    HW134964   1.811   1.966  16.784  1.7898 -0.5464 -0.1626
 7777SOL    HW234965   1.926   2.042  16.741  0.0720 -0.2748 -1.3578
 7778SOL     OW34966   4.001   4.711  10.430 -0.4750 -0.1980 -0.2034
 7778SOL    HW134967   3.948   0.051  10.440  0.9093  0.5740  1.1660
 7778SOL    HW234968   4.087   0.011  10.449 -1.0389 -0.0663  2.0718
 7779SOL     OW34969   0.910   3.214  13.039  0.4143 -0.5260 -0.5199
 7779SOL    HW134970   0.841   3.216  12.973  0.2867 -1.9146 -0.4123
 7779SOL    HW234971   0.975   3.247  12.977 -0.3765 -1.1344 -1.6644
 7780SOL     OW34972   3.378   2.872   2.456 -0.5701 -0.0936 -0.2053
 7780SOL    HW134973   3.403   2.826   2.376  1.5285  2.1837 -0.8383
 7780SOL    HW234974   3.286   2.852   2.472 -0.6042  0.4432  0.2867
 7781SOL     OW34975   0.674   1.553   1.996 -0.5028  0.0404  0.0325
 7781SOL    HW134976   0.668   1.633   1.944 -3.6687 -1.1280 -1.4106
 7781SOL    HW234977   0.758   1.566   2.040 -1.2072  1.7738  0.8431
 7782SOL     OW34978   0.850   2.645   2.347 -0.1266  0.0035  0.1529
 7782SOL    HW134979   0.783   2.623   2.412 -1.4464 -0.5045 -1.3605
 7782SOL    HW234980   0.848   2.740   2.352 -0.2560 -0.1004  2.1777
 7783SOL     OW34981   3.518   1.381  10.114 -0.4981  0.3044 -0.7726
 7783SOL    HW134982   3.587   1.335  10.163 -1.2826  0.3764  0.3909
 7783SOL    HW234983   3.577   1.451  10.085 -1.7316  2.4772  1.9053
 7784SOL     OW34984   2.957   0.660   3.548  0.2173 -0.1109 -0.2492
 7784SOL    HW134985   2.882   0.652   3.608  0.9897 -0.0503  0.7334
 7784SOL    HW234986   2.916   0.696   3.470  0.0633  0.2893  0.0161
 7785SOL     OW34987   0.637   3.186   4.730 -0.6259 -0.1744 -0.0705
 7785SOL    HW134988   0.597   3.121   4.673  2.9207 -1.1641 -1.4448
 7785SOL    HW234989   0.726   3.152   4.724 -0.7050 -0.6242  1.1632
 7786SOL     OW34990   0.275   3.479   7.072  0.4218  0.3206 -0.0887
 7786SOL    HW134991   0.228   3.408   7.116  0.5057  0.0940 -0.3641
 7786SOL    HW234992   0.330   3.512   7.143  0.7741  1.1787 -0.7615
 7787SOL     OW34993   2.705   0.820   1.876 -0.6129  0.0642 -0.2410
 7787SOL    HW134994   2.710   0.842   1.969 -1.2341 -3.3967  0.5909
 7787SOL    HW234995   2.610   0.820   1.866 -0.9011 -1.9156  2.5637
 7788SOL     OW34996   2.337   3.660   5.958  0.4773  0.1741 -0.3233
 7788SOL    HW134997   2.291   3.577   5.973  0.5739  0.7222  2.9614
 7788SOL    HW234998   2.353   3.688   6.048  0.3934  0.6761 -0.4645
 7789SOL     OW34999   4.061   1.314  15.239  0.6141 -0.3375 -0.0744
 7789SOL    HW135000   4.096   1.396  15.206 -2.8482 -0.2459 -3.6063
 7789SOL    HW235001   4.020   1.332  15.323 -0.4712  0.7240 -0.8200
 7790SOL     OW35002   0.643   0.269  12.453 -0.0424  0.6961  0.0491
 7790SOL    HW135003   0.700   0.288  12.528  2.1456  0.7220 -1.6087
 7790SOL    HW235004   0.709   0.286  12.386 -0.5699  2.0578 -0.1378
 7791SOL     OW35005   0.028   3.850   6.922  0.0289 -0.0960 -0.3867
 7791SOL    HW135006   0.032   3.895   6.837 -3.7615  0.2483 -0.3569
 7791SOL    HW235007   4.703   3.779   6.920 -0.8613  0.7044 -0.5252
 7792SOL     OW35008   0.472   3.701  13.429  0.2156  0.3573  0.1368
 7792SOL    HW135009   0.379   3.713  13.448 -0.2725 -2.0609 -0.7887
 7792SOL    HW235010   0.478   3.707  13.334 -1.6990 -0.3962 -0.0135
 7793SOL     OW35011   2.288   4.539  17.011 -0.3919  0.0393 -0.7566
 7793SOL    HW135012   2.380   4.511  17.012 -0.6332 -0.6987  2.3612
 7793SOL    HW235013   2.241   4.481  17.071 -1.3846  1.9988  0.3446
 7794SOL     OW35014   2.429   3.565  10.207  0.0938  0.5491 -0.5353
 7794SOL    HW135015   2.406   3.620  10.282  1.2901  0.5647 -0.1802
 7794SOL    HW235016   2.377   3.601  10.135 -0.1162  0.4316 -0.4425
 7795SOL     OW35017   2.706   1.815  16.447 -0.7462 -0.4290 -0.3167
 7795SOL    HW135018   2.708   1.758  16.371 -2.2135  0.7359 -1.2344
 7795SOL    HW235019   2.703   1.753  16.520 -0.8550 -0.1819 -0.1103
 7796SOL     OW35020   3.994   3.302   6.798  0.4369  0.2985 -0.0287
 7796SOL    HW135021   4.023   3.381   6.753  0.8083  1.2801  1.8876
 7796SOL    HW235022   3.932   3.337   6.862  0.7571  1.2012 -0.2076
 7797SOL     OW35023   0.146   0.583   7.251  0.1405  0.2308  0.0239
 7797SOL    HW135024   0.107   0.504   7.288 -1.2278  0.2236 -1.4333
 7797SOL    HW235025   0.070   0.640   7.241  2.0288  2.3346 -2.5895
 7798SOL     OW35026   3.715   4.004   4.931 -0.5639 -0.0978  0.1055
 7798SOL    HW135027   3.645   4.021   4.994 -1.4329  0.6057 -1.0701
 7798SOL    HW235028   3.679   4.026   4.845 -0.2980 -0.2749 -0.0531
 7799SOL     OW35029   0.265   3.453   7.863 -0.7116  0.7129  0.4150
 7799SOL    HW135030   0.243   3.473   7.954 -1.0428 -4.6487  1.5295
 7799SOL    HW235031   0.262   3.357   7.865  2.1261  0.6291 -0.8657
 7800SOL     OW35032   0.760   0.277   1.346  0.4669  0.5248 -0.5032
 7800SOL    HW135033   0.848   0.261   1.380  0.4940 -1.1079 -1.3420
 7800SOL    HW235034   0.765   0.241   1.257  0.6096  1.2316 -0.7797
 7801SOL     OW35035   3.674   3.047   2.880  0.1392  0.2297  0.1517
 7801SOL    HW135036   3.685   3.022   2.972  0.8737  1.0750  0.2956
 7801SOL    HW235037   3.689   3.142   2.879  1.2959  0.0499  0.3416
 7802SOL     OW35038   4.370   0.513   4.729  0.1771 -0.8384 -0.4112
 7802SOL    HW135039   4.370   0.427   4.772  0.9449 -0.4828  0.3013
 7802SOL    HW235040   4.450   0.550   4.766 -1.3947  1.3018  0.8663
 7803SOL     OW35041   1.782   0.823  15.565 -0.6285 -0.4332 -0.2010
 7803SOL    HW135042   1.742   0.846  15.481  1.8607  0.5827 -1.1171
 7803SOL    HW235043   1.811   0.907  15.603 -0.1610 -1.0819  0.8756
 7804SOL     OW35044   2.531   2.024   6.482  0.5057 -0.2029  0.4902
 7804SOL    HW135045   2.451   2.067   6.451  0.4993 -0.8315 -0.3386
 7804SOL    HW235046   2.521   1.933   6.455 -1.3319  0.0071  0.4110
 7805SOL     OW35047   2.562   0.184   9.295  0.1279 -0.0131 -0.3057
 7805SOL    HW135048   2.594   0.124   9.227 -0.3311 -2.2042  1.4217
 7805SOL    HW235049   2.469   0.164   9.305 -0.2598  1.8726 -0.1090
 7806SOL     OW35050   2.057   1.330   2.626 -0.8033  0.5756 -0.5451
 7806SOL    HW135051   2.111   1.395   2.582 -1.7985  1.9446  0.2538
 7806SOL    HW235052   2.117   1.266   2.663 -2.0368 -0.5455 -0.4994
 7807SOL     OW35053   3.530   4.291   4.430  0.1745 -0.8929 -0.1108
 7807SOL    HW135054   3.528   4.285   4.525 -0.6411 -0.1817 -0.0820
 7807SOL    HW235055   3.625   4.294   4.425  0.1612  0.4539  0.5005
 7808SOL     OW35056   1.332   3.403   4.926 -0.1239  0.3662  0.1446
 7808SOL    HW135057   1.299   3.321   4.963  1.0891 -0.1452  0.0981
 7808SOL    HW235058   1.312   3.474   4.987 -0.5625 -1.4734  2.1348
 7809SOL     OW35059   2.909   1.556  10.824 -0.6046 -0.2335  0.5109
 7809SOL    HW135060   2.867   1.476  10.791  1.3957 -0.8434 -0.5671
 7809SOL    HW235061   2.894   1.548  10.918 -1.8547 -3.8253 -0.0010
 7810SOL     OW35062   1.681   4.314  10.601  0.0649 -0.4822  0.5764
 7810SOL    HW135063   1.767   4.273  10.600  0.5623  0.5714 -0.0369
 7810SOL    HW235064   1.666   4.329  10.694 -0.3075 -1.8444  0.7327
 7811SOL     OW35065   1.043   0.706  12.243 -0.3483 -0.2680 -0.3492
 7811SOL    HW135066   1.060   0.757  12.321 -1.5218 -1.0982  0.4537
 7811SOL    HW235067   0.954   0.675  12.261 -0.3077  0.1108  0.4638
 7812SOL     OW35068   0.215   1.018   9.129  0.4300  0.0144  0.2507
 7812SOL    HW135069   0.169   0.936   9.142 -0.0025  0.4132  1.1986
 7812SOL    HW235070   0.157   1.074   9.077  0.4071 -1.1549 -0.9799
 7813SOL     OW35071   1.336   1.657   9.240  0.4003  0.2000  0.3128
 7813SOL    HW135072   1.289   1.622   9.316 -1.1836  1.9442  0.1449
 7813SOL    HW235073   1.423   1.675   9.274  0.7134 -1.9819  0.6201
 7814SOL     OW35074   2.974   2.997  12.740  0.5750 -0.0514 -0.3298
 7814SOL    HW135075   2.935   2.954  12.664  0.9471 -0.2291 -0.4195
 7814SOL    HW235076   3.067   2.999  12.716  0.7690  0.9706  0.4899
 7815SOL     OW35077   4.038   3.518  15.782  0.2346 -0.4947 -0.3709
 7815SOL    HW135078   4.105   3.541  15.846  0.5162  1.2910 -1.3122
 7815SOL    HW235079   3.965   3.523  15.842  0.4036  1.6094 -0.3456
 7816SOL     OW35080   3.470   0.203  17.311  0.1287  0.2083  0.4318
 7816SOL    HW135081   3.468   0.161  17.225  2.7291  1.2360 -0.1071
 7816SOL    HW235082   3.504   0.135  17.369  0.5459 -0.5879 -0.7443
 7817SOL     OW35083   0.663   1.200   3.968  0.0858 -0.1503  0.6879
 7817SOL    HW135084   0.686   1.229   4.057  0.5715  0.9153  0.2075
 7817SOL    HW235085   0.723   1.243   3.908 -1.1915 -0.7060 -0.9688
 7818SOL     OW35086   0.637   4.019   8.801  0.2666 -0.1508 -0.0981
 7818SOL    HW135087   0.691   4.094   8.774 -0.0162 -0.2483 -0.9060
 7818SOL    HW235088   0.690   3.945   8.773  0.0627 -0.0243 -0.8048
 7819SOL     OW35089   2.366   3.285   3.213  0.2849  0.2530 -0.0586
 7819SOL    HW135090   2.451   3.292   3.171  0.9617 -0.3419  1.2064
 7819SOL    HW235091   2.352   3.192   3.195  0.3939  0.3721 -0.7466
 7820SOL     OW35092   0.120   2.240  16.667 -0.3516 -0.1218 -0.5730
 7820SOL    HW135093   0.167   2.159  16.688  1.1560  1.0020  0.3698
 7820SOL    HW235094   0.195   2.289  16.633  0.3098  1.9718  4.0279
 7821SOL     OW35095   4.339   1.818  14.869  0.4313  0.2348  0.3846
 7821SOL    HW135096   4.298   1.856  14.946  1.1088  1.3036  0.2234
 7821SOL    HW235097   4.430   1.848  14.877  0.3169  0.9896 -1.0430
 7822SOL     OW35098   4.089   0.166   1.905 -0.0290  0.2860  0.8329
 7822SOL    HW135099   4.019   0.117   1.862  1.6305 -1.9927  0.7680
 7822SOL    HW235100   4.033   0.240   1.929 -0.4751  0.0356  0.5786
 7823SOL     OW35101   3.356   4.583   5.846  0.3418 -0.1707 -0.2553
 7823SOL    HW135102   3.282   4.529   5.818 -1.2512  0.7500  2.2182
 7823SOL    HW235103   3.378   4.527   5.920 -0.2277  1.0348  0.8143
 7824SOL     OW35104   0.425   2.518   9.211 -0.4702 -0.1428  0.1322
 7824SOL    HW135105   0.377   2.487   9.134  1.1616  1.8192 -1.6854
 7824SOL    HW235106   0.519   2.523   9.194 -1.0467 -0.9601 -3.2628
 7825SOL     OW35107   2.803   4.355  10.276  0.1360 -0.2685 -0.2811
 7825SOL    HW135108   2.790   4.424  10.341 -3.6550 -1.7511  0.5151
 7825SOL    HW235109   2.887   4.318  10.306  0.4085  0.5106 -0.0961
 7826SOL     OW35110   1.977   3.857  10.628  0.3630 -0.4107  1.2349
 7826SOL    HW135111   2.024   3.778  10.602  0.9616  0.4611 -0.3366
 7826SOL    HW235112   2.026   3.927  10.584 -0.5927  0.1344  1.0365
 7827SOL     OW35113   1.055   0.363   3.520 -0.5595 -0.5875  0.4489
 7827SOL    HW135114   0.971   0.403   3.542 -1.5800 -2.5091  0.0577
 7827SOL    HW235115   1.107   0.363   3.601 -0.5937 -1.5608  0.4779
 7828SOL     OW35116   2.933   2.453   2.211 -0.1313  0.0095 -0.0172
 7828SOL    HW135117   2.873   2.482   2.143  0.6516  0.5911 -0.4522
 7828SOL    HW235118   2.908   2.513   2.282 -1.5841 -1.2915  0.5608
 7829SOL     OW35119   0.762   1.052  11.323  0.1890 -0.2472  0.4633
 7829SOL    HW135120   0.837   1.110  11.335 -0.2874  0.1638  1.4751
 7829SOL    HW235121   0.745   1.046  11.229 -2.0701 -0.9840  0.9135
 7830SOL     OW35122   2.496   1.856   6.139 -0.5750 -0.5571  0.1313
 7830SOL    HW135123   2.492   1.935   6.085  2.5259  0.0086  0.7252
 7830SOL    HW235124   2.434   1.799   6.094  1.4635 -2.0747 -0.7479
 7831SOL     OW35125   0.640   2.120  14.953  0.3269  0.0448  0.2553
 7831SOL    HW135126   0.569   2.159  14.900 -0.9242 -1.1014  1.0904
 7831SOL    HW235127   0.710   2.169  14.910  0.7108  1.0578  2.0260
 7832SOL     OW35128   3.107   3.294  13.822 -0.4011  0.3737  0.1468
 7832SOL    HW135129   3.024   3.311  13.777 -0.6479  2.4826  1.4495
 7832SOL    HW235130   3.138   3.214  13.779 -1.9004 -0.8609  1.3313
 7833SOL     OW35131   4.731   1.207  15.508 -0.7657 -0.4669 -0.1861
 7833SOL    HW135132   4.714   1.277  15.571  0.9697  0.6342 -0.9185
 7833SOL    HW235133   0.046   1.157  15.569 -1.3281 -0.6616  0.1501
 7834SOL     OW35134   1.825   3.990  15.901  0.1037  0.6752  0.3721
 7834SOL    HW135135   1.844   4.068  15.849  2.5474  0.4391  0.9146
 7834SOL    HW235136   1.760   4.023  15.963 -1.3168  1.5201 -1.5739
 7835SOL     OW35137   0.340   1.690   9.248  0.1744 -0.7117  0.3460
 7835SOL    HW135138   0.435   1.682   9.241  0.4880  2.3883  1.4348
 7835SOL    HW235139   0.334   1.745   9.326  1.6179 -3.0421  2.1258
 7836SOL     OW35140   3.034   3.602   8.216  0.0161 -0.1421 -0.1176
 7836SOL    HW135141   3.052   3.544   8.142  0.4821 -0.6027  0.3581
 7836SOL    HW235142   3.097   3.567   8.279  0.3863 -0.6086 -0.7503
 7837SOL     OW35143   1.327   0.935   4.541 -0.4592  0.5455 -0.4135
 7837SOL    HW135144   1.375   1.004   4.586 -0.5131  1.3340 -1.5619
 7837SOL    HW235145   1.394   0.900   4.482 -1.8527 -1.2420 -0.9386
 7838SOL     OW35146   4.500   2.089   6.809  0.1118 -0.0448  0.3487
 7838SOL    HW135147   4.408   2.075   6.833  0.1455 -1.2340 -0.2526
 7838SOL    HW235148   4.508   2.014   6.751 -1.5975 -0.1509  0.2624
 7839SOL     OW35149   1.853   0.620   3.765  0.0670 -0.0567 -0.2870
 7839SOL    HW135150   1.766   0.658   3.776  0.1822  0.0384  0.2505
 7839SOL    HW235151   1.833   0.527   3.775 -0.6636 -0.0000 -1.1592
 7840SOL     OW35152   0.938   3.939   2.693  0.3314 -0.5255  0.1370
 7840SOL    HW135153   0.882   3.953   2.616  0.2057  1.0561  0.5222
 7840SOL    HW235154   0.957   3.845   2.686  0.3136 -0.5958  1.0954
 7841SOL     OW35155   2.648   0.187   3.071  0.3136  0.0008  0.4572
 7841SOL    HW135156   2.590   0.173   3.146  0.4441  0.8834  0.7298
 7841SOL    HW235157   2.707   0.112   3.076  0.3461  0.0664  1.1068
 7842SOL     OW35158   1.039   2.850   4.724  0.2493 -0.0924 -0.1757
 7842SOL    HW135159   1.057   2.934   4.766 -3.4051  0.3261  0.5978
 7842SOL    HW235160   1.026   2.876   4.633  1.1079  0.0595 -0.2562
 7843SOL     OW35161   2.866   4.090  10.989 -0.3511 -0.0607 -0.4098
 7843SOL    HW135162   2.808   4.075  10.914  0.1775 -0.4080 -0.7512
 7843SOL    HW235163   2.953   4.085  10.948 -1.5857  0.7904 -3.1871
 7844SOL     OW35164   4.695   1.863   5.097  0.4394 -0.5662  0.5119
 7844SOL    HW135165   4.651   1.947   5.099 -0.6103 -1.1366  1.2430
 7844SOL    HW235166   4.680   1.838   5.188  0.4837 -0.7016  0.4823
 7845SOL     OW35167   1.112   1.588   4.857 -0.3059  1.1695  0.7134
 7845SOL    HW135168   1.079   1.671   4.822  0.8915  1.1807 -0.4065
 7845SOL    HW235169   1.207   1.605   4.860 -0.0801  0.3066 -1.4482
 7846SOL     OW35170   1.430   1.638   7.748 -0.3361 -0.3554 -0.2428
 7846SOL    HW135171   1.371   1.699   7.794  1.5094  2.6538 -1.8630
 7846SOL    HW235172   1.456   1.686   7.670 -0.4372  1.8639  1.0831
 7847SOL     OW35173   2.578   3.839   8.987 -0.4351 -0.4177 -0.3982
 7847SOL    HW135174   2.585   3.920   9.037  0.5146 -1.2864  0.8683
 7847SOL    HW235175   2.520   3.793   9.048 -2.4315  0.8726 -1.3198
 7848SOL     OW35176   2.623   4.641   2.769  0.3714 -0.4784  0.5941
 7848SOL    HW135177   2.649   4.625   2.678  2.3333  1.7345  0.7581
 7848SOL    HW235178   2.707   4.685   2.784 -1.1756  2.2162  1.3688
 7849SOL     OW35179   1.464   1.483   8.751  0.2905  0.1859  0.3231
 7849SOL    HW135180   1.485   1.461   8.842 -0.5374  0.8165  0.6722
 7849SOL    HW235181   1.513   1.414   8.707 -1.7277 -1.7146  1.0680
 7850SOL     OW35182   0.876   0.836  17.096 -0.2891  0.2085 -0.1163
 7850SOL    HW135183   0.928   0.759  17.121  2.4645  2.1608  0.1570
 7850SOL    HW235184   0.897   0.851  17.004  0.8736 -2.0564 -0.2352
 7851SOL     OW35185   3.347   2.541  17.047 -0.6656 -0.3214  0.7240
 7851SOL    HW135186   3.354   2.630  17.082 -0.9195 -0.4957  1.2307
 7851SOL    HW235187   3.423   2.501  17.091 -0.8241 -0.1357  1.1692
 7852SOL     OW35188   3.534   3.594   7.166  0.9050  0.6220  0.7103
 7852SOL    HW135189   3.609   3.646   7.136  0.1934  0.6131 -1.1340
 7852SOL    HW235190   3.563   3.567   7.253  1.1725  0.8097  0.6815
 7853SOL     OW35191   0.674   2.360  12.003 -0.3628  0.2644  0.3517
 7853SOL    HW135192   0.749   2.309  12.034 -1.5687 -1.1287  0.9955
 7853SOL    HW235193   0.625   2.377  12.084 -0.7427 -0.6902  0.3225
 7854SOL     OW35194   1.268   0.313   1.552  0.0497 -0.1963  0.0897
 7854SOL    HW135195   1.240   0.236   1.601 -1.7540  0.8454  0.6832
 7854SOL    HW235196   1.289   0.373   1.623  0.0360 -1.1095  0.8729
 7855SOL     OW35197   2.892   3.271  13.671  0.1008 -0.3942 -0.2627
 7855SOL    HW135198   2.799   3.252  13.686 -0.0130  1.2084  1.1230
 7855SOL    HW235199   2.898   3.246  13.578  0.4655 -0.2267 -0.2842
 7856SOL     OW35200   4.523   1.901  11.922 -0.1185  0.3380 -0.3871
 7856SOL    HW135201   4.618   1.894  11.911 -0.5429 -2.7362 -2.0478
 7856SOL    HW235202   4.514   1.887  12.016  0.3847 -0.8783 -0.5248
 7857SOL     OW35203   0.853   3.676   6.950 -0.2740  0.0843  0.6094
 7857SOL    HW135204   0.925   3.694   6.889  0.6406  0.0066  1.6559
 7857SOL    HW235205   0.856   3.581   6.938 -2.8655  0.4772 -2.9845
 7858SOL     OW35206   2.388   1.045   8.376 -0.5825 -0.2207 -0.1132
 7858SOL    HW135207   2.476   1.082   8.370 -0.2739 -0.8228  0.7923
 7858SOL    HW235208   2.387   0.977   8.308 -0.4619  0.2348 -0.5719
 7859SOL     OW35209   1.259   3.822   5.668  0.2161  0.0500 -0.7953
 7859SOL    HW135210   1.191   3.888   5.656  2.1141  2.2000  0.2551
 7859SOL    HW235211   1.312   3.861   5.737  1.9292 -2.4617 -0.7110
 7860SOL     OW35212   3.925   3.591   7.547  0.1064  0.1478  0.2180
 7860SOL    HW135213   3.890   3.591   7.458  0.1829  1.8130  0.1999
 7860SOL    HW235214   3.929   3.495   7.555  0.9406  0.2949  1.4274
 7861SOL     OW35215   3.406   0.284   9.013  0.1628  0.1798  0.5678
 7861SOL    HW135216   3.418   0.191   8.995  0.6542  0.8581 -2.5731
 7861SOL    HW235217   3.450   0.292   9.098 -1.5377  0.4202  1.4158
 7862SOL     OW35218   4.562   2.693   5.517  0.2856  0.8107 -0.5087
 7862SOL    HW135219   4.565   2.742   5.434  1.0045 -0.2025 -1.0906
 7862SOL    HW235220   4.647   2.713   5.556  0.4454 -0.3765 -0.2673
 7863SOL     OW35221   3.932   3.154  16.002  0.1465 -0.2045 -0.8913
 7863SOL    HW135222   3.912   3.066  15.969  2.2635 -1.2895  0.6702
 7863SOL    HW235223   3.993   3.182  15.934  1.1032 -0.8625 -0.2968
 7864SOL     OW35224   4.545   2.650   1.081 -0.1171 -0.3829  0.2268
 7864SOL    HW135225   4.576   2.629   0.993  0.0219  2.1075 -0.3098
 7864SOL    HW235226   4.537   2.745   1.079  0.8717 -0.3085 -0.2353
 7865SOL     OW35227   2.869   0.624   5.912 -0.4455  0.2591  0.5168
 7865SOL    HW135228   2.793   0.578   5.875  0.0990 -0.2323 -0.0091
 7865SOL    HW235229   2.937   0.587   5.855 -0.3663  0.4056  0.5172
 7866SOL     OW35230   0.132   1.639   1.813 -0.5228  0.1353  0.4190
 7866SOL    HW135231   0.138   1.648   1.718 -0.0311 -0.3608  0.4041
 7866SOL    HW235232   0.201   1.573   1.822 -0.5214 -0.1547 -1.7069
 7867SOL     OW35233   0.541   2.720   6.561  0.1292  0.2167 -0.2929
 7867SOL    HW135234   0.478   2.784   6.595  0.4173  0.9637 -1.1652
 7867SOL    HW235235   0.581   2.691   6.643 -1.5639  0.7946  0.7490
 7868SOL     OW35236   0.199   2.726   1.986 -0.5686 -0.0288 -0.0350
 7868SOL    HW135237   0.265   2.671   2.029 -0.1576 -0.0132 -0.6481
 7868SOL    HW235238   0.134   2.656   1.988  0.4813 -0.9580  2.4084
 7869SOL     OW35239   2.131   0.597   5.019  0.1145 -0.3404  0.6378
 7869SOL    HW135240   2.198   0.541   4.982  0.2623 -0.3328  0.8947
 7869SOL    HW235241   2.076   0.615   4.942 -0.6508 -0.3945  1.1710
 7870SOL     OW35242   3.943   4.728   2.141  0.5489  0.0530  0.0023
 7870SOL    HW135243   3.890   0.036   2.206  0.8445  0.9305 -0.3868
 7870SOL    HW235244   3.990   4.665   2.195 -0.6035  0.6500  1.6760
 7871SOL     OW35245   0.711   2.864   6.006  0.4059 -0.7000 -0.3434
 7871SOL    HW135246   0.762   2.850   5.926  2.0513  0.7103  0.4495
 7871SOL    HW235247   0.772   2.857   6.080  1.0005  1.6504 -0.6042
 7872SOL     OW35248   1.015   0.361  15.550 -0.5867 -0.4677  0.0373
 7872SOL    HW135249   1.010   0.444  15.598  1.1356 -0.5125  0.2895
 7872SOL    HW235250   0.961   0.394  15.479 -3.1458 -1.6010  1.4479
 7873SOL     OW35251   1.247   2.609   0.075 -0.1491 -0.0738  0.0964
 7873SOL    HW135252   1.171   2.553   0.063 -0.7344  0.7909 -0.2338
 7873SOL    HW235253   1.312   2.584   0.009  1.2772 -1.5532  2.0812
 7874SOL     OW35254   3.554   2.189   0.606 -0.5436 -0.0508 -0.5031
 7874SOL    HW135255   3.644   2.221   0.602 -0.9854  1.3719  0.9214
 7874SOL    HW235256   3.566   2.132   0.530  3.4132  1.3940 -0.9614
 7875SOL     OW35257   3.011   0.036   7.480  0.2911  0.3492 -0.3244
 7875SOL    HW135258   3.095   0.009   7.517 -0.3437 -1.4318 -0.1725
 7875SOL    HW235259   2.949   4.737   7.542  0.6769  2.3294  1.2429
 7876SOL     OW35260   3.673   2.858   8.241  0.0824 -0.0473 -0.1882
 7876SOL    HW135261   3.702   2.768   8.227 -1.5367 -0.4861 -0.6089
 7876SOL    HW235262   3.757   2.893   8.212  0.7011 -1.4970 -0.1373
 7877SOL     OW35263   0.609   2.074  12.414 -0.4470  0.0353  0.0073
 7877SOL    HW135264   0.516   2.067  12.391  0.1209  0.4826 -2.4274
 7877SOL    HW235265   0.619   2.161  12.375  1.5776  0.2644  1.0218
 7878SOL     OW35266   4.573   2.873   1.765 -0.0871  0.0757  0.4047
 7878SOL    HW135267   4.634   2.841   1.698 -1.7334 -2.9507  0.3774
 7878SOL    HW235268   4.531   2.942   1.714  0.0381  0.8274  1.3271
 7879SOL     OW35269   1.985   1.059  12.182  0.6961 -0.2158 -0.1474
 7879SOL    HW135270   2.062   1.115  12.189  1.0719 -0.5547 -1.5540
 7879SOL    HW235271   1.960   1.054  12.274 -0.8256 -0.1671 -0.5561
 7880SOL     OW35272   2.847   2.156   1.859 -0.3353 -0.2566  0.1634
 7880SOL    HW135273   2.792   2.168   1.782 -1.1922 -3.6318  0.2276
 7880SOL    HW235274   2.837   2.062   1.877 -1.4766  0.1709  1.7116
 7881SOL     OW35275   2.431   3.388  10.673  0.2243  0.8118 -0.1230
 7881SOL    HW135276   2.416   3.478  10.702  0.5346  0.8085  0.0514
 7881SOL    HW235277   2.497   3.403  10.606 -0.9511 -0.3255 -1.5306
 7882SOL     OW35278   1.284   0.187   2.795 -0.0392 -0.2762 -0.1172
 7882SOL    HW135279   1.277   0.109   2.849 -0.7212  1.0955  1.7729
 7882SOL    HW235280   1.306   0.151   2.709  1.8925 -0.4020  0.4229
 7883SOL     OW35281   0.255   1.926   8.044 -0.2299  0.1712  0.3994
 7883SOL    HW135282   0.255   2.002   8.103 -0.6848 -0.1656  0.8348
 7883SOL    HW235283   0.250   1.858   8.112 -0.5179 -0.8890 -0.6815
 7884SOL     OW35284   2.176   2.350  16.073  0.2629 -0.2365 -0.5016
 7884SOL    HW135285   2.204   2.263  16.042 -0.7289 -1.1950  1.3343
 7884SOL    HW235286   2.214   2.415  16.014 -1.6846  2.3189  1.0942
 7885SOL     OW35287   1.515   1.268   5.219  0.1661  0.0981 -0.5871
 7885SOL    HW135288   1.449   1.207   5.251  0.1949  0.2345 -0.2653
 7885SOL    HW235289   1.463   1.346   5.200 -0.1876  0.4767  1.9106
 7886SOL     OW35290   0.609   0.999   1.745 -0.1205  0.2544  0.0978
 7886SOL    HW135291   0.680   0.935   1.745 -0.1231  0.2516  1.3476
 7886SOL    HW235292   0.644   1.056   1.813  0.6834  1.0159 -0.9483
 7887SOL     OW35293   2.796   0.586   2.794 -0.2188 -0.6571 -0.0257
 7887SOL    HW135294   2.742   0.512   2.822  0.9616 -0.6559  2.2697
 7887SOL    HW235295   2.780   0.599   2.701 -1.9880 -0.2260  0.3541
 7888SOL     OW35296   1.493   1.730   7.479  0.6776  0.4614 -0.5579
 7888SOL    HW135297   1.563   1.683   7.435  0.3386  0.8779 -1.5529
 7888SOL    HW235298   1.522   1.820   7.462  1.3117  0.2288 -0.6829
 7889SOL     OW35299   1.131   1.378  14.980 -0.3985  0.1438  0.3189
 7889SOL    HW135300   1.067   1.435  15.022 -1.2971 -1.7762  1.5643
 7889SOL    HW235301   1.101   1.290  15.001 -0.6203  0.3740  0.9666
 7890SOL     OW35302   3.727   0.092   7.987 -0.0303 -0.4775  0.3680
 7890SOL    HW135303   3.721   0.080   8.082  0.3903 -1.1900  0.3073
 7890SOL    HW235304   3.814   0.056   7.971 -0.1575 -1.1553  1.1594
 7891SOL     OW35305   1.683   2.738   1.055 -0.3800  0.2860 -0.6272
 7891SOL    HW135306   1.609   2.713   1.110  0.8928 -0.2256  0.8619
 7891SOL    HW235307   1.749   2.684   1.100  0.2904  1.9095  0.3478
 7892SOL     OW35308   3.838   4.087   1.358  0.1487 -0.6561  0.5530
 7892SOL    HW135309   3.858   4.133   1.277 -2.2156  0.7283  0.7882
 7892SOL    HW235310   3.895   4.141   1.413 -0.4232  0.7291 -0.2260
 7893SOL     OW35311   1.880   2.151   7.647  0.0154  0.0081  0.6083
 7893SOL    HW135312   1.866   2.075   7.703  0.0090 -1.2774 -1.1330
 7893SOL    HW235313   1.794   2.191   7.655  0.9993  2.3481 -0.7273
 7894SOL     OW35314   3.764   2.536   4.898  0.2508 -0.7487 -0.3038
 7894SOL    HW135315   3.794   2.562   4.810 -0.1140  2.3578  0.4903
 7894SOL    HW235316   3.671   2.516   4.887  0.5069 -1.1097 -1.8604
 7895SOL     OW35317   3.240   2.566  14.301 -0.6285  0.0769 -0.0906
 7895SOL    HW135318   3.269   2.656  14.292  2.3981 -1.1154 -2.3939
 7895SOL    HW235319   3.285   2.529  14.377 -0.7051  0.8316  0.3216
 7896SOL     OW35320   3.686   2.215   4.837  0.0401 -0.3532 -0.2902
 7896SOL    HW135321   3.613   2.256   4.883  0.6439 -1.0308  1.2577
 7896SOL    HW235322   3.695   2.261   4.753 -0.4886  0.9963  0.3956
 7897SOL     OW35323   1.351   0.246   7.705 -0.0678  0.0142 -0.3146
 7897SOL    HW135324   1.314   0.332   7.690 -0.6481 -0.0772  0.5691
 7897SOL    HW235325   1.328   0.243   7.798 -1.3048 -0.6675 -0.6336
 7898SOL     OW35326   4.654   0.027   3.515  0.4721 -0.0477  0.1905
 7898SOL    HW135327   4.579   0.086   3.530 -0.4889 -0.9744 -0.9612
 7898SOL    HW235328   4.624   4.678   3.538 -0.1715  0.8130  2.6586
 7899SOL     OW35329   4.508   3.811   8.808  0.3533 -0.4736 -0.2236
 7899SOL    HW135330   4.565   3.887   8.822  0.7043 -0.5686 -1.1570
 7899SOL    HW235331   4.578   3.748   8.790 -1.4281 -1.5249 -3.4808
 7900SOL     OW35332   0.933   1.669   9.579 -0.6364  0.4300 -0.4566
 7900SOL    HW135333   0.965   1.704   9.496  1.5581 -0.2372  0.0889
 7900SOL    HW235334   1.002   1.603   9.577  0.8141  1.8753  2.1785
 7901SOL     OW35335   4.448   1.225  15.505  0.0821 -0.2597 -1.2768
 7901SOL    HW135336   4.439   1.320  15.505  0.0125 -0.2662 -1.2253
 7901SOL    HW235337   4.537   1.201  15.480  0.6961  0.6418  0.0717
 7902SOL     OW35338   3.818   1.931   3.701 -0.0560  0.7272 -0.1043
 7902SOL    HW135339   3.887   1.872   3.671  0.6085  2.4600 -2.0444
 7902SOL    HW235340   3.860   1.996   3.757 -0.3551 -0.6183  1.6543
 7903SOL     OW35341   0.833   2.044  14.610 -0.1285  0.1610 -0.0896
 7903SOL    HW135342   0.852   2.133  14.641  0.3924 -0.2092  0.6272
 7903SOL    HW235343   0.915   2.000  14.631  0.0009  0.2803 -0.3474
 7904SOL     OW35344   3.182   2.573   0.173  0.0408  0.0255 -0.3210
 7904SOL    HW135345   3.254   2.538   0.226  0.0411  1.3821  0.5806
 7904SOL    HW235346   3.170   2.659   0.214  0.2918  0.0034 -0.2025
 7905SOL     OW35347   3.910   4.558   7.816  0.0020 -0.3315 -0.1358
 7905SOL    HW135348   3.852   4.554   7.892  1.1958 -1.7229  0.6937
 7905SOL    HW235349   3.987   4.512   7.849 -0.4529 -0.9710  0.0352
 7906SOL     OW35350   2.814   3.688   4.356  0.0463  0.2528  0.8456
 7906SOL    HW135351   2.743   3.625   4.343 -1.7800  2.9081 -2.1161
 7906SOL    HW235352   2.877   3.654   4.293  1.2025  1.5101  1.3109
 7907SOL     OW35353   0.598   0.181   0.074  0.3119  0.3592 -1.1884
 7907SOL    HW135354   0.626   0.241   0.005  2.3269 -0.5128 -1.1350
 7907SOL    HW235355   0.532   0.232   0.121  1.9446  0.9798  0.4337
 7908SOL     OW35356   0.534   4.166  14.050  0.1927  0.3808 -0.2670
 7908SOL    HW135357   0.540   4.088  14.105  1.9323 -0.7526 -2.0855
 7908SOL    HW235358   0.489   4.224  14.112 -1.5408  1.5585 -2.6073
 7909SOL     OW35359   2.945   2.706   7.694 -0.2075  0.1667  0.5093
 7909SOL    HW135360   3.012   2.638   7.684  0.5755  0.6666  2.4032
 7909SOL    HW235361   2.997   2.785   7.710 -0.8459  0.6665  0.1248
 7910SOL     OW35362   4.486   2.550   3.623  0.0915 -0.0054  0.2223
 7910SOL    HW135363   4.486   2.465   3.666 -2.9812  0.2597  0.7604
 7910SOL    HW235364   4.516   2.608   3.692  1.0517 -1.4041  0.9726
 7911SOL     OW35365   1.452   3.159   7.606  0.2993 -0.1937  0.2363
 7911SOL    HW135366   1.368   3.186   7.644  1.3030  1.4303  1.2872
 7911SOL    HW235367   1.498   3.242   7.621  0.3333 -0.4081  1.3027
 7912SOL     OW35368   1.083   1.991   2.642  0.5831 -0.0719  0.7767
 7912SOL    HW135369   1.008   1.990   2.583  0.6790  0.9641  0.6257
 7912SOL    HW235370   1.039   1.973   2.725 -0.0833 -2.4381 -0.1056
 7913SOL     OW35371   1.816   1.421   3.794  0.0277  0.1517  0.2517
 7913SOL    HW135372   1.883   1.421   3.863  0.9595  0.0981 -0.6576
 7913SOL    HW235373   1.773   1.337   3.810 -1.3589  0.2050 -3.2217
 7914SOL     OW35374   2.254   0.976   9.713  0.0600  0.2392 -0.2449
 7914SOL    HW135375   2.175   1.015   9.676 -1.1223 -0.7741  1.2083
 7914SOL    HW235376   2.271   0.901   9.657 -0.1721  1.7490 -2.3030
 7915SOL     OW35377   0.243   2.409   0.438  0.1759  0.0006 -0.8443
 7915SOL    HW135378   0.206   2.365   0.362 -0.6729  1.4191 -1.2490
 7915SOL    HW235379   0.165   2.431   0.490 -0.0972 -0.4561 -1.0574
 7916SOL     OW35380   3.705   1.760   7.368 -0.2767  0.1929  0.6263
 7916SOL    HW135381   3.714   1.795   7.280  1.2644 -1.4383  0.1392
 7916SOL    HW235382   3.617   1.721   7.367 -0.3268  0.3792 -2.6257
 7917SOL     OW35383   0.187   2.729   7.042  0.0298 -0.3677 -0.3653
 7917SOL    HW135384   0.263   2.787   7.044  0.6036 -1.1709  0.9950
 7917SOL    HW235385   0.226   2.644   7.021 -0.0855 -0.4987 -0.0521
 7918SOL     OW35386   2.853   2.207  10.730  0.2116  0.3244 -0.0114
 7918SOL    HW135387   2.782   2.150  10.759  0.3992 -0.1035 -0.3915
 7918SOL    HW235388   2.824   2.225  10.641 -1.5287 -2.5777 -0.0163
 7919SOL     OW35389   4.278   1.208   1.989  0.0581 -0.4816 -0.1393
 7919SOL    HW135390   4.258   1.150   1.915 -2.3330 -0.1863  0.2896
 7919SOL    HW235391   4.365   1.169   2.003 -0.6796 -2.0789  0.0735
 7920SOL     OW35392   2.569   4.395  13.989 -0.0725 -0.3988  0.0053
 7920SOL    HW135393   2.532   4.374  13.903 -0.0299 -1.3798  0.2283
 7920SOL    HW235394   2.551   4.310  14.027 -0.7252 -0.1482  0.2588
 7921SOL     OW35395   2.135   4.305  15.263  1.0790 -0.1851 -0.5146
 7921SOL    HW135396   2.102   4.263  15.183 -1.8195 -0.0749  0.6482
 7921SOL    HW235397   2.055   4.311  15.315  1.5187  1.7863 -0.0624
 7922SOL     OW35398   0.446   0.657   2.210 -0.9749 -0.1619 -0.2709
 7922SOL    HW135399   0.481   0.729   2.158 -0.3818  0.4478  0.9713
 7922SOL    HW235400   0.465   0.579   2.159  2.3706  0.7975 -0.4762
 7923SOL     OW35401   4.025   2.722   3.496  0.3342  0.7774  0.2882
 7923SOL    HW135402   3.970   2.735   3.574  1.2524 -0.4444  1.1359
 7923SOL    HW235403   4.101   2.775   3.520  1.0825 -0.8307  1.5162
 7924SOL     OW35404   2.531   0.030  12.381 -0.0239  0.1831  0.4673
 7924SOL    HW135405   2.473   0.078  12.322  2.6535  0.4421 -1.9745
 7924SOL    HW235406   2.553   4.701  12.317  1.3242  1.2737 -0.2326
 7925SOL     OW35407   1.136   4.190   1.388  0.5609  0.3280  0.1272
 7925SOL    HW135408   1.189   4.146   1.454  0.3968 -1.0529 -0.6545
 7925SOL    HW235409   1.052   4.144   1.394  1.2936 -1.2155 -1.2839
 7926SOL     OW35410   4.560   1.190   7.877 -0.3099  0.5211  0.3226
 7926SOL    HW135411   4.514   1.188   7.961 -0.6252  0.6022  0.1510
 7926SOL    HW235412   4.544   1.100   7.849  2.1078  0.9032 -2.2992
 7927SOL     OW35413   0.260   2.281   9.289 -0.7707  0.7499 -0.6232
 7927SOL    HW135414   0.272   2.371   9.260  1.2056  1.2791  1.8200
 7927SOL    HW235415   0.307   2.233   9.221  0.3774  2.2821 -0.9282
 7928SOL     OW35416   1.056   3.817   4.553  0.4824 -0.2057  0.2030
 7928SOL    HW135417   1.037   3.734   4.509  0.5725  0.9359 -2.0075
 7928SOL    HW235418   1.092   3.787   4.636 -1.7974 -0.1767  1.2244
 7929SOL     OW35419   3.992   3.979   3.480  0.1681 -0.1835  0.0271
 7929SOL    HW135420   4.043   3.898   3.473  0.5017  0.1079 -0.9492
 7929SOL    HW235421   4.042   4.035   3.539 -1.0309  0.3155  0.5764
 7930SOL     OW35422   3.453   2.168   5.911 -0.1099  0.5399  0.3701
 7930SOL    HW135423   3.489   2.083   5.936  0.9503  0.8324 -0.1612
 7930SOL    HW235424   3.532   2.220   5.929 -1.0725  2.2475 -0.3646
 7931SOL     OW35425   4.630   0.209  16.170 -0.2774 -0.4517 -0.3081
 7931SOL    HW135426   4.718   0.178  16.192 -0.6981  0.3841  2.5854
 7931SOL    HW235427   4.649   0.303  16.173 -0.7915 -0.4584  3.3131
 7932SOL     OW35428   2.113   3.055   2.899 -0.2664 -0.1322  0.2964
 7932SOL    HW135429   2.086   3.147   2.898 -0.5233 -0.2072  1.3660
 7932SOL    HW235430   2.139   3.032   2.809 -1.7091 -0.9272  0.0927
 7933SOL     OW35431   0.667   2.435   0.201 -0.6129  0.3302 -0.4540
 7933SOL    HW135432   0.598   2.380   0.165 -0.6958  1.7931 -2.5791
 7933SOL    HW235433   0.610   2.482   0.262 -2.0414 -0.3293 -1.2818
 7934SOL     OW35434   3.692   2.573  16.562 -0.0885  0.3905  0.6141
 7934SOL    HW135435   3.613   2.621  16.536  1.1483  0.9245 -2.1153
 7934SOL    HW235436   3.705   2.616  16.647  0.1312  0.3283  0.6119
 7935SOL     OW35437   2.667   0.801   6.290  0.1326 -0.5771 -0.5261
 7935SOL    HW135438   2.622   0.723   6.257 -1.3960 -0.0515  0.3281
 7935SOL    HW235439   2.713   0.770   6.368  0.5840  1.7589  0.1211
 7936SOL     OW35440   1.492   3.109   3.209  0.8878 -0.3497  0.1589
 7936SOL    HW135441   1.402   3.139   3.217  0.3462 -1.5004 -1.5454
 7936SOL    HW235442   1.504   3.173   3.138 -2.1713  0.1810  0.1453
 7937SOL     OW35443   0.141   3.195  11.748  0.5159  0.1186  0.0486
 7937SOL    HW135444   0.079   3.180  11.677 -1.3901  2.0621  1.2970
 7937SOL    HW235445   0.151   3.105  11.779 -0.6690 -0.3440 -0.9540
 7938SOL     OW35446   0.691   3.387  12.418 -0.3503  0.1344 -0.6231
 7938SOL    HW135447   0.760   3.322  12.402 -0.9347  0.4998 -4.7471
 7938SOL    HW235448   0.631   3.368  12.346 -1.2718 -2.1342  0.7341
 7939SOL     OW35449   4.312   0.487   3.036  0.2819  0.1766 -0.0124
 7939SOL    HW135450   4.251   0.561   3.046  2.4901  2.1450 -1.3023
 7939SOL    HW235451   4.374   0.522   2.972 -0.0369 -1.6745 -1.3577
 7940SOL     OW35452   0.525   1.750  15.251 -0.5250 -0.0465 -0.2587
 7940SOL    HW135453   0.579   1.770  15.175  0.6368  0.4853  0.7183
 7940SOL    HW235454   0.446   1.800  15.229  0.4090  0.9043 -1.3736
 7941SOL     OW35455   1.151   4.211   3.423  0.1215 -0.0456  0.3206
 7941SOL    HW135456   1.131   4.126   3.384  1.6236 -0.6885  0.9504
 7941SOL    HW235457   1.134   4.268   3.348 -0.3023  0.5339  0.8597
 7942SOL     OW35458   2.226   0.197   4.485 -0.4316 -0.0386  0.2997
 7942SOL    HW135459   2.175   0.123   4.516  1.3367 -1.3526  0.1060
 7942SOL    HW235460   2.202   0.202   4.392  0.4801 -0.8010  0.0270
 7943SOL     OW35461   3.461   0.710   4.112  0.5053 -0.1864  0.3860
 7943SOL    HW135462   3.453   0.664   4.028  3.7278  0.5854 -0.3420
 7943SOL    HW235463   3.547   0.750   4.103  1.7145 -2.7300  0.7665
 7944SOL     OW35464   1.593   4.103   8.571 -0.2018  0.8267  0.5334
 7944SOL    HW135465   1.636   4.184   8.596  1.1589  0.2620 -0.0143
 7944SOL    HW235466   1.573   4.133   8.483  0.1270 -0.0099  0.1739
 7945SOL     OW35467   2.379   2.425  10.789 -0.0705  0.1193 -0.0248
 7945SOL    HW135468   2.469   2.394  10.785  0.2211  0.8936  0.6162
 7945SOL    HW235469   2.349   2.390  10.705 -3.0596  0.9150  0.7034
 7946SOL     OW35470   1.923   2.619   7.939 -0.2448 -0.1640 -0.1719
 7946SOL    HW135471   1.908   2.648   7.849 -1.0015  0.2207  0.0833
 7946SOL    HW235472   1.996   2.558   7.930 -1.1351 -1.2080 -0.3162
 7947SOL     OW35473   1.979   2.833   3.838 -0.5227 -0.7543 -0.0851
 7947SOL    HW135474   2.073   2.838   3.850 -0.5608 -4.4249  1.7323
 7947SOL    HW235475   1.952   2.806   3.925  1.6777 -0.1685  0.7666
 7948SOL     OW35476   0.436   2.309  15.693 -0.0157 -0.5830 -0.4725
 7948SOL    HW135477   0.480   2.392  15.711  1.2229 -1.0707 -1.2624
 7948SOL    HW235478   0.376   2.340  15.625 -0.5645  0.3958  0.4442
 7949SOL     OW35479   3.021   1.195   2.899  0.0931 -0.3240  0.6008
 7949SOL    HW135480   2.945   1.219   2.846  0.1940 -2.4557 -0.5036
 7949SOL    HW235481   3.046   1.277   2.942  1.7318 -0.4932 -0.0400
 7950SOL     OW35482   1.023   0.989   2.316  0.0654 -0.9173 -0.4011
 7950SOL    HW135483   1.097   0.929   2.322 -0.4853 -1.5157  0.3795
 7950SOL    HW235484   0.995   0.964   2.227  0.6841 -0.6307 -0.6783
 7951SOL     OW35485   3.148   2.119   2.490  0.8592 -0.1026 -0.5717
 7951SOL    HW135486   3.135   2.209   2.459  0.1919  0.0222  0.0873
 7951SOL    HW235487   3.068   2.074   2.462 -0.4892  1.9857 -0.0674
 7952SOL     OW35488   2.152   1.085  12.640  0.0917  0.1110  0.2720
 7952SOL    HW135489   2.221   1.043  12.691  0.3209  0.1065 -0.0412
 7952SOL    HW235490   2.083   1.076  12.706  0.2421  1.6414  0.6381
 7953SOL     OW35491   2.804   3.964   6.294 -0.3421 -0.8807  0.3276
 7953SOL    HW135492   2.782   3.946   6.386 -5.2591 -0.9835 -0.8540
 7953SOL    HW235493   2.770   4.054   6.293  1.1151 -0.3295  0.4410
 7954SOL     OW35494   4.521   4.546   4.402  0.0981  0.4724  0.1268
 7954SOL    HW135495   4.542   4.459   4.368  0.6017 -0.1078  1.8732
 7954SOL    HW235496   4.461   4.577   4.335 -0.1289  0.7940  0.4764
 7955SOL     OW35497   4.116   1.685   8.775  0.3764  0.5019 -0.4098
 7955SOL    HW135498   4.145   1.731   8.696  1.9629 -2.8090 -1.7422
 7955SOL    HW235499   4.180   1.614   8.775  0.3814  0.5073 -0.2610
 7956SOL     OW35500   0.915   1.566  12.312 -0.1749  0.4019 -0.3101
 7956SOL    HW135501   0.832   1.524  12.291 -1.2810  2.4132  0.0127
 7956SOL    HW235502   0.874   1.644  12.349 -1.4487 -0.0309 -0.7885
 7957SOL     OW35503   4.423   1.800   8.471 -0.1088 -0.2077  0.0111
 7957SOL    HW135504   4.345   1.800   8.527 -1.3181  2.9815 -1.6956
 7957SOL    HW235505   4.449   1.892   8.480 -0.9096  0.1289 -1.1199
 7958SOL     OW35506   0.630   1.898  11.532  0.2834  0.0344  0.5856
 7958SOL    HW135507   0.534   1.895  11.542  0.0778 -1.2170 -1.7534
 7958SOL    HW235508   0.630   1.870  11.441  0.8694  3.3316 -0.4414
 7959SOL     OW35509   4.265   4.601   2.512 -0.3665  0.0165  0.1789
 7959SOL    HW135510   4.345   4.636   2.550  0.6012 -1.2617 -0.6747
 7959SOL    HW235511   4.286   4.612   2.419  1.0500 -1.0819  0.3733
 7960SOL     OW35512   3.494   2.680  13.261  0.2865 -0.0238 -0.0939
 7960SOL    HW135513   3.567   2.627  13.230 -0.0670  0.9919 -2.6831
 7960SOL    HW235514   3.419   2.634  13.224  1.7180 -1.1353 -1.6157
 7961SOL     OW35515   2.929   2.656   1.995  0.1951 -0.3524 -0.2818
 7961SOL    HW135516   2.970   2.645   1.909  1.1828  1.7945 -0.0956
 7961SOL    HW235517   2.999   2.690   2.051 -1.8776  1.7648  1.0403
 7962SOL     OW35518   0.552   1.487   0.116  0.3837  0.7322  0.6033
 7962SOL    HW135519   0.501   1.513   0.039  0.6269  0.3984  0.3280
 7962SOL    HW235520   0.568   1.393   0.117 -1.5738  0.3799 -1.4285
 7963SOL     OW35521   0.834   1.721   1.659  0.1450 -0.6053  0.4403
 7963SOL    HW135522   0.878   1.641   1.685 -0.4041 -0.7435  0.9321
 7963SOL    HW235523   0.911   1.772   1.631  0.9751 -2.3447 -0.4067
 7964SOL     OW35524   0.543   1.497   4.739  0.0208 -0.3049 -0.3713
 7964SOL    HW135525   0.557   1.579   4.785  1.4571 -1.0100  0.4411
 7964SOL    HW235526   0.538   1.447   4.820 -0.9908 -1.1006 -0.9202
 7965SOL     OW35527   0.909   2.706   1.908  0.0058  0.1300  0.2670
 7965SOL    HW135528   0.864   2.647   1.968 -1.1912 -0.6801 -1.4450
 7965SOL    HW235529   0.839   2.716   1.844  0.0443  1.7828  0.4861
 7966SOL     OW35530   1.047   3.777  10.779  0.1606  0.0572  0.3447
 7966SOL    HW135531   0.982   3.818  10.837 -1.6554 -0.9488 -1.0199
 7966SOL    HW235532   1.127   3.794  10.829  0.5867  1.7019 -0.8938
 7967SOL     OW35533   1.675   2.537   3.653 -0.1259  0.1830 -0.0660
 7967SOL    HW135534   1.610   2.603   3.675 -0.5825  0.0684 -1.0428
 7967SOL    HW235535   1.736   2.575   3.590  1.1528  0.0187  1.0662
 7968SOL     OW35536   1.391   1.615   4.898 -0.4233 -0.4862 -0.0799
 7968SOL    HW135537   1.369   1.681   4.833  1.6314  0.4404  0.1923
 7968SOL    HW235538   1.481   1.600   4.871 -1.0742 -1.4525 -1.7160
 7969SOL     OW35539   0.249   2.917  11.317 -0.1664 -0.0283  0.3530
 7969SOL    HW135540   0.334   2.940  11.354  0.2042  0.8875 -1.0760
 7969SOL    HW235541   0.241   2.827  11.350  0.8697  0.2704  1.3876
 7970SOL     OW35542   2.678   3.068  13.072 -0.1718 -0.0666  0.1130
 7970SOL    HW135543   2.612   3.123  13.115 -1.5044 -1.0531 -0.6437
 7970SOL    HW235544   2.626   3.020  13.007  0.7398  0.1454 -0.7680
 7971SOL     OW35545   2.962   0.319  17.500 -0.4386 -0.4555  0.1710
 7971SOL    HW135546   2.927   0.328  17.589 -0.4034 -0.1386  0.1546
 7971SOL    HW235547   3.013   0.238  17.500  1.0944  0.5087 -1.5749
 7972SOL     OW35548   3.005   0.158   2.578 -0.1948  0.2065 -0.7319
 7972SOL    HW135549   2.945   0.185   2.509 -0.4650 -2.4685 -1.5545
 7972SOL    HW235550   3.075   0.120   2.525  1.5460 -0.1782  1.8523
 7973SOL     OW35551   2.590   1.772  15.698  0.6077  0.0933  0.0643
 7973SOL    HW135552   2.590   1.868  15.695 -0.7961  0.1154  0.9239
 7973SOL    HW235553   2.563   1.765  15.606  1.1681  0.1650 -0.1092
 7974SOL     OW35554   0.400   4.214   5.778 -0.7555 -0.6820 -0.1228
 7974SOL    HW135555   0.474   4.204   5.838  0.4886  0.3571 -1.4949
 7974SOL    HW235556   0.415   4.135   5.726  1.8543 -1.1655  1.3643
 7975SOL     OW35557   2.714   0.141   6.988  0.2500 -0.1521 -0.4070
 7975SOL    HW135558   2.804   0.174   6.978  0.3925 -0.5336 -0.3929
 7975SOL    HW235559   2.681   0.160   6.900 -1.4006 -1.5482 -0.0851
 7976SOL     OW35560   0.160   4.072   8.521 -0.5261 -0.1683 -0.6290
 7976SOL    HW135561   0.248   4.061   8.558 -0.7557 -2.1324 -0.6441
 7976SOL    HW235562   0.160   4.081   8.426  1.3613 -1.5530 -0.7620
 7977SOL     OW35563   1.007   0.027   3.156  0.1111 -0.4950  0.0518
 7977SOL    HW135564   1.046   0.088   3.218 -1.6442  1.4917 -0.7965
 7977SOL    HW235565   0.957   0.092   3.106  2.3696  0.1688 -1.3739
 7978SOL     OW35566   2.296   0.115   4.783  0.1645 -0.6962  0.4627
 7978SOL    HW135567   2.256   0.048   4.728  0.6437 -0.3845 -0.2700
 7978SOL    HW235568   2.222   0.161   4.823 -0.5007 -2.9197  1.7787
 7979SOL     OW35569   4.085   2.723  16.543  0.1903 -0.0975 -0.1750
 7979SOL    HW135570   4.179   2.726  16.524  0.2994  0.8431  0.5546
 7979SOL    HW235571   4.056   2.814  16.552 -0.2570 -0.3475  0.9513
 7980SOL     OW35572   2.782   2.777   3.892  0.1033 -0.1747 -0.8845
 7980SOL    HW135573   2.793   2.858   3.842  2.4764  0.2187  0.2432
 7980SOL    HW235574   2.764   2.814   3.979  3.6130 -0.8044  0.1327
 7981SOL     OW35575   2.237   2.652   2.688 -0.1763  0.1402  0.4605
 7981SOL    HW135576   2.290   2.652   2.608 -1.9601  1.1958 -0.7286
 7981SOL    HW235577   2.291   2.701   2.751  1.9613 -2.4909  0.6772
 7982SOL     OW35578   0.977   3.442   3.884  0.2046  0.5083 -0.2903
 7982SOL    HW135579   0.966   3.450   3.979  1.0352  0.0177 -0.1505
 7982SOL    HW235580   0.966   3.347   3.875 -1.9566  0.7883 -0.4426
 7983SOL     OW35581   2.145   4.344   7.412  0.2837  0.9994 -0.1897
 7983SOL    HW135582   2.167   4.281   7.480 -0.4586 -2.2661 -2.9577
 7983SOL    HW235583   2.119   4.407   7.479 -1.2721 -0.4558  0.5481
 7984SOL     OW35584   3.587   3.362   8.624  0.0490 -0.0476 -0.4205
 7984SOL    HW135585   3.665   3.389   8.673  1.1950 -2.5750 -0.8110
 7984SOL    HW235586   3.604   3.268   8.632  1.1816  0.3045  1.1920
 7985SOL     OW35587   1.968   1.776   7.517  0.4240 -0.3524  0.1477
 7985SOL    HW135588   1.887   1.726   7.519 -1.1815  2.2830  0.9981
 7985SOL    HW235589   1.984   1.764   7.423  0.6622  2.6044 -0.1924
 7986SOL     OW35590   4.653   3.193   1.135  0.4244 -0.2772 -0.8292
 7986SOL    HW135591   4.569   3.226   1.103  0.9881 -2.1718 -4.2049
 7986SOL    HW235592   4.651   3.101   1.111  0.1755  0.0307 -1.9849
 7987SOL     OW35593   0.790   4.136   4.403  0.2458 -0.1852 -0.6271
 7987SOL    HW135594   0.724   4.199   4.431  1.0166 -0.3352  1.5433
 7987SOL    HW235595   0.855   4.175   4.461 -0.5378  0.9913 -0.5486
 7988SOL     OW35596   4.210   2.381   4.512 -0.4429 -0.2775 -0.1590
 7988SOL    HW135597   4.132   2.398   4.458 -0.3475 -1.0711 -0.5390
 7988SOL    HW235598   4.174   2.381   4.601 -0.4377  1.1249 -0.1619
 7989SOL     OW35599   2.770   0.157   3.836 -0.0727  0.0167  0.3279
 7989SOL    HW135600   2.773   0.147   3.931  1.4126 -0.3365  0.2429
 7989SOL    HW235601   2.860   0.127   3.821 -0.9637 -2.3672 -0.0821
 7990SOL     OW35602   0.482   2.431  13.902  0.2041 -0.1555 -0.2194
 7990SOL    HW135603   0.464   2.478  13.821  2.9269 -2.2090 -2.0113
 7990SOL    HW235604   0.524   2.501  13.953 -1.3330  0.0203  0.7878
 7991SOL     OW35605   1.808   3.873   6.013  1.0543 -0.1717 -0.6566
 7991SOL    HW135606   1.806   3.870   5.917 -1.0439  0.3842 -0.6289
 7991SOL    HW235607   1.884   3.817   6.028 -0.3498 -2.4976 -2.3248
 7992SOL     OW35608   1.974   1.781   7.250 -0.2269  0.2182 -0.1040
 7992SOL    HW135609   1.946   1.872   7.242  0.4140  0.6379  2.3981
 7992SOL    HW235610   2.058   1.787   7.206  1.1061  0.3853  2.4884
 7993SOL     OW35611   0.653   1.652   7.356 -0.6775  0.3894  0.2443
 7993SOL    HW135612   0.596   1.725   7.381 -1.5923 -0.0460 -0.5462
 7993SOL    HW235613   0.584   1.607   7.307  0.0859  0.3072 -0.7366
 7994SOL     OW35614   1.715   0.871   5.506 -0.6265 -0.2182 -0.8656
 7994SOL    HW135615   1.683   0.889   5.418 -1.5564  1.0411 -0.2793
 7994SOL    HW235616   1.803   0.838   5.490  0.0530  0.8348  0.6809
 7995SOL     OW35617   0.992   0.364   2.463  0.3057 -0.2318 -1.1678
 7995SOL    HW135618   0.941   0.386   2.385  2.4386  0.1418 -2.4592
 7995SOL    HW235619   0.975   0.270   2.469  1.5127 -0.3173  1.1058
 7996SOL     OW35620   4.166   1.868   9.632 -0.1541  0.7521 -0.3234
 7996SOL    HW135621   4.078   1.881   9.598  0.2040 -2.2514 -2.3883
 7996SOL    HW235622   4.218   1.891   9.555  2.3301 -1.6824  0.6107
 7997SOL     OW35623   0.490   1.638   3.450 -0.4527 -0.4893  0.0635
 7997SOL    HW135624   0.533   1.624   3.535 -0.9315 -0.8885  0.2425
 7997SOL    HW235625   0.483   1.732   3.436 -1.3555 -0.7199 -0.9740
 7998SOL     OW35626   3.079   0.495   6.067 -0.0111 -0.4032 -0.1623
 7998SOL    HW135627   3.068   0.425   6.003 -2.6026 -1.4460  1.4181
 7998SOL    HW235628   3.000   0.544   6.045 -0.7794 -0.5740  2.2175
 7999SOL     OW35629   3.135   1.051   7.196  0.8210  0.3369  0.6984
 7999SOL    HW135630   3.200   1.083   7.133  1.5779  1.3929  2.0328
 7999SOL    HW235631   3.092   1.133   7.220 -0.7854 -0.5788  0.9719
 8000SOL     OW35632   3.511   4.127  11.114  0.2705  0.0613 -0.1499
 8000SOL    HW135633   3.588   4.179  11.090  0.7814 -1.4940 -1.9195
 8000SOL    HW235634   3.545   4.067  11.180 -2.0656 -1.3748 -0.2801
 8001SOL     OW35635   1.830   2.385   5.949  0.0223 -0.0880 -0.8394
 8001SOL    HW135636   1.748   2.337   5.957  1.9598 -3.3310  0.0970
 8001SOL    HW235637   1.873   2.318   5.895 -1.0910 -1.7221  0.3075
 8002SOL     OW35638   1.040   2.274   9.916  0.6226  0.0770 -0.5422
 8002SOL    HW135639   1.134   2.282   9.905  1.0296 -2.0096  1.3176
 8002SOL    HW235640   1.032   2.348   9.976  2.5207 -0.1393 -0.0193
 8003SOL     OW35641   4.345   3.542   0.343  0.1054  0.1471 -0.5000
 8003SOL    HW135642   4.327   3.448   0.348  1.6678 -0.0772  1.0397
 8003SOL    HW235643   4.357   3.560   0.437 -0.8795  0.7818 -0.4883
 8004SOL     OW35644   4.084   1.513   5.183 -0.5432 -0.2107  0.1380
 8004SOL    HW135645   4.103   1.420   5.172 -1.1892 -0.4583  1.0690
 8004SOL    HW235646   3.990   1.511   5.163 -0.4273  0.3322 -0.4387
 8005SOL     OW35647   2.919   3.990   6.766 -0.1397 -0.3002  0.4147
 8005SOL    HW135648   2.988   4.039   6.811  1.4030 -1.8962 -0.2306
 8005SOL    HW235649   2.905   4.048   6.691 -2.6487 -1.7963 -0.2704
 8006SOL     OW35650   1.427   3.243   6.860  0.0239  0.4594 -0.2368
 8006SOL    HW135651   1.486   3.293   6.917  1.5314  0.3100 -1.6736
 8006SOL    HW235652   1.450   3.276   6.773 -2.6037 -2.0842 -1.9074
 8007SOL     OW35653   2.462   4.602   4.395  0.4525 -0.4612 -0.5651
 8007SOL    HW135654   2.442   4.549   4.472 -0.7296 -2.0575 -1.9849
 8007SOL    HW235655   2.379   4.593   4.349  0.3418 -2.4854  0.0239
 8008SOL     OW35656   2.810   1.087   5.274  0.2768  0.1215  0.0140
 8008SOL    HW135657   2.864   1.040   5.338  1.0826 -0.3244 -1.0110
 8008SOL    HW235658   2.794   1.166   5.326 -0.4305 -1.6195  2.4878
 8009SOL     OW35659   4.181   0.684   1.410  0.2295 -0.5912  0.1847
 8009SOL    HW135660   4.190   0.589   1.412  0.6483 -0.5559  0.0087
 8009SOL    HW235661   4.116   0.699   1.479 -1.4102 -0.0629 -1.4854
 8010SOL     OW35662   1.739   2.940  15.267 -0.1315 -0.1570  0.3693
 8010SOL    HW135663   1.748   3.029  15.300  1.7381  0.4172 -1.6252
 8010SOL    HW235664   1.798   2.888  15.322  0.8039  1.0403  0.4912
 8011SOL     OW35665   1.254   3.687  15.125  0.2360 -0.2608  0.2433
 8011SOL    HW135666   1.224   3.724  15.042  1.3305  0.0529 -0.0243
 8011SOL    HW235667   1.309   3.610  15.111  1.3883  0.6464 -0.3117
 8012SOL     OW35668   2.997   2.654   4.020  0.5990  0.0680 -0.3672
 8012SOL    HW135669   3.010   2.713   4.094  1.9641 -1.5587  0.6997
 8012SOL    HW235670   2.952   2.710   3.957 -2.4455  0.2718  1.9603
 8013SOL     OW35671   1.650   0.638  14.757  0.4144  0.2518  0.3662
 8013SOL    HW135672   1.724   0.694  14.732  1.7307 -2.9155 -2.9253
 8013SOL    HW235673   1.695   0.598  14.831 -0.5795 -1.9240 -0.2038
 8014SOL     OW35674   2.262   3.253  17.662 -0.2833 -0.9166  0.7078
 8014SOL    HW135675   2.324   3.312  17.706 -2.1947 -0.0733  2.2452
 8014SOL    HW235676   2.235   3.316  17.595  0.9081 -3.2358 -1.9773
 8015SOL     OW35677   3.294   4.214   8.269 -0.4467  0.7993 -0.3973
 8015SOL    HW135678   3.314   4.176   8.184 -0.4367 -2.4399  1.0396
 8015SOL    HW235679   3.322   4.143   8.327 -1.3433  0.9322  0.1952
 8016SOL     OW35680   3.300   1.837   1.581  1.1610  0.7942 -0.3727
 8016SOL    HW135681   3.363   1.822   1.652 -1.9518  0.4492  2.3122
 8016SOL    HW235682   3.238   1.766   1.596  3.8268 -1.0510  1.8785
 8017SOL     OW35683   3.192   4.716   2.435  0.3471 -0.6813 -0.0258
 8017SOL    HW135684   3.234   4.718   2.521 -0.6555 -1.5347  0.4797
 8017SOL    HW235685   3.181   4.621   2.427 -0.4720 -0.5379 -0.5953
 8018SOL     OW35686   4.515   4.444  13.027 -0.3079 -0.1260  0.8249
 8018SOL    HW135687   4.433   4.409  12.992  0.9235 -2.8668  0.7086
 8018SOL    HW235688   4.543   4.500  12.955 -1.2995  0.1110  0.6225
 8019SOL     OW35689   1.685   0.304  14.610 -0.2685  0.3426  0.2103
 8019SOL    HW135690   1.655   0.394  14.605 -1.6573 -0.2166 -1.4240
 8019SOL    HW235691   1.696   0.275  14.519  0.2958 -0.9416  0.6859
 8020SOL     OW35692   3.013   0.156   8.364 -0.2600 -0.4285  0.5435
 8020SOL    HW135693   3.106   0.172   8.350  0.3205 -3.0352  1.5193
 8020SOL    HW235694   2.999   0.141   8.271  0.0786  0.8298  0.2884
 8021SOL     OW35695   1.824   3.722  12.415  0.4990 -0.2804 -0.4231
 8021SOL    HW135696   1.910   3.702  12.378  0.1801 -1.4581 -0.5062
 8021SOL    HW235697   1.803   3.634  12.445  2.3258 -1.1808 -1.8114
 8022SOL     OW35698   2.020   3.571   4.181  0.0764 -0.8064  0.2468
 8022SOL    HW135699   2.074   3.649   4.171 -0.1932 -0.0666  4.3801
 8022SOL    HW235700   1.994   3.560   4.090 -1.2142 -0.9720  0.6272
 8023SOL     OW35701   0.102   1.522   5.423  0.4899  0.1813 -0.0529
 8023SOL    HW135702   0.061   1.605   5.447 -0.8612  0.1004 -2.0718
 8023SOL    HW235703   0.036   1.493   5.360  0.6862 -1.6230  0.5714
 8024SOL     OW35704   3.587   3.220   2.432  0.3753 -0.4026 -0.3090
 8024SOL    HW135705   3.615   3.132   2.405  1.5800 -0.2446  0.4538
 8024SOL    HW235706   3.637   3.283   2.379 -1.2478 -0.1467 -1.5434
 8025SOL     OW35707   3.320   1.894   2.202  0.0027  0.2234  0.3888
 8025SOL    HW135708   3.399   1.841   2.191  0.2359  1.0428 -1.8086
 8025SOL    HW235709   3.344   1.976   2.159  0.8713 -0.5905 -0.6650
 8026SOL     OW35710   0.325   0.015   3.736  0.4860 -0.0834 -0.3152
 8026SOL    HW135711   0.365   0.054   3.658 -0.3050 -1.4665 -1.4158
 8026SOL    HW235712   0.297   0.085   3.794  1.7011  0.0522  0.1101
 8027SOL     OW35713   1.468   4.113   1.172 -0.0589  0.1006  0.1752
 8027SOL    HW135714   1.513   4.035   1.203 -0.2897  0.6959  2.0204
 8027SOL    HW235715   1.524   4.187   1.198  0.9154 -0.4542 -0.3482
 8028SOL     OW35716   0.138   1.550   0.962 -0.2501  0.4521 -0.0884
 8028SOL    HW135717   0.147   1.589   1.049 -1.5666  2.1469 -0.7097
 8028SOL    HW235718   0.212   1.575   0.907 -1.4738 -0.9494 -2.3390
 8029SOL     OW35719   1.652   3.211   0.887  0.8285  0.2928 -0.5286
 8029SOL    HW135720   1.708   3.142   0.922  0.5513  1.5149  2.3497
 8029SOL    HW235721   1.577   3.160   0.857 -0.1502 -0.4067  3.0423
 8030SOL     OW35722   4.590   0.972   2.208 -0.8524  0.3706 -0.4683
 8030SOL    HW135723   4.571   1.064   2.191  2.1214  1.2740  1.1197
 8030SOL    HW235724   4.629   0.984   2.294 -0.5311  1.5376 -0.7699
 8031SOL     OW35725   0.686   3.745   2.360  0.5207  0.4256  1.0099
 8031SOL    HW135726   0.779   3.763   2.349  0.7289 -1.8125 -1.0279
 8031SOL    HW235727   0.657   3.806   2.292  0.4757  0.3460  0.9561
 8032SOL     OW35728   0.905   3.854   3.678 -0.6932  0.6605 -0.2399
 8032SOL    HW135729   0.865   3.796   3.743 -0.5412 -2.0685 -2.5344
 8032SOL    HW235730   0.998   3.832   3.687 -0.8955 -0.4151 -0.7157
 8033SOL     OW35731   1.212   1.160   5.889 -0.2472  0.4281 -0.4157
 8033SOL    HW135732   1.197   1.223   5.818 -0.6467  0.8147  0.0184
 8033SOL    HW235733   1.231   1.084   5.833 -1.7193  0.1454 -0.5320
 8034SOL     OW35734   4.573   3.527   7.743 -0.1723  0.5720  0.5236
 8034SOL    HW135735   4.596   3.516   7.651  1.4283 -0.2341  1.0222
 8034SOL    HW235736   4.507   3.459   7.754  1.3000 -0.5678  2.3507
 8035SOL     OW35737   0.937   2.870   6.257 -0.4610  0.0827 -0.4610
 8035SOL    HW135738   0.868   2.851   6.321  0.0032 -0.5393 -0.1482
 8035SOL    HW235739   0.944   2.965   6.269  1.4155 -0.0223 -0.8335
 8036SOL     OW35740   2.616   0.839   7.631  0.2356  0.2352  0.4473
 8036SOL    HW135741   2.684   0.895   7.594  0.0095  1.4276  1.8203
 8036SOL    HW235742   2.644   0.831   7.722 -0.5641 -0.4466  0.6355
 8037SOL     OW35743   2.501   3.510   2.779  0.0162 -0.1774  0.5307
 8037SOL    HW135744   2.456   3.557   2.709 -0.7933  1.7117  2.3183
 8037SOL    HW235745   2.491   3.566   2.856  0.0233  1.1552 -0.4430
 8038SOL     OW35746   2.793   0.517  13.985  0.2081  0.0117 -0.3612
 8038SOL    HW135747   2.842   0.599  13.978  2.0483 -1.0132  0.5218
 8038SOL    HW235748   2.735   0.532  14.059 -1.3729  1.1100 -1.8279
 8039SOL     OW35749   0.370   3.891   2.792 -0.1471 -0.3481 -0.1099
 8039SOL    HW135750   0.377   3.947   2.869 -1.7927 -2.5568  1.6333
 8039SOL    HW235751   0.290   3.924   2.753 -0.5826  1.0976  2.0195
 8040SOL     OW35752   2.095   1.857   4.999  0.4559 -0.5265  0.4642
 8040SOL    HW135753   2.101   1.863   4.904  0.0428  0.2016  0.4841
 8040SOL    HW235754   2.181   1.877   5.036  1.8259 -0.0879 -2.9946
 8041SOL     OW35755   4.302   2.891   2.260 -0.2583  0.6098 -0.0151
 8041SOL    HW135756   4.389   2.923   2.286 -0.0269 -0.7004  0.8467
 8041SOL    HW235757   4.324   2.865   2.170 -0.9231 -1.4325  0.4030
 8042SOL     OW35758   3.731   1.840   8.762  0.5005 -0.1689  0.1843
 8042SOL    HW135759   3.754   1.855   8.670 -1.0590 -0.5482 -0.2656
 8042SOL    HW235760   3.656   1.898   8.774  0.3297  0.0385 -1.9363
 8043SOL     OW35761   1.101   1.390   7.268 -0.4452  0.2795 -0.1219
 8043SOL    HW135762   1.151   1.471   7.280  2.5459 -1.7102  0.5374
 8043SOL    HW235763   1.093   1.347   7.353 -0.3356  2.9636  1.2640
 8044SOL     OW35764   1.382   2.131   9.174 -0.2220  0.4305 -0.3589
 8044SOL    HW135765   1.304   2.152   9.224 -0.4538 -0.6098 -0.2938
 8044SOL    HW235766   1.425   2.064   9.227  0.6692 -0.2329 -1.9049
 8045SOL     OW35767   2.703   2.387   2.063 -0.3448 -0.3778 -0.0751
 8045SOL    HW135768   2.698   2.297   2.031  2.0748 -0.9160  1.1014
 8045SOL    HW235769   2.707   2.439   1.982  0.3896  0.9985  0.8435
 8046SOL     OW35770   3.320   4.048   5.788  0.2197 -0.6348 -0.5171
 8046SOL    HW135771   3.360   4.128   5.822  0.7363 -1.0188 -0.2180
 8046SOL    HW235772   3.269   4.021   5.865  0.9206  2.0906  0.9281
 8047SOL     OW35773   3.463   2.511  16.214  0.2155 -0.1168  0.8016
 8047SOL    HW135774   3.377   2.506  16.173  0.2025  1.6809  0.6047
 8047SOL    HW235775   3.441   2.587  16.267  0.3584  0.1331  0.5010
 8048SOL     OW35776   4.453   0.731   1.484 -0.0999  0.3291 -0.0229
 8048SOL    HW135777   4.367   0.704   1.514 -0.6353  1.0630 -0.8801
 8048SOL    HW235778   4.447   0.680   1.403 -0.0130 -0.5025  0.4943
 8049SOL     OW35779   1.316   3.058  14.620  0.3242 -0.1859  0.0335
 8049SOL    HW135780   1.370   3.027  14.548 -2.0440 -1.9626 -0.9915
 8049SOL    HW235781   1.328   2.992  14.688  2.6907  1.7029  1.4267
 8050SOL     OW35782   4.732   0.822   5.884 -0.2748  0.4000  0.2828
 8050SOL    HW135783   0.022   0.732   5.875 -0.3896  0.2931  0.9838
 8050SOL    HW235784   0.065   0.857   5.832  0.9436 -0.9601  1.0539
 8051SOL     OW35785   4.438   0.894  10.976 -0.3233 -0.2552 -0.7042
 8051SOL    HW135786   4.527   0.867  10.998 -0.9309 -1.0933  0.7507
 8051SOL    HW235787   4.387   0.849  11.044  0.8345  0.0921  0.3918
 8052SOL     OW35788   0.154   3.607  17.582  0.8203 -0.3981  0.0850
 8052SOL    HW135789   0.197   3.522  17.588 -2.6311 -2.2043 -0.7288
 8052SOL    HW235790   0.226   3.666  17.604 -0.3292  1.1145 -0.2071
 8053SOL     OW35791   4.084   4.558   3.056 -0.4497 -0.3916  0.0725
 8053SOL    HW135792   4.001   4.519   3.030  0.6029 -2.8886  0.3880
 8053SOL    HW235793   4.148   4.531   2.990  0.6330  1.4555  0.3726
 8054SOL     OW35794   2.645   1.384  12.301  0.1558 -0.7436 -0.3142
 8054SOL    HW135795   2.715   1.325  12.332  1.0224  0.2093 -0.4553
 8054SOL    HW235796   2.572   1.340  12.345 -1.3120  1.5035 -0.5366
 8055SOL     OW35797   2.266   2.470   0.006 -0.5540  0.2500  0.4002
 8055SOL    HW135798   2.182   2.435  17.728  0.4935 -0.0919 -2.0337
 8055SOL    HW235799   2.329   2.410  17.719 -2.0988  0.2266 -2.0258
 8056SOL     OW35800   1.062   3.969   2.129 -0.2845  0.4324  0.0780
 8056SOL    HW135801   1.132   3.973   2.064 -0.5446  1.0373 -0.1643
 8056SOL    HW235802   1.008   3.900   2.091 -1.3463  1.2553  0.0870
 8057SOL     OW35803   2.305   1.130   4.511  0.0819 -0.0575  0.4518
 8057SOL    HW135804   2.332   1.038   4.509  0.7342  0.1553 -0.9565
 8057SOL    HW235805   2.359   1.164   4.439 -0.3184 -0.2498  0.0635
 8058SOL     OW35806   3.932   4.056  12.378  0.1726  0.5711  0.4854
 8058SOL    HW135807   4.010   4.020  12.335 -2.0353 -0.1928 -2.8763
 8058SOL    HW235808   3.918   3.977  12.430 -0.0693 -0.0296 -0.4793
 8059SOL     OW35809   4.588   0.562   6.779 -0.0887 -0.1088  0.8174
 8059SOL    HW135810   4.656   0.523   6.834 -1.9128 -2.1022  1.6653
 8059SOL    HW235811   4.550   0.614   6.850 -0.1198  2.0400 -0.7918
 8060SOL     OW35812   2.651   1.334   2.495 -0.1064  0.2601  0.5933
 8060SOL    HW135813   2.661   1.402   2.562  0.0527  3.1880 -2.4036
 8060SOL    HW235814   2.713   1.268   2.526 -1.2163 -1.7913 -1.5871
 8061SOL     OW35815   3.199   3.539   2.605 -0.1920 -0.1272  0.9233
 8061SOL    HW135816   3.109   3.566   2.584  1.0012  0.9093 -2.9636
 8061SOL    HW235817   3.194   3.505   2.694 -1.4450 -0.7114  0.6367
 8062SOL     OW35818   4.366   2.294   9.477  0.4009 -0.1498  0.2421
 8062SOL    HW135819   4.309   2.371   9.486 -0.9972 -1.1975  0.2813
 8062SOL    HW235820   4.330   2.238   9.545 -2.5718  0.6575 -0.6555
 8063SOL     OW35821   4.106   0.687  13.871  0.8255 -0.4265 -0.2025
 8063SOL    HW135822   4.164   0.694  13.947 -0.2582  0.2687  0.5712
 8063SOL    HW235823   4.152   0.623  13.818  0.4923 -0.9072  0.0816
 8064SOL     OW35824   0.750   0.903   2.478  0.2397  0.1349 -0.0848
 8064SOL    HW135825   0.843   0.918   2.499  0.1446  0.1808  0.3093
 8064SOL    HW235826   0.743   0.808   2.493 -0.9185  0.0708 -1.0706
 8065SOL     OW35827   2.842   3.492   3.731  0.0257 -0.7523  0.8160
 8065SOL    HW135828   2.904   3.561   3.753 -1.4055  1.1323 -1.1160
 8065SOL    HW235829   2.892   3.445   3.663 -1.2799  1.3526 -1.5715
 8066SOL     OW35830   2.492   3.021   6.762  0.8129 -0.4041 -0.2089
 8066SOL    HW135831   2.399   3.019   6.740  0.9220  0.0270 -0.7001
 8066SOL    HW235832   2.495   2.937   6.808 -2.6737  0.1892  1.0999
 8067SOL     OW35833   2.140   2.434   7.989  0.2953 -0.7088 -0.2214
 8067SOL    HW135834   2.231   2.451   8.012  1.2585 -1.2447 -3.5926
 8067SOL    HW235835   2.125   2.347   8.025  0.7525 -0.3103  0.9194
 8068SOL     OW35836   3.537   0.735  11.265 -0.8170 -0.4948  0.2507
 8068SOL    HW135837   3.546   0.830  11.256  1.1114 -0.8277 -1.4586
 8068SOL    HW235838   3.458   0.726  11.318 -1.1376 -1.6933 -0.4102
 8069SOL     OW35839   2.976   4.096   7.126 -0.2188 -0.4394  0.4112
 8069SOL    HW135840   3.028   4.088   7.046  3.1909 -1.7304  2.7120
 8069SOL    HW235841   2.889   4.091   7.088  0.4053  1.4109 -1.2578
 8070SOL     OW35842   1.928   2.461   7.021  0.3986 -0.4922  0.6265
 8070SOL    HW135843   1.930   2.386   6.961 -1.9990  0.2691 -0.3809
 8070SOL    HW235844   2.022   2.480   7.028 -0.1360  2.9980 -1.8971
 8071SOL     OW35845   3.749   3.142   4.258 -0.0512 -0.1447 -0.2179
 8071SOL    HW135846   3.746   3.235   4.239  1.5811 -0.1681 -0.5199
 8071SOL    HW235847   3.736   3.109   4.169 -0.2037 -0.1262 -0.2036
 8072SOL     OW35848   0.092   4.511   4.481 -0.1454 -0.1832 -0.1806
 8072SOL    HW135849   0.007   4.553   4.476 -1.3480 -2.7857 -1.5311
 8072SOL    HW235850   0.091   4.482   4.572  1.3980  2.0262  0.5478
 8073SOL     OW35851   1.510   1.693   3.147 -0.7129  0.4005 -0.3523
 8073SOL    HW135852   1.533   1.723   3.235 -2.3162  1.7006 -0.3695
 8073SOL    HW235853   1.572   1.748   3.099 -0.3859  1.3557  1.1538
 8074SOL     OW35854   0.949   2.917   2.382  0.0521 -0.4889  0.3315
 8074SOL    HW135855   0.996   2.927   2.466  2.1872 -3.1804 -0.5373
 8074SOL    HW235856   0.983   2.994   2.335 -0.4574  1.2200  2.7425
 8075SOL     OW35857   2.432   0.907   1.864 -0.1316 -0.1914  0.3393
 8075SOL    HW135858   2.347   0.951   1.861 -0.4703 -0.9191 -0.6417
 8075SOL    HW235859   2.399   0.820   1.887 -1.8941  0.0375 -1.3291
 8076SOL     OW35860   0.983   1.903  16.891 -0.4921 -0.5372 -0.0861
 8076SOL    HW135861   1.076   1.920  16.872 -0.5827 -1.1557 -1.0530
 8076SOL    HW235862   0.984   1.809  16.878 -1.6305 -0.8368  1.9134
 8077SOL     OW35863   3.941   0.092   5.343 -0.9613  0.6401  0.2223
 8077SOL    HW135864   3.916   0.032   5.272 -0.6037  2.1620 -1.1735
 8077SOL    HW235865   3.993   0.033   5.398 -0.6552  1.1088  0.4336
 8078SOL     OW35866   3.184   4.640   5.262 -0.2163  0.4788 -0.5725
 8078SOL    HW135867   3.214   4.708   5.201  1.2282 -0.0284 -0.4379
 8078SOL    HW235868   3.247   4.569   5.246 -0.0025  0.1701  1.6766
 8079SOL     OW35869   2.851   0.767  12.464 -0.3697 -0.0602  0.2955
 8079SOL    HW135870   2.852   0.705  12.391  1.1836 -0.5513  0.7291
 8079SOL    HW235871   2.755   0.770  12.473 -0.6530 -0.2970 -2.7726
 8080SOL     OW35872   0.387   0.140   7.695 -0.2616  0.2469 -0.2275
 8080SOL    HW135873   0.457   0.075   7.696  1.1153  1.7194 -2.5357
 8080SOL    HW235874   0.307   0.087   7.700 -0.1188  0.0489  0.0071
 8081SOL     OW35875   1.179   1.208   6.492 -0.3960 -0.0047 -0.1176
 8081SOL    HW135876   1.234   1.219   6.414  0.8579 -0.0369  0.7682
 8081SOL    HW235877   1.243   1.228   6.560 -2.1505 -1.1495  1.8493
 8082SOL     OW35878   3.615   0.104  10.285 -0.2162  0.6672  0.0435
 8082SOL    HW135879   3.617   0.017  10.324  3.0680  0.6911 -0.0912
 8082SOL    HW235880   3.536   0.090  10.232 -0.6749 -0.7354  1.1026
 8083SOL     OW35881   2.883   0.592   8.686 -0.6190  0.7609  0.5698
 8083SOL    HW135882   2.893   0.523   8.620  0.9302  0.9995  0.5665
 8083SOL    HW235883   2.916   0.671   8.645 -1.0023 -0.1475 -1.4801
 8084SOL     OW35884   4.174   2.938   0.844  0.0484  0.0541 -0.1903
 8084SOL    HW135885   4.147   2.915   0.755 -1.1545 -2.5392  0.8602
 8084SOL    HW235886   4.088   2.962   0.877  0.8297  0.2957  1.6610
 8085SOL     OW35887   3.435   0.561   3.376  0.0530  0.1924  0.1393
 8085SOL    HW135888   3.490   0.507   3.432 -2.2038 -0.6584  1.5193
 8085SOL    HW235889   3.370   0.586   3.442  1.5325  1.5087  1.1224
 8086SOL     OW35890   1.476   4.192   4.413  0.1620 -0.0067  0.4153
 8086SOL    HW135891   1.394   4.220   4.372 -0.7886 -0.2980  2.1475
 8086SOL    HW235892   1.441   4.117   4.461  0.1859  0.9992  1.9822
 8087SOL     OW35893   1.063   1.013   6.667  0.0528  0.0883 -0.2918
 8087SOL    HW135894   1.091   1.093   6.623 -0.7494  0.1523 -0.6951
 8087SOL    HW235895   1.068   1.046   6.756  0.2141 -0.4778 -0.0906
 8088SOL     OW35896   1.104   0.207  10.195  0.3422 -0.2228 -0.2492
 8088SOL    HW135897   1.053   0.144  10.246  0.2500 -0.0846 -0.1735
 8088SOL    HW235898   1.197   0.204  10.219  0.1356  1.0619  0.7023
 8089SOL     OW35899   1.022   2.277  15.974 -0.2655 -0.0241  0.2589
 8089SOL    HW135900   1.055   2.195  15.938  0.7035  0.6567 -0.4029
 8089SOL    HW235901   1.097   2.325  16.007 -0.9002 -0.2774  2.0844
 8090SOL     OW35902   0.424   0.477   1.544 -0.4435 -0.0215 -0.0669
 8090SOL    HW135903   0.465   0.467   1.458  3.1445  1.4099  1.4460
 8090SOL    HW235904   0.338   0.435   1.538 -0.2256 -0.5116  0.2911
 8091SOL     OW35905   2.020   2.087   6.638  0.4104 -1.1026 -0.3466
 8091SOL    HW135906   1.948   2.051   6.587 -0.8722  1.8812 -0.6517
 8091SOL    HW235907   2.044   2.018   6.699  0.6712  0.9535  1.8863
 8092SOL     OW35908   1.736   4.185   2.156 -0.0787 -0.4184 -0.0558
 8092SOL    HW135909   1.647   4.200   2.188  0.3656 -1.4235  1.6437
 8092SOL    HW235910   1.713   4.105   2.109  0.3073 -0.7917  0.3897
 8093SOL     OW35911   1.729   4.734  11.257 -0.5197 -0.0776  0.2174
 8093SOL    HW135912   1.755   0.087  11.247 -1.5455  0.3894  1.7664
 8093SOL    HW235913   1.701   4.724  11.348  3.0046 -3.2440  0.9549
 8094SOL     OW35914   4.170   0.209   7.488 -0.3611  0.4488  0.6270
 8094SOL    HW135915   4.135   0.259   7.561 -2.1675 -0.4813  0.3937
 8094SOL    HW235916   4.198   0.279   7.428 -0.3527  0.5974  0.8057
 8095SOL     OW35917   2.256   1.275   7.633 -0.4600 -0.3891  0.3603
 8095SOL    HW135918   2.331   1.216   7.628 -0.7694 -0.6723 -1.1654
 8095SOL    HW235919   2.234   1.265   7.725 -3.6140 -1.2976 -0.4761
 8096SOL     OW35920   2.754   4.721   7.669  0.3732  0.3923 -0.1080
 8096SOL    HW135921   2.811   0.024   7.734  1.8467 -1.6732 -0.0632
 8096SOL    HW235922   2.669   0.013   7.700  0.0512  0.2516 -0.8523
 8097SOL     OW35923   3.920   4.591   8.421 -0.3267 -0.2291 -0.6032
 8097SOL    HW135924   3.852   4.580   8.487  0.0958  0.7173 -0.0131
 8097SOL    HW235925   4.006   4.605   8.461 -0.6123  2.1921 -0.8369
 8098SOL     OW35926   0.679   1.411  11.103  0.4463  0.3413  0.1809
 8098SOL    HW135927   0.766   1.406  11.063  0.1594  0.8569 -0.5195
 8098SOL    HW235928   0.668   1.322  11.135  1.0759  0.3943  0.5386
 8099SOL     OW35929   0.901   1.283  11.756 -0.1218  0.1115 -0.0678
 8099SOL    HW135930   0.866   1.209  11.707 -1.1716 -0.3915  1.4420
 8099SOL    HW235931   0.986   1.249  11.785 -0.6384  1.5628  3.1263
 8100SOL     OW35932   3.302   4.239   7.087  0.4833  0.4084 -0.1731
 8100SOL    HW135933   3.260   4.158   7.116  1.7999 -0.7765 -1.6371
 8100SOL    HW235934   3.249   4.308   7.127  0.1962  0.7654 -1.1741
 8101SOL     OW35935   3.595   0.787   9.047 -0.3574 -0.3260 -0.6054
 8101SOL    HW135936   3.519   0.765   9.102 -0.4724  0.9258 -0.2515
 8101SOL    HW235937   3.662   0.732   9.086 -0.1991  1.4252  1.6201
 8102SOL     OW35938   1.280   4.191   7.905 -0.1681 -0.5978  0.3386
 8102SOL    HW135939   1.266   4.097   7.888  0.7028 -0.1214 -3.0544
 8102SOL    HW235940   1.355   4.177   7.963  1.4449  4.9068 -0.4555
 8103SOL     OW35941   2.755   4.493  10.512 -0.0557 -0.2350  0.0055
 8103SOL    HW135942   2.756   4.579  10.554 -0.3730  0.9523 -2.4076
 8103SOL    HW235943   2.837   4.462  10.551  0.3712  1.2120  0.2452
 8104SOL     OW35944   3.393   1.511   6.630 -0.1681 -0.4413 -0.2433
 8104SOL    HW135945   3.376   1.462   6.711 -0.7614  0.9891  0.4983
 8104SOL    HW235946   3.446   1.587   6.651  0.2694 -0.8088 -0.0159
 8105SOL     OW35947   3.290   2.952   6.536  0.1904 -0.7732 -0.1415
 8105SOL    HW135948   3.249   3.036   6.557 -2.4239 -2.3364  1.0132
 8105SOL    HW235949   3.220   2.894   6.567 -0.9997  0.6799 -0.1142
 8106SOL     OW35950   1.022   4.113   4.241  0.1941 -0.2945  0.1068
 8106SOL    HW135951   0.984   4.173   4.177  0.2209 -1.1510 -0.7083
 8106SOL    HW235952   0.953   4.125   4.306 -0.9048 -3.8093 -0.3856
 8107SOL     OW35953   1.898   2.566   3.213 -0.6561 -0.6272 -0.7117
 8107SOL    HW135954   1.858   2.600   3.293 -0.9969 -0.3947 -0.9810
 8107SOL    HW235955   1.819   2.533   3.170 -0.4463 -1.3857 -0.5233
 8108SOL     OW35956   0.315   0.522   4.178 -0.7511 -0.3999 -0.4379
 8108SOL    HW135957   0.282   0.558   4.095  0.1527 -0.3210 -0.7631
 8108SOL    HW235958   0.405   0.555   4.184 -1.4410  1.4849 -0.5490
 8109SOL     OW35959   0.516   0.363   7.005  0.2999  0.1090 -0.2331
 8109SOL    HW135960   0.422   0.384   7.010  0.3682  0.5946 -0.9834
 8109SOL    HW235961   0.555   0.367   7.092  0.2660  0.3449 -0.2287
 8110SOL     OW35962   1.220   4.045  10.738 -0.6350 -0.0560 -0.3245
 8110SOL    HW135963   1.272   4.123  10.759  0.8732 -2.0938  3.5433
 8110SOL    HW235964   1.143   4.055  10.794  0.8931  1.4576  1.4779
 8111SOL     OW35965   3.482   1.106   6.141  0.3812  0.7529 -0.0847
 8111SOL    HW135966   3.401   1.111   6.192  2.8241 -0.4474  3.9695
 8111SOL    HW235967   3.466   1.176   6.078  0.6030  0.6335 -0.2720
 8112SOL     OW35968   0.997   4.112   9.625  0.4311 -0.6851  0.6668
 8112SOL    HW135969   1.008   4.178   9.556 -1.5803 -1.0145  0.0272
 8112SOL    HW235970   1.008   4.173   9.698  0.4686 -1.8289  1.6190
 8113SOL     OW35971   3.240   0.826   5.900 -0.6527  0.4074 -0.3473
 8113SOL    HW135972   3.279   0.838   5.987  0.2240 -2.5594 -0.3194
 8113SOL    HW235973   3.320   0.797   5.855  0.5290  0.2931  1.8024
 8114SOL     OW35974   2.942   1.750   0.473 -0.1571  0.3858 -0.1826
 8114SOL    HW135975   2.934   1.696   0.551  0.8818  0.5332  0.0200
 8114SOL    HW235976   3.024   1.730   0.428  0.2191 -1.6854  1.4242
 8115SOL     OW35977   2.257   4.337  12.708 -0.0311 -0.4493  0.0689
 8115SOL    HW135978   2.210   4.376  12.634 -0.4593 -0.1654  0.4923
 8115SOL    HW235979   2.248   4.244  12.688 -0.2592 -0.2144 -0.9083
 8116SOL     OW35980   0.176   3.721  17.307  0.0049  0.0451 -0.4462
 8116SOL    HW135981   0.244   3.788  17.317  0.5570 -0.9029  2.0607
 8116SOL    HW235982   0.203   3.666  17.380 -2.2898  0.0227  0.3645
 8117SOL     OW35983   0.410   1.361   4.144  0.5358  0.1279 -0.3191
 8117SOL    HW135984   0.315   1.372   4.139  0.3660 -0.2768  1.6543
 8117SOL    HW235985   0.420   1.276   4.102 -1.1609  0.8271 -2.1433
 8118SOL     OW35986   2.585   4.432   1.983 -0.0743  0.1547 -0.0735
 8118SOL    HW135987   2.548   4.344   1.973  0.9966 -0.1595 -1.2466
 8118SOL    HW235988   2.649   4.438   1.912  1.9859 -1.2378  1.6685
 8119SOL     OW35989   1.865   4.672  14.217  0.2689  0.0675  0.4765
 8119SOL    HW135990   1.875   4.591  14.267 -0.5968 -0.6617 -0.5330
 8119SOL    HW235991   1.934   4.725  14.258 -0.5232  0.7627  0.9077
 8120SOL     OW35992   3.112   1.640   1.901 -0.8904  0.3923 -0.6445
 8120SOL    HW135993   3.066   1.670   1.980 -1.1738 -2.0302  0.1050
 8120SOL    HW235994   3.204   1.635   1.926 -1.3138  0.8622  1.0431
 8121SOL     OW35995   2.268   2.544   4.279  0.0852 -0.1259  0.0424
 8121SOL    HW135996   2.358   2.559   4.251 -0.2207  0.0111 -0.8755
 8121SOL    HW235997   2.276   2.453   4.309  0.6056 -0.3472 -0.7723
 8122SOL     OW35998   0.493   1.903   3.382 -0.3754  0.2916  0.0267
 8122SOL    HW135999   0.484   1.972   3.447  0.8401 -0.7092  1.2307
 8122SOL    HW236000   0.575   1.923   3.338 -0.7587 -1.5795 -1.5712
 8123SOL     OW36001   1.033   3.907  14.185 -0.5654  0.2146 -0.2500
 8123SOL    HW136002   0.984   3.849  14.128  2.2297 -0.0362 -2.4059
 8123SOL    HW236003   1.102   3.922  14.120 -1.1945  0.7340 -0.8048
 8124SOL     OW36004   0.138   3.801   6.323  0.3111 -0.5631 -0.1469
 8124SOL    HW136005   0.220   3.777   6.365 -1.8911 -0.9795  3.9479
 8124SOL    HW236006   0.156   3.892   6.301  1.4393 -0.5821  0.7444
 8125SOL     OW36007   2.943   4.521   4.701  0.3334  0.2546  0.2636
 8125SOL    HW136008   2.923   4.456   4.633  1.0554  1.8332 -1.4600
 8125SOL    HW236009   2.954   4.596   4.643  1.7735 -0.5042 -0.4332
 8126SOL     OW36010   3.090   4.679   6.992  0.1959  0.2374 -0.1426
 8126SOL    HW136011   3.015   4.633   7.032 -0.4889  0.8061 -0.7761
 8126SOL    HW236012   3.138   4.706   7.071  1.2303  0.0187 -0.7023
 8127SOL     OW36013   4.077   2.184   5.850  0.2466  0.3484 -0.1512
 8127SOL    HW136014   4.164   2.213   5.875  0.0921  0.5549  0.1421
 8127SOL    HW236015   4.043   2.266   5.814 -0.1644  0.8579  1.3941
 8128SOL     OW36016   1.598   4.528   9.341  0.4742 -0.2536 -0.0570
 8128SOL    HW136017   1.538   4.587   9.296  0.4817 -0.3699 -0.2178
 8128SOL    HW236018   1.678   4.532   9.290 -0.0493 -1.2729 -0.9644
 8129SOL     OW36019   1.910   0.727   5.931 -0.1216  0.0603  0.1490
 8129SOL    HW136020   1.960   0.762   5.857 -0.0460  0.1228  0.2290
 8129SOL    HW236021   1.920   0.787   6.005 -2.2660  0.4317  0.1327
 8130SOL     OW36022   0.694   0.565   1.626 -0.0332  0.1709 -0.1494
 8130SOL    HW136023   0.674   0.618   1.549 -1.2012 -1.9203 -1.2907
 8130SOL    HW236024   0.617   0.509   1.627 -0.4923  0.7936 -0.5873
 8131SOL     OW36025   4.732   3.365   9.050  0.1213 -0.1897  0.1094
 8131SOL    HW136026   4.667   3.361   9.120  2.5887  1.5634  2.4999
 8131SOL    HW236027   4.674   3.408   8.987 -0.4661  0.4663  1.1050
 8132SOL     OW36028   1.206   2.049   1.757 -0.5354  0.3142 -0.2956
 8132SOL    HW136029   1.299   2.067   1.742  0.5093 -1.4390  4.2562
 8132SOL    HW236030   1.206   1.988   1.830  0.7819  1.8722  0.9820
 8133SOL     OW36031   4.443   0.368  13.365  0.1833  0.1550  0.0143
 8133SOL    HW136032   4.397   0.337  13.287  0.7880  2.2633 -1.1669
 8133SOL    HW236033   4.517   0.412  13.324 -1.0808 -0.2050 -2.6065
 8134SOL     OW36034   3.941   1.131   2.044 -0.2385 -0.8070  0.0380
 8134SOL    HW136035   3.983   1.069   2.104 -1.8765 -0.4230  1.5946
 8134SOL    HW236036   4.017   1.188   2.034 -0.3235 -0.8829 -1.0167
 8135SOL     OW36037   4.627   4.504  13.274 -0.2511 -0.0557 -0.0841
 8135SOL    HW136038   4.650   4.412  13.288  0.5327  0.4035  1.5198
 8135SOL    HW236039   4.609   4.502  13.179 -0.8077 -0.4433  0.0285
 8136SOL     OW36040   0.338   2.275   6.547 -0.2438 -0.1427 -0.2052
 8136SOL    HW136041   0.295   2.294   6.464 -0.5225 -0.6370 -0.1743
 8136SOL    HW236042   0.361   2.182   6.542  1.2155  0.0732  2.5529
 8137SOL     OW36043   4.386   3.845   8.532  0.4678  0.6627  0.0840
 8137SOL    HW136044   4.321   3.774   8.536 -0.5036  1.6025  1.0218
 8137SOL    HW236045   4.426   3.830   8.617 -1.5424 -1.3018  0.6891
 8138SOL     OW36046   4.175   2.416   5.562  0.3772  0.4661 -0.0487
 8138SOL    HW136047   4.220   2.492   5.598 -1.4014  0.4231  2.2288
 8138SOL    HW236048   4.093   2.454   5.532  1.2621  2.5609  0.2012
 8139SOL     OW36049   2.126   3.260   7.168  0.8950 -0.4217 -0.6734
 8139SOL    HW136050   2.180   3.327   7.128 -1.7068  1.2445 -1.4109
 8139SOL    HW236051   2.088   3.215   7.093 -0.1954 -0.8936  0.1608
 8140SOL     OW36052   0.103   0.745   7.970  0.1338 -0.0173 -0.3369
 8140SOL    HW136053   0.182   0.779   7.929 -1.0087  1.2201 -1.5571
 8140SOL    HW236054   0.112   0.764   8.063 -1.1154 -0.7989 -0.0518
 8141SOL     OW36055   1.116   3.989  13.626 -0.3488  0.5780 -0.0361
 8141SOL    HW136056   1.042   3.950  13.580  0.0770  2.0630 -1.9753
 8141SOL    HW236057   1.178   3.986  13.553  0.2338  0.6321  0.4532
 8142SOL     OW36058   3.045   0.784   1.592 -0.0990  0.1305  0.1963
 8142SOL    HW136059   2.962   0.812   1.553  0.8314 -0.3682 -2.1029
 8142SOL    HW236060   3.098   0.863   1.606  1.3881 -0.6422 -1.1229
 8143SOL     OW36061   2.641   2.256   5.206 -0.4332  0.8790 -0.0488
 8143SOL    HW136062   2.695   2.192   5.161 -0.7145  1.2291 -0.8753
 8143SOL    HW236063   2.563   2.269   5.152 -0.4215  0.6662 -0.1151
 8144SOL     OW36064   0.536   2.087   7.601 -0.3958 -0.4670 -0.4051
 8144SOL    HW136065   0.550   2.148   7.674 -1.2121 -2.3848  1.3416
 8144SOL    HW236066   0.611   2.111   7.547 -0.8920  0.3016 -0.7526
 8145SOL     OW36067   2.148   1.490   0.937 -0.4644 -0.0805 -0.0242
 8145SOL    HW136068   2.151   1.506   1.031  0.2695 -1.5812  0.2050
 8145SOL    HW236069   2.174   1.576   0.904 -0.9381  0.9568  2.3089
 8146SOL     OW36070   3.682   4.469   5.424 -0.0467 -0.1150  0.0862
 8146SOL    HW136071   3.617   4.407   5.457 -0.3200  2.5590  4.5714
 8146SOL    HW236072   3.667   4.542   5.484 -1.4200 -1.1986  1.0676
 8147SOL     OW36073   0.264   4.716   1.332 -0.2383  0.2876  0.2395
 8147SOL    HW136074   0.264   0.073   1.325 -2.5424  0.3997  1.9599
 8147SOL    HW236075   0.205   4.697   1.259 -0.0578 -0.6589  0.3392
 8148SOL     OW36076   0.116   3.981  11.065  0.4211  0.0725 -0.0599
 8148SOL    HW136077   0.131   3.933  11.146 -0.6044  0.6594  0.4779
 8148SOL    HW236078   0.040   3.931  11.034  0.2842  0.4745 -0.3798
 8149SOL     OW36079   0.704   2.927  10.383  0.1980  0.4089 -0.3413
 8149SOL    HW136080   0.690   3.020  10.365  2.2135  0.6402 -0.7460
 8149SOL    HW236081   0.615   2.895  10.376 -0.8128  2.6453  2.1197
 8150SOL     OW36082   0.567   3.250   7.007 -0.3278 -0.1834 -0.1590
 8150SOL    HW136083   0.644   3.307   7.015  0.3462 -1.0449 -0.3735
 8150SOL    HW236084   0.588   3.178   7.066 -0.6400 -1.4199 -1.5412
 8151SOL     OW36085   2.874   2.445   2.629 -0.2398  0.3644  0.7060
 8151SOL    HW136086   2.809   2.434   2.698 -3.0624  0.5270 -1.9735
 8151SOL    HW236087   2.829   2.504   2.569 -2.8981 -0.0197  2.3049
 8152SOL     OW36088   2.545   1.576  16.922 -0.1114 -0.2826  0.0049
 8152SOL    HW136089   2.570   1.511  16.988 -0.4404  0.1746  0.5779
 8152SOL    HW236090   2.486   1.522  16.869  0.3197 -2.7640  2.0165
 8153SOL     OW36091   1.236   0.079   9.210  0.0513  0.1380  0.1178
 8153SOL    HW136092   1.206   0.029   9.285  0.4885 -1.6227 -0.8992
 8153SOL    HW236093   1.327   0.101   9.230 -0.2735  0.0844  1.6383
 8154SOL     OW36094   0.712   1.118   1.971  0.5364 -0.3899  0.0286
 8154SOL    HW136095   0.800   1.095   2.003  0.9198  0.2248 -0.5845
 8154SOL    HW236096   0.698   1.188   2.035  1.2223  0.8121 -1.1334
 8155SOL     OW36097   1.636   0.833  16.003 -0.3531 -0.2211 -0.2510
 8155SOL    HW136098   1.657   0.927  16.005  1.3551 -0.5659 -2.2136
 8155SOL    HW236099   1.685   0.805  16.080 -0.1326 -3.3282 -1.5299
 8156SOL     OW36100   2.990   3.812   7.805  0.0705 -0.2308 -0.1449
 8156SOL    HW136101   2.909   3.762   7.799 -0.6399  0.9287 -0.3255
 8156SOL    HW236102   2.971   3.890   7.857  0.0708 -1.1464  1.2373
 8157SOL     OW36103   1.279   3.490  15.640 -0.0846 -0.3272  0.1654
 8157SOL    HW136104   1.374   3.490  15.627  0.0855 -0.0633  1.3702
 8157SOL    HW236105   1.264   3.431  15.566 -0.8099  1.0937 -0.8257
 8158SOL     OW36106   4.076   3.550   1.746  0.3841 -0.9591 -0.4519
 8158SOL    HW136107   4.110   3.464   1.771  2.4591  0.8227  2.8451
 8158SOL    HW236108   4.127   3.610   1.801 -0.5814 -1.4870  1.0287
 8159SOL     OW36109   3.637   3.705  11.551 -0.0840  0.1367  0.3775
 8159SOL    HW136110   3.556   3.705  11.601 -0.2506 -0.0840  0.1080
 8159SOL    HW236111   3.704   3.713  11.619  0.2605  1.9662 -0.1917
 8160SOL     OW36112   0.840   2.109   2.193 -0.1971 -0.3155  0.6479
 8160SOL    HW136113   0.896   2.036   2.219  1.7621  0.3504 -1.6459
 8160SOL    HW236114   0.895   2.180   2.226  1.3344 -1.1145 -0.1734
 8161SOL     OW36115   4.416   1.894   2.369  0.2458  0.4013  0.0196
 8161SOL    HW136116   4.348   1.863   2.309  0.2727  0.0943  0.1527
 8161SOL    HW236117   4.414   1.990   2.358  1.9477  0.7144  2.4467
 8162SOL     OW36118   0.927   1.332   6.545  0.5523  0.3724 -0.1159
 8162SOL    HW136119   0.991   1.262   6.551  0.1030 -0.0665 -0.4326
 8162SOL    HW236120   0.986   1.407   6.540  0.0898  0.7833  0.4509
 8163SOL     OW36121   2.296   2.956   8.656  0.8949 -0.2063 -0.0850
 8163SOL    HW136122   2.296   2.885   8.591 -0.5753  0.8613 -1.2845
 8163SOL    HW236123   2.390   2.973   8.649  0.8027  0.3700  0.0896
 8164SOL     OW36124   1.976   4.162   5.885  0.3432  0.2445  0.1677
 8164SOL    HW136125   1.974   4.168   5.790 -1.4685 -1.5412  0.0916
 8164SOL    HW236126   1.898   4.207   5.917  0.2376  0.5392 -0.5111
 8165SOL     OW36127   4.249   2.983  16.983  0.1521  0.2780 -0.4767
 8165SOL    HW136128   4.270   2.896  16.947 -3.2180 -0.3278 -0.9874
 8165SOL    HW236129   4.227   2.961  17.073  2.8597  0.9893  0.3695
 8166SOL     OW36130   3.457   1.237   8.366  0.1223 -0.0004 -0.2407
 8166SOL    HW136131   3.545   1.270   8.349 -0.0182  0.8869  0.8043
 8166SOL    HW236132   3.408   1.314   8.393  1.1757  0.2629  0.8981
 8167SOL     OW36133   4.099   2.655   4.304  0.0844 -0.3234 -0.4362
 8167SOL    HW136134   4.055   2.571   4.319 -1.4767  0.4437 -0.7085
 8167SOL    HW236135   4.025   2.716   4.313  1.1861  1.4883 -3.3802
 8168SOL     OW36136   0.369   3.952   8.713 -0.4335  0.0499  0.0976
 8168SOL    HW136137   0.389   3.901   8.792  0.7916 -0.3128 -0.4505
 8168SOL    HW236138   0.450   4.001   8.705  0.6105 -2.2906 -3.6680
 8169SOL     OW36139   0.756   2.154   5.080  0.6955  0.7217  0.2975
 8169SOL    HW136140   0.665   2.152   5.108  0.9617  1.1875  1.1954
 8169SOL    HW236141   0.736   2.195   4.996  2.4658 -0.6703 -0.8119
 8170SOL     OW36142   1.948   1.719   4.743  0.1107  0.2152  0.2898
 8170SOL    HW136143   2.005   1.787   4.707  1.3312 -0.4464  0.9839
 8170SOL    HW236144   1.938   1.655   4.673 -0.7444  1.1734 -0.4605
 8171SOL     OW36145   3.401   4.037   9.980 -0.4381 -0.0948 -0.2363
 8171SOL    HW136146   3.430   3.946   9.987 -0.6259  0.0163  1.8402
 8171SOL    HW236147   3.339   4.037   9.907 -1.8201  1.5749  0.9527
 8172SOL     OW36148   3.023   0.351   2.763  0.0930 -0.0014 -0.3094
 8172SOL    HW136149   2.930   0.369   2.754 -0.4744 -2.6727  0.1863
 8172SOL    HW236150   3.025   0.272   2.710  1.2877 -0.3606  0.2773
 8173SOL     OW36151   2.155   0.391   3.148 -0.1025 -0.3410 -0.0700
 8173SOL    HW136152   2.138   0.412   3.056  1.3328  1.8713  0.1486
 8173SOL    HW236153   2.240   0.434   3.155 -0.1180 -0.1522 -0.9636
 8174SOL     OW36154   3.294   4.138  12.994  0.1163 -0.1884  0.2300
 8174SOL    HW136155   3.260   4.139  12.905 -0.0129 -1.5284  0.2735
 8174SOL    HW236156   3.350   4.217  12.991  2.0137 -1.5755 -0.8654
 8175SOL     OW36157   2.724   2.510   3.757  0.3846 -0.0033 -0.0153
 8175SOL    HW136158   2.706   2.470   3.842  1.5726  0.4045  0.4249
 8175SOL    HW236159   2.765   2.587   3.796 -0.0925  0.1692  0.1502
 8176SOL     OW36160   1.950   4.313   2.808  0.3642 -0.1508  0.5621
 8176SOL    HW136161   1.945   4.406   2.784 -4.1174 -0.3405  0.7851
 8176SOL    HW236162   1.895   4.306   2.886 -0.7279  0.7195 -0.1318
 8177SOL     OW36163   3.498   3.602   3.871 -0.2479 -0.5001  0.2451
 8177SOL    HW136164   3.571   3.656   3.901  1.7994 -2.1036 -1.8507
 8177SOL    HW236165   3.535   3.514   3.871 -0.3322 -0.5401  1.2379
 8178SOL     OW36166   3.525   3.486   6.077  0.4761 -0.1713  0.0440
 8178SOL    HW136167   3.446   3.445   6.043  0.4871  0.7908 -1.1194
 8178SOL    HW236168   3.504   3.577   6.060  0.0674 -0.4527 -0.9502
 8179SOL     OW36169   4.509   0.917   7.684  0.2607  0.3501  0.1180
 8179SOL    HW136170   4.599   0.939   7.706  0.2212  1.5229 -0.9316
 8179SOL    HW236171   4.535   0.867   7.606  2.2306  3.3651 -1.1451
 8180SOL     OW36172   0.541   0.071   3.951  0.4246  0.3781  0.1409
 8180SOL    HW136173   0.611   0.076   3.886  0.4451 -0.4300  0.1020
 8180SOL    HW236174   0.505   4.725   3.924  1.1878 -0.2693  1.1741
 8181SOL     OW36175   1.329   1.132   2.691  0.1686  0.4695 -0.2028
 8181SOL    HW136176   1.419   1.139   2.659 -0.1098 -1.7427 -1.4913
 8181SOL    HW236177   1.289   1.204   2.642 -0.4069  1.7603  2.2106
 8182SOL     OW36178   4.652   1.816   6.001  0.5755 -0.0330 -0.2087
 8182SOL    HW136179   4.647   1.754   5.928  0.6680  0.0536 -0.2886
 8182SOL    HW236180   4.679   1.762   6.076 -0.0207 -1.8915 -1.3271
 8183SOL     OW36181   3.008   2.968   6.834 -0.0430 -0.2242 -0.5034
 8183SOL    HW136182   2.919   2.998   6.851  0.5077 -0.9435  3.7084
 8183SOL    HW236183   3.043   3.051   6.805  0.4884 -0.4296 -0.4582
 8184SOL     OW36184   4.198   2.618   7.325 -0.0365 -0.2145  0.2474
 8184SOL    HW136185   4.146   2.600   7.403 -1.4451  1.0998 -0.4062
 8184SOL    HW236186   4.162   2.548   7.270 -0.0973  0.5342 -0.6583
 8185SOL     OW36187   0.160   4.072   6.348 -0.1284  0.4686 -0.0070
 8185SOL    HW136188   0.242   4.119   6.366 -0.1389  0.7047 -0.6071
 8185SOL    HW236189   0.131   4.113   6.267 -0.0565  3.2816  1.3595
 8186SOL     OW36190   4.098   2.119   3.981 -0.4010 -0.2560 -0.4708
 8186SOL    HW136191   4.012   2.110   4.022 -0.1338  3.6788  0.9530
 8186SOL    HW236192   4.090   2.204   3.938  0.8458  0.4231  0.6342
 8187SOL     OW36193   2.200   0.517   2.522  0.3616 -0.5310  0.4339
 8187SOL    HW136194   2.121   0.523   2.576  0.1454  0.9189 -0.0562
 8187SOL    HW236195   2.170   0.451   2.459  1.2546  0.2154 -0.7794
 8188SOL     OW36196   3.876   1.175  12.586  0.0839  0.1675 -0.2195
 8188SOL    HW136197   3.859   1.105  12.523  2.2487 -1.8809  1.4618
 8188SOL    HW236198   3.966   1.199  12.565  0.0490  1.3119  0.9099
 8189SOL     OW36199   0.636   3.129   0.628 -0.1262 -0.4943  0.1775
 8189SOL    HW136200   0.674   3.081   0.702  0.5341 -0.4621 -0.1430
 8189SOL    HW236201   0.624   3.056   0.568 -1.5077  0.8348 -1.1326
 8190SOL     OW36202   4.152   2.791   7.134  0.1051  0.2409  0.4768
 8190SOL    HW136203   4.189   2.729   7.196 -0.6403 -0.5123  0.1569
 8190SOL    HW236204   4.061   2.778   7.162 -0.1783 -0.6439 -0.8727
 8191SOL     OW36205   4.272   4.005   5.198 -0.1247  0.2802 -0.3818
 8191SOL    HW136206   4.324   3.948   5.255  1.0335 -0.5293 -2.2702
 8191SOL    HW236207   4.266   4.093   5.236 -1.7770 -0.3291  0.7766
 8192SOL     OW36208   2.621   1.902   1.751 -0.1738  0.8918 -0.0512
 8192SOL    HW136209   2.641   1.995   1.745 -0.2962  1.0563  2.0031
 8192SOL    HW236210   2.536   1.889   1.710  0.9048 -5.5299 -0.2895
 8193SOL     OW36211   1.356   4.133   6.044  0.3468  0.1017 -0.2340
 8193SOL    HW136212   1.375   4.103   5.954  1.2384 -0.5398  0.1657
 8193SOL    HW236213   1.312   4.214   6.017 -0.2666  0.0404  0.6261
 8194SOL     OW36214   1.921   2.655   4.308 -0.0738 -0.0241  0.1425
 8194SOL    HW136215   1.994   2.693   4.355  0.4429 -2.1575  1.0102
 8194SOL    HW236216   1.872   2.603   4.372 -1.0366  2.0237  1.0726
 8195SOL     OW36217   4.228   0.005  11.403 -0.1660  0.3293 -0.0167
 8195SOL    HW136218   4.151   0.061  11.393 -1.0732 -0.8093  0.6064
 8195SOL    HW236219   4.225   4.706  11.315  0.9981  2.8631 -1.1557
 8196SOL     OW36220   1.945   0.372   3.315  0.0262 -0.1824  0.2785
 8196SOL    HW136221   2.021   0.366   3.257 -0.1079 -0.0231  0.0859
 8196SOL    HW236222   1.942   0.467   3.327 -0.3935 -0.1287 -0.2454
 8197SOL     OW36223   3.766   0.719   3.024 -0.2613 -0.1656  0.3142
 8197SOL    HW136224   3.799   0.672   3.101  0.2610  2.9834  2.0026
 8197SOL    HW236225   3.673   0.722   3.043 -0.2056 -0.7457  0.6820
 8198SOL     OW36226   0.337   4.572  11.699 -0.6144 -0.2747  0.1862
 8198SOL    HW136227   0.426   4.601  11.679 -0.7444 -0.6882 -0.9658
 8198SOL    HW236228   0.286   4.616  11.630  1.0738  4.1164  1.7557
 8199SOL     OW36229   1.981   3.532   6.932  0.3797 -0.4047 -0.4476
 8199SOL    HW136230   1.964   3.614   6.886  0.1734  0.7440  1.6655
 8199SOL    HW236231   1.924   3.542   7.008 -1.6481 -0.8375 -1.9280
 8200SOL     OW36232   1.843   4.476  13.528  0.5062  0.6627 -0.4967
 8200SOL    HW136233   1.751   4.496  13.513  0.6136  0.8762 -0.8850
 8200SOL    HW236234   1.882   4.560  13.554 -1.2482  1.3297 -0.0055
 8201SOL     OW36235   1.067   4.373   5.728  0.1485  0.2600 -0.0250
 8201SOL    HW136236   1.107   4.446   5.774  0.2178  1.7257 -2.3828
 8201SOL    HW236237   1.058   4.425   5.648  0.1574 -2.7938 -2.0145
 8202SOL     OW36238   2.743   1.703   6.111  0.0339  0.4860 -0.0320
 8202SOL    HW136239   2.670   1.765   6.113  1.4985  2.2498 -2.1462
 8202SOL    HW236240   2.765   1.690   6.203  3.0368 -1.3626 -1.0027
 8203SOL     OW36241   1.624   3.565   5.671  0.5042 -0.3427  0.3485
 8203SOL    HW136242   1.645   3.476   5.699  0.5523 -0.1498  0.9233
 8203SOL    HW236243   1.709   3.607   5.662  0.2644 -0.2311 -1.2688
 8204SOL     OW36244   3.676   2.441   9.224 -0.4054 -0.0485 -0.3638
 8204SOL    HW136245   3.672   2.388   9.145  0.0677  0.3252 -0.6403
 8204SOL    HW236246   3.640   2.378   9.286 -1.1105 -0.1016 -0.8289
 8205SOL     OW36247   3.531   1.915   2.666 -0.1878  0.6822 -0.1157
 8205SOL    HW136248   3.479   1.889   2.742 -0.7072 -3.2673 -1.7706
 8205SOL    HW236249   3.459   1.930   2.604 -0.7939  1.2406  0.7217
 8206SOL     OW36250   2.164   0.145   7.096 -0.9372 -0.1161 -0.1948
 8206SOL    HW136251   2.105   0.136   7.171  1.9399  0.4052  2.1457
 8206SOL    HW236252   2.217   0.215   7.134 -0.4628  0.6476 -2.2685
 8207SOL     OW36253   2.065   4.173   9.574  0.0988 -0.0396 -0.9291
 8207SOL    HW136254   1.994   4.114   9.549 -0.5689  0.1495  0.5405
 8207SOL    HW236255   2.031   4.254   9.535  1.3352  0.7192 -0.4502
 8208SOL     OW36256   1.313   3.409   4.671  0.4972  0.6338  0.2703
 8208SOL    HW136257   1.388   3.351   4.657  0.1519  0.5312 -1.1323
 8208SOL    HW236258   1.305   3.415   4.766  0.8601 -3.1271  0.5173
 8209SOL     OW36259   1.204   0.616   7.980 -0.1778  0.6534  0.4557
 8209SOL    HW136260   1.290   0.608   8.021  0.3723  1.7900 -0.4845
 8209SOL    HW236261   1.235   0.658   7.900  1.1159 -0.3497  0.4260
 8210SOL     OW36262   0.027   4.476   4.757  0.2370 -0.3231  0.3864
 8210SOL    HW136263   4.712   4.536   4.809  1.4942  1.5187 -0.4261
 8210SOL    HW236264   0.116   4.505   4.777  1.0825 -3.7122  1.5305
 8211SOL     OW36265   2.088   3.187   7.422  0.2323  0.8705  0.6241
 8211SOL    HW136266   2.099   3.198   7.328  0.2323 -1.5708  0.3546
 8211SOL    HW236267   2.007   3.137   7.418 -0.9060  2.9048 -2.2440
 8212SOL     OW36268   4.503   2.885   5.047  0.0411 -0.1958  0.5043
 8212SOL    HW136269   4.492   2.865   5.140  0.3952 -1.0566  0.3569
 8212SOL    HW236270   4.551   2.967   5.042 -1.8879  0.9068 -0.0032
 8213SOL     OW36271   0.817   0.580  17.615  0.5580  0.2693 -0.0474
 8213SOL    HW136272   0.743   0.640  17.611  0.2830 -0.0620  0.1669
 8213SOL    HW236273   0.874   0.618  17.548 -0.0512  1.3023  0.0184
 8214SOL     OW36274   1.100   2.555   2.248  0.0544 -0.0019  0.4419
 8214SOL    HW136275   1.014   2.595   2.261 -0.7152 -1.8703  1.2107
 8214SOL    HW236276   1.150   2.603   2.314  0.9042  0.0432 -0.2365
 8215SOL     OW36277   2.488   0.227  11.603 -0.0887 -0.1811 -0.4368
 8215SOL    HW136278   2.508   0.141  11.565  0.1544 -1.0361  1.6494
 8215SOL    HW236279   2.535   0.280  11.538  1.6311 -0.4301  0.6010
 8216SOL     OW36280   0.137   3.004   7.410  0.4390 -0.3704  0.4959
 8216SOL    HW136281   0.227   2.970   7.405  0.8279  0.9169 -1.1771
 8216SOL    HW236282   0.098   2.958   7.335 -0.8678 -0.2900  1.1354
 8217SOL     OW36283   0.841   3.373   8.600 -0.0849 -0.2497 -0.3877
 8217SOL    HW136284   0.909   3.321   8.555  0.4381 -1.7611  2.1371
 8217SOL    HW236285   0.877   3.373   8.689 -1.1782 -1.3706  0.0644
 8218SOL     OW36286   3.237   2.765   6.943 -0.1595 -0.3183  0.2349
 8218SOL    HW136287   3.233   2.671   6.927  1.2493 -0.2584 -0.3935
 8218SOL    HW236288   3.170   2.803   6.885  0.2256  0.3287  0.2122
 8219SOL     OW36289   3.673   0.515   4.638  0.2099  0.9550  0.9084
 8219SOL    HW136290   3.633   0.578   4.698  1.4650  0.5361  2.1888
 8219SOL    HW236291   3.630   0.534   4.555  0.3395 -0.6000  0.4752
 8220SOL     OW36292   3.889   3.518   5.482  0.2110 -0.0668 -0.3559
 8220SOL    HW136293   3.918   3.532   5.392 -1.2600 -0.1724 -0.8398
 8220SOL    HW236294   3.903   3.606   5.518 -1.6668 -0.1142  0.4748
 8221SOL     OW36295   2.901   2.800   8.635 -0.2096  0.0574 -0.2863
 8221SOL    HW136296   2.968   2.733   8.622 -0.4375 -0.1809 -0.2437
 8221SOL    HW236297   2.822   2.746   8.635 -0.4899  0.4679 -1.3522
 8222SOL     OW36298   2.529   1.658   2.495 -0.1771  0.4249 -0.5264
 8222SOL    HW136299   2.623   1.638   2.503  0.2591  2.5416 -0.4804
 8222SOL    HW236300   2.548   1.749   2.516 -0.6531  0.8202 -1.7921
 8223SOL     OW36301   0.782   2.028  17.028  0.0541 -0.1559  0.5148
 8223SOL    HW136302   0.763   2.049  16.936 -0.6703 -1.8927  0.2803
 8223SOL    HW236303   0.857   1.977  16.998  0.8781  1.1342  0.3890
 8224SOL     OW36304   2.821   0.265   2.069 -0.4264 -0.4838  0.0881
 8224SOL    HW136305   2.827   0.172   2.047 -1.2168  0.1389 -2.7982
 8224SOL    HW236306   2.847   0.304   1.985 -0.1940 -0.5122  0.1472
 8225SOL     OW36307   4.224   2.897   0.144  0.5764  0.5743  0.1620
 8225SOL    HW136308   4.244   2.924   0.054 -0.2594 -0.3221 -0.2845
 8225SOL    HW236309   4.208   2.804   0.127 -0.2431  0.7796 -0.1660
 8226SOL     OW36310   2.585   0.584   6.150  0.3788 -0.5213  0.3822
 8226SOL    HW136311   2.572   0.489   6.151  2.7692 -0.8378  0.3823
 8226SOL    HW236312   2.509   0.605   6.096  1.3916 -1.0818 -1.2652
 8227SOL     OW36313   2.619   2.250   8.106  0.2689  0.0815  0.2468
 8227SOL    HW136314   2.563   2.185   8.149  2.8837 -0.7968  2.3280
 8227SOL    HW236315   2.683   2.194   8.061  1.9113  3.4744 -1.6361
 8228SOL     OW36316   0.428   0.486   4.804  0.4693  0.0007  0.1724
 8228SOL    HW136317   0.456   0.507   4.893 -0.5524 -2.2800  1.0374
 8228SOL    HW236318   0.362   0.554   4.792 -1.7959 -2.1115  0.6980
 8229SOL     OW36319   4.525   0.135   9.306  1.0076 -0.5303  0.5882
 8229SOL    HW136320   4.592   0.067   9.306  3.4228  1.8024 -1.5868
 8229SOL    HW236321   4.446   0.085   9.325  1.5599 -2.0253 -1.0358
 8230SOL     OW36322   4.445   0.262   4.811  0.0133 -0.3093 -0.3872
 8230SOL    HW136323   4.451   0.206   4.734 -2.1109  1.4783 -1.8607
 8230SOL    HW236324   4.455   0.201   4.884  1.2337 -1.3337 -1.4048
 8231SOL     OW36325   4.444   1.490   9.552 -0.6074 -0.5028 -0.1422
 8231SOL    HW136326   4.418   1.546   9.626  2.4540 -2.8481  2.6997
 8231SOL    HW236327   4.497   1.555   9.506  0.4204 -2.5574 -1.8101
 8232SOL     OW36328   3.080   3.766   2.350 -0.4749  0.1875 -0.5872
 8232SOL    HW136329   3.045   3.695   2.404  1.9208 -0.6639 -0.1431
 8232SOL    HW236330   3.141   3.728   2.286 -0.9244 -0.9843 -0.3199
 8233SOL     OW36331   4.563   3.425  11.984 -0.6433 -0.0991 -0.0114
 8233SOL    HW136332   4.517   3.476  11.917 -2.3426 -1.7819 -0.1098
 8233SOL    HW236333   4.658   3.438  11.980 -0.7464  0.4734 -0.7076
 8234SOL     OW36334   1.354   1.176   7.661 -0.3595 -0.0076  0.2573
 8234SOL    HW136335   1.353   1.107   7.727 -0.8339 -1.8750 -1.6693
 8234SOL    HW236336   1.268   1.173   7.619 -0.7477  1.2192  0.9795
 8235SOL     OW36337   0.924   2.810  11.502 -0.1559 -0.4937 -0.0073
 8235SOL    HW136338   0.899   2.746  11.569 -0.3456 -1.6918 -1.2305
 8235SOL    HW236339   0.891   2.764  11.425 -1.1124  1.3380 -0.6762
 8236SOL     OW36340   2.594   1.657   8.725 -0.1542  0.3348  0.1955
 8236SOL    HW136341   2.623   1.589   8.664 -0.5399  1.3564 -1.1342
 8236SOL    HW236342   2.675   1.700   8.752 -0.5023  1.7666 -1.0538
 8237SOL     OW36343   4.635   1.171   1.683  0.5490  0.1953  0.2345
 8237SOL    HW136344   4.606   1.145   1.770  0.2966 -0.8935 -0.1835
 8237SOL    HW236345   4.664   1.084   1.656  0.1952  0.1497  0.0169
 8238SOL     OW36346   3.502   0.451   3.936 -0.2977  0.2604  0.5607
 8238SOL    HW136347   3.460   0.495   3.862  0.1954 -0.4645 -0.1553
 8238SOL    HW236348   3.429   0.392   3.959 -0.2367 -0.2243 -0.4998
 8239SOL     OW36349   3.437   3.328   8.005  0.4056 -0.3106  0.6795
 8239SOL    HW136350   3.364   3.381   7.975 -0.8489 -1.3554  1.9125
 8239SOL    HW236351   3.469   3.382   8.078 -1.0274 -0.4526  1.4051
 8240SOL     OW36352   1.525   1.966  13.688 -0.1376 -0.0956  0.6009
 8240SOL    HW136353   1.585   1.893  13.677 -0.0889  0.0289  0.0524
 8240SOL    HW236354   1.578   2.019  13.748  0.4746  0.3862 -0.3782
 8241SOL     OW36355   2.927   3.779   0.563 -0.4388 -0.2232 -0.3995
 8241SOL    HW136356   2.993   3.766   0.632 -1.2346  0.8607  0.5670
 8241SOL    HW236357   2.907   3.686   0.550  0.3946 -0.7458  1.9474
 8242SOL     OW36358   0.429   4.209   7.665  0.1372  0.1107  0.3413
 8242SOL    HW136359   0.334   4.220   7.669  0.1641  0.9790 -1.3091
 8242SOL    HW236360   0.460   4.296   7.639 -1.0281  0.2739 -0.5248
 8243SOL     OW36361   4.643   2.631   5.821 -0.4182 -0.0472 -0.3325
 8243SOL    HW136362   4.580   2.695   5.855  0.1387  0.5465 -0.4268
 8243SOL    HW236363   4.724   2.680   5.811  1.8204 -3.9985 -1.2672
 8244SOL     OW36364   1.681   4.249   7.771 -0.2636  0.1330  0.2600
 8244SOL    HW136365   1.631   4.289   7.842 -0.0374 -0.9717  1.0456
 8244SOL    HW236366   1.757   4.304   7.757 -2.0821  2.2102 -1.4470
 8245SOL     OW36367   0.883   1.339   7.797  0.1720 -0.2899 -0.5966
 8245SOL    HW136368   0.898   1.318   7.889 -0.2396  0.8341 -0.2698
 8245SOL    HW236369   0.886   1.435   7.789  0.3584 -0.1167  1.3489
 8246SOL     OW36370   2.830   1.376   1.403  0.0333 -0.2563  0.7993
 8246SOL    HW136371   2.891   1.356   1.475 -0.4119 -1.0527  0.9570
 8246SOL    HW236372   2.759   1.407   1.458 -0.2348 -3.0980  2.1055
 8247SOL     OW36373   3.876   1.969   2.873  0.1284  0.0787  0.3452
 8247SOL    HW136374   3.867   2.061   2.897 -0.9624 -0.0231  0.3406
 8247SOL    HW236375   3.862   1.923   2.956  2.1990 -1.4623 -0.1632
 8248SOL     OW36376   4.612   2.194   0.143 -0.3136  0.0238 -0.6176
 8248SOL    HW136377   4.676   2.159   0.081  0.4849  0.7431 -0.2026
 8248SOL    HW236378   4.581   2.122   0.197  0.7926 -0.9958 -1.3547
 8249SOL     OW36379   4.548   4.726   7.066  0.2785 -0.2937  0.3151
 8249SOL    HW136380   4.625   4.670   7.062  0.4846  0.0809 -1.0916
 8249SOL    HW236381   4.497   4.673   7.004  1.1386  0.6594 -1.2325
 8250SOL     OW36382   2.749   1.127  15.672 -0.0671  0.0670  0.5638
 8250SOL    HW136383   2.779   1.152  15.584  0.4117  0.7655  0.9265
 8250SOL    HW236384   2.774   1.034  15.668 -1.5492 -0.2628 -1.0702
 8251SOL     OW36385   1.096   0.031  11.036 -0.7179  0.1729 -0.5808
 8251SOL    HW136386   1.094   0.036  10.941 -1.5377  2.0658 -0.4604
 8251SOL    HW236387   1.030   4.701  11.048 -1.8303  1.0778 -1.5974
 8252SOL     OW36388   1.563   2.855   3.786 -0.3748  0.1706 -0.1163
 8252SOL    HW136389   1.490   2.903   3.748 -0.5320 -1.7186 -2.1643
 8252SOL    HW236390   1.543   2.861   3.879  0.8586  1.8458  0.0563
 8253SOL     OW36391   2.768   0.077   4.715  0.2592 -0.2550  0.2306
 8253SOL    HW136392   2.689   0.032   4.743  1.2043 -1.9295  0.2333
 8253SOL    HW236393   2.755   0.164   4.753 -0.6636  1.1721 -3.3421
 8254SOL     OW36394   4.720   3.512  15.538 -0.1473  0.0779  0.2269
 8254SOL    HW136395   0.043   3.519  15.464  0.4198 -2.2166  0.4830
 8254SOL    HW236396   4.649   3.570  15.511 -0.0152  1.1218  2.1132
 8255SOL     OW36397   2.807   4.670  16.961  0.2292  0.6837  0.4949
 8255SOL    HW136398   2.791   0.022  16.987 -0.1188 -0.2514  3.4765
 8255SOL    HW236399   2.720   4.636  16.983 -0.0783  0.7657 -0.5761
 8256SOL     OW36400   1.891   0.706   3.321 -0.3042 -0.7140  0.7425
 8256SOL    HW136401   1.799   0.722   3.301 -0.2070 -0.3898  0.5460
 8256SOL    HW236402   1.927   0.699   3.232  0.7209  0.0363  1.0950
 8257SOL     OW36403   2.051   3.051   3.355 -0.3695 -0.3672 -0.1917
 8257SOL    HW136404   2.098   3.008   3.426 -1.6536 -2.4336 -0.5943
 8257SOL    HW236405   2.041   2.978   3.294  0.2804 -0.0746 -0.6470
 8258SOL     OW36406   3.637   3.511   5.015  0.4518  0.1221  0.0420
 8258SOL    HW136407   3.662   3.465   4.935  2.0661 -1.8917  1.7159
 8258SOL    HW236408   3.594   3.584   4.969 -0.9483 -1.1095 -0.5981
 8259SOL     OW36409   3.832   2.281   3.728 -0.4976 -0.3888 -0.4569
 8259SOL    HW136410   3.760   2.345   3.731 -0.1003 -0.0840  2.1360
 8259SOL    HW236411   3.786   2.215   3.676 -0.2108 -1.2382  0.3743
 8260SOL     OW36412   4.654   3.652   4.301  0.1940  0.0997 -0.7711
 8260SOL    HW136413   4.576   3.621   4.347  0.5278 -1.0497 -0.9536
 8260SOL    HW236414   4.715   3.577   4.306  0.0489 -0.0780 -1.6833
 8261SOL     OW36415   1.540   4.317  15.284 -0.1710  0.4217 -0.6352
 8261SOL    HW136416   1.567   4.303  15.375 -2.2832  0.2229 -0.0377
 8261SOL    HW236417   1.459   4.366  15.279 -1.0846 -0.8217  2.2396
 8262SOL     OW36418   1.243   4.270   8.355  1.3056  0.0836  0.3429
 8262SOL    HW136419   1.152   4.284   8.379  0.6806 -2.2973 -0.6864
 8262SOL    HW236420   1.285   4.305   8.434  1.9146  1.0365 -0.4011
 8263SOL     OW36421   1.697   3.633  16.106 -0.2720  0.6691 -0.4350
 8263SOL    HW136422   1.733   3.676  16.029 -0.9841  0.0681 -1.1013
 8263SOL    HW236423   1.684   3.545  16.072 -0.9634  1.5181 -2.3350
 8264SOL     OW36424   2.234   1.763   7.117  0.3989  0.3074 -0.1086
 8264SOL    HW136425   2.309   1.757   7.177  1.2811 -0.8766 -1.3149
 8264SOL    HW236426   2.221   1.677   7.076 -2.0057 -0.9165  3.2202
 8265SOL     OW36427   4.381   2.893   8.665  0.4507  0.3194  0.7303
 8265SOL    HW136428   4.451   2.955   8.646  1.8934 -1.4512  0.2902
 8265SOL    HW236429   4.349   2.869   8.578  0.5503  1.4601  0.3884
 8266SOL     OW36430   3.924   3.004   4.420  0.2107  0.5563 -0.3324
 8266SOL    HW136431   3.994   3.006   4.355 -0.5431  0.5106 -1.1415
 8266SOL    HW236432   3.849   3.050   4.382  0.8680  0.2144 -2.0301
 8267SOL     OW36433   1.518   1.784  10.577 -0.2451 -0.0373  0.1684
 8267SOL    HW136434   1.495   1.748  10.663 -1.8419  1.8376  0.5377
 8267SOL    HW236435   1.523   1.698  10.535 -0.0063  0.5742 -1.0449
 8268SOL     OW36436   2.762   4.119   9.421  0.0214  0.1970 -0.0405
 8268SOL    HW136437   2.759   4.037   9.469 -1.1251 -0.3527 -1.0296
 8268SOL    HW236438   2.671   4.149   9.413  0.1337  0.2254 -1.2753
 8269SOL     OW36439   0.620   2.640   8.482  0.3126  0.1213 -0.1789
 8269SOL    HW136440   0.692   2.593   8.440 -0.1524 -0.3625 -0.4393
 8269SOL    HW236441   0.653   2.639   8.572  0.0869  0.4827 -0.0940
 8270SOL     OW36442   1.895   3.477   8.874  0.0451 -0.2217  0.3966
 8270SOL    HW136443   1.982   3.440   8.862  0.6941  1.1572  0.9570
 8270SOL    HW236444   1.890   3.477   8.969  2.5491 -1.0549  0.5272
 8271SOL     OW36445   1.450   3.040   5.954 -0.1897  0.2304  0.3377
 8271SOL    HW136446   1.453   3.087   5.871 -3.6574 -0.5069 -0.2266
 8271SOL    HW236447   1.432   2.950   5.926  1.6475 -0.0212 -0.0378
 8272SOL     OW36448   0.702   1.096  11.066 -0.3421 -0.2996  0.2285
 8272SOL    HW136449   0.746   1.050  10.995 -0.4227  0.4830 -0.3236
 8272SOL    HW236450   0.618   1.101  11.020 -0.3098 -0.2037  0.1807
 8273SOL     OW36451   0.810   4.099   5.253 -0.1993  0.1923 -0.2955
 8273SOL    HW136452   0.828   4.159   5.325 -0.3160 -2.2294  1.7401
 8273SOL    HW236453   0.880   4.038   5.275 -1.6333 -2.0315 -1.9168
 8274SOL     OW36454   1.730   1.343  13.521  0.4616  0.6284 -0.0759
 8274SOL    HW136455   1.704   1.341  13.429  1.4054 -0.6940 -0.3172
 8274SOL    HW236456   1.652   1.374  13.566 -0.4335  0.0998 -1.2745
 8275SOL     OW36457   1.155   2.792   8.159 -0.2317  0.0201 -0.1329
 8275SOL    HW136458   1.174   2.740   8.237 -0.2124  0.8193  0.3901
 8275SOL    HW236459   1.092   2.848   8.205 -0.5216 -0.4446  0.0448
 8276SOL     OW36460   3.850   2.091   6.500 -0.1641  0.0197 -0.2268
 8276SOL    HW136461   3.846   2.183   6.527 -1.8423  0.3071 -1.4048
 8276SOL    HW236462   3.861   2.102   6.405 -1.2210 -1.9889 -0.6016
 8277SOL     OW36463   2.462   3.122   2.392  0.0568 -0.0457  0.1611
 8277SOL    HW136464   2.452   3.210   2.427 -1.3473 -0.9146  1.9442
 8277SOL    HW236465   2.509   3.143   2.311  1.2228 -0.7904  0.6512
 8278SOL     OW36466   2.446   4.251   3.776  0.0393  0.1448 -0.4258
 8278SOL    HW136467   2.382   4.195   3.732  0.4096  2.1155 -3.4096
 8278SOL    HW236468   2.395   4.311   3.830  0.0750 -0.0974 -0.1186
 8279SOL     OW36469   3.413   4.644   7.476 -0.6401 -0.2170 -0.1065
 8279SOL    HW136470   3.322   4.631   7.503 -0.6293 -0.6814 -0.2921
 8279SOL    HW236471   3.457   4.622   7.559 -0.0276 -0.3498 -0.4657
 8280SOL     OW36472   0.040   3.332   0.820  0.1198 -0.4643 -0.1184
 8280SOL    HW136473   4.689   3.299   0.816 -1.0189  2.8656 -1.7181
 8280SOL    HW236474   0.025   3.425   0.800  0.3375 -0.3574  0.2109
 8281SOL     OW36475   3.311   3.767  15.832 -0.3157 -0.2490  0.4803
 8281SOL    HW136476   3.311   3.734  15.922 -0.1842 -0.6655  0.3270
 8281SOL    HW236477   3.372   3.702  15.798  1.6632  1.4669  0.7610
 8282SOL     OW36478   2.150   3.612  10.631  0.1814  0.1126  0.0096
 8282SOL    HW136479   2.219   3.646  10.688  0.4515  0.7140 -0.6637
 8282SOL    HW236480   2.127   3.527  10.666  0.6029 -0.5698 -1.3522
 8283SOL     OW36481   3.404   0.313  12.979 -0.0830 -0.7418  0.0925
 8283SOL    HW136482   3.448   0.258  13.044 -3.4221 -2.0526  1.2752
 8283SOL    HW236483   3.330   0.346  13.030 -0.2190 -0.5808 -0.2102
 8284SOL     OW36484   1.115   4.000   7.172 -0.4732  0.4852 -0.1707
 8284SOL    HW136485   1.125   3.913   7.211 -2.5703  0.6485  0.7373
 8284SOL    HW236486   1.201   4.002   7.130 -0.5980  0.3310 -0.4331
 8285SOL     OW36487   0.412   1.127   4.023 -0.3896  0.1967 -0.0599
 8285SOL    HW136488   0.497   1.157   3.993 -0.6222 -0.4230 -1.3169
 8285SOL    HW236489   0.433   1.046   4.069  2.4605 -0.0238 -1.8365
 8286SOL     OW36490   0.288   4.154   6.964 -1.1177  0.6380  0.3826
 8286SOL    HW136491   0.363   4.099   6.942  0.0468  1.9967  0.9463
 8286SOL    HW236492   0.225   4.095   7.005 -1.4380  0.9480  0.3351
 8287SOL     OW36493   1.178   0.517   2.278  0.1244 -0.6985 -0.5364
 8287SOL    HW136494   1.104   0.490   2.332  0.3484  0.3285  0.2715
 8287SOL    HW236495   1.191   0.440   2.223  1.3994 -0.7194 -0.2092
 8288SOL     OW36496   2.179   0.440   4.618 -0.3115 -0.2066 -0.4015
 8288SOL    HW136497   2.183   0.352   4.581 -1.5666  0.9191 -3.1709
 8288SOL    HW236498   2.086   0.457   4.604 -0.4478 -0.2817  0.3827
 8289SOL     OW36499   3.286   2.485   6.149  0.7568 -0.2569 -0.2963
 8289SOL    HW136500   3.368   2.519   6.112  1.6496 -1.5465  0.5270
 8289SOL    HW236501   3.275   2.399   6.109  1.2870 -0.3111 -0.3309
 8290SOL     OW36502   0.958   0.550   4.582  0.5925 -0.1375 -0.3307
 8290SOL    HW136503   0.985   0.491   4.512 -0.2194 -2.2592  1.1542
 8290SOL    HW236504   0.917   0.622   4.534  0.6329 -0.9388 -1.5653
 8291SOL     OW36505   2.380   2.523  11.839  0.0726 -0.2590 -0.1379
 8291SOL    HW136506   2.297   2.570  11.835  0.7719  0.7766 -2.7881
 8291SOL    HW236507   2.437   2.590  11.802 -0.2564 -0.9850 -1.9697
 8292SOL     OW36508   3.199   3.185   4.255  0.5358 -0.0559  0.5823
 8292SOL    HW136509   3.186   3.152   4.344 -1.3966  0.8741  0.6472
 8292SOL    HW236510   3.126   3.247   4.257  0.2512 -0.4012  1.0737
 8293SOL     OW36511   1.671   2.753   6.117 -0.2764  0.2439 -0.1238
 8293SOL    HW136512   1.665   2.759   6.212  0.7666  0.2860 -0.0597
 8293SOL    HW236513   1.591   2.702   6.104  0.7950 -1.4977  0.1105
 8294SOL     OW36514   1.413   2.650   6.153 -0.2215 -0.1310  0.1450
 8294SOL    HW136515   1.318   2.640   6.147 -0.1679 -0.8260  0.3978
 8294SOL    HW236516   1.442   2.560   6.137 -0.2387 -0.4472  1.9356
 8295SOL     OW36517   3.117   0.872   6.313  0.3917 -0.0125  0.2101
 8295SOL    HW136518   3.205   0.845   6.285 -0.5347 -2.6601 -0.1064
 8295SOL    HW236519   3.053   0.835   6.253 -0.2946 -0.5598  1.2933
 8296SOL     OW36520   2.182   0.818   4.153 -0.1558  0.0683  0.1709
 8296SOL    HW136521   2.148   0.783   4.070 -2.8290  1.5069  0.6735
 8296SOL    HW236522   2.170   0.909   4.125 -0.2102 -0.3757 -1.2588
 8297SOL     OW36523   1.138   3.640   8.768  0.0260  0.1616  0.4499
 8297SOL    HW136524   1.221   3.595   8.785  0.2878  0.3656 -0.3052
 8297SOL    HW236525   1.118   3.604   8.682 -0.0921  1.4557 -0.0586
 8298SOL     OW36526   2.473   4.390   4.213 -0.1658 -0.0469 -0.3199
 8298SOL    HW136527   2.489   4.471   4.261  0.5033  0.6506 -1.6996
 8298SOL    HW236528   2.565   4.370   4.195 -0.3253 -1.0264 -0.0225
 8299SOL     OW36529   1.100   4.091   4.759 -0.1773 -0.6813  0.0320
 8299SOL    HW136530   1.019   4.041   4.748 -0.1369 -0.8928  0.6561
 8299SOL    HW236531   1.070   4.179   4.736  1.3411  0.5631  2.7967
 8300SOL     OW36532   2.708   1.550   7.513  0.3529  0.5085 -0.7681
 8300SOL    HW136533   2.653   1.533   7.589  0.3532 -1.4527 -1.2089
 8300SOL    HW236534   2.678   1.638   7.487 -1.1596 -0.1140 -1.1145
 8301SOL     OW36535   3.862   3.910   9.436 -0.1008 -0.5361 -0.0016
 8301SOL    HW136536   3.785   3.962   9.456  0.1137  0.0140 -0.6336
 8301SOL    HW236537   3.846   3.889   9.344 -2.0257 -0.3915  0.3087
 8302SOL     OW36538   2.215   4.456  11.972  0.1142 -0.3224  0.0730
 8302SOL    HW136539   2.235   4.546  11.999 -1.2594 -0.3664  1.2509
 8302SOL    HW236540   2.120   4.464  11.970  0.2219  1.4086  1.0558
 8303SOL     OW36541   3.432   2.890   4.321 -0.0969 -0.2039  0.0967
 8303SOL    HW136542   3.478   2.890   4.405 -1.3167 -0.0287  0.7684
 8303SOL    HW236543   3.359   2.833   4.345  0.7359 -0.7552  1.3228
 8304SOL     OW36544   2.714   4.431   5.018  0.1906 -0.0879 -0.0291
 8304SOL    HW136545   2.667   4.351   5.040  2.3748 -1.0906  1.0798
 8304SOL    HW236546   2.791   4.392   4.977 -0.2254  0.6025 -1.4367
 8305SOL     OW36547   1.498   0.664   7.576 -0.1551  0.0778  0.3583
 8305SOL    HW136548   1.443   0.734   7.543 -1.6291 -1.2281  0.0259
 8305SOL    HW236549   1.502   0.606   7.500 -1.4418 -1.5602  1.5258
 8306SOL     OW36550   4.709   2.963   8.119 -0.3126 -0.1979 -0.0405
 8306SOL    HW136551   4.713   3.005   8.205  1.2483  1.9296 -1.1677
 8306SOL    HW236552   0.038   3.018   8.080 -0.9625  0.8233  0.2908
 8307SOL     OW36553   2.092   2.608  15.738 -0.0566  0.1509  0.0647
 8307SOL    HW136554   2.137   2.689  15.716  1.2210 -0.4511  0.4891
 8307SOL    HW236555   2.142   2.570  15.810 -1.0400 -0.6907  0.3107
 8308SOL     OW36556   1.374   3.750   7.651 -0.9970 -0.1936 -0.3933
 8308SOL    HW136557   1.288   3.767   7.615 -0.9008 -0.6042 -0.8126
 8308SOL    HW236558   1.397   3.663   7.619  2.6199  0.4600  0.3796
 8309SOL     OW36559   2.697   1.949   5.454 -0.1216  0.2740  0.1016
 8309SOL    HW136560   2.765   1.925   5.392 -0.7002 -2.0707  0.3859
 8309SOL    HW236561   2.754   1.993   5.517  0.0790  1.9421 -1.2471
 8310SOL     OW36562   0.119   2.808   4.900 -0.0560 -0.1025  0.1572
 8310SOL    HW136563   0.109   2.782   4.991 -0.4642  0.7910  0.3694
 8310SOL    HW236564   0.204   2.853   4.911  0.6263 -0.9875 -1.4806
 8311SOL     OW36565   3.151   0.543   3.856 -0.0935  0.0636 -0.1759
 8311SOL    HW136566   3.058   0.567   3.864 -0.5038 -1.0648 -1.6891
 8311SOL    HW236567   3.166   0.496   3.937  0.7799 -2.0766 -1.6067
 8312SOL     OW36568   2.620   3.810  10.305 -0.9186  0.2340 -0.1822
 8312SOL    HW136569   2.625   3.905  10.315  2.4894  0.2590 -2.2211
 8312SOL    HW236570   2.621   3.793  10.210  2.4293 -1.0430  0.1029
 8313SOL     OW36571   0.601   0.743  17.584  0.3073  0.2288 -0.1310
 8313SOL    HW136572   0.657   0.815  17.558 -0.5989  0.8904 -0.2407
 8313SOL    HW236573   0.520   0.774  17.545 -0.4294 -0.1083  1.1154
 8314SOL     OW36574   2.632   3.207  14.598  0.0041 -0.5064  0.1160
 8314SOL    HW136575   2.705   3.190  14.537 -1.4399 -0.3920 -1.6418
 8314SOL    HW236576   2.558   3.167  14.553  0.2140 -0.1902 -0.5144
 8315SOL     OW36577   4.462   2.015  14.557 -0.4754  0.3398  0.4818
 8315SOL    HW136578   4.444   2.008  14.463  1.2137  0.5820  0.1303
 8315SOL    HW236579   4.526   1.945  14.574 -0.5152  0.2175  0.1290
 8316SOL     OW36580   1.010   1.115   4.239 -0.1624 -0.0389  0.2923
 8316SOL    HW136581   1.079   1.133   4.303 -0.8486  1.0940  0.7163
 8316SOL    HW236582   1.054   1.138   4.157 -3.4447 -0.2756 -1.5125
 8317SOL     OW36583   1.029   2.212   4.207 -0.2121 -0.0711  0.0917
 8317SOL    HW136584   1.023   2.281   4.272  0.7015  1.7879 -1.8073
 8317SOL    HW236585   1.011   2.140   4.268  2.4861 -0.3933  0.4902
 8318SOL     OW36586   1.820   1.606   6.040  0.5429 -0.8295 -0.3432
 8318SOL    HW136587   1.788   1.567   6.121 -2.6020  0.9233 -0.7548
 8318SOL    HW236588   1.843   1.531   5.986  1.1689  0.9631 -2.5961
 8319SOL     OW36589   2.539   0.401  13.043  0.1663 -0.1301 -0.2194
 8319SOL    HW136590   2.501   0.348  13.112 -1.8487 -0.9210 -1.9460
 8319SOL    HW236591   2.486   0.480  13.051 -0.0996 -0.3343  0.0216
 8320SOL     OW36592   4.405   0.094   7.591 -0.3454 -0.3831  0.2662
 8320SOL    HW136593   4.410   0.006   7.628 -1.8344 -0.3027  0.6353
 8320SOL    HW236594   4.313   0.101   7.566 -0.4097  0.1662  0.6468
 8321SOL     OW36595   0.848   1.515   7.464  0.0474  0.2473  0.8681
 8321SOL    HW136596   0.772   1.543   7.414  0.7289  0.1413 -0.2351
 8321SOL    HW236597   0.824   1.551   7.549 -0.3838  0.7009  0.5549
 8322SOL     OW36598   0.142   4.129   4.184  0.1306 -0.3304 -0.7024
 8322SOL    HW136599   0.168   4.118   4.276 -1.6130  0.7473 -0.0923
 8322SOL    HW236600   0.220   4.094   4.142  3.3541  2.0715  3.2622
 8323SOL     OW36601   3.701   4.541   8.004  0.1369  0.3618  0.1191
 8323SOL    HW136602   3.672   4.631   7.987 -0.9737  0.1990  1.2071
 8323SOL    HW236603   3.682   4.522   8.095  1.3508 -2.4533 -0.2155
 8324SOL     OW36604   2.687   0.672  10.918  0.1407  0.0538 -0.0391
 8324SOL    HW136605   2.704   0.653  10.825  0.5711 -0.4847  0.1546
 8324SOL    HW236606   2.594   0.653  10.917  0.2387 -0.4362  2.0815
 8325SOL     OW36607   2.010   0.721   3.085 -0.3521  0.0100 -0.0760
 8325SOL    HW136608   1.959   0.725   3.004 -0.4160  0.5426 -0.0117
 8325SOL    HW236609   2.068   0.797   3.073 -0.8418  0.4910  0.6255
 8326SOL     OW36610   0.049   2.286   8.863 -0.3449 -0.0022 -0.3236
 8326SOL    HW136611   0.076   2.234   8.787  1.1083  0.2035  0.0721
 8326SOL    HW236612   4.732   2.221   8.906  1.0496 -1.1906 -0.3101
 8327SOL     OW36613   2.533   3.840   5.873 -0.1579 -0.1271 -0.3247
 8327SOL    HW136614   2.572   3.871   5.955 -1.1410  0.9434 -0.2650
 8327SOL    HW236615   2.472   3.771   5.901 -2.0756  1.5861 -0.2838
 8328SOL     OW36616   1.163   3.159   5.302  0.3897  0.1685 -0.0114
 8328SOL    HW136617   1.114   3.085   5.266 -1.7904  1.4849  0.2963
 8328SOL    HW236618   1.238   3.117   5.346 -0.5293 -1.6278 -0.1809
 8329SOL     OW36619   2.055   0.360   5.590  0.5527  0.4820  0.1237
 8329SOL    HW136620   2.124   0.406   5.542  0.3852 -1.5455 -2.0639
 8329SOL    HW236621   1.995   0.434   5.598 -0.1170 -0.2130  1.3590
 8330SOL     OW36622   4.671   2.773   6.882 -0.1184 -0.2028  0.3606
 8330SOL    HW136623   4.612   2.706   6.916 -0.7728  0.0882 -0.2116
 8330SOL    HW236624   0.019   2.745   6.912 -0.3041 -0.5359  0.5933
 8331SOL     OW36625   4.580   1.458   7.302  0.2661 -0.1548  0.4140
 8331SOL    HW136626   4.604   1.416   7.385 -0.2142 -1.1818  0.0297
 8331SOL    HW236627   4.486   1.465   7.314  0.2460  0.2173  0.0394
 8332SOL     OW36628   4.457   3.736   7.157  0.0138 -0.7667 -0.1380
 8332SOL    HW136629   4.469   3.734   7.062 -0.8861  1.2492 -0.2906
 8332SOL    HW236630   4.533   3.789   7.178  0.0238 -0.9779  0.3507
 8333SOL     OW36631   2.280   1.696  16.123  0.4619  0.5383 -0.1680
 8333SOL    HW136632   2.198   1.709  16.171  0.5355  1.0298 -0.1747
 8333SOL    HW236633   2.306   1.781  16.090  4.2729 -1.1710 -1.5658
 8334SOL     OW36634   1.282   1.410   1.736 -0.0440 -0.3181 -0.2097
 8334SOL    HW136635   1.217   1.349   1.701 -1.3228 -0.2955  2.1111
 8334SOL    HW236636   1.345   1.355   1.782  0.9332  2.2554  1.5254
 8335SOL     OW36637   3.197   2.453   7.349 -0.0310 -0.6017 -0.6906
 8335SOL    HW136638   3.187   2.547   7.333  1.4117 -0.3428 -0.1198
 8335SOL    HW236639   3.124   2.410   7.305 -0.2215 -0.7522 -0.2366
 8336SOL     OW36640   2.273   3.344   9.390 -0.1402 -0.1182 -0.3932
 8336SOL    HW136641   2.363   3.320   9.367  0.1518  1.7563 -1.2098
 8336SOL    HW236642   2.257   3.307   9.477  0.1329  0.8927  0.0870
 8337SOL     OW36643   4.650   3.483   6.129 -0.0615  0.2568  0.0664
 8337SOL    HW136644   4.677   3.570   6.099 -0.8366  1.3656  2.5992
 8337SOL    HW236645   4.578   3.500   6.189 -1.6616 -1.0812 -1.4721
 8338SOL     OW36646   0.922   0.341   6.503 -0.1541  0.4186  0.0748
 8338SOL    HW136647   0.996   0.377   6.552  0.2850 -1.4859  0.8361
 8338SOL    HW236648   0.883   0.424   6.479  1.6500  0.9976 -0.8280
 8339SOL     OW36649   1.307   1.535   6.820  0.1397 -0.2006 -0.1473
 8339SOL    HW136650   1.215   1.514   6.831  0.0682 -0.2556 -0.8642
 8339SOL    HW236651   1.320   1.594   6.894  0.1824 -3.0110  2.0907
 8340SOL     OW36652   3.531   1.841   3.616  0.2965  0.2824 -0.0206
 8340SOL    HW136653   3.623   1.845   3.643  0.2571  1.6141 -0.1119
 8340SOL    HW236654   3.520   1.751   3.583 -0.7788  1.4005 -2.6956
 8341SOL     OW36655   2.695   1.541   6.836  0.9314  0.2710  0.0060
 8341SOL    HW136656   2.664   1.459   6.796  1.1808  1.1835 -2.0789
 8341SOL    HW236657   2.737   1.512   6.917 -1.9552 -0.0578  1.3762
 8342SOL     OW36658   1.788   1.300  10.472 -0.1764  0.1892 -0.0252
 8342SOL    HW136659   1.821   1.279  10.385 -0.5753  1.3678 -0.4512
 8342SOL    HW236660   1.695   1.284  10.456 -0.4502  0.8775  0.8735
 8343SOL     OW36661   4.007   0.108   3.126  0.3342 -0.2509  0.4207
 8343SOL    HW136662   4.099   0.129   3.138 -0.1730  1.8926  0.5612
 8343SOL    HW236663   4.010   0.019   3.090 -1.5577 -0.5641  1.0536
 8344SOL     OW36664   2.019   1.822   2.710 -0.4904 -0.2941 -0.1750
 8344SOL    HW136665   2.048   1.894   2.766 -3.4056  0.1822  0.7122
 8344SOL    HW236666   2.035   1.848   2.619  0.8010 -1.2387 -0.2217
 8345SOL     OW36667   2.460   2.076   6.878 -0.0223  0.3350  0.7616
 8345SOL    HW136668   2.428   2.090   6.968 -0.5046  1.3559  0.4309
 8345SOL    HW236669   2.516   1.999   6.886 -0.9032 -0.1928  1.8796
 8346SOL     OW36670   4.423   3.303   1.055 -0.3482  0.7958 -0.2123
 8346SOL    HW136671   4.370   3.261   0.987  2.3301 -1.0019 -1.2144
 8346SOL    HW236672   4.359   3.346   1.112  0.0317  0.6750  0.3043
 8347SOL     OW36673   1.069   2.376   7.203  0.7933 -0.3735 -0.5241
 8347SOL    HW136674   1.128   2.317   7.157  2.5419  1.4698 -0.6215
 8347SOL    HW236675   1.037   2.316   7.271 -0.5289  0.9736  0.0664
 8348SOL     OW36676   4.246   1.263  17.586 -0.4643  0.0590  0.6050
 8348SOL    HW136677   4.201   1.346  17.570  0.8346  0.7668  0.5531
 8348SOL    HW236678   4.264   1.265  17.680  1.3958  0.7283  0.2440
 8349SOL     OW36679   0.867   0.744   4.412 -0.1021 -0.2814 -0.4657
 8349SOL    HW136680   0.926   0.792   4.354  0.3114  0.7314  0.7837
 8349SOL    HW236681   0.780   0.783   4.400  0.0112 -0.5856 -2.3215
 8350SOL     OW36682   3.444   0.110   4.450  0.2110  0.0899  0.6029
 8350SOL    HW136683   3.486   0.034   4.411  0.4921  0.8307 -0.5301
 8350SOL    HW236684   3.415   0.146   4.367 -0.2114  0.4342  0.8951
 8351SOL     OW36685   2.387   3.448   8.545 -0.3652 -0.1451 -0.4319
 8351SOL    HW136686   2.431   3.371   8.580 -1.4737  0.3960  2.1635
 8351SOL    HW236687   2.371   3.501   8.623 -3.0019 -2.7376  0.7896
 8352SOL     OW36688   2.208   1.275   3.893  0.5521  0.0846 -0.3289
 8352SOL    HW136689   2.256   1.210   3.842 -0.7777  0.7774 -2.4460
 8352SOL    HW236690   2.201   1.342   3.825 -0.7571  0.0717 -0.2011
 8353SOL     OW36691   0.231   0.921   2.610  0.6494 -0.2481 -0.2547
 8353SOL    HW136692   0.286   0.992   2.578 -2.5781  1.0728 -2.8536
 8353SOL    HW236693   0.279   0.844   2.579  0.9933 -0.1670  0.0804
 8354SOL     OW36694   3.507   1.477   0.423  0.8100 -0.3507 -0.5842
 8354SOL    HW136695   3.517   1.572   0.426  0.6894 -0.3307 -0.8474
 8354SOL    HW236696   3.451   1.460   0.348 -0.1130 -1.7642  0.4401
 8355SOL     OW36697   2.786   1.644   5.858 -0.1992  0.1466 -0.5157
 8355SOL    HW136698   2.838   1.724   5.866 -0.7500  0.3157  1.2236
 8355SOL    HW236699   2.762   1.637   5.950  0.5082  0.8603 -0.2831
 8356SOL     OW36700   0.856   1.806   6.590  0.4381 -0.4455  0.0061
 8356SOL    HW136701   0.776   1.850   6.561  1.8663  3.4439  2.0163
 8356SOL    HW236702   0.855   1.804   6.685 -3.5871 -0.6250 -0.0268
 8357SOL     OW36703   3.514   2.485   4.062 -0.1491  0.3373  0.8850
 8357SOL    HW136704   3.425   2.515   4.083 -1.4971 -1.4127 -2.3194
 8357SOL    HW236705   3.496   2.391   4.060  2.2230 -0.1174  0.9675
 8358SOL     OW36706   4.649   1.922   4.526 -0.0896  0.3010  0.0737
 8358SOL    HW136707   4.577   1.860   4.512  1.1924 -1.0240 -0.6195
 8358SOL    HW236708   4.703   1.927   4.447  0.5201 -0.2991  0.4492
 8359SOL     OW36709   0.042   3.653   7.880  0.3284 -0.3195 -0.5711
 8359SOL    HW136710   4.716   3.610   7.826 -0.8022  0.5389  0.0965
 8359SOL    HW236711   0.015   3.630   7.969 -0.4128 -0.8188 -0.9313
 8360SOL     OW36712   2.661   2.939  17.678  0.2459 -0.0007  0.3626
 8360SOL    HW136713   2.717   3.009  17.643  0.8241 -0.0465  1.1860
 8360SOL    HW236714   2.604   2.924  17.603 -1.2606  1.0295  1.2989
 8361SOL     OW36715   0.064   0.689   8.875 -0.8289  0.6518 -0.0937
 8361SOL    HW136716   0.033   0.615   8.823 -3.2850  1.9210 -0.4359
 8361SOL    HW236717   4.734   0.754   8.865 -1.6971 -0.3197 -0.4949
 8362SOL     OW36718   2.346   2.128   7.115  0.1416 -0.0088 -0.0278
 8362SOL    HW136719   2.277   2.063   7.128 -0.2774  0.8437  2.0055
 8362SOL    HW236720   2.284   2.200   7.099 -0.6763 -0.9018 -0.8586
 8363SOL     OW36721   2.806   3.425   5.085  0.3144  0.6673  0.7129
 8363SOL    HW136722   2.758   3.350   5.051  1.3470  0.2511  0.1825
 8363SOL    HW236723   2.739   3.490   5.108 -0.0351  0.7241 -0.4636
 8364SOL     OW36724   1.504   4.088  13.137 -0.0320  0.3177 -0.3806
 8364SOL    HW136725   1.478   4.011  13.088 -0.5877  0.4873 -0.3525
 8364SOL    HW236726   1.541   4.044  13.214 -0.9617 -0.4483 -0.3781
 8365SOL     OW36727   0.809   1.316   3.346 -0.0010  0.5492 -0.2429
 8365SOL    HW136728   0.717   1.293   3.336  0.1232  0.3329 -0.8841
 8365SOL    HW236729   0.857   1.235   3.327 -0.4473  0.4662 -1.0454
 8366SOL     OW36730   4.217   3.140   5.005  0.6726  0.0031 -0.0684
 8366SOL    HW136731   4.258   3.114   5.088  1.6580  1.0542 -0.2332
 8366SOL    HW236732   4.127   3.152   5.037  0.2621  0.0220 -1.2424
 8367SOL     OW36733   4.389   2.549   1.742 -0.5843  0.4416 -0.0178
 8367SOL    HW136734   4.310   2.514   1.783  0.3705 -0.4764  1.0379
 8367SOL    HW236735   4.364   2.639   1.724 -1.2565  0.4259  0.8696
 8368SOL     OW36736   2.154   2.473  13.854  0.2179 -0.1038  0.2290
 8368SOL    HW136737   2.232   2.497  13.805  0.0485 -0.0903 -0.0353
 8368SOL    HW236738   2.196   2.445  13.936  1.4353  0.0654 -0.3353
 8369SOL     OW36739   4.559   3.828   7.733  0.6619  0.2973 -0.1341
 8369SOL    HW136740   4.580   3.737   7.713  0.2652  0.3920 -0.9883
 8369SOL    HW236741   4.565   3.867   7.645  1.8253  1.7701  0.5880
 8370SOL     OW36742   1.203   2.792  10.699 -0.7628  0.3562  0.3367
 8370SOL    HW136743   1.213   2.882  10.731  2.3552  0.0749  0.1606
 8370SOL    HW236744   1.248   2.781  10.615  2.4320 -0.6753  2.1811
 8371SOL     OW36745   4.310   0.452   5.228 -0.1481 -0.0123 -0.2144
 8371SOL    HW136746   4.290   0.473   5.137  0.9881 -3.3577 -1.2363
 8371SOL    HW236747   4.231   0.397   5.231  1.2773 -1.9988  0.9310
 8372SOL     OW36748   2.909   2.113  11.192 -0.3347  0.2117  0.8584
 8372SOL    HW136749   2.994   2.125  11.235  0.8352 -1.4149 -1.0169
 8372SOL    HW236750   2.929   2.024  11.164  1.8897  0.7148  0.8832
 8373SOL     OW36751   4.074   0.891   3.670 -0.1803  0.1169  0.3257
 8373SOL    HW136752   4.071   0.873   3.576  2.2512 -0.0800  0.2662
 8373SOL    HW236753   4.140   0.840   3.718  0.1609  2.3288  2.2476
 8374SOL     OW36754   0.540   2.041   0.105 -0.1599  0.1301  0.2563
 8374SOL    HW136755   0.496   2.015   0.024 -1.5400  0.9589  0.7319
 8374SOL    HW236756   0.479   2.114   0.121  0.0984  0.1824  0.9815
 8375SOL     OW36757   0.600   2.902  13.707  0.1510 -0.0022 -0.0393
 8375SOL    HW136758   0.646   2.963  13.764 -1.0317 -0.8345  1.8230
 8375SOL    HW236759   0.574   2.967  13.642 -1.7426  1.4243  2.1436
 8376SOL     OW36760   2.298   3.963   7.289 -0.6788 -0.5478 -0.1888
 8376SOL    HW136761   2.297   3.874   7.326  2.8800  0.6651  2.7657
 8376SOL    HW236762   2.381   3.960   7.241 -0.8065 -0.9204 -0.3877
 8377SOL     OW36763   2.820   3.783   8.868 -0.3265  0.5693 -0.4116
 8377SOL    HW136764   2.732   3.808   8.896 -1.1682 -1.2882 -1.3546
 8377SOL    HW236765   2.841   3.840   8.794  0.8769 -0.1302 -0.6210
 8378SOL     OW36766   4.390   3.792   2.554  0.6707 -0.0312  0.1993
 8378SOL    HW136767   4.427   3.716   2.599 -0.0658 -0.0209  0.8110
 8378SOL    HW236768   4.296   3.773   2.548  0.3894  1.2055  0.6947
 8379SOL     OW36769   1.433   2.491   7.699  0.4314 -0.3413 -0.5942
 8379SOL    HW136770   1.395   2.449   7.621 -1.6553 -2.0072  1.3220
 8379SOL    HW236771   1.459   2.572   7.655  0.9651 -0.7798 -1.0858
 8380SOL     OW36772   4.689   1.124   8.642  0.1872 -0.3908  0.6969
 8380SOL    HW136773   0.025   1.168   8.601  0.1796 -1.7857 -0.8265
 8380SOL    HW236774   4.621   1.183   8.610 -0.1601 -2.6078 -2.6862
 8381SOL     OW36775   1.952   0.587   2.095  1.0623  0.0986  0.0518
 8381SOL    HW136776   2.029   0.629   2.057  0.4484  0.8111 -0.3891
 8381SOL    HW236777   1.987   0.522   2.156 -0.5065 -1.1551 -0.4043
 8382SOL     OW36778   0.237   4.580   8.179  0.0302 -0.0468  0.4733
 8382SOL    HW136779   0.201   4.491   8.180  0.3037 -0.1682 -0.1341
 8382SOL    HW236780   0.228   4.603   8.086  1.1165  1.1583  0.6706
 8383SOL     OW36781   2.104   2.128   4.117 -0.9181  0.1375 -0.6572
 8383SOL    HW136782   2.155   2.136   4.037  1.1236  2.6257  0.8893
 8383SOL    HW236783   2.051   2.208   4.110  2.9469  2.9065  1.6520
 8384SOL     OW36784   3.553   3.518  17.311  0.2357  0.1939  0.2811
 8384SOL    HW136785   3.614   3.566  17.256 -0.5644 -0.2730 -1.0232
 8384SOL    HW236786   3.481   3.504  17.249  1.2576 -1.3769 -0.5465
 8385SOL     OW36787   4.203   4.035  14.678  0.4512 -0.1634 -0.2565
 8385SOL    HW136788   4.117   4.034  14.720  0.2481  1.0783 -0.6420
 8385SOL    HW236789   4.189   3.982  14.599 -1.1237 -1.5612  0.9813
 8386SOL     OW36790   0.948   0.860   3.020 -0.0556  0.2296  0.4744
 8386SOL    HW136791   0.980   0.778   3.057 -3.3986 -0.8291  1.0590
 8386SOL    HW236792   0.852   0.854   3.026  0.0348 -2.2608 -0.4580
 8387SOL     OW36793   1.861   4.056  10.874  0.0185 -0.5252  0.1812
 8387SOL    HW136794   1.909   4.000  10.814  1.3324  0.6816  0.1267
 8387SOL    HW236795   1.836   3.998  10.947 -0.5781 -2.3596 -1.4963
 8388SOL     OW36796   3.938   2.349   8.348 -0.3194 -0.6672  0.2198
 8388SOL    HW136797   4.007   2.303   8.299  0.1427 -2.1031  2.2270
 8388SOL    HW236798   3.944   2.435   8.308 -1.0311 -1.5902 -1.8615
 8389SOL     OW36799   0.690   2.738   1.746 -0.2464 -0.2599 -0.2352
 8389SOL    HW136800   0.603   2.777   1.755  0.0422  0.8324 -2.2059
 8389SOL    HW236801   0.693   2.726   1.651 -0.1511  0.3326 -0.3052
 8390SOL     OW36802   2.618   0.474  16.886 -0.0184  0.8855 -0.1270
 8390SOL    HW136803   2.582   0.385  16.892 -1.0009  1.1107 -3.0506
 8390SOL    HW236804   2.542   0.521  16.853  0.1709  0.7312 -0.7713
 8391SOL     OW36805   0.486   3.076   6.757  0.2088  0.3546  0.9847
 8391SOL    HW136806   0.566   3.072   6.810  1.0864 -0.4496 -0.4075
 8391SOL    HW236807   0.496   3.161   6.713  1.0693  0.5779  1.6211
 8392SOL     OW36808   4.372   2.145   2.265 -0.2693 -0.5045  0.2717
 8392SOL    HW136809   4.357   2.235   2.239  0.0109 -0.0630  1.6402
 8392SOL    HW236810   4.290   2.134   2.313 -0.9241 -1.3029 -1.0178
 8393SOL     OW36811   0.010   0.342   7.358 -0.0672 -0.6372 -0.1394
 8393SOL    HW136812   4.715   0.402   7.425 -0.5429 -0.4937 -0.5075
 8393SOL    HW236813   0.079   0.295   7.404  0.7955  0.6172 -0.1445
 8394SOL     OW36814   0.505   2.497   3.134  0.0933 -0.4702  0.1968
 8394SOL    HW136815   0.459   2.579   3.155 -0.3124 -1.0704  1.6873
 8394SOL    HW236816   0.564   2.534   3.068 -0.2390 -0.8692 -0.3228
 8395SOL     OW36817   2.433   0.894   5.476 -0.0034 -0.0404  0.0505
 8395SOL    HW136818   2.429   0.889   5.381  0.1399 -3.4890  0.2283
 8395SOL    HW236819   2.514   0.845   5.491  0.7257  0.9453 -0.6173
 8396SOL     OW36820   1.681   3.233   8.414 -0.6376 -0.1134 -0.0126
 8396SOL    HW136821   1.647   3.248   8.326 -0.4450 -2.4098 -0.4834
 8396SOL    HW236822   1.659   3.142   8.433  1.7501  0.1673  4.1825
 8397SOL     OW36823   3.734   3.294   2.877 -0.2721 -0.2543  0.5471
 8397SOL    HW136824   3.699   3.315   2.964 -0.0287  2.3675 -0.0046
 8397SOL    HW236825   3.824   3.325   2.891 -0.3377  0.4139 -0.5513
 8398SOL     OW36826   0.876   3.828  13.540 -1.3256  0.1882 -0.2377
 8398SOL    HW136827   0.839   3.838  13.627  0.1048 -1.4645  0.5541
 8398SOL    HW236828   0.859   3.739  13.511 -1.8464  0.6089 -1.2162
 8399SOL     OW36829   1.683   1.868  11.325  0.6060  0.6193  0.2198
 8399SOL    HW136830   1.694   1.953  11.281  1.3048 -1.2208 -3.1181
 8399SOL    HW236831   1.752   1.871  11.392  0.9467  0.8279 -0.1433
 8400SOL     OW36832   2.784   2.930   7.207 -0.4360  0.0754  0.2099
 8400SOL    HW136833   2.780   2.870   7.281  4.5575 -1.9252 -1.1740
 8400SOL    HW236834   2.695   2.907   7.182 -0.5817 -0.7183  1.4492
 8401SOL     OW36835   4.581   1.432   6.894 -0.3213 -0.5845  0.1329
 8401SOL    HW136836   4.502   1.475   6.927  0.6514  2.3948 -1.4486
 8401SOL    HW236837   4.616   1.377   6.965  1.3634  2.4444  1.6519
 8402SOL     OW36838   1.021   2.385   8.283 -0.2676 -0.0604  0.3554
 8402SOL    HW136839   1.054   2.407   8.196  0.3521 -0.9081  0.3738
 8402SOL    HW236840   0.948   2.331   8.251  2.0669 -0.6180 -4.0219
 8403SOL     OW36841   0.453   3.357   1.901  0.1048  0.3333 -0.4018
 8403SOL    HW136842   0.487   3.439   1.866  1.6773  0.9227  2.4495
 8403SOL    HW236843   0.426   3.314   1.820 -0.5344 -2.0965  1.0786
 8404SOL     OW36844   2.751   0.231  12.979  0.9759 -0.7414  0.1144
 8404SOL    HW136845   2.835   0.267  12.949 -0.8278  2.8064 -0.5866
 8404SOL    HW236846   2.701   0.306  13.010  1.8892  0.7528 -1.9834
 8405SOL     OW36847   4.632   3.315   7.059 -0.2110  0.4638 -1.1727
 8405SOL    HW136848   4.595   3.309   6.971 -2.1869  1.4036 -0.4183
 8405SOL    HW236849   4.586   3.243   7.102 -0.9955  1.2629 -0.6731
 8406SOL     OW36850   2.876   4.050   7.925 -0.1050  0.5188  0.1964
 8406SOL    HW136851   2.866   4.090   8.011 -0.9684 -2.5110  1.5316
 8406SOL    HW236852   2.801   4.078   7.873  0.1368 -0.5015 -0.7189
 8407SOL     OW36853   1.179   2.518   5.824  0.1789 -0.1724  0.2705
 8407SOL    HW136854   1.197   2.611   5.808 -0.2181  0.0798  1.2822
 8407SOL    HW236855   1.261   2.484   5.788 -2.1236 -1.1965 -4.0460
 8408SOL     OW36856   4.333   4.634   3.768  0.0911 -0.0066  0.1118
 8408SOL    HW136857   4.322   4.575   3.843 -0.4910 -2.4462 -1.9148
 8408SOL    HW236858   4.362   4.714   3.813  1.3263 -1.3079  1.6150
 8409SOL     OW36859   3.558   4.208   7.805 -0.6005  0.3387  0.2094
 8409SOL    HW136860   3.585   4.242   7.720 -0.9051 -0.3816 -0.1739
 8409SOL    HW236861   3.616   4.133   7.816 -0.1481  0.4322 -1.5548
 8410SOL     OW36862   3.404   0.284   6.389  0.1745  0.0473 -0.2273
 8410SOL    HW136863   3.436   0.222   6.323 -0.9945 -0.5336 -0.2467
 8410SOL    HW236864   3.462   0.358   6.371 -1.6858  1.2278 -1.3725
 8411SOL     OW36865   3.020   1.792   8.859 -0.1329 -0.1763 -0.1490
 8411SOL    HW136866   3.074   1.715   8.877 -0.1207 -0.0037  0.5367
 8411SOL    HW236867   3.070   1.830   8.787  0.7474 -0.0252  0.5548
 8412SOL     OW36868   3.439   3.741   6.137  0.3155 -0.3947 -0.6225
 8412SOL    HW136869   3.411   3.700   6.219 -0.0750  1.2115  0.0410
 8412SOL    HW236870   3.456   3.832   6.158 -1.1754 -0.3851  0.5186
 8413SOL     OW36871   2.818   2.517   5.935  0.2028 -0.2117 -0.1308
 8413SOL    HW136872   2.739   2.475   5.968  0.4266 -0.6388 -0.1426
 8413SOL    HW236873   2.886   2.457   5.963  0.5437 -0.6497 -1.9182
 8414SOL     OW36874   1.275   1.733   8.115  0.2093  0.1532  0.4657
 8414SOL    HW136875   1.363   1.698   8.121 -0.6823 -2.1438 -0.0263
 8414SOL    HW236876   1.230   1.676   8.177  1.8003 -0.5972  0.9239
 8415SOL     OW36877   0.066   3.021   6.715 -0.2774 -0.4534  0.4682
 8415SOL    HW136878   0.094   3.036   6.806 -1.6512  2.6393  0.3672
 8415SOL    HW236879   0.117   3.087   6.668 -2.0951  1.2373  0.8889
 8416SOL     OW36880   0.256   2.442   2.172  0.0137 -0.6749  0.5232
 8416SOL    HW136881   0.178   2.471   2.124 -1.1668 -1.2110  2.1243
 8416SOL    HW236882   0.222   2.399   2.250  0.4583 -0.2544  0.9436
 8417SOL     OW36883   3.317   0.235   3.398 -0.2066  0.4530  0.1956
 8417SOL    HW136884   3.272   0.193   3.472 -0.9736  0.1946 -0.4156
 8417SOL    HW236885   3.253   0.302   3.373 -0.7492 -0.5255 -1.0289
 8418SOL     OW36886   1.461   1.788  12.703 -0.6765  0.3129  0.1060
 8418SOL    HW136887   1.481   1.694  12.696 -2.9566  0.0536 -2.7875
 8418SOL    HW236888   1.407   1.811  12.628  0.7788  1.5320 -0.5492
 8419SOL     OW36889   1.400   3.977   7.120 -0.5200 -0.8664  0.5524
 8419SOL    HW136890   1.413   4.047   7.185 -0.8869 -0.6459  0.3859
 8419SOL    HW236891   1.462   4.000   7.051  0.7005  0.8782  2.2139
 8420SOL     OW36892   2.407   2.703   6.156 -0.3353 -0.4203 -0.0756
 8420SOL    HW136893   2.467   2.770   6.121 -0.2213  0.5492  1.9971
 8420SOL    HW236894   2.327   2.727   6.109 -0.1865  0.2057 -0.0067
 8421SOL     OW36895   3.946   1.770   3.076  0.4705 -0.0125 -0.5455
 8421SOL    HW136896   3.984   1.702   3.132 -0.7687 -0.7564 -0.6056
 8421SOL    HW236897   4.022   1.828   3.067  1.9714 -1.8460  0.2147
 8422SOL     OW36898   0.170   4.243   9.431  0.5521  0.0078 -0.7059
 8422SOL    HW136899   0.262   4.237   9.454  0.0673 -3.2525  0.5155
 8422SOL    HW236900   0.172   4.306   9.359 -1.5394 -0.8050 -1.4771
 8423SOL     OW36901   2.143   0.097   6.589  0.4420  0.0681 -0.4345
 8423SOL    HW136902   2.197   0.019   6.572 -0.1431 -0.4043 -0.1201
 8423SOL    HW236903   2.129   0.085   6.683  0.7120 -0.0961 -0.4150
 8424SOL     OW36904   0.899   0.993  16.510 -0.4956  0.4892 -0.9519
 8424SOL    HW136905   0.973   0.935  16.495 -0.3092  0.4397  0.1403
 8424SOL    HW236906   0.919   1.071  16.458 -0.8261 -1.1372 -3.5040
 8425SOL     OW36907   3.336   3.340   3.588 -0.5334 -0.7838  0.3149
 8425SOL    HW136908   3.411   3.280   3.587 -1.2025 -1.6023 -0.2664
 8425SOL    HW236909   3.315   3.351   3.496 -1.7868  0.5679  0.7613
 8426SOL     OW36910   2.814   1.972   0.639 -0.5357 -0.1104  0.4432
 8426SOL    HW136911   2.881   2.037   0.664 -1.9909  2.1809 -1.6343
 8426SOL    HW236912   2.869   1.905   0.598  2.2041  2.8588 -0.7996
 8427SOL     OW36913   0.943   3.456  12.407  0.1131  0.8682  0.0812
 8427SOL    HW136914   0.849   3.444  12.418  0.0176  1.2724 -0.3386
 8427SOL    HW236915   0.944   3.551  12.396  2.3197  0.9195  0.5631
 8428SOL     OW36916   2.313   1.524   4.560 -0.2928 -0.7418 -0.2332
 8428SOL    HW136917   2.223   1.507   4.590 -0.4456 -0.1715 -0.3681
 8428SOL    HW236918   2.295   1.603   4.510  1.9089  0.1619  0.4004
 8429SOL     OW36919   4.278   0.175   6.943  0.3351  1.0875 -0.1140
 8429SOL    HW136920   4.369   0.146   6.954  0.4383  2.8585  3.6215
 8429SOL    HW236921   4.231   0.144   7.020 -2.9372  1.8484 -1.7911
 8430SOL     OW36922   1.576   4.412  17.677  0.2613 -0.5684 -0.1755
 8430SOL    HW136923   1.606   4.467  17.605  0.6646 -1.3593 -0.6074
 8430SOL    HW236924   1.563   4.328  17.635  0.5126 -0.6513 -0.0897
 8431SOL     OW36925   3.146   3.816   2.713  0.0749 -0.5894  0.4509
 8431SOL    HW136926   3.051   3.819   2.699  0.1145  1.3789  0.6096
 8431SOL    HW236927   3.151   3.744   2.775  0.8281 -2.2093 -1.4928
 8432SOL     OW36928   1.249   0.397  16.579  0.1179  0.5075 -0.3897
 8432SOL    HW136929   1.202   0.390  16.662  0.0077  0.8460 -0.4193
 8432SOL    HW236930   1.335   0.380  16.615  0.8172 -0.4029 -2.4767
 8433SOL     OW36931   3.382   2.667   2.235 -0.1211 -0.5586  0.3895
 8433SOL    HW136932   3.407   2.623   2.154  0.3070  1.0420 -0.3700
 8433SOL    HW236933   3.452   2.645   2.296  1.9153  1.6283 -1.1327
 8434SOL     OW36934   0.083   2.240  15.382 -0.3644 -0.2588 -0.6342
 8434SOL    HW136935   0.005   2.204  15.341  0.6384 -1.7572 -1.2039
 8434SOL    HW236936   0.105   2.178  15.452  0.6033  0.1638 -0.5682
 8435SOL     OW36937   3.095   2.097   7.483  0.1393  0.6169 -0.0765
 8435SOL    HW136938   3.055   2.061   7.404 -4.1263  0.6167  2.0926
 8435SOL    HW236939   3.151   2.028   7.518  1.0045  1.5368  0.3677
 8436SOL     OW36940   3.064   3.868   8.364  0.5853 -0.0581  0.2166
 8436SOL    HW136941   3.099   3.887   8.277  1.1497 -1.0531  0.2215
 8436SOL    HW236942   3.136   3.864   8.426 -1.8346  0.2481  3.0388
 8437SOL     OW36943   2.737   2.931  15.503  0.6505  0.0268 -0.6759
 8437SOL    HW136944   2.747   3.018  15.541  0.8801 -0.8291  1.2182
 8437SOL    HW236945   2.738   2.949  15.409  0.4769 -0.1451 -0.7110
 8438SOL     OW36946   1.422   2.342   6.180  0.0746 -0.2751  0.0271
 8438SOL    HW136947   1.353   2.350   6.114  1.1025  0.0965 -0.9959
 8438SOL    HW236948   1.417   2.249   6.204  0.9628 -0.6458 -1.1909
 8439SOL     OW36949   1.566   1.455   7.891  0.3907 -0.1223  0.1477
 8439SOL    HW136950   1.501   1.498   7.836 -1.8335 -1.0802  2.0574
 8439SOL    HW236951   1.594   1.397   7.819  1.6838  1.8093 -0.9049
 8440SOL     OW36952   3.031   3.279   8.575 -0.0350 -0.1330  0.0374
 8440SOL    HW136953   2.977   3.358   8.572 -2.5949 -1.8115  1.5195
 8440SOL    HW236954   2.966   3.209   8.563 -0.6864  0.3670  0.6738
 8441SOL     OW36955   4.473   3.193   9.808 -0.5597  0.2160 -0.5679
 8441SOL    HW136956   4.396   3.250   9.820 -0.8353 -0.2071 -0.3343
 8441SOL    HW236957   4.444   3.114   9.853  1.0780 -1.4132 -2.3653
 8442SOL     OW36958   3.742   2.194   6.236 -0.5237  0.6121 -0.4411
 8442SOL    HW136959   3.719   2.211   6.145  2.2600  0.5736 -1.1267
 8442SOL    HW236960   3.831   2.228   6.228 -0.2522 -0.2222 -1.0059
 8443SOL     OW36961   3.185   2.067   1.274  0.2330 -0.1170 -0.0620
 8443SOL    HW136962   3.251   1.999   1.287  2.1409  2.1927  2.3707
 8443SOL    HW236963   3.213   2.093   1.187 -0.1430 -2.1552 -0.7950
 8444SOL     OW36964   1.385   4.723   3.219 -0.3487  0.1335 -0.6885
 8444SOL    HW136965   1.337   4.690   3.295  0.7543 -0.4896 -0.2619
 8444SOL    HW236966   1.401   0.076   3.244  2.5553 -0.2084 -1.3018
 8445SOL     OW36967   1.390   1.300  11.991  0.8520  0.0814  0.0701
 8445SOL    HW136968   1.316   1.355  12.016  1.2160  0.4337  0.3763
 8445SOL    HW236969   1.349   1.214  11.999  1.4962 -0.1921  0.4775
 8446SOL     OW36970   3.732   3.697  17.462  0.7227 -0.0834 -0.0296
 8446SOL    HW136971   3.703   3.752  17.389 -0.1669  0.2358  0.5563
 8446SOL    HW236972   3.709   3.751  17.537 -1.3723 -3.1217  1.5162
 8447SOL     OW36973   0.720   2.566   2.981 -0.3575  0.0805  0.1021
 8447SOL    HW136974   0.754   2.479   2.960  3.0692  1.1379  1.2812
 8447SOL    HW236975   0.754   2.621   2.911  1.1105 -0.3609  0.4807
 8448SOL     OW36976   0.960   0.373   3.107 -0.2626  0.3892  0.2144
 8448SOL    HW136977   1.024   0.360   3.037 -1.1701 -0.8460 -0.3830
 8448SOL    HW236978   0.907   0.293   3.099  1.2269 -0.5343 -0.3570
 8449SOL     OW36979   1.725   1.132   5.186  0.4321 -0.2123 -0.5239
 8449SOL    HW136980   1.683   1.049   5.209  2.9871 -1.5093 -0.5229
 8449SOL    HW236981   1.646   1.185   5.188  1.7921  1.7081  1.5695
 8450SOL     OW36982   0.299   3.717   6.750 -0.3689 -0.8516  0.0570
 8450SOL    HW136983   0.277   3.810   6.761 -0.0702 -0.8781  0.9081
 8450SOL    HW236984   0.387   3.704   6.788 -0.0655 -1.7384 -0.9631
 8451SOL     OW36985   4.095   4.255  12.488 -0.2164  0.4074 -0.3125
 8451SOL    HW136986   4.030   4.194  12.453 -1.0133  1.9503 -1.4942
 8451SOL    HW236987   4.122   4.220  12.573  3.1249  1.8450 -0.7803
 8452SOL     OW36988   2.644   1.735  10.757  0.3560  0.3402 -1.0933
 8452SOL    HW136989   2.632   1.689  10.674 -0.3731  0.5841 -1.1249
 8452SOL    HW236990   2.685   1.662  10.803 -1.5221 -0.9117 -1.3872
 8453SOL     OW36991   2.385   1.890   2.259  0.2827 -0.2596 -0.1234
 8453SOL    HW136992   2.337   1.935   2.190  0.7877 -3.8422 -2.8132
 8453SOL    HW236993   2.444   1.961   2.287 -1.9440  1.7514 -0.5152
 8454SOL     OW36994   1.155   3.268  17.129 -0.5359  0.0807 -0.0758
 8454SOL    HW136995   1.081   3.328  17.140  0.2587  0.7752  1.4275
 8454SOL    HW236996   1.219   3.312  17.185 -0.1029 -0.2183 -0.3417
 8455SOL     OW36997   0.184   3.460   6.071  0.2327  0.3767 -0.2190
 8455SOL    HW136998   0.094   3.446   6.100 -0.1575  0.0918 -1.6046
 8455SOL    HW236999   0.174   3.436   5.979  1.0041  0.8441 -0.4231
 8456SOL     OW37000   2.088   4.133   8.849  0.2168  0.0410 -0.0505
 8456SOL    HW137001   2.049   4.147   8.935 -1.0582  1.3318 -0.8412
 8456SOL    HW237002   2.166   4.080   8.866  0.9031  0.6031 -1.4804
 8457SOL     OW37003   0.039   1.462  11.347 -0.0930  0.1234  0.2866
 8457SOL    HW137004   0.084   1.403  11.407 -2.0886  0.9927  2.6527
 8457SOL    HW237005   4.695   1.475  11.395 -0.1596  0.2731  0.1307
 8458SOL     OW37006   1.612   0.959  16.479  0.0362  0.4507  0.0650
 8458SOL    HW137007   1.591   0.866  16.472  2.4570 -0.0670 -0.3425
 8458SOL    HW237008   1.559   0.990  16.406 -1.5408 -0.1988  0.9342
 8459SOL     OW37009   3.954   0.882   8.299  0.1596 -0.0873  0.3328
 8459SOL    HW137010   3.955   0.878   8.203  3.8391 -0.9260  0.4249
 8459SOL    HW237011   3.884   0.820   8.320 -0.3062  0.6646  1.0279
 8460SOL     OW37012   0.279   0.633   3.908 -0.3829  0.3680 -0.3885
 8460SOL    HW137013   0.325   0.580   3.843  1.5657  0.2252  1.1075
 8460SOL    HW237014   0.197   0.652   3.863 -0.6602  0.2020  0.0394
 8461SOL     OW37015   1.448   1.221   1.562  0.4112 -0.3594 -0.1042
 8461SOL    HW137016   1.395   1.161   1.615  0.5109 -1.6944 -1.5296
 8461SOL    HW237017   1.377   1.239   1.501  1.0219 -2.0419 -1.3240
 8462SOL     OW37018   0.476   2.278   4.392  0.0576 -0.0847 -0.5002
 8462SOL    HW137019   0.473   2.221   4.469  1.9698  1.1310  0.4652
 8462SOL    HW237020   0.447   2.208   4.333 -1.3287  0.4623 -0.4796
 8463SOL     OW37021   3.377   0.404   5.965  0.6599  0.4217 -0.2770
 8463SOL    HW137022   3.352   0.329   5.912  0.0507  0.9705 -0.7694
 8463SOL    HW237023   3.305   0.410   6.028  1.3175  2.3765  0.3045
 8464SOL     OW37024   3.588   2.161   5.624 -0.2268  0.0701  0.3546
 8464SOL    HW137025   3.555   2.201   5.704 -1.8333 -0.1197 -0.2272
 8464SOL    HW237026   3.627   2.232   5.572  1.2517 -0.5277  0.6522
 8465SOL     OW37027   2.410   3.653   5.651  0.3934 -0.4121 -0.4177
 8465SOL    HW137028   2.373   3.653   5.740  3.1659  0.3341  0.7345
 8465SOL    HW237029   2.441   3.744   5.649 -2.3154  0.5643  0.8183
 8466SOL     OW37030   0.911   1.694   2.627  0.3717 -0.1660 -0.2744
 8466SOL    HW137031   0.947   1.728   2.545  1.7496  0.5198  0.6217
 8466SOL    HW237032   0.980   1.632   2.653  1.1989  0.0257 -1.9997
 8467SOL     OW37033   2.142   3.280   7.703  0.1034 -0.5027 -0.1666
 8467SOL    HW137034   2.198   3.208   7.731 -0.9592 -0.8580  1.0517
 8467SOL    HW237035   2.107   3.255   7.618 -0.5697 -0.7541  0.1895
 8468SOL     OW37036   1.567   4.641  11.039  0.0927 -0.5932  0.0071
 8468SOL    HW137037   1.625   4.680  11.104  0.1642 -3.7155  1.8201
 8468SOL    HW237038   1.494   4.702  11.047  0.7581  0.1279  0.5521
 8469SOL     OW37039   3.716   2.659   7.541 -0.1775 -0.3898 -0.7718
 8469SOL    HW137040   3.641   2.684   7.486 -0.6059  0.1150  0.0350
 8469SOL    HW237041   3.701   2.565   7.549  0.0230 -0.4034 -0.5725
 8470SOL     OW37042   0.345   1.847   8.306  0.3256 -0.4738 -0.6025
 8470SOL    HW137043   0.417   1.897   8.269 -0.5297 -0.5882 -2.3835
 8470SOL    HW237044   0.380   1.758   8.305  1.4853 -0.0535  1.4498
 8471SOL     OW37045   1.779   4.378  16.241  0.2700 -0.8483 -0.0467
 8471SOL    HW137046   1.848   4.380  16.307  0.9726 -1.1243 -0.7748
 8471SOL    HW237047   1.799   4.457  16.191  1.6613 -2.2928 -1.7933
 8472SOL     OW37048   4.367   3.241  13.900 -0.1610 -0.0210  0.0295
 8472SOL    HW137049   4.415   3.159  13.916  1.0537  0.8223  0.7778
 8472SOL    HW237050   4.430   3.308  13.875 -0.7988  1.1945  1.6402
 8473SOL     OW37051   2.623   2.092   7.255 -0.3160 -0.2411  0.2642
 8473SOL    HW137052   2.544   2.041   7.271 -0.3031 -0.3598 -0.0609
 8473SOL    HW237053   2.628   2.147   7.334 -0.9857 -1.9111  1.4579
 8474SOL     OW37054   0.638   1.724   9.554 -0.3714  0.3407 -0.9077
 8474SOL    HW137055   0.714   1.729   9.612 -0.3494 -1.6259 -0.7459
 8474SOL    HW237056   0.634   1.630   9.536 -0.0794  0.6079 -2.3365
 8475SOL     OW37057   0.280   0.934   5.083 -0.4643 -0.1128 -0.0382
 8475SOL    HW137058   0.247   1.014   5.124 -2.8152 -1.2366  0.2530
 8475SOL    HW237059   0.365   0.968   5.057 -1.3118  0.1498 -2.5114
 8476SOL     OW37060   3.342   2.901   3.066 -0.0049  0.3059  0.1123
 8476SOL    HW137061   3.333   2.806   3.056  1.5767  0.2508 -0.7672
 8476SOL    HW237062   3.401   2.919   2.993  2.2972 -2.2141  1.3734
 8477SOL     OW37063   4.020   3.867   2.994 -0.4423  0.6462 -0.2089
 8477SOL    HW137064   4.049   3.799   2.933 -3.1206  0.3153 -1.1067
 8477SOL    HW237065   3.953   3.810   3.032 -1.2869 -0.4105 -3.2419
 8478SOL     OW37066   1.306   0.245   7.385 -0.3872 -0.0878 -0.1914
 8478SOL    HW137067   1.228   0.288   7.419 -0.5359 -1.3245  1.0426
 8478SOL    HW237068   1.291   0.258   7.291 -3.8502 -4.1839 -0.2151
 8479SOL     OW37069   2.440   0.029   0.897  0.0954 -0.2030  0.4848
 8479SOL    HW137070   2.517   0.083   0.916 -0.1785  0.3407  0.0490
 8479SOL    HW237071   2.384   0.056   0.970  0.3378  2.5015 -0.3301
 8480SOL     OW37072   2.897   3.922   3.246  0.2285  0.0302 -0.0764
 8480SOL    HW137073   2.863   3.990   3.304  1.6528  0.6840 -0.0010
 8480SOL    HW237074   2.986   3.933   3.281  0.1017  0.4065  0.1208
 8481SOL     OW37075   4.040   0.835   7.000  0.0430 -0.4412 -0.5147
 8481SOL    HW137076   4.106   0.791   6.947  2.7597  2.7959  0.1143
 8481SOL    HW237077   3.983   0.865   6.930  0.7053 -0.3345 -1.0110
 8482SOL     OW37078   1.086   1.161   3.064 -0.1273  0.4718 -0.1668
 8482SOL    HW137079   1.071   1.089   3.002  2.5145  0.1496 -0.4231
 8482SOL    HW237080   1.062   1.231   3.003 -0.6464 -0.3792 -0.9444
 8483SOL     OW37081   0.462   1.179   7.962 -0.3503  0.4667 -0.1629
 8483SOL    HW137082   0.532   1.122   7.994 -0.6864  1.0601  1.6409
 8483SOL    HW237083   0.467   1.156   7.869  1.0596 -0.8459  0.2277
 8484SOL     OW37084   2.055   4.349   6.996  0.4084  0.3495 -0.0190
 8484SOL    HW137085   2.005   4.428   7.015 -0.0149 -0.3206  1.6249
 8484SOL    HW237086   2.060   4.306   7.081 -1.8625 -0.6517 -0.3794
 8485SOL     OW37087   2.298   2.946   1.712  0.2916 -0.1351  0.3284
 8485SOL    HW137088   2.381   2.907   1.684  0.3223 -0.2993  0.6476
 8485SOL    HW237089   2.319   2.968   1.803 -0.6743  1.0004  0.2764
 8486SOL     OW37090   3.713   0.983  13.853 -0.5267  0.3643 -0.4312
 8486SOL    HW137091   3.765   0.923  13.906 -0.7670  0.3111 -0.2570
 8486SOL    HW237092   3.700   0.934  13.772 -0.4708 -0.7534  0.2386
 8487SOL     OW37093   0.398   0.540  11.083  0.1024 -0.2208  0.3594
 8487SOL    HW137094   0.480   0.492  11.090  0.0910 -0.0375  1.7774
 8487SOL    HW237095   0.423   0.608  11.021 -0.5446 -0.9171 -0.6628
 8488SOL     OW37096   1.239   4.559   6.716  0.6460 -0.0485  0.2645
 8488SOL    HW137097   1.144   4.553   6.704  0.6747  2.0241 -0.8407
 8488SOL    HW237098   1.269   4.484   6.665 -1.3703  0.9368 -2.3285
 8489SOL     OW37099   2.561   0.630   3.786  0.2293  0.2007  0.5155
 8489SOL    HW137100   2.602   0.696   3.730 -1.7031  1.1363  0.1929
 8489SOL    HW237101   2.616   0.558   3.757  1.0401  0.9736  0.1148
 8490SOL     OW37102   0.692   3.214   8.113 -0.0129  0.8252 -0.8279
 8490SOL    HW137103   0.746   3.206   8.035  0.2876  3.8454 -0.9463
 8490SOL    HW237104   0.682   3.309   8.113  1.0207  0.9323  0.4631
 8491SOL     OW37105   2.219   0.926   0.521 -0.3960 -0.2995  0.0020
 8491SOL    HW137106   2.146   0.864   0.517 -1.1274  0.7529 -2.8476
 8491SOL    HW237107   2.261   0.901   0.604 -0.7112 -1.5116 -0.1966
 8492SOL     OW37108   1.355   2.245  15.765  0.5647  0.1691 -0.4347
 8492SOL    HW137109   1.316   2.300  15.834 -2.0955 -0.9423 -1.0351
 8492SOL    HW237110   1.304   2.296  15.703  1.2235  0.6129 -0.6090
 8493SOL     OW37111   0.507   4.302   1.982  0.7097  0.1939 -0.0970
 8493SOL    HW137112   0.554   4.353   1.916 -0.1664  0.9930 -0.1064
 8493SOL    HW237113   0.450   4.246   1.929 -0.6406  0.8075  0.6947
 8494SOL     OW37114   2.043   4.058   4.707 -0.8676  0.4384 -0.3431
 8494SOL    HW137115   2.127   4.029   4.672 -0.1232  0.9108  1.0419
 8494SOL    HW237116   2.013   3.991   4.768  0.8433  0.9596  1.0518
 8495SOL     OW37117   0.693   4.282   2.431 -0.5457  0.0130  0.1823
 8495SOL    HW137118   0.738   4.199   2.446 -2.2281 -0.8426  0.4645
 8495SOL    HW237119   0.614   4.243   2.393 -0.3334  0.9039 -1.1706
 8496SOL     OW37120   3.075   3.339   3.601 -0.5469  0.3345  0.0276
 8496SOL    HW137121   3.042   3.379   3.520  0.5423  1.7603  0.3064
 8496SOL    HW237122   3.170   3.328   3.598 -0.9996 -3.1198 -2.2223
 8497SOL     OW37123   1.912   2.716   6.514  0.2761  0.4457  0.7738
 8497SOL    HW137124   1.928   2.677   6.600 -0.9908  1.0127  1.2635
 8497SOL    HW237125   1.964   2.656   6.460 -1.6680 -1.4752  1.0521
 8498SOL     OW37126   4.143   4.688   4.376  0.0205  0.5753  0.1105
 8498SOL    HW137127   4.157   4.598   4.346 -0.9319  1.3612 -2.7517
 8498SOL    HW237128   4.116   4.660   4.463 -1.4584  1.5285 -0.0512
 8499SOL     OW37129   2.949   3.035   5.029  0.1930 -0.5064 -0.6429
 8499SOL    HW137130   2.914   2.948   5.013  1.4727 -1.3694  1.2515
 8499SOL    HW237131   2.999   3.044   4.947  0.8682 -0.7267 -0.2535
 8500SOL     OW37132   1.402   2.614   2.854 -0.5187 -0.2084  0.2693
 8500SOL    HW137133   1.353   2.532   2.842  0.7125 -0.4798 -2.9450
 8500SOL    HW237134   1.483   2.583   2.814 -1.1378  1.1590 -1.9914
 8501SOL     OW37135   0.663   0.665   6.123  0.6571 -0.1815  0.1185
 8501SOL    HW137136   0.648   0.751   6.162  1.4012  0.2335 -0.5071
 8501SOL    HW237137   0.632   0.602   6.188 -1.9109  3.5063  2.4890
 8502SOL     OW37138   2.396   1.608   3.459  0.4991  0.8216 -0.2316
 8502SOL    HW137139   2.335   1.535   3.464  1.8708 -0.0157  4.0497
 8502SOL    HW237140   2.468   1.585   3.518  0.3122  0.1299 -0.2750
 8503SOL     OW37141   1.142   0.822  16.445 -0.0883  0.6442  0.3622
 8503SOL    HW137142   1.211   0.780  16.394 -2.6619 -1.5093 -1.3387
 8503SOL    HW237143   1.146   0.787  16.534  0.2710  1.3259  0.6125
 8504SOL     OW37144   3.964   0.022   7.438  0.0443 -0.1722 -0.0949
 8504SOL    HW137145   4.030   0.090   7.456  0.2969 -0.3843 -0.2161
 8504SOL    HW237146   4.004   4.684   7.478 -0.8403 -1.0895 -0.9863
 8505SOL     OW37147   3.623   3.445  12.017 -0.4464 -0.0420 -0.4530
 8505SOL    HW137148   3.609   3.451  12.111 -1.7841 -1.0211 -0.5902
 8505SOL    HW237149   3.634   3.353  11.996  0.7658  0.8492 -3.8391
 8506SOL     OW37150   0.108   0.481   3.097 -0.8048  0.0282  0.0579
 8506SOL    HW137151   0.029   0.440   3.062 -1.6698 -0.8512  3.0417
 8506SOL    HW237152   0.109   0.440   3.183  2.5726  0.9051  0.4185
 8507SOL     OW37153   2.371   4.365   6.963 -0.0325 -0.0860 -0.4861
 8507SOL    HW137154   2.334   4.438   7.012 -1.5753 -1.4391  0.3539
 8507SOL    HW237155   2.382   4.310   7.040 -0.5504  0.7685  0.2030
 8508SOL     OW37156   0.895   2.351   9.678  0.2906  0.1002  0.2843
 8508SOL    HW137157   0.875   2.260   9.658  1.2987  0.3039 -1.6018
 8508SOL    HW237158   0.933   2.345   9.766  1.1292 -2.2654 -0.2750
 8509SOL     OW37159   1.963   0.707   4.520 -0.0796 -0.4586  0.9387
 8509SOL    HW137160   1.928   0.619   4.505  0.8166 -0.5455 -0.5877
 8509SOL    HW237161   2.000   0.734   4.436  1.3794  1.0038  2.0629
 8510SOL     OW37162   1.257   0.798   6.834  0.1320  0.0653 -0.1340
 8510SOL    HW137163   1.167   0.813   6.805  0.4567  0.5982 -0.8505
 8510SOL    HW237164   1.309   0.871   6.801  1.2166 -0.2728  0.8264
 8511SOL     OW37165   4.426   1.398   5.261  0.3829 -0.1525 -0.4540
 8511SOL    HW137166   4.348   1.381   5.208  1.3990  0.6242 -2.1818
 8511SOL    HW237167   4.380   1.439   5.334 -1.6618  0.5811 -2.1245
 8512SOL     OW37168   2.790   1.938   4.133 -0.4434  0.0614  0.8661
 8512SOL    HW137169   2.750   1.870   4.080  2.3031 -0.9859  0.1445
 8512SOL    HW237170   2.790   1.905   4.223 -2.6878 -0.7900  0.5435
 8513SOL     OW37171   4.617   1.441   1.639 -0.2681 -0.8065  0.0243
 8513SOL    HW137172   4.606   1.348   1.658 -0.5099 -0.9822 -0.9912
 8513SOL    HW237173   4.529   1.468   1.668 -0.1199 -1.4576  1.0698
 8514SOL     OW37174   2.683   0.337   3.466 -0.0132 -0.4776  0.4536
 8514SOL    HW137175   2.616   0.401   3.444 -0.7075 -1.0999  0.7409
 8514SOL    HW237176   2.645   0.259   3.425  0.9791 -0.7645  0.0723
 8515SOL     OW37177   1.453   3.680  17.069  0.3931  0.0750  0.2792
 8515SOL    HW137178   1.546   3.673  17.049  0.1274 -1.7012 -0.3681
 8515SOL    HW237179   1.416   3.660  16.983 -0.3822 -2.0235  1.0978
 8516SOL     OW37180   2.682   3.226   2.605  0.2759  1.0697 -0.7394
 8516SOL    HW137181   2.650   3.260   2.522 -1.6944 -1.2423 -0.9173
 8516SOL    HW237182   2.763   3.184   2.576  0.4329  0.9005 -0.0634
 8517SOL     OW37183   3.044   2.525   3.356  0.1582  0.0424  0.3292
 8517SOL    HW137184   2.971   2.497   3.300  2.0903 -0.7818 -1.7613
 8517SOL    HW237185   3.076   2.439   3.385 -1.4131 -0.6639  0.0127
 8518SOL     OW37186   2.383   3.987  10.402  0.5696  0.1834  0.0098
 8518SOL    HW137187   2.327   4.038  10.344 -0.2109 -0.5967  0.0764
 8518SOL    HW237188   2.465   4.034  10.418 -0.4071  1.9137 -0.1855
 8519SOL     OW37189   0.768   4.408  15.063  0.5033 -0.7079 -0.4870
 8519SOL    HW137190   0.846   4.453  15.096  1.0239 -1.5591 -0.5659
 8519SOL    HW237191   0.795   4.322  15.096  1.2446 -1.6833 -3.6155
 8520SOL     OW37192   1.589   4.413   0.940  0.1656 -0.0011  0.1417
 8520SOL    HW137193   1.552   4.416   1.028  1.3878  1.5927  0.6078
 8520SOL    HW237194   1.637   4.496   0.928  1.9367 -1.3842 -2.3673
 8521SOL     OW37195   1.114   1.284   4.017  0.0257 -0.6071 -0.3038
 8521SOL    HW137196   1.155   1.272   3.931 -0.9288  1.4489 -1.0556
 8521SOL    HW237197   1.025   1.302   3.986  0.2996  0.3486 -0.5486
 8522SOL     OW37198   0.089   2.316   2.963  0.3429 -0.2949  0.5455
 8522SOL    HW137199   0.049   2.267   3.034 -1.5980 -0.6051 -0.7624
 8522SOL    HW237200   0.080   2.255   2.889 -1.4146  1.5663 -0.7906
 8523SOL     OW37201   4.735   2.125   6.574 -0.1878 -0.5778  0.5589
 8523SOL    HW137202   0.056   2.163   6.639  0.7269 -0.2948 -0.4422
 8523SOL    HW237203   0.034   2.037   6.576  2.7102  0.6297  0.1434
 8524SOL     OW37204   1.346   0.143   4.956 -0.1100 -0.5430 -0.7161
 8524SOL    HW137205   1.421   0.143   4.897  0.4458 -2.4139 -0.0106
 8524SOL    HW237206   1.316   0.234   4.954  0.7188 -0.2032  1.8369
 8525SOL     OW37207   2.288   3.306   5.646  0.8257 -0.6865  0.6618
 8525SOL    HW137208   2.251   3.222   5.674 -0.6732  0.6652  2.7815
 8525SOL    HW237209   2.371   3.279   5.606  1.5272  2.1404  0.2076
 8526SOL     OW37210   2.800   0.145  15.532  0.6750  0.6959  0.4104
 8526SOL    HW137211   2.798   0.133  15.437 -0.3378 -2.2993  0.8174
 8526SOL    HW237212   2.723   0.200  15.548 -0.4181 -0.1947 -1.8394
 8527SOL     OW37213   4.199   0.717   4.244 -0.0930 -0.2662  0.2593
 8527SOL    HW137214   4.228   0.808   4.238 -0.7327 -0.1413 -1.0675
 8527SOL    HW237215   4.243   0.705   4.328  0.7442 -0.4654 -0.2035
 8528SOL     OW37216   4.540   3.777   9.234  0.1084 -0.2534  0.1272
 8528SOL    HW137217   4.453   3.801   9.202  0.3414  0.2925 -0.1017
 8528SOL    HW237218   4.592   3.825   9.170 -1.1426  2.0134  0.7949
 8529SOL     OW37219   0.333   2.338   6.176  0.1076 -0.1174 -0.9058
 8529SOL    HW137220   0.268   2.284   6.221 -1.2053  1.1428 -1.2634
 8529SOL    HW237221   0.404   2.279   6.154 -0.6140 -1.6052  0.7469
 8530SOL     OW37222   1.317   0.025   6.238 -0.1849  1.0345  0.0585
 8530SOL    HW137223   1.344   0.005   6.328 -0.5006  0.5700  0.0504
 8530SOL    HW237224   1.395   0.028   6.184 -1.7314  0.9962 -2.1557
 8531SOL     OW37225   4.142   3.897   7.424  1.0058 -0.3636  0.3147
 8531SOL    HW137226   4.210   3.934   7.481  0.1782  1.8115 -0.0880
 8531SOL    HW237227   4.188   3.864   7.348 -2.0813  1.2917 -2.2947
 8532SOL     OW37228   0.408   3.768   6.393 -0.1783  0.0751  0.3280
 8532SOL    HW137229   0.387   3.758   6.486  0.5476 -0.4380  0.4368
 8532SOL    HW237230   0.502   3.787   6.403 -0.4850  1.4264  0.7461
 8533SOL     OW37231   0.079   0.663   1.402  0.1206  0.0994  0.1404
 8533SOL    HW137232   0.037   0.740   1.364 -0.4667 -1.2563 -1.9710
 8533SOL    HW237233   0.125   0.628   1.325  1.5372  0.6396  0.7441
 8534SOL     OW37234   1.018   2.943   8.340 -0.1956  0.0903  0.3028
 8534SOL    HW137235   0.935   2.917   8.380  0.1009 -2.6458 -0.8385
 8534SOL    HW237236   0.996   3.035   8.327  0.4240  0.0920 -0.7039
 8535SOL     OW37237   0.014   0.959   0.863 -0.2666  0.4028 -0.6160
 8535SOL    HW137238   4.709   0.882   0.827  2.3896 -1.2424 -0.3248
 8535SOL    HW237239   4.679   1.014   0.889 -0.1215  0.0783  0.4459
 8536SOL     OW37240   2.411   2.121   0.437 -0.1325 -0.0727  0.5084
 8536SOL    HW137241   2.441   2.185   0.372  0.9581 -2.4971 -1.3562
 8536SOL    HW237242   2.475   2.143   0.504  1.5300 -0.5667 -0.9373
 8537SOL     OW37243   3.590   3.025  12.099  0.0888  0.6186 -0.2810
 8537SOL    HW137244   3.678   3.025  12.062  0.2345  1.4186  0.0784
 8537SOL    HW237245   3.548   2.945  12.067  1.3573 -0.3461  0.4470
 8538SOL     OW37246   0.026   1.971   0.405  0.1713 -0.0168 -0.1723
 8538SOL    HW137247   0.001   1.917   0.480 -0.1116  0.7216  0.2622
 8538SOL    HW237248   0.110   1.928   0.392  0.9829  1.6318 -0.4381
 8539SOL     OW37249   0.704   2.433   4.344  0.2318  0.1705  0.1667
 8539SOL    HW137250   0.670   2.466   4.261  0.5141  1.4343  0.5459
 8539SOL    HW237251   0.635   2.370   4.361 -0.4961  0.3110 -2.3423
 8540SOL     OW37252   2.132   4.128   3.964 -0.0426 -0.2602 -0.0952
 8540SOL    HW137253   2.201   4.067   3.937 -0.6569 -0.9403 -0.1581
 8540SOL    HW237254   2.099   4.144   3.876 -0.3797 -1.5767 -0.2181
 8541SOL     OW37255   3.737   0.844  15.325  0.4473  0.1367  0.0802
 8541SOL    HW137256   3.810   0.892  15.286  0.1589  0.8505  0.4247
 8541SOL    HW237257   3.781   0.774  15.374  0.5776  0.3701  0.2957
 8542SOL     OW37258   2.647   0.429  16.050 -0.0086 -0.0984 -0.1106
 8542SOL    HW137259   2.574   0.375  16.019  0.7503 -0.0524 -2.0006
 8542SOL    HW237260   2.672   0.477  15.972  1.0769  0.6953  0.7233
 8543SOL     OW37261   2.803   4.693   5.122  0.0395 -0.1692 -0.2170
 8543SOL    HW137262   2.776   4.601   5.120 -0.3289 -0.1038  2.3224
 8543SOL    HW237263   2.890   4.691   5.163 -0.0676  0.2321  0.0307
 8544SOL     OW37264   1.004   4.523   5.485  0.1099  0.0461 -0.0026
 8544SOL    HW137265   0.942   4.595   5.495 -0.5103 -0.2091 -1.9384
 8544SOL    HW237266   1.049   4.545   5.403 -1.1497  1.2717 -0.3714
 8545SOL     OW37267   0.920   0.018   4.809 -0.4534 -0.2047 -0.2175
 8545SOL    HW137268   0.969   0.100   4.808 -2.1433  0.8140  0.6417
 8545SOL    HW237269   0.917   0.010   4.904  3.4917  0.4438 -0.0533
 8546SOL     OW37270   1.209   1.227  14.579  0.2030  0.4922 -0.3015
 8546SOL    HW137271   1.200   1.228  14.484  2.2175  1.3356 -0.4860
 8546SOL    HW237272   1.264   1.150  14.596  0.2662  0.7180  0.5319
 8547SOL     OW37273   1.879   0.117   5.793 -0.1501  0.0932  0.5367
 8547SOL    HW137274   1.954   0.063   5.769  0.5016  0.2902  2.1632
 8547SOL    HW237275   1.879   0.106   5.888  1.1578  0.4391  0.5679
 8548SOL     OW37276   0.457   2.584   6.139 -0.3401  0.4056 -0.3269
 8548SOL    HW137277   0.439   2.646   6.209 -4.1128 -1.1199  0.0382
 8548SOL    HW237278   0.400   2.512   6.167  1.6759 -1.2553 -0.5057
 8549SOL     OW37279   2.433   1.812   1.953 -0.0812  0.2732 -0.3664
 8549SOL    HW137280   2.510   1.810   1.896  0.1206 -1.5252 -0.0216
 8549SOL    HW237281   2.438   1.723   1.988  0.9076  0.5989  0.3136
 8550SOL     OW37282   4.702   2.050   2.093 -0.3809 -0.1788  0.0840
 8550SOL    HW137283   4.618   2.041   2.139 -1.5276  2.1901 -1.5417
 8550SOL    HW237284   4.720   1.959   2.068 -1.4313 -0.6983  1.1871
 8551SOL     OW37285   1.124   4.479  17.498  0.0865 -0.1614 -0.1892
 8551SOL    HW137286   1.168   4.404  17.538 -1.8697 -0.2058  1.8454
 8551SOL    HW237287   1.046   4.435  17.465  0.5906 -1.0857 -0.1351
 8552SOL     OW37288   2.050   1.866  13.317 -0.1701  0.4146 -0.2776
 8552SOL    HW137289   2.128   1.833  13.273 -0.0640 -1.2327  1.1738
 8552SOL    HW237290   2.080   1.942  13.366  3.2685 -0.5896 -0.8436
 8553SOL     OW37291   2.018   0.950   9.561  0.0846 -0.1007 -0.0954
 8553SOL    HW137292   2.042   0.930   9.471 -2.0512  0.0898 -0.7297
 8553SOL    HW237293   1.953   1.020   9.548  4.2134  3.6181 -0.5131
 8554SOL     OW37294   2.481   1.776   6.402 -0.0673  0.1798  0.1194
 8554SOL    HW137295   2.468   1.681   6.411  0.5848  0.1209  0.3918
 8554SOL    HW237296   2.463   1.790   6.309 -0.3008 -1.0268 -0.0143
 8555SOL     OW37297   1.398   4.049   5.774 -0.1501 -0.6823  0.2079
 8555SOL    HW137298   1.399   4.142   5.751  0.7127 -0.2307  2.0490
 8555SOL    HW237299   1.449   4.021   5.698 -1.1445  1.9775 -1.4534
 8556SOL     OW37300   4.102   2.432   7.094 -0.3381  0.0752  0.3971
 8556SOL    HW137301   4.169   2.382   7.047 -0.8710  0.4176 -0.7262
 8556SOL    HW237302   4.033   2.441   7.028 -1.1684 -0.8516  1.1371
 8557SOL     OW37303   0.995   4.306   9.820  0.2068  0.2608 -0.2208
 8557SOL    HW137304   1.058   4.371   9.789  1.3243 -0.5916  0.2728
 8557SOL    HW237305   0.930   4.371   9.847  1.5827  1.5738 -0.0678
 8558SOL     OW37306   2.892   2.098   2.285 -0.3134  0.2708  0.0074
 8558SOL    HW137307   2.802   2.131   2.288 -0.3139  0.2241  0.4636
 8558SOL    HW237308   2.942   2.157   2.230 -0.1741 -0.2993 -0.4812
 8559SOL     OW37309   0.127   0.750   3.716  0.0838  0.4165 -0.0256
 8559SOL    HW137310   0.073   0.706   3.649 -1.1188  2.4040 -0.3408
 8559SOL    HW237311   0.158   0.828   3.670 -0.2471  1.2374  1.1756
 8560SOL     OW37312   0.864   0.919  16.802 -0.2854 -0.2509 -0.0872
 8560SOL    HW137313   0.883   0.918  16.708 -0.2942  0.4646 -0.0988
 8560SOL    HW237314   0.774   0.886  16.804 -0.9329  1.4379 -1.3055
 8561SOL     OW37315   2.138   0.305   3.815 -0.1903 -0.1284 -0.0237
 8561SOL    HW137316   2.124   0.234   3.753 -1.5472  1.3327 -1.3938
 8561SOL    HW237317   2.214   0.349   3.775 -0.2441  0.3175  0.3721
 8562SOL     OW37318   0.991   1.109   2.780 -0.3714 -0.6553 -0.0939
 8562SOL    HW137319   1.006   1.017   2.761 -0.4368 -0.6912  0.0286
 8562SOL    HW237320   0.983   1.142   2.691  1.0444  0.1895  0.0891
 8563SOL     OW37321   2.358   1.741   3.057 -0.5351 -0.2893 -0.1621
 8563SOL    HW137322   2.264   1.721   3.057 -0.6091  0.0374 -2.0199
 8563SOL    HW237323   2.349   1.836   3.068 -1.5174 -0.6403  2.0360
 8564SOL     OW37324   3.489   3.964   6.630  0.3431  0.5415 -0.5425
 8564SOL    HW137325   3.470   4.005   6.714  1.1115 -0.9746  0.3760
 8564SOL    HW237326   3.437   4.016   6.568  1.9608  0.7016 -1.7661
 8565SOL     OW37327   1.350   2.191   2.347  0.4282 -0.3153  0.0780
 8565SOL    HW137328   1.364   2.112   2.295  0.9363  0.0074 -0.2806
 8565SOL    HW237329   1.283   2.231   2.293  0.7558  0.4631  0.2363
 8566SOL     OW37330   0.474   4.547   3.470 -0.2280 -0.0680  0.4796
 8566SOL    HW137331   0.474   4.475   3.533 -1.4650 -1.0286 -0.6227
 8566SOL    HW237332   0.569   4.547   3.460 -0.4276 -2.3792 -1.3931
 8567SOL     OW37333   0.336   0.871  10.317 -0.1310 -0.1233  0.1850
 8567SOL    HW137334   0.292   0.919  10.247  0.8068  0.1449 -0.2094
 8567SOL    HW237335   0.375   0.935  10.375 -0.5500 -0.6510  1.0566
 8568SOL     OW37336   3.385   1.663   1.941 -0.6393  0.1147 -0.2556
 8568SOL    HW137337   3.446   1.589   1.950  0.5463  0.9531 -1.3899
 8568SOL    HW237338   3.395   1.696   2.030  0.7158 -0.0614 -0.3385
 8569SOL     OW37339   3.089   4.268   3.235  0.2743  0.3446  0.0009
 8569SOL    HW137340   3.030   4.208   3.280 -1.5672  2.0768 -0.1053
 8569SOL    HW237341   3.129   4.200   3.179 -1.1848 -2.1235  1.9605
 8570SOL     OW37342   3.542   2.577   3.300  0.0777  0.0077 -0.5961
 8570SOL    HW137343   3.450   2.560   3.278  0.0126  1.3431 -1.3357
 8570SOL    HW237344   3.551   2.672   3.296  0.1177  0.0442  0.5694
 8571SOL     OW37345   4.073   3.787   7.679 -0.1158 -0.0394 -0.8439
 8571SOL    HW137346   4.018   3.718   7.642  0.4280 -1.4458  1.0072
 8571SOL    HW237347   4.097   3.826   7.594  0.3001  1.7778  0.1172
 8572SOL     OW37348   2.013   1.090   1.649  0.1855 -0.3406  0.2277
 8572SOL    HW137349   2.009   1.083   1.553 -2.0194 -1.0663  0.3757
 8572SOL    HW237350   1.922   1.070   1.672  0.6622 -1.0619  1.4825
 8573SOL     OW37351   0.086   2.075   0.036 -0.5310  0.4131 -0.4122
 8573SOL    HW137352   0.072   1.983   0.055  1.6340 -0.0170 -0.9263
 8573SOL    HW237353   0.103   2.068  17.695  1.7161  1.1134 -0.0545
 8574SOL     OW37354   2.811   0.831   3.358 -0.1060 -0.1965  0.0197
 8574SOL    HW137355   2.824   0.830   3.263  0.1299 -3.5114  0.0856
 8574SOL    HW237356   2.736   0.891   3.365 -2.7815 -3.3453 -1.4399
 8575SOL     OW37357   2.809   3.932   2.366 -0.3707  0.2066 -0.2437
 8575SOL    HW137358   2.880   3.908   2.425  0.9214  2.1544 -1.0081
 8575SOL    HW237359   2.732   3.912   2.419  0.6670 -0.3359  1.0705
 8576SOL     OW37360   4.631   4.253  12.850 -0.2968 -0.5363 -0.0417
 8576SOL    HW137361   4.598   4.296  12.929  0.6680 -0.2287  0.2028
 8576SOL    HW237362   4.580   4.289  12.778  1.0448 -0.9696 -1.2132
 8577SOL     OW37363   0.934   2.393   3.981  0.7417 -0.2298 -0.0096
 8577SOL    HW137364   0.942   2.324   4.047  0.9611 -0.9470 -0.7822
 8577SOL    HW237365   0.907   2.469   4.033  2.1086  0.5037 -0.3631
 8578SOL     OW37366   0.208   2.474  16.860 -0.6878  0.0527  0.5631
 8578SOL    HW137367   0.227   2.507  16.948  0.1800  1.2445 -0.0744
 8578SOL    HW237368   0.180   2.553  16.814  0.2642 -0.9901 -1.7922
 8579SOL     OW37369   1.912   2.311   4.777  0.0739  0.4693  0.1230
 8579SOL    HW137370   1.918   2.294   4.683 -0.7313  2.0475 -0.2098
 8579SOL    HW237371   1.897   2.405   4.784  0.0441  0.6125 -1.9708
 8580SOL     OW37372   3.178   0.002   7.246  0.3301 -0.5207  0.4714
 8580SOL    HW137373   3.107   0.001   7.310  0.1394 -0.1541  0.2695
 8580SOL    HW237374   3.252   0.019   7.305  1.0550  1.9536 -1.1298
 8581SOL     OW37375   0.874   1.910  15.412 -0.2640 -0.3351 -0.0810
 8581SOL    HW137376   0.928   1.984  15.440 -1.4731  0.5315 -0.0272
 8581SOL    HW237377   0.816   1.907  15.488  0.8052  0.6477  0.7641
 8582SOL     OW37378   3.598   0.149   5.356  0.0051  0.1952 -0.1857
 8582SOL    HW137379   3.532   0.101   5.307 -0.8405 -0.4320  1.5715
 8582SOL    HW237380   3.606   0.228   5.302 -0.8649  0.5526  0.2061
 8583SOL     OW37381   4.644   1.683   6.733  0.2183  0.8256  0.0575
 8583SOL    HW137382   4.633   1.623   6.807  1.4244 -0.1656 -0.5762
 8583SOL    HW237383   4.553   1.708   6.717 -0.3997 -2.0324 -0.8661
 8584SOL     OW37384   2.876   4.170   9.071  0.1747  0.8435  0.0027
 8584SOL    HW137385   2.784   4.184   9.048  0.0690 -0.5797 -0.4518
 8584SOL    HW237386   2.919   4.247   9.036 -0.2946  1.1051  0.0047
 8585SOL     OW37387   0.843   1.830   9.908  0.4689  0.5238 -0.7594
 8585SOL    HW137388   0.786   1.818   9.984  0.0987  0.2236 -1.0808
 8585SOL    HW237389   0.905   1.758   9.918  0.8859  0.7234 -1.9172
 8586SOL     OW37390   4.075   0.077   7.757 -0.2626  0.3667  0.0066
 8586SOL    HW137391   4.015   0.003   7.766  0.8144 -0.2753  1.9986
 8586SOL    HW237392   4.150   0.063   7.816  0.4088 -0.1220 -0.9678
 8587SOL     OW37393   3.140   2.224  10.840  0.1377  0.2888  0.0274
 8587SOL    HW137394   3.048   2.214  10.815  0.1536  1.2252 -0.4189
 8587SOL    HW237395   3.127   2.308  10.885  1.6698  0.9207 -0.7134
 8588SOL     OW37396   1.138   0.845   4.013 -0.2971  0.6090  0.3699
 8588SOL    HW137397   1.055   0.857   4.060 -1.4517  2.4259 -2.1462
 8588SOL    HW237398   1.149   0.751   4.027 -0.9367  0.2156 -1.7832
 8589SOL     OW37399   2.518   1.459   1.134 -0.2617  0.4478 -0.3952
 8589SOL    HW137400   2.579   1.519   1.091 -1.1653  1.8525  0.3032
 8589SOL    HW237401   2.488   1.418   1.053  0.0760 -3.8299  1.6292
 8590SOL     OW37402   3.935   0.266   0.050 -0.8954  0.5863 -0.0856
 8590SOL    HW137403   4.015   0.219   0.027 -0.3086  2.0690 -1.0590
 8590SOL    HW237404   3.970   0.355   0.055  2.2063 -0.6215 -0.4163
 8591SOL     OW37405   3.377   2.355   1.215 -0.7296  0.3324  0.4866
 8591SOL    HW137406   3.408   2.313   1.295  1.7812  2.2785  0.5348
 8591SOL    HW237407   3.330   2.286   1.169 -1.4168  2.7682 -2.4617
 8592SOL     OW37408   2.407   1.939  17.714 -0.2549 -0.0356  0.4531
 8592SOL    HW137409   2.480   1.985  17.673 -0.4221 -0.2240 -0.0525
 8592SOL    HW237410   2.331   1.986  17.680  0.6536  1.1585  0.0995
 8593SOL     OW37411   1.304   2.588   9.354  0.0381 -0.2434 -0.1080
 8593SOL    HW137412   1.327   2.500   9.382  0.5685 -0.3872 -0.9843
 8593SOL    HW237413   1.210   2.593   9.367  0.2208  1.6678  0.5668
 8594SOL     OW37414   0.423   1.343   9.197  0.0645 -0.5976  0.4431
 8594SOL    HW137415   0.494   1.345   9.262  0.4340  2.5262 -0.0606
 8594SOL    HW237416   0.394   1.257   9.228 -0.7139 -0.4015  0.2436
 8595SOL     OW37417   0.711   2.435   8.725  0.4191 -0.2435  0.1607
 8595SOL    HW137418   0.731   2.380   8.649 -0.4038  1.3791 -1.2419
 8595SOL    HW237419   0.617   2.418   8.724  0.6104 -1.2640  0.5330
 8596SOL     OW37420   2.042   0.611   6.461 -0.3305 -0.0504 -0.0997
 8596SOL    HW137421   2.072   0.520   6.456  0.8470  0.2133  2.3575
 8596SOL    HW237422   1.973   0.599   6.526 -0.6742 -3.0718 -1.0007
 8597SOL     OW37423   0.055   3.461   3.426  0.1101 -0.5625 -0.2196
 8597SOL    HW137424   0.144   3.438   3.397 -0.7993 -1.6638 -2.1583
 8597SOL    HW237425   0.023   3.372   3.441  2.1912 -1.1426  0.6744
 8598SOL     OW37426   4.373   4.489   5.416  0.1233  0.2592  0.3785
 8598SOL    HW137427   4.325   4.493   5.499 -0.9242  0.1819 -0.2112
 8598SOL    HW237428   4.459   4.515   5.447  0.6508 -0.6000 -0.3871
 8599SOL     OW37429   1.313   0.268  12.918  0.1115  0.3135  0.6742
 8599SOL    HW137430   1.348   0.307  12.837 -2.1703  3.5742  1.2873
 8599SOL    HW237431   1.395   0.226  12.944 -1.1669 -2.0007  0.8897
 8600SOL     OW37432   2.960   2.525   6.606 -0.7240  0.1418  0.3400
 8600SOL    HW137433   2.870   2.559   6.609 -0.4315  0.7955  1.2839
 8600SOL    HW237434   2.946   2.451   6.665  1.7444 -1.2357 -0.8067
 8601SOL     OW37435   0.529   4.009   4.832  0.3217 -0.3963 -0.7284
 8601SOL    HW137436   0.591   4.060   4.883  0.8824 -1.7222 -0.0854
 8601SOL    HW237437   0.575   3.927   4.815 -0.7835 -1.1492 -0.1136
 8602SOL     OW37438   0.370   1.553  11.346  0.2263 -1.0421  0.2526
 8602SOL    HW137439   0.404   1.545  11.435 -0.4072 -0.4439  0.5518
 8602SOL    HW237440   0.324   1.469  11.347 -3.0227  0.7102  0.8393
 8603SOL     OW37441   0.565   3.236  11.997 -0.2974 -0.4428 -0.0751
 8603SOL    HW137442   0.659   3.245  12.017 -0.6670  0.8521  1.1035
 8603SOL    HW237443   0.564   3.145  11.968 -0.3829 -0.0158 -1.4431
 8604SOL     OW37444   3.350   2.147  11.688  0.3073  0.2946 -0.0802
 8604SOL    HW137445   3.397   2.099  11.756  0.1136  0.3739  0.1110
 8604SOL    HW237446   3.341   2.085  11.615  1.1333 -0.0767  0.1386
 8605SOL     OW37447   2.546   0.190   4.899 -0.4472 -0.7503 -0.3673
 8605SOL    HW137448   2.572   0.271   4.854  1.2336 -0.9191  0.2856
 8605SOL    HW237449   2.459   0.170   4.865 -1.1290  2.3127 -0.4621
 8606SOL     OW37450   3.972   2.271   2.874  0.5167  0.0062 -0.0087
 8606SOL    HW137451   3.923   2.337   2.922 -0.2566 -0.9739  0.5396
 8606SOL    HW237452   4.061   2.294   2.902 -0.4353  1.0849  2.1073
 8607SOL     OW37453   2.819   2.566   7.967  0.2115  0.2225  0.1904
 8607SOL    HW137454   2.865   2.484   7.981 -0.0998 -0.0928 -0.6323
 8607SOL    HW237455   2.820   2.572   7.871  0.3337  0.4232  0.2033
 8608SOL     OW37456   0.829   4.456   2.663  0.4827 -0.1873 -0.6088
 8608SOL    HW137457   0.759   4.410   2.617 -0.4189  1.1672 -0.6042
 8608SOL    HW237458   0.902   4.418   2.615  1.9214  2.3204 -0.4073
 8609SOL     OW37459   1.632   2.272   6.976 -0.2309 -0.2970 -0.2134
 8609SOL    HW137460   1.632   2.308   6.888  2.4573 -2.0239 -0.9172
 8609SOL    HW237461   1.682   2.339   7.023 -0.9215  0.9108 -1.1918
 8610SOL     OW37462   0.831   2.375   0.749  0.0679  0.6981  0.7233
 8610SOL    HW137463   0.885   2.355   0.673 -1.4366 -1.2751  0.1699
 8610SOL    HW237464   0.804   2.462   0.720 -2.0030 -0.3038 -0.3587
 8611SOL     OW37465   2.544   2.469   4.247 -0.2685 -0.1252 -0.0333
 8611SOL    HW137466   2.571   2.378   4.259  2.3872  0.4388 -1.8978
 8611SOL    HW237467   2.626   2.510   4.274 -0.8545  0.7082  0.4783
 8612SOL     OW37468   2.664   2.515   1.299  0.0482  0.0984  0.1077
 8612SOL    HW137469   2.642   2.446   1.237  1.9087  0.7556 -1.2991
 8612SOL    HW237470   2.749   2.546   1.267 -0.3309  1.0167 -0.0048
 8613SOL     OW37471   4.683   4.687   7.798  0.2337  0.1996  0.2500
 8613SOL    HW137472   4.704   0.032   7.756  0.7216 -0.2283 -0.3517
 8613SOL    HW237473   4.656   4.647   7.715  1.0043 -0.4672  0.3239
 8614SOL     OW37474   3.255   4.318   0.869  0.4960 -0.5805  0.4370
 8614SOL    HW137475   3.299   4.280   0.793  0.3627 -0.2577  0.2017
 8614SOL    HW237476   3.187   4.255   0.893  0.5809 -0.7143  0.3263
 8615SOL     OW37477   3.181   2.487   3.698 -0.2070  0.0653 -0.1214
 8615SOL    HW137478   3.125   2.553   3.656  1.8311  2.0386  0.2943
 8615SOL    HW237479   3.257   2.540   3.718 -0.6517 -0.0956  1.9668
 8616SOL     OW37480   4.546   1.183   5.386  0.0220  0.0552 -0.6668
 8616SOL    HW137481   4.594   1.196   5.304 -0.6134  2.4337 -0.6694
 8616SOL    HW237482   4.482   1.254   5.379 -1.6974 -1.5557 -1.3135
 8617SOL     OW37483   0.338   2.825  16.005  0.3002  0.0165  0.6916
 8617SOL    HW137484   0.382   2.874  15.936 -0.3977  0.1208  0.3216
 8617SOL    HW237485   0.250   2.825  15.966  0.7805  0.3863 -0.3729
 8618SOL     OW37486   4.685   0.011   2.931  0.0568 -0.2759  0.5173
 8618SOL    HW137487   4.674   0.104   2.952 -0.8454 -0.2977  0.1406
 8618SOL    HW237488   0.037   0.007   2.900 -0.6823 -1.5464 -1.4982
 8619SOL     OW37489   2.313   1.708  15.379 -0.2333  0.1102  0.3346
 8619SOL    HW137490   2.328   1.653  15.455 -1.0168  0.1344  0.5132
 8619SOL    HW237491   2.360   1.650  15.320  0.9051  0.4415  0.9176
 8620SOL     OW37492   3.405   4.115  17.608  0.5913  0.0512  0.3887
 8620SOL    HW137493   3.362   4.156  17.533 -1.2122 -0.3303  1.2151
 8620SOL    HW237494   3.393   4.024  17.581  0.6910  0.5319 -1.2845
 8621SOL     OW37495   1.227   3.220   7.385 -0.2714 -0.0627  0.6301
 8621SOL    HW137496   1.304   3.255   7.340  2.3834 -3.0549  2.8300
 8621SOL    HW237497   1.247   3.186   7.472  0.8290 -1.3419 -0.1055
 8622SOL     OW37498   3.980   0.876   5.653  0.2604 -0.3298  0.4704
 8622SOL    HW137499   4.055   0.854   5.709  1.0659 -0.5753 -0.7197
 8622SOL    HW237500   4.028   0.913   5.579 -0.6844 -0.7638 -0.3656
 8623SOL     OW37501   3.705   0.957   7.227 -0.0700  0.1059 -0.4189
 8623SOL    HW137502   3.792   0.995   7.212  0.3269 -1.0782 -1.1243
 8623SOL    HW237503   3.714   0.891   7.297  0.5692  0.1015 -0.5079
 8624SOL     OW37504   1.827   1.179   9.383  0.9769 -0.0597  0.4668
 8624SOL    HW137505   1.785   1.265   9.375  2.7567  0.6563 -1.2327
 8624SOL    HW237506   1.914   1.215   9.366  0.8019 -0.1146 -0.5105
 8625SOL     OW37507   2.600   2.927   9.138 -1.0526 -0.5517 -0.4376
 8625SOL    HW137508   2.599   2.918   9.233  2.2105  0.2945 -0.3218
 8625SOL    HW237509   2.694   2.934   9.121 -0.9195  0.1727  0.5874
 8626SOL     OW37510   2.864   1.536  14.996 -0.3885 -0.1617  0.1066
 8626SOL    HW137511   2.956   1.512  14.987 -0.2509  0.3366  0.1575
 8626SOL    HW237512   2.839   1.568  14.910  1.6772  2.1977  0.3998
 8627SOL     OW37513   3.871   3.822  17.043 -0.8299  0.2132  0.0872
 8627SOL    HW137514   3.935   3.816  16.972 -1.5627  0.1705 -0.5704
 8627SOL    HW237515   3.810   3.889  17.012  0.6602  0.7784 -1.5623
 8628SOL     OW37516   4.667   0.477   1.560 -0.0261  0.2075 -0.1669
 8628SOL    HW137517   4.709   0.544   1.506 -0.5443 -0.8842 -1.9562
 8628SOL    HW237518   4.641   0.528   1.636  1.0328  1.1602 -0.4447
 8629SOL     OW37519   4.521   0.449  16.994 -0.1602  0.1799 -0.1906
 8629SOL    HW137520   4.484   0.498  16.920 -1.2699 -0.0448  0.2218
 8629SOL    HW237521   4.516   0.521  17.056 -0.1207 -0.8331  0.9819
 8630SOL     OW37522   1.391   0.943   3.201 -0.1095  0.3349 -0.0101
 8630SOL    HW137523   1.409   0.981   3.115 -2.1327  0.3433 -0.4375
 8630SOL    HW237524   1.318   0.997   3.231 -0.8594  0.1949 -1.5765
 8631SOL     OW37525   1.876   2.038   7.174  0.3293 -0.2023  0.7014
 8631SOL    HW137526   1.906   2.077   7.256 -1.3561  1.6801  0.4240
 8631SOL    HW237527   1.942   2.070   7.112 -2.6922  1.9290 -1.4249
 8632SOL     OW37528   4.019   1.267  12.295  0.0742  0.1991 -0.0716
 8632SOL    HW137529   4.069   1.249  12.375 -1.3842  1.3409  1.0841
 8632SOL    HW237530   3.998   1.180  12.261 -0.0533 -0.8052  2.5485
 8633SOL     OW37531   3.327   3.201   2.301 -0.2384  0.1642  0.3238
 8633SOL    HW137532   3.354   3.113   2.273  0.8766  0.0092  1.8777
 8633SOL    HW237533   3.415   3.239   2.302  0.2815 -0.9827 -1.8160
 8634SOL     OW37534   0.996   4.266   4.497  0.4366  0.5648  0.5640
 8634SOL    HW137535   1.091   4.271   4.489  0.4285  1.1556  0.8578
 8634SOL    HW237536   0.990   4.291   4.589  0.3716  1.0145  0.4356
 8635SOL     OW37537   0.769   0.569   2.093 -0.1107 -0.2932 -0.4169
 8635SOL    HW137538   0.681   0.534   2.107 -0.3766  0.4300 -0.2944
 8635SOL    HW237539   0.763   0.659   2.124  1.9600  0.6869 -2.8498
 8636SOL     OW37540   0.647   1.848  15.009  0.2832  0.3861 -0.0193
 8636SOL    HW137541   0.684   1.936  15.005 -0.6893  0.7882 -0.1346
 8636SOL    HW237542   0.566   1.865  14.961  0.9047  0.9829 -0.8395
 8637SOL     OW37543   1.985   0.275   9.051  0.0315  0.3042 -0.3255
 8637SOL    HW137544   2.034   0.218   8.992 -2.3143 -1.1379 -0.8525
 8637SOL    HW237545   2.058   0.327   9.084 -0.3664 -0.1939  1.3437
 8638SOL     OW37546   2.141   3.849  12.443  0.5451 -0.0666 -0.0567
 8638SOL    HW137547   2.054   3.885  12.459 -0.1669 -1.0238 -1.8051
 8638SOL    HW237548   2.168   3.913  12.376 -2.5300 -0.2524 -1.4481
 8639SOL     OW37549   1.886   2.120  16.150  0.3460  0.4164  0.0685
 8639SOL    HW137550   1.799   2.083  16.130  0.3663  0.9778 -1.0439
 8639SOL    HW237551   1.865   2.212  16.136 -0.0784  0.4109  0.6303
 8640SOL     OW37552   0.836   2.314  16.630 -0.2221 -0.1461  0.2186
 8640SOL    HW137553   0.916   2.261  16.630 -0.5119 -0.5900 -1.0263
 8640SOL    HW237554   0.833   2.371  16.707  2.6485 -1.0617  1.0113
 8641SOL     OW37555   4.247   2.806   1.713 -0.7141  0.0877  0.4727
 8641SOL    HW137556   4.219   2.778   1.626 -0.3409 -2.4983  1.1716
 8641SOL    HW237557   4.287   2.891   1.694 -0.3722 -0.5684 -1.8166
 8642SOL     OW37558   4.520   3.170   6.747  0.1931  0.4185 -0.1933
 8642SOL    HW137559   4.536   3.174   6.653 -2.3310 -1.3012 -0.7183
 8642SOL    HW237560   4.608   3.142   6.773 -0.2361 -1.4851 -0.7695
 8643SOL     OW37561   2.180   0.956   5.528 -0.2935  0.7051 -0.0056
 8643SOL    HW137562   2.178   1.003   5.445  2.8153 -0.0001 -0.5015
 8643SOL    HW237563   2.267   0.915   5.532  0.6768  2.5577 -1.9749
 8644SOL     OW37564   1.597   0.752  14.227 -0.2024 -0.4904 -0.3103
 8644SOL    HW137565   1.637   0.777  14.144  0.5055 -1.8109 -0.3764
 8644SOL    HW237566   1.509   0.763  14.191 -0.4195 -3.2259 -0.6044
 8645SOL     OW37567   0.051   1.408   2.597 -0.1781  0.0614 -0.4184
 8645SOL    HW137568   0.122   1.459   2.637  0.5507 -1.7794  0.6210
 8645SOL    HW237569   4.718   1.459   2.635 -0.2434 -2.1430  2.3898
 8646SOL     OW37570   4.106   0.332   2.623 -0.3519  0.0990 -0.4222
 8646SOL    HW137571   4.112   0.246   2.664  0.0525 -0.5141 -1.7713
 8646SOL    HW237572   4.011   0.346   2.633 -0.0191  1.2430  1.1868
 8647SOL     OW37573   1.466   1.664  13.712  0.6334  0.4313  0.3550
 8647SOL    HW137574   1.497   1.695  13.797 -0.1014 -0.9492  1.1307
 8647SOL    HW237575   1.371   1.654  13.712  0.7129 -0.1185  3.8171
 8648SOL     OW37576   2.918   1.204   2.294 -0.1482  0.3064  0.4299
 8648SOL    HW137577   2.975   1.191   2.218  1.7887  0.6305  1.8186
 8648SOL    HW237578   2.859   1.268   2.255  0.9790  1.9815  1.5073
 8649SOL     OW37579   2.409   4.514   4.663  0.2749  0.2958 -0.3027
 8649SOL    HW137580   2.478   4.451   4.685  1.5704  1.5210 -0.7968
 8649SOL    HW237581   2.439   4.589   4.714 -2.7200  1.6278 -0.5241
 8650SOL     OW37582   4.399   0.873   3.555 -0.1482  0.0121 -0.1519
 8650SOL    HW137583   4.326   0.865   3.494 -0.5920 -1.0081  0.5055
 8650SOL    HW237584   4.457   0.932   3.506  0.0705  0.0960  0.2109
 8651SOL     OW37585   4.117   0.256   8.960 -0.6001  0.1255  0.0178
 8651SOL    HW137586   4.194   0.313   8.954 -0.5118  0.2502  2.4610
 8651SOL    HW237587   4.064   0.303   8.896 -0.3658 -0.0182 -0.2815
 8652SOL     OW37588   3.960   4.187   6.538 -0.4883 -0.1989 -0.4384
 8652SOL    HW137589   3.954   4.270   6.585  2.9322 -1.7229  2.7475
 8652SOL    HW237590   3.954   4.217   6.448 -1.1606  1.9305  0.3073
 8653SOL     OW37591   0.111   3.994   7.137  0.2116 -0.3549 -0.2354
 8653SOL    HW137592   0.163   3.934   7.190  1.6836  0.9879 -0.1703
 8653SOL    HW237593   0.055   3.935   7.086 -2.3217  0.0810  1.9974
 8654SOL     OW37594   3.592   0.311   2.941 -0.5607 -0.3299  0.2943
 8654SOL    HW137595   3.586   0.230   2.890  2.5055  0.7422 -1.7655
 8654SOL    HW237596   3.565   0.275   3.026  0.3400 -0.0923  0.6749
 8655SOL     OW37597   3.181   1.519   3.678 -0.3362  0.0825 -0.6002
 8655SOL    HW137598   3.252   1.583   3.684  1.0362 -1.5031  0.1623
 8655SOL    HW237599   3.215   1.434   3.707  2.4224  1.5066  0.3524
 8656SOL     OW37600   4.566   4.654   6.330 -0.0324  0.4839 -0.1816
 8656SOL    HW137601   4.497   4.719   6.316  0.9618  1.6626  0.3413
 8656SOL    HW237602   4.640   4.697   6.287  0.9213 -0.3597  0.6201
 8657SOL     OW37603   2.859   0.377  17.744  0.0925  0.6507  0.1367
 8657SOL    HW137604   2.836   0.355   0.081  0.1572 -1.5478 -0.3850
 8657SOL    HW237605   2.857   0.473  17.748 -3.7365  0.6068 -0.2777
 8658SOL     OW37606   2.593   3.426  14.796  0.1330 -0.0834 -0.5678
 8658SOL    HW137607   2.584   3.352  14.735  0.9778 -1.4511  0.9585
 8658SOL    HW237608   2.687   3.442  14.795  0.2122 -0.4154  1.0687
 8659SOL     OW37609   4.658   1.271   7.117  0.5703 -0.4444  0.0334
 8659SOL    HW137610   4.575   1.225   7.131  0.2120 -0.0100 -0.6963
 8659SOL    HW237611   4.654   1.331   7.192  1.4996 -0.3916  0.0454
 8660SOL     OW37612   2.550   3.207   9.722  0.2950  0.0380  0.8742
 8660SOL    HW137613   2.521   3.295   9.699  0.0821 -0.2363  0.0988
 8660SOL    HW237614   2.625   3.218   9.780 -0.1202  1.1590  1.1861
 8661SOL     OW37615   3.268   1.153   6.331  0.7538 -0.0591  0.5436
 8661SOL    HW137616   3.182   1.129   6.296 -0.5319  3.7635  1.0915
 8661SOL    HW237617   3.259   1.244   6.356  0.0343  0.2510 -0.8431
 8662SOL     OW37618   1.214   1.226   5.235 -0.2273 -0.3443  0.4660
 8662SOL    HW137619   1.227   1.314   5.270 -1.8260  0.7384 -1.6756
 8662SOL    HW237620   1.119   1.225   5.243 -0.3872  0.9451 -1.4207
 8663SOL     OW37621   2.789   0.023  13.974  0.2988  0.9146 -0.2940
 8663SOL    HW137622   2.871   4.711  13.971  0.3296  0.9803 -0.5942
 8663SOL    HW237623   2.821   0.112  13.961 -0.1311  1.1211  0.0525
 8664SOL     OW37624   1.469   4.474   3.532  0.0660 -0.3275 -0.9336
 8664SOL    HW137625   1.431   4.386   3.539  0.2801 -0.2358  1.3030
 8664SOL    HW237626   1.556   4.461   3.570  0.5320  1.1111 -1.4986
 8665SOL     OW37627   0.019   1.987  12.148  0.6721  0.1792 -0.2798
 8665SOL    HW137628   0.003   2.078  12.122 -0.0219  0.6102  1.6043
 8665SOL    HW237629   4.725   1.995  12.238 -2.5820 -1.8047 -1.3132
 8666SOL     OW37630   3.350   0.767   1.988  0.4932 -0.0128  0.8711
 8666SOL    HW137631   3.312   0.725   2.066 -0.2740  0.2043  0.6084
 8666SOL    HW237632   3.398   0.696   1.945 -0.0730 -0.1243  0.4317
 8667SOL     OW37633   4.630   1.232   6.439  0.0519 -0.4757  0.5583
 8667SOL    HW137634   4.634   1.144   6.477  3.3166 -0.3968  0.4519
 8667SOL    HW237635   4.591   1.278   6.513 -2.6543 -1.4703 -0.2622
 8668SOL     OW37636   1.733   4.268   7.119 -0.0182 -0.4817 -0.1100
 8668SOL    HW137637   1.797   4.264   7.190  0.8207  0.6751 -0.8082
 8668SOL    HW237638   1.697   4.356   7.130  0.3527 -0.3429 -0.0171
 8669SOL     OW37639   2.937   3.590   2.543 -0.1311  0.3290  0.2791
 8669SOL    HW137640   2.884   3.607   2.620 -0.7752 -0.4293  0.0051
 8669SOL    HW237641   2.865   3.605   2.482  0.3459 -2.4424 -0.9917
 8670SOL     OW37642   2.031   1.913   4.277  0.4624 -0.2952 -0.3235
 8670SOL    HW137643   2.054   1.990   4.226  1.1402 -1.5996 -1.9743
 8670SOL    HW237644   1.967   1.944   4.341  1.5807  1.2035  0.0480
 8671SOL     OW37645   0.503   0.027  12.417 -0.4338  0.3673 -0.0938
 8671SOL    HW137646   0.543   0.046  12.332 -1.0885  1.7773 -0.0881
 8671SOL    HW237647   0.542   0.089  12.478  0.4170 -0.3241  0.0696
 8672SOL     OW37648   1.770   1.522  12.825 -0.5414  0.2075 -0.1271
 8672SOL    HW137649   1.838   1.483  12.880 -0.7057  3.0063  2.0818
 8672SOL    HW237650   1.757   1.604  12.873  0.5781  1.4094 -1.8740
 8673SOL     OW37651   3.042   0.285   5.909  0.9232 -0.1433  1.0583
 8673SOL    HW137652   2.949   0.309   5.904  0.8673 -1.2127 -3.8759
 8673SOL    HW237653   3.042   0.216   5.842 -1.0016  2.5082 -1.7144
 8674SOL     OW37654   3.030   0.182   5.279 -0.0051 -0.1481 -0.3254
 8674SOL    HW137655   2.971   0.166   5.352  0.7353  0.2563  0.3616
 8674SOL    HW237656   3.120   0.186   5.310  0.3965  1.5695 -1.7439
 8675SOL     OW37657   3.150   2.062   5.696  0.4516  0.3417 -0.3260
 8675SOL    HW137658   3.170   2.042   5.788  0.3696  1.1557 -0.1267
 8675SOL    HW237659   3.156   1.974   5.660 -2.8944  0.9588 -2.4038
 8676SOL     OW37660   0.878   0.551   4.192 -0.4278 -0.2387  0.1726
 8676SOL    HW137661   0.932   0.544   4.271  0.3516 -0.4596 -0.3791
 8676SOL    HW237662   0.803   0.499   4.222 -0.5110 -0.0107  0.3580
 8677SOL     OW37663   0.870   3.358  14.586  0.4078 -0.0323  0.5486
 8677SOL    HW137664   0.953   3.310  14.582  0.1354 -0.3587 -1.2178
 8677SOL    HW237665   0.850   3.376  14.494  0.7914 -2.6135 -0.0418
 8678SOL     OW37666   2.294   1.849   1.243  0.3100  0.8058 -0.4036
 8678SOL    HW137667   2.388   1.866   1.241  0.5451 -0.2523  1.8886
 8678SOL    HW237668   2.282   1.760   1.276  0.2891  0.7108 -0.6749
 8679SOL     OW37669   3.726   3.804  12.185  0.0769  0.0022 -0.2373
 8679SOL    HW137670   3.657   3.759  12.136 -1.3925 -1.1255  2.8778
 8679SOL    HW237671   3.726   3.746  12.260 -1.6542 -1.4038 -1.3258
 8680SOL     OW37672   0.884   4.614   8.254 -0.5034 -0.4554  0.0025
 8680SOL    HW137673   0.896   4.533   8.205 -1.2479 -1.4437  1.4576
 8680SOL    HW237674   0.975   4.644   8.249 -0.2784 -1.2582 -0.5981
 8681SOL     OW37675   0.485   2.414   0.958 -0.4927 -0.1966 -0.1594
 8681SOL    HW137676   0.516   2.499   0.927 -0.4965  0.4793  1.7155
 8681SOL    HW237677   0.423   2.396   0.887 -0.4746  0.3914 -0.3246
 8682SOL     OW37678   0.997   3.257   8.794  0.1188 -0.1889  0.5305
 8682SOL    HW137679   1.017   3.178   8.845  0.3840 -0.3182  0.2212
 8682SOL    HW237680   1.068   3.256   8.730 -1.2398  0.2587 -0.9677
 8683SOL     OW37681   1.300   1.397   6.329  0.4786  0.0989  0.3500
 8683SOL    HW137682   1.236   1.421   6.395 -0.0543 -1.3238  0.3586
 8683SOL    HW237683   1.371   1.460   6.339 -0.2032  1.0148 -0.6378
 8684SOL     OW37684   2.659   0.216   4.144  0.5590  0.5924  0.3328
 8684SOL    HW137685   2.636   0.281   4.210  1.6349 -0.3374  1.6246
 8684SOL    HW237686   2.680   0.146   4.205 -1.3627 -1.2210 -1.0946
 8685SOL     OW37687   3.625   3.733  16.425  0.3575 -0.3284  0.2098
 8685SOL    HW137688   3.608   3.754  16.517  1.0807  1.0649  0.0239
 8685SOL    HW237689   3.720   3.744  16.427  0.5340 -1.6910 -0.3422
 8686SOL     OW37690   2.882   4.151   2.672 -0.3305 -0.6069  0.2955
 8686SOL    HW137691   2.796   4.115   2.693 -1.6063  2.3437  0.2288
 8686SOL    HW237692   2.912   4.178   2.759 -1.5976  0.8364  0.2853
 8687SOL     OW37693   1.925   1.850   2.226  0.9216 -0.5542 -0.1561
 8687SOL    HW137694   1.915   1.839   2.131  0.5389 -2.1116  0.0606
 8687SOL    HW237695   1.853   1.909   2.247  1.8355  0.4684  0.0952
 8688SOL     OW37696   4.325   4.687   5.234  0.4241  0.4585 -0.0180
 8688SOL    HW137697   4.362   4.615   5.285 -0.8199 -2.4626 -3.2616
 8688SOL    HW237698   4.303   0.010   5.304  1.0402 -0.5122  1.0400
 8689SOL     OW37699   3.530   4.150  15.975  0.0879 -0.0516  0.7985
 8689SOL    HW137700   3.557   4.234  16.012  0.3983  0.8027 -1.3803
 8689SOL    HW237701   3.440   4.154  15.944 -0.6673  1.0978  3.1664
 8690SOL     OW37702   3.385   1.095   5.329 -0.0416  0.3899  0.5484
 8690SOL    HW137703   3.399   1.033   5.257 -4.4325  0.1540 -0.1229
 8690SOL    HW237704   3.386   1.039   5.406  2.6639 -0.7244 -0.3330
 8691SOL     OW37705   1.729   0.599   4.887 -0.3104  0.6085 -0.2568
 8691SOL    HW137706   1.817   0.620   4.917 -1.3972 -0.0643  3.3987
 8691SOL    HW237707   1.710   0.659   4.814 -0.1261  0.1342 -0.6967
 8692SOL     OW37708   0.319   1.155  11.649 -0.4602  0.1440  0.1578
 8692SOL    HW137709   0.267   1.077  11.669 -1.1169  0.4835 -0.2442
 8692SOL    HW237710   0.390   1.109  11.603 -1.6135 -3.3869  1.8543
 8693SOL     OW37711   2.287   2.423  16.323  0.1061  0.3118 -0.1144
 8693SOL    HW137712   2.369   2.430  16.275  0.4943 -0.5112  0.4174
 8693SOL    HW237713   2.230   2.383  16.257  1.9107  0.4493 -1.7240
 8694SOL     OW37714   0.462   2.924   0.231  0.5538  0.4206  0.3182
 8694SOL    HW137715   0.545   2.910   0.185 -0.3318  1.1951 -1.4987
 8694SOL    HW237716   0.456   3.019   0.227  0.2142  0.4379  1.1477
 8695SOL     OW37717   0.602   2.030   2.291  0.0112 -0.1716  0.5440
 8695SOL    HW137718   0.689   2.054   2.260 -1.5091 -0.2291 -3.8045
 8695SOL    HW237719   0.554   2.009   2.211 -0.5495 -1.5342  1.2432
 8696SOL     OW37720   0.424   3.293   0.699 -0.0984 -0.1037  0.2697
 8696SOL    HW137721   0.466   3.377   0.681 -0.7799  0.1776 -0.0217
 8696SOL    HW237722   0.489   3.228   0.673  0.5713  1.5088 -2.1643
 8697SOL     OW37723   3.855   0.929   2.597  0.6034  0.0003 -0.4240
 8697SOL    HW137724   3.933   0.976   2.626 -0.3314  2.2276 -1.4900
 8697SOL    HW237725   3.797   1.003   2.577  0.5581 -0.3353 -1.5162
 8698SOL     OW37726   3.994   1.251   0.448  0.3435  0.1082 -0.0171
 8698SOL    HW137727   3.900   1.253   0.432  0.2173  0.7410  0.8209
 8698SOL    HW237728   3.995   1.208   0.533  2.4278  0.3687  0.0916
 8699SOL     OW37729   0.161   0.037   2.299  0.2492  0.8718  0.4101
 8699SOL    HW137730   0.170   4.716   2.224 -1.2145  0.9090  0.2039
 8699SOL    HW237731   0.107   0.107   2.261 -1.9214  0.1451  2.1505
 8700SOL     OW37732   4.650   0.483   7.553 -0.7706 -0.6865  0.2499
 8700SOL    HW137733   4.670   0.549   7.620 -0.1755 -1.7175  1.0971
 8700SOL    HW237734   4.587   0.427   7.598  1.0116 -0.5281  2.9362
 8701SOL     OW37735   0.103   3.066   8.441 -0.1101  0.0902 -0.5282
 8701SOL    HW137736   0.134   2.976   8.437  3.0279  1.2803 -2.4021
 8701SOL    HW237737   0.151   3.104   8.514  1.8143  0.4631 -1.9999
 8702SOL     OW37738   2.552   0.585  12.244 -0.4974 -0.5468 -0.1163
 8702SOL    HW137739   2.643   0.609  12.262 -0.8492 -0.9950  2.2422
 8702SOL    HW237740   2.532   0.627  12.161  2.3205 -1.3637 -1.1966
 8703SOL     OW37741   3.558   3.406   5.309  0.0337 -0.6729 -0.2597
 8703SOL    HW137742   3.543   3.479   5.369  1.8929  0.6130 -1.3590
 8703SOL    HW237743   3.563   3.443   5.220 -1.2579  0.9316  0.3295
 8704SOL     OW37744   2.668   0.968   1.050 -0.0052  0.0876 -0.3884
 8704SOL    HW137745   2.694   1.058   1.070  0.8920  0.1547 -1.8179
 8704SOL    HW237746   2.588   0.987   1.001 -0.2373 -0.4954 -0.2272
 8705SOL     OW37747   0.555   0.988  14.733 -0.0820  0.0262  0.3502
 8705SOL    HW137748   0.482   0.928  14.716 -2.8183  3.7965 -1.0543
 8705SOL    HW237749   0.529   1.026  14.817  2.8399  2.3422  0.2154
 8706SOL     OW37750   1.575   2.410   4.758  0.2334  0.0988 -0.2019
 8706SOL    HW137751   1.583   2.503   4.738 -1.5323 -0.0137 -1.4255
 8706SOL    HW237752   1.583   2.413   4.853  0.3308  1.0353 -0.2431
 8707SOL     OW37753   4.596   1.659   1.478 -0.6392 -0.0304  0.0178
 8707SOL    HW137754   4.620   1.585   1.533 -0.5819  0.2564  0.3754
 8707SOL    HW237755   4.549   1.717   1.538  0.4556 -0.3184  1.1347
 8708SOL     OW37756   2.420   4.070   8.176 -0.3212 -0.0230  0.6691
 8708SOL    HW137757   2.474   3.996   8.150 -0.2338  0.1868  0.2506
 8708SOL    HW237758   2.331   4.036   8.162  0.0307 -0.8618  0.4730
 8709SOL     OW37759   3.935   1.335   2.772 -0.2385  0.1209  0.1871
 8709SOL    HW137760   4.027   1.328   2.800 -0.3072  0.1655  0.4201
 8709SOL    HW237761   3.934   1.430   2.781  1.1795  0.1770 -0.2241
 8710SOL     OW37762   2.751   3.412  11.294 -0.5517 -0.1513 -0.3305
 8710SOL    HW137763   2.819   3.358  11.335 -2.0368 -0.4843  1.6834
 8710SOL    HW237764   2.725   3.464  11.370 -0.9985 -0.1310 -0.4977
 8711SOL     OW37765   3.102   0.969  16.542  0.6421 -0.1634  0.0693
 8711SOL    HW137766   3.070   0.896  16.490  1.2439  0.0343 -0.5771
 8711SOL    HW237767   3.052   1.038  16.499  0.0197 -1.7267 -1.6855
 8712SOL     OW37768   0.152   0.798  17.069 -0.1558 -0.1466 -0.1166
 8712SOL    HW137769   0.169   0.892  17.064 -2.0611  0.1490 -0.9335
 8712SOL    HW237770   0.068   0.794  17.022  0.5559  1.2509 -1.4947
 8713SOL     OW37771   2.523   4.702   1.646 -0.1930  0.2898 -0.4924
 8713SOL    HW137772   2.462   4.661   1.585  1.1907 -2.2878 -0.1625
 8713SOL    HW237773   2.597   4.642   1.651  0.5461  1.2298 -0.1362
 8714SOL     OW37774   3.449   4.679   0.969  0.3399 -0.0460 -0.4262
 8714SOL    HW137775   3.390   4.733   1.021  1.4277 -0.3162  1.0909
 8714SOL    HW237776   3.530   4.701   1.015  0.5344  0.3727 -0.9660
 8715SOL     OW37777   3.891   3.530  17.735 -0.5874 -0.2820 -0.2961
 8715SOL    HW137778   3.922   3.590   0.051 -2.6241 -2.0115  2.1406
 8715SOL    HW237779   3.918   3.568  17.652 -1.3944  0.5945 -0.1589
 8716SOL     OW37780   0.293   0.339   4.631 -0.8338 -0.2016  0.3340
 8716SOL    HW137781   0.345   0.308   4.557  0.9989 -0.8243  1.8853
 8716SOL    HW237782   0.359   0.385   4.683 -1.0630 -0.7805  1.1474
 8717SOL     OW37783   1.195   2.008  17.087  0.1309  0.2516  0.2591
 8717SOL    HW137784   1.181   2.029  17.179  0.1333  2.1917 -0.1954
 8717SOL    HW237785   1.163   1.917  17.088  0.3974  0.1788  1.7152
 8718SOL     OW37786   2.813   2.674  11.683  0.0368  0.1697 -0.2002
 8718SOL    HW137787   2.796   2.682  11.589  1.2046 -0.1751 -0.4285
 8718SOL    HW237788   2.907   2.671  11.668 -0.1769  0.5387 -1.6906
 8719SOL     OW37789   0.951   2.788   9.684 -0.2288 -0.2057  0.7786
 8719SOL    HW137790   0.903   2.870   9.675  0.1575 -0.1444 -0.7479
 8719SOL    HW237791   1.036   2.806   9.642  0.2859  0.4951  2.1132
 8720SOL     OW37792   0.750   0.673   8.840  0.1687  0.4939 -0.6352
 8720SOL    HW137793   0.668   0.631   8.865  1.9798 -2.6425  0.0498
 8720SOL    HW237794   0.721   0.763   8.828  0.8800  0.7843 -0.2172
 8721SOL     OW37795   3.080   4.431   6.854 -0.1121 -0.0328  0.2254
 8721SOL    HW137796   3.020   4.387   6.914 -0.6692 -1.2113 -1.1811
 8721SOL    HW237797   3.087   4.521   6.883 -2.1916  1.2400 -3.1649
 8722SOL     OW37798   1.544   1.148   5.881 -0.0529 -0.0216 -0.0510
 8722SOL    HW137799   1.529   1.231   5.926  0.0546  0.9070 -1.7582
 8722SOL    HW237800   1.457   1.107   5.883 -0.2560  0.3606 -1.2544
 8723SOL     OW37801   1.464   0.203   2.093  0.2951 -0.2397 -0.7210
 8723SOL    HW137802   1.380   0.248   2.087  1.0479  1.3054  0.4223
 8723SOL    HW237803   1.436   0.134   2.153  1.2116  2.3592  2.6817
 8724SOL     OW37804   2.595   1.045   0.195 -0.3372 -0.1058  0.7563
 8724SOL    HW137805   2.657   1.118   0.195 -0.7473  0.2341  0.1094
 8724SOL    HW237806   2.570   1.039   0.287 -1.3371 -0.1713  0.4792
 8725SOL     OW37807   3.836   4.331   5.961 -0.1936 -0.4047 -0.2695
 8725SOL    HW137808   3.880   4.319   6.045 -1.6507 -2.6688  0.1490
 8725SOL    HW237809   3.798   4.417   5.979  1.2222  0.3268 -0.7766
 8726SOL     OW37810   4.346   1.418   6.361 -0.5385 -0.0535  0.0909
 8726SOL    HW137811   4.412   1.357   6.394 -0.5249 -0.5076 -0.7792
 8726SOL    HW237812   4.291   1.365   6.304 -2.4711 -0.7904  2.6224
 8727SOL     OW37813   3.542   3.301   6.383  0.2524  0.4522  0.0847
 8727SOL    HW137814   3.502   3.262   6.305  1.5114 -0.0529 -0.2993
 8727SOL    HW237815   3.479   3.372   6.399 -1.7688 -0.9796 -1.4962
 8728SOL     OW37816   3.425   0.939  13.954 -0.0594  0.0698 -0.0505
 8728SOL    HW137817   3.520   0.944  13.945  0.2459 -0.0578  3.1399
 8728SOL    HW237818   3.401   1.020  13.998 -2.3048 -1.4131  1.4346
 8729SOL     OW37819   2.153   2.719   4.447  0.3417  0.3583  0.1400
 8729SOL    HW137820   2.173   2.632   4.414  2.1546  0.7900  0.1091
 8729SOL    HW237821   2.224   2.759   4.397  2.0137 -2.1375  0.5261
 8730SOL     OW37822   3.312   0.961  15.987  0.4329  0.0195  0.8428
 8730SOL    HW137823   3.278   0.973  16.076 -0.1139  1.2504  0.4669
 8730SOL    HW237824   3.405   0.982  15.992  0.6003 -0.6880  0.7454
 8731SOL     OW37825   3.020   3.772  15.217  0.1391  0.3015  0.3021
 8731SOL    HW137826   2.977   3.854  15.240 -0.4450 -0.0391  0.4237
 8731SOL    HW237827   3.100   3.777  15.270  0.0137 -0.3633  0.5514
 8732SOL     OW37828   3.504   1.887   5.965 -0.5410  0.4087 -0.1333
 8732SOL    HW137829   3.540   1.836   5.892 -0.5270 -1.1456  0.9561
 8732SOL    HW237830   3.540   1.833   6.036  1.1256  0.1275 -1.1818
 8733SOL     OW37831   1.512   3.731   6.859 -0.0405 -0.0732  0.1484
 8733SOL    HW137832   1.420   3.706   6.860  0.3533 -1.5489  1.5372
 8733SOL    HW237833   1.546   3.668   6.796 -1.1389  1.8650 -2.3455
 8734SOL     OW37834   4.061   4.514   7.570  0.5720  0.0635 -0.9183
 8734SOL    HW137835   4.034   4.526   7.661 -0.6516  1.2796 -1.4329
 8734SOL    HW237836   4.155   4.530   7.576  0.2346  1.0334  1.4676
 8735SOL     OW37837   1.574   0.842   3.925  0.6286  0.3207 -0.0523
 8735SOL    HW137838   1.564   0.934   3.900 -0.9161 -0.1707 -1.2663
 8735SOL    HW237839   1.529   0.799   3.852  2.5908 -0.8583 -0.5518
 8736SOL     OW37840   0.438   3.870  14.142 -0.3248 -0.0432  0.4529
 8736SOL    HW137841   0.528   3.844  14.162  0.9879  2.7030 -1.9126
 8736SOL    HW237842   0.420   3.843  14.052 -3.0672  1.3635  0.5735
 8737SOL     OW37843   0.225   0.948   2.068 -0.2158 -0.0201 -0.1456
 8737SOL    HW137844   0.184   1.034   2.068 -0.4413 -0.1517  2.0576
 8737SOL    HW237845   0.248   0.945   2.161 -2.4367 -1.2736  0.3470
 8738SOL     OW37846   3.070   0.653  13.199  0.1549 -0.2209  0.8115
 8738SOL    HW137847   3.039   0.740  13.222 -0.2617 -0.3654  0.8010
 8738SOL    HW237848   2.988   0.624  13.160  0.2793 -0.0009  0.3886
 8739SOL     OW37849   0.638   3.786  11.679 -0.3783 -0.5132 -0.4521
 8739SOL    HW137850   0.728   3.753  11.676 -0.4654 -0.8621  0.8782
 8739SOL    HW237851   0.636   3.830  11.763  1.8447  0.7948 -1.0950
 8740SOL     OW37852   1.703   1.941   5.402  0.1122  0.1072 -0.4796
 8740SOL    HW137853   1.721   2.017   5.347 -0.8751  0.5690 -0.1592
 8740SOL    HW237854   1.617   1.922   5.364  0.4423 -1.2041 -0.5952
 8741SOL     OW37855   0.490   1.304   3.391 -0.2138 -0.1641  0.1583
 8741SOL    HW137856   0.404   1.305   3.350 -1.0091  0.9802  1.8619
 8741SOL    HW237857   0.484   1.366   3.464 -1.0126  0.5348 -0.5105
 8742SOL     OW37858   2.317   2.130   5.631  0.3119 -0.0192  0.1800
 8742SOL    HW137859   2.276   2.216   5.625 -1.5191 -0.7693  2.2962
 8742SOL    HW237860   2.410   2.153   5.634  0.4217 -0.2127 -1.4702
 8743SOL     OW37861   3.793   3.431   6.159  0.1352 -0.3792 -0.1170
 8743SOL    HW137862   3.700   3.451   6.149  0.1759  0.1416  0.5051
 8743SOL    HW237863   3.803   3.385   6.076 -0.3745  0.9880 -0.9262
 8744SOL     OW37864   4.357   3.405   3.928  0.4269  0.3615  0.2857
 8744SOL    HW137865   4.323   3.324   3.964  0.4506  0.8326  1.3706
 8744SOL    HW237866   4.276   3.444   3.895  2.2359  3.0383 -1.0369
 8745SOL     OW37867   3.404   3.573   5.511 -0.2228  0.4551  0.6153
 8745SOL    HW137868   3.434   3.660   5.538 -0.1641  0.4026  0.7160
 8745SOL    HW237869   3.436   3.517   5.582  3.0805  0.5163 -0.8317
 8746SOL     OW37870   2.367   3.123  10.662  0.1927 -0.1367  0.0479
 8746SOL    HW137871   2.429   3.094  10.728 -0.5951 -1.4218  0.2354
 8746SOL    HW237872   2.376   3.218  10.661 -0.3504 -0.0779  0.3665
 8747SOL     OW37873   3.744   1.926   5.561  0.6972 -0.1558  0.1648
 8747SOL    HW137874   3.819   1.940   5.619  0.8902 -0.0797 -0.1027
 8747SOL    HW237875   3.710   2.015   5.551  0.1320 -0.4763 -0.7507
 8748SOL     OW37876   0.246   2.848   4.654 -0.0692  0.1414  0.0459
 8748SOL    HW137877   0.200   2.812   4.729  2.0163 -2.1726  0.2016
 8748SOL    HW237878   0.182   2.831   4.584 -0.0976  1.0088 -0.1395
 8749SOL     OW37879   2.762   4.242   6.302 -0.3701  0.1998  0.3088
 8749SOL    HW137880   2.687   4.289   6.337  0.1603  1.4177 -0.1720
 8749SOL    HW237881   2.737   4.239   6.210  0.2809 -0.9924  0.1722
 8750SOL     OW37882   0.805   0.151   3.013 -0.0720  0.1033 -0.4839
 8750SOL    HW137883   0.812   0.097   2.934 -0.1486  1.0309 -1.1259
 8750SOL    HW237884   0.711   0.172   3.015  0.0159  0.3790  1.1809
 8751SOL     OW37885   2.394   1.279   1.983 -0.0588 -0.5821  0.1935
 8751SOL    HW137886   2.323   1.220   1.958  0.7521 -0.1830 -3.0404
 8751SOL    HW237887   2.432   1.301   1.898  0.7286 -0.5547  0.5531
 8752SOL     OW37888   4.542   0.930   3.157 -0.3394 -0.7427  0.1148
 8752SOL    HW137889   4.551   0.836   3.148 -2.6600 -0.6327 -3.5938
 8752SOL    HW237890   4.467   0.936   3.098  0.2960  0.0350 -0.6250
 8753SOL     OW37891   2.177   3.602  15.815  0.1716 -0.3038  0.3246
 8753SOL    HW137892   2.192   3.594  15.909  1.5559  0.6820  0.1878
 8753SOL    HW237893   2.101   3.661  15.822  0.9002  0.8721 -1.7633
 8754SOL     OW37894   2.288   3.120  11.773 -0.0441  0.2746  0.3958
 8754SOL    HW137895   2.374   3.153  11.800  1.1293 -0.9061 -1.8815
 8754SOL    HW237896   2.239   3.117  11.855 -1.4314 -1.3377 -0.4898
 8755SOL     OW37897   3.162   1.231  16.721  0.1953  0.1892  0.0007
 8755SOL    HW137898   3.130   1.314  16.754 -0.6824  0.8075 -2.4421
 8755SOL    HW237899   3.175   1.183  16.803  1.6342 -1.6113 -1.2622
 8756SOL     OW37900   1.939   2.543   8.433  0.2075  0.0030 -0.7005
 8756SOL    HW137901   2.013   2.556   8.374 -0.2025 -0.0071 -1.2158
 8756SOL    HW237902   1.873   2.581   8.376 -0.5871 -0.0246  0.1980
 8757SOL     OW37903   0.850   3.453   1.466  0.1103  0.3191  0.3494
 8757SOL    HW137904   0.940   3.436   1.491 -0.2720 -0.3125  1.2891
 8757SOL    HW237905   0.820   3.365   1.444  2.4393 -0.4153  0.1580
 8758SOL     OW37906   2.582   2.753   5.626 -0.3672 -0.2695  0.1310
 8758SOL    HW137907   2.513   2.775   5.563 -0.3664 -0.9792 -0.1127
 8758SOL    HW237908   2.665   2.779   5.584 -0.3842 -1.1199 -0.4208
 8759SOL     OW37909   1.159   3.124   6.519  1.1729 -0.0263 -0.5953
 8759SOL    HW137910   1.165   3.161   6.607  0.6032  1.4270 -1.1547
 8759SOL    HW237911   1.235   3.069   6.502  0.2090 -1.0714 -1.4856
 8760SOL     OW37912   1.366   1.778   0.756 -0.4234  0.1091  0.8359
 8760SOL    HW137913   1.278   1.743   0.773 -1.0772  0.7144 -1.3085
 8760SOL    HW237914   1.420   1.699   0.753 -0.0240  0.3416  2.0743
 8761SOL     OW37915   3.997   0.667   1.607  0.0536 -0.1455 -0.2284
 8761SOL    HW137916   3.905   0.645   1.619  0.6645 -2.0449  0.9829
 8761SOL    HW237917   4.044   0.593   1.646  1.0415  0.2784 -0.6058
 8762SOL     OW37918   1.249   2.656   4.752 -0.0930  0.0155  0.7411
 8762SOL    HW137919   1.304   2.716   4.802 -0.5626 -0.8191  2.2716
 8762SOL    HW237920   1.170   2.709   4.750  0.4161  0.7496  0.1876
 8763SOL     OW37921   1.588   1.008  14.574 -0.1588 -0.1031  0.4833
 8763SOL    HW137922   1.648   1.081  14.567  2.2234 -2.1462 -0.3290
 8763SOL    HW237923   1.567   0.984  14.484  0.8039  2.8342 -0.5297
 8764SOL     OW37924   4.599   1.747   7.824  0.0389  0.6149  0.0113
 8764SOL    HW137925   4.656   1.813   7.865  1.3592  0.0129 -0.8732
 8764SOL    HW237926   4.656   1.695   7.768  1.6605 -1.5877  3.7158
 8765SOL     OW37927   2.970   2.547  15.599  0.7683 -0.3056 -0.3052
 8765SOL    HW137928   2.956   2.461  15.561  0.3176 -0.4169  0.1163
 8765SOL    HW237929   2.915   2.586  15.531 -3.8216 -1.7495  2.5957
 8766SOL     OW37930   4.384   1.724   6.777  0.0709 -0.3816  0.0508
 8766SOL    HW137931   4.292   1.748   6.781  0.0383 -0.5323  0.1997
 8766SOL    HW237932   4.379   1.659   6.847 -0.6750 -1.0065 -0.5908
 8767SOL     OW37933   0.328   2.680   3.451  0.3833 -0.0505  0.2688
 8767SOL    HW137934   0.252   2.730   3.480  0.1631 -1.0952  1.4730
 8767SOL    HW237935   0.397   2.727   3.498  2.2583  0.1201 -2.6645
 8768SOL     OW37936   3.041   2.229   8.369 -0.4486  0.6487 -0.2827
 8768SOL    HW137937   2.999   2.144   8.384 -0.1558  0.8137  1.4524
 8768SOL    HW237938   2.976   2.285   8.412 -1.2393 -2.3194  2.4142
 8769SOL     OW37939   4.371   2.663  17.659  0.8513  0.1316  0.0284
 8769SOL    HW137940   4.401   2.747  17.624 -0.3908  1.0460  1.1683
 8769SOL    HW237941   4.364   2.610  17.579 -1.0448 -0.0525  0.3080
 8770SOL     OW37942   2.640   2.956  11.927  0.2994  0.2818  0.3250
 8770SOL    HW137943   2.696   2.922  11.997 -1.9829 -0.3875  1.8344
 8770SOL    HW237944   2.693   3.032  11.900  1.3186 -0.5609 -0.0454
 8771SOL     OW37945   1.584   2.208   5.074  0.1514  0.3565  0.9802
 8771SOL    HW137946   1.672   2.246   5.083  1.1070 -2.3541  3.1656
 8771SOL    HW237947   1.534   2.246   5.146 -0.5577 -0.3067  0.8261
 8772SOL     OW37948   2.747   0.115  17.163  0.3409 -0.5119  0.9364
 8772SOL    HW137949   2.812   0.173  17.202  1.4696 -0.6075 -0.8288
 8772SOL    HW237950   2.668   0.146  17.207  0.9787  2.8046 -0.3094
 8773SOL     OW37951   3.503   0.509   7.484 -0.3206 -0.5208 -0.1739
 8773SOL    HW137952   3.475   0.558   7.561 -2.6693 -2.9911  0.5563
 8773SOL    HW237953   3.431   0.455   7.451 -0.6603  0.3273 -0.8008
 8774SOL     OW37954   1.067   4.728  12.586  0.0701  0.3141 -0.6190
 8774SOL    HW137955   1.059   4.640  12.623 -3.5273  1.3607  1.0795
 8774SOL    HW237956   1.044   0.044  12.660  0.8223  1.8206 -1.4941
 8775SOL     OW37957   2.103   1.438   4.287 -0.0766  0.1975  0.1527
 8775SOL    HW137958   2.188   1.426   4.245 -0.3317  1.2569 -0.6709
 8775SOL    HW237959   2.078   1.353   4.323 -0.1424  1.2986  2.6976
 8776SOL     OW37960   4.367   1.806   7.715  0.0753 -0.0166  0.4528
 8776SOL    HW137961   4.343   1.723   7.755 -0.4298 -0.0385  0.1058
 8776SOL    HW237962   4.458   1.814   7.742 -0.4420  2.9584  1.3489
 8777SOL     OW37963   2.910   1.817   3.694  0.7447  0.5748  0.7015
 8777SOL    HW137964   2.978   1.827   3.761  0.6762 -1.9167  1.1734
 8777SOL    HW237965   2.910   1.728   3.658  1.0512  0.9197 -0.1501
 8778SOL     OW37966   4.376   1.875  14.308 -0.3883 -0.2400  0.2506
 8778SOL    HW137967   4.450   1.884  14.248 -0.3894  0.6871  0.4010
 8778SOL    HW237968   4.384   1.781  14.323 -0.0316  0.0885  2.0159
 8779SOL     OW37969   2.152   0.527  10.359  0.0195  0.1756  0.3789
 8779SOL    HW137970   2.221   0.465  10.383  0.3238  0.4600  0.2384
 8779SOL    HW237971   2.076   0.475  10.384  1.1448 -0.8584  1.6416
 8780SOL     OW37972   2.877   1.455   9.032  0.4317  0.4480  0.2557
 8780SOL    HW137973   2.938   1.506   8.977 -2.6682  2.2252 -1.5173
 8780SOL    HW237974   2.804   1.516   9.024  0.6026  0.5371 -0.7395
 8781SOL     OW37975   4.123   4.133   5.440  0.4063 -0.0505  0.2568
 8781SOL    HW137976   4.053   4.196   5.423  0.5749 -0.0103 -0.2998
 8781SOL    HW237977   4.200   4.180   5.408  1.2384 -1.5167  0.1189
 8782SOL     OW37978   0.528   2.900   4.115  0.1260  0.1904 -0.1769
 8782SOL    HW137979   0.473   2.855   4.050 -2.5999  0.7187  1.7806
 8782SOL    HW237980   0.534   2.819   4.166  0.5852 -0.2899 -0.9963
 8783SOL     OW37981   2.258   0.346  11.499 -0.7596 -0.7974  0.4438
 8783SOL    HW137982   2.326   0.294  11.541  0.6040  0.6740  0.0872
 8783SOL    HW237983   2.246   0.410  11.569  0.4099  0.5616 -0.5832
 8784SOL     OW37984   2.590   0.212  11.849 -0.3241  0.2152  0.1179
 8784SOL    HW137985   2.671   0.165  11.832 -0.5666  0.4237 -1.6447
 8784SOL    HW237986   2.560   0.232  11.761 -0.3031  0.0321  0.0701
 8785SOL     OW37987   2.624   4.218  10.593  0.1461  0.0814  0.6921
 8785SOL    HW137988   2.706   4.198  10.638 -0.1782  2.0027  2.1162
 8785SOL    HW237989   2.640   4.308  10.564 -0.5936 -0.4655 -1.4234
 8786SOL     OW37990   2.847   3.544  12.102  0.2021  0.5683  0.5553
 8786SOL    HW137991   2.811   3.490  12.173  1.1456 -0.6291  0.1039
 8786SOL    HW237992   2.875   3.617  12.158 -1.1382  0.8060  0.9256
 8787SOL     OW37993   0.964   0.547   2.674 -0.1416 -0.1566  0.6432
 8787SOL    HW137994   0.963   0.482   2.604 -0.8060 -0.2848  0.7773
 8787SOL    HW237995   0.995   0.491   2.745  0.5387 -3.8012 -2.4882
 8788SOL     OW37996   1.059   1.740   3.178  0.0977  0.6523  0.1432
 8788SOL    HW137997   1.136   1.750   3.234 -0.4286  0.2360  0.9307
 8788SOL    HW237998   1.009   1.685   3.238  0.1657  1.8454  1.3091
 8789SOL     OW37999   2.894   0.628  11.928  0.5210 -0.3406  0.1989
 8789SOL    HW138000   2.841   0.708  11.933  1.4959  0.3689 -0.8575
 8789SOL    HW238001   2.857   0.584  11.851  1.0410 -0.1182 -0.1732
 8790SOL     OW38002   4.095   4.275  16.980 -0.1637  0.1271 -0.0454
 8790SOL    HW138003   4.095   4.283  17.076 -0.0367  2.2863 -0.2124
 8790SOL    HW238004   4.187   4.264  16.956 -0.7554 -1.3189 -1.5927
 8791SOL     OW38005   3.614   1.042  12.807  0.4268  0.3125 -0.0728
 8791SOL    HW138006   3.682   1.103  12.836  0.2623  0.9583 -1.0720
 8791SOL    HW238007   3.556   1.093  12.751 -1.9499 -0.7568  1.4021
 8792SOL     OW38008   1.711   3.449   9.343  0.9424  0.2612  0.5321
 8792SOL    HW138009   1.705   3.542   9.366  0.1284  0.1453  0.7818
 8792SOL    HW238010   1.689   3.450   9.249  1.1952  2.2856  0.4834
 8793SOL     OW38011   3.753   2.623  10.841 -0.0696 -0.9264 -0.7301
 8793SOL    HW138012   3.834   2.608  10.791  1.5952 -0.1388  1.7097
 8793SOL    HW238013   3.715   2.536  10.832 -0.7910 -0.7108  0.1528
 8794SOL     OW38014   4.679   2.716   0.393  0.7278 -0.5104 -0.1872
 8794SOL    HW138015   4.613   2.688   0.330  0.3363  1.7673 -0.8098
 8794SOL    HW238016   4.667   2.811   0.391 -2.1887 -0.9263 -1.6415
 8795SOL     OW38017   2.319   1.035  15.708 -0.5753 -0.3774  0.2288
 8795SOL    HW138018   2.253   0.966  15.702 -0.2364 -0.5079 -2.1366
 8795SOL    HW238019   2.399   0.989  15.684  0.1589 -0.1257  2.2261
 8796SOL     OW38020   4.294   3.927   2.127 -0.0745 -0.2481 -0.4349
 8796SOL    HW138021   4.342   3.852   2.161 -0.1226  0.4560  1.1419
 8796SOL    HW238022   4.208   3.893   2.151 -0.0756  0.3233  0.3489
 8797SOL     OW38023   3.379   2.871   5.292 -0.2691 -0.1306  0.2400
 8797SOL    HW138024   3.298   2.851   5.244 -0.4867 -1.1614  1.0245
 8797SOL    HW238025   3.347   2.848   5.379  0.1698  1.5026  0.8116
 8798SOL     OW38026   3.644   3.389  12.333 -0.1210  0.6765  0.3452
 8798SOL    HW138027   3.671   3.316  12.390 -1.4003 -0.1695 -0.1346
 8798SOL    HW238028   3.571   3.426  12.382 -0.2200 -0.2422  0.8915
 8799SOL     OW38029   3.758   2.902   9.209  0.3872  0.6886  0.0264
 8799SOL    HW138030   3.833   2.960   9.194 -1.6503  3.3770  0.2437
 8799SOL    HW238031   3.791   2.847   9.280 -3.1294  0.2414  1.3055
 8800SOL     OW38032   4.341   4.206   3.419  0.4543  0.2398  0.2392
 8800SOL    HW138033   4.307   4.227   3.332  1.4129  2.6677  0.4520
 8800SOL    HW238034   4.314   4.277   3.477 -0.4923 -1.2294  1.6259
 8801SOL     OW38035   3.811   0.913   9.461  0.4316  0.6131  0.4922
 8801SOL    HW138036   3.865   0.899   9.383  0.0011  0.1348  0.2838
 8801SOL    HW238037   3.732   0.860   9.449  2.1552 -1.7202 -0.4323
 8802SOL     OW38038   1.168   4.163   8.664  0.5127  0.0543 -0.0618
 8802SOL    HW138039   1.210   4.078   8.653  1.0251  0.2554  0.3401
 8802SOL    HW238040   1.248   4.213   8.679  1.9281 -1.7685 -1.6395
 8803SOL     OW38041   0.039   3.427   7.451  0.4316 -0.0399 -0.1862
 8803SOL    HW138042   0.130   3.411   7.477  0.3626 -1.6925 -0.9830
 8803SOL    HW238043   0.040   3.521   7.471  0.1307 -0.6742  2.8124
 8804SOL     OW38044   4.428   1.898  17.619 -0.3730  0.7865  0.0772
 8804SOL    HW138045   4.428   1.966  17.553  0.8992  1.0276  0.3163
 8804SOL    HW238046   4.388   1.931  17.699  0.3371  0.7197  0.4617
 8805SOL     OW38047   1.858   1.968  12.748  0.0908  0.1697  0.1362
 8805SOL    HW138048   1.839   2.056  12.781  1.8072  1.1288 -1.4511
 8805SOL    HW238049   1.822   1.913  12.819  0.7297 -1.9669 -1.1913
 8806SOL     OW38050   4.427   3.990   3.726  0.3293  0.1177 -0.0289
 8806SOL    HW138051   4.495   3.923   3.736  0.3699  0.0270 -0.9038
 8806SOL    HW238052   4.415   3.986   3.631 -2.1410  5.9925  0.0553
 8807SOL     OW38053   2.198   3.736  17.401  0.3287  0.0668  0.3199
 8807SOL    HW138054   2.285   3.696  17.411 -0.2446 -1.4733 -0.9728
 8807SOL    HW238055   2.211   3.826  17.431  1.0535 -0.1915  0.7744
 8808SOL     OW38056   0.352   1.305   0.913 -0.2413 -0.0812  0.2057
 8808SOL    HW138057   0.382   1.392   0.939  0.7078 -0.4371  0.3045
 8808SOL    HW238058   0.395   1.248   0.977  0.4312 -1.6996 -1.6855
 8809SOL     OW38059   3.461   4.351   5.511  0.2331 -0.2886 -0.1833
 8809SOL    HW138060   3.390   4.321   5.567  0.4029  0.4665  0.4412
 8809SOL    HW238061   3.516   4.277   5.537 -1.4940 -1.0282  1.3427
 8810SOL     OW38062   3.605   2.654  14.307  0.3948  0.1428  0.6146
 8810SOL    HW138063   3.622   2.581  14.248 -2.1872  1.1386 -1.4124
 8810SOL    HW238064   3.678   2.715  14.300 -1.6475  2.8203  2.5783
 8811SOL     OW38065   4.554   0.726   4.246  0.2625  0.7090 -0.5224
 8811SOL    HW138066   4.578   0.634   4.242  1.3559  0.8669  2.0645
 8811SOL    HW238067   4.596   0.755   4.165  0.0459  0.4535 -0.7247
 8812SOL     OW38068   2.100   0.106   6.186 -0.5592 -0.2904 -0.7347
 8812SOL    HW138069   2.054   0.189   6.173  1.2532  0.3887 -2.8191
 8812SOL    HW238070   2.034   0.052   6.229 -1.9530  1.4442 -0.6975
 8813SOL     OW38071   2.160   0.362   8.204 -0.4688  0.3139  0.3644
 8813SOL    HW138072   2.121   0.340   8.289 -1.8113 -1.1617 -0.6476
 8813SOL    HW238073   2.236   0.306   8.191  0.3929  1.6023 -0.0783
 8814SOL     OW38074   3.266   2.207   6.589  0.2609 -0.0004 -0.3749
 8814SOL    HW138075   3.198   2.253   6.540 -0.9449  1.3188  2.5436
 8814SOL    HW238076   3.349   2.241   6.556  1.1908 -0.1696  1.7559
 8815SOL     OW38077   4.530   0.977  14.741  0.4717  0.7182  0.1211
 8815SOL    HW138078   4.597   0.939  14.685 -0.2084  0.7936 -0.7549
 8815SOL    HW238079   4.483   0.898  14.769 -0.1650  0.6029 -1.2794
 8816SOL     OW38080   4.245   1.923   3.828 -0.2649 -0.3024 -0.4022
 8816SOL    HW138081   4.193   1.911   3.748 -3.6768  0.8825  1.6420
 8816SOL    HW238082   4.191   1.979   3.883  0.1092  0.9072 -1.2522
 8817SOL     OW38083   3.932   0.515   5.283  0.0008  0.2353  0.4703
 8817SOL    HW138084   3.993   0.442   5.291 -0.1697 -0.0020 -0.3823
 8817SOL    HW238085   3.967   0.547   5.200  3.5673 -2.0694  1.0771
 8818SOL     OW38086   3.920   2.488   6.896 -0.1457 -0.2383 -0.4280
 8818SOL    HW138087   3.969   2.425   6.844  0.5743  0.5210 -0.6573
 8818SOL    HW238088   3.857   2.430   6.940 -0.0567 -1.5189 -1.9676
 8819SOL     OW38089   0.456   0.254   6.423 -1.0074  0.1633  0.1909
 8819SOL    HW138090   0.493   0.237   6.510  2.0751 -2.2601 -1.6257
 8819SOL    HW238091   0.514   0.324   6.392 -3.2901  3.1677  2.6837
 8820SOL     OW38092   2.382   1.536   9.945 -0.5283 -0.0138 -0.0988
 8820SOL    HW138093   2.355   1.519  10.035  4.1883  0.7142  1.4520
 8820SOL    HW238094   2.362   1.630   9.940 -1.3242 -0.1662  0.2402
 8821SOL     OW38095   1.284   0.776   4.771 -0.0680  0.3500  0.3253
 8821SOL    HW138096   1.288   0.840   4.700 -0.3901  1.5439  1.3834
 8821SOL    HW238097   1.359   0.722   4.747 -1.1239 -1.4804  1.1123
 8822SOL     OW38098   3.514   0.129  15.904 -1.0789 -0.0092  0.6698
 8822SOL    HW138099   3.433   0.084  15.883 -0.6179 -0.9701  0.9484
 8822SOL    HW238100   3.488   0.183  15.979  0.2505  1.4132  0.1018
 8823SOL     OW38101   2.266   3.352   9.695  0.3080  0.3343  0.0120
 8823SOL    HW138102   2.176   3.327   9.676 -0.0762  1.3957  0.4162
 8823SOL    HW238103   2.258   3.372   9.789 -0.7779 -0.1072  0.0126
 8824SOL     OW38104   1.647   1.774   2.466  0.5415  0.0304  0.0222
 8824SOL    HW138105   1.732   1.731   2.478  1.3323  1.3561 -0.7574
 8824SOL    HW238106   1.589   1.720   2.520 -2.3559  0.8113 -2.3679
 8825SOL     OW38107   0.667   1.609  11.299 -0.1140 -0.4796  0.6365
 8825SOL    HW138108   0.675   1.550  11.225 -2.4618  1.1529 -0.8937
 8825SOL    HW238109   0.573   1.605  11.313 -0.3090 -1.3835 -0.9995
 8826SOL     OW38110   1.176   1.426   9.934 -0.4490  0.1950 -0.0972
 8826SOL    HW138111   1.154   1.345   9.980  2.3039 -0.5953 -0.2146
 8826SOL    HW238112   1.270   1.419   9.919 -0.4504 -0.7767  0.3226
 8827SOL     OW38113   2.683   3.898  16.209  0.2004 -0.2387 -0.3748
 8827SOL    HW138114   2.689   3.803  16.215  0.9958 -0.1444  0.4243
 8827SOL    HW238115   2.746   3.924  16.142 -0.6731 -1.0563 -1.5097
 8828SOL     OW38116   2.567   3.169  11.112  0.4363  0.9951 -0.0406
 8828SOL    HW138117   2.643   3.227  11.099  1.7153 -0.5041  0.8396
 8828SOL    HW238118   2.602   3.100  11.055 -1.3344 -0.0573  0.1718
 8829SOL     OW38119   4.198   0.581   8.127 -0.2912 -0.3409  0.1733
 8829SOL    HW138120   4.133   0.579   8.057  1.4364  0.5648 -1.4458
 8829SOL    HW238121   4.141   0.577   8.204  1.0078  0.6625  1.1863
 8830SOL     OW38122   2.339   4.461  10.753 -0.7649  0.0243  0.4723
 8830SOL    HW138123   2.341   4.402  10.829  0.6018  0.7144  0.9773
 8830SOL    HW238124   2.390   4.528  10.800  0.6079 -1.1733  0.7137
 8831SOL     OW38125   2.827   3.383   7.378  0.1437  0.4643 -0.1177
 8831SOL    HW138126   2.811   3.422   7.292  1.4472  0.7796 -0.2178
 8831SOL    HW238127   2.901   3.326   7.355 -0.6840 -1.1790  1.2515
 8832SOL     OW38128   0.211   3.452  15.355 -0.9454 -0.2481  0.8403
 8832SOL    HW138129   0.168   3.423  15.275 -0.4358  0.1913  0.4028
 8832SOL    HW238130   0.211   3.544  15.329  0.4165 -0.6356 -0.5165
 8833SOL     OW38131   3.612   0.023  17.439  0.3402  0.5370  0.1754
 8833SOL    HW138132   3.591   4.674  17.473 -2.1784  1.1559  0.1993
 8833SOL    HW238133   3.660   0.057  17.515 -2.6382  3.2431  0.8517
 8834SOL     OW38134   3.138   1.253   3.810 -0.2372  0.4470 -0.1818
 8834SOL    HW138135   3.116   1.166   3.842  3.9003  0.0281  1.4901
 8834SOL    HW238136   3.055   1.272   3.766 -0.8988  2.1237  1.7680
 8835SOL     OW38137   1.800   3.131   6.781  0.4056 -0.1373 -0.3358
 8835SOL    HW138138   1.711   3.098   6.767 -0.0085  0.6292  0.4556
 8835SOL    HW238139   1.849   3.087   6.712  1.9964 -0.7163  1.1834
 8836SOL     OW38140   0.078   0.769  11.149 -0.3094 -0.5519  0.2418
 8836SOL    HW138141   0.110   0.849  11.108 -1.0218 -0.7682 -0.7155
 8836SOL    HW238142   0.010   0.805  11.207 -1.4909 -1.2319 -0.7305
 8837SOL     OW38143   1.634   0.202   2.582  0.2708 -0.2093 -0.1156
 8837SOL    HW138144   1.561   0.162   2.630  2.6726 -1.6301  2.3214
 8837SOL    HW238145   1.619   0.150   2.503 -2.3311 -1.1402  0.9835
 8838SOL     OW38146   4.376   1.020  16.097  0.2741 -0.5434  0.1133
 8838SOL    HW138147   4.335   0.937  16.070  1.6674 -1.2706  0.2596
 8838SOL    HW238148   4.464   1.014  16.061  0.1936  1.5138 -0.4188
 8839SOL     OW38149   0.904   0.232   7.860 -0.2456  0.0495 -0.1266
 8839SOL    HW138150   0.841   0.287   7.812 -0.2668  1.4633  1.5286
 8839SOL    HW238151   0.920   0.172   7.787 -3.1017 -1.6191  0.5906
 8840SOL     OW38152   0.518   2.331  13.541 -0.3613 -1.0095  0.7959
 8840SOL    HW138153   0.501   2.418  13.578 -0.8290  0.6475 -3.3081
 8840SOL    HW238154   0.546   2.351  13.452 -3.0176 -0.7889  0.0301
 8841SOL     OW38155   3.315   4.359  14.119  0.2504 -0.3944  0.1554
 8841SOL    HW138156   3.299   4.288  14.181  4.0316 -2.7468 -1.5395
 8841SOL    HW238157   3.248   4.340  14.053  0.0961 -2.5820  0.9262
 8842SOL     OW38158   0.023   2.928   1.950  0.6180 -0.7595  0.1678
 8842SOL    HW138159   4.705   2.888   1.884  0.6536 -0.9274  0.2378
 8842SOL    HW238160   0.092   2.864   1.970 -0.9786 -2.8084 -0.8366
 8843SOL     OW38161   1.806   0.584   8.798 -0.4925 -0.2842  1.2628
 8843SOL    HW138162   1.796   0.637   8.878 -1.3552  0.8095  0.4381
 8843SOL    HW238163   1.720   0.589   8.757 -0.2369 -1.9898  0.5354
 8844SOL     OW38164   4.044   1.228   6.220  0.6181 -0.1531 -0.4944
 8844SOL    HW138165   3.956   1.239   6.256 -0.4037  3.4812 -4.1939
 8844SOL    HW238166   4.044   1.283   6.143 -0.9522 -0.4284 -0.6962
 8845SOL     OW38167   0.857   4.607   7.196  0.0409 -0.2575  0.2287
 8845SOL    HW138168   0.866   4.517   7.227  0.8123  0.1393  1.1512
 8845SOL    HW238169   0.941   4.651   7.209  0.4689 -1.1016  0.3084
 8846SOL     OW38170   3.744   3.927   7.745  0.3935 -0.7154  0.5342
 8846SOL    HW138171   3.817   3.981   7.712  0.1685 -0.8280 -0.1441
 8846SOL    HW238172   3.750   3.958   7.836 -1.1843  1.0589  0.0236
 8847SOL     OW38173   0.462   1.497   1.773  0.3916 -0.3600  0.0236
 8847SOL    HW138174   0.474   1.417   1.723  1.7439 -0.2859  0.2331
 8847SOL    HW238175   0.504   1.472   1.855 -0.0016  1.3589  0.7395
 8848SOL     OW38176   0.026   3.177   4.830  0.1978 -0.4496 -0.0963
 8848SOL    HW138177   0.106   3.144   4.788 -0.0032 -1.1366  0.0636
 8848SOL    HW238178   4.702   3.108   4.806  1.3048 -2.0543  1.5933
 8849SOL     OW38179   2.174   4.541   6.276 -0.4347  0.3385  0.5644
 8849SOL    HW138180   2.145   4.498   6.196  0.8313  1.0168 -0.2669
 8849SOL    HW238181   2.091   4.585   6.294 -2.2282 -2.8418 -0.0319
 8850SOL     OW38182   0.043   2.679   8.006 -0.1362  0.2572  0.0610
 8850SOL    HW138183   0.022   2.743   8.075 -0.3172 -1.7180  1.8403
 8850SOL    HW238184   0.063   2.741   7.936 -2.3793 -1.4065 -2.0183
 8851SOL     OW38185   1.891   0.839  10.157 -0.3754 -0.5884  0.1182
 8851SOL    HW138186   1.983   0.831  10.181  0.2381  1.0198 -1.6393
 8851SOL    HW238187   1.862   0.748  10.151 -0.1968 -0.6852  0.8155
 8852SOL     OW38188   3.523   0.397   2.411 -0.0092  0.5243  0.5563
 8852SOL    HW138189   3.562   0.310   2.401  1.6873  1.3447 -0.0029
 8852SOL    HW238190   3.597   0.453   2.388 -2.5868  3.4127 -0.7321
 8853SOL     OW38191   3.074   1.618   5.257 -0.1233 -0.1530 -0.4519
 8853SOL    HW138192   3.164   1.585   5.259 -0.1068 -0.1171 -0.6576
 8853SOL    HW238193   3.036   1.546   5.307 -1.3481  1.0259  0.3166
 8854SOL     OW38194   4.198   0.695   2.161 -0.5944  0.3262  0.9323
 8854SOL    HW138195   4.127   0.673   2.101  0.4412 -1.0942  0.2351
 8854SOL    HW238196   4.272   0.699   2.101 -0.7968 -0.0876  0.6548
 8855SOL     OW38197   3.522   2.667   8.423  0.4396  0.4083 -0.0337
 8855SOL    HW138198   3.585   2.630   8.362 -0.3498 -1.4461  0.2792
 8855SOL    HW238199   3.529   2.759   8.396 -1.3385  0.1258 -1.4585
 8856SOL     OW38200   2.802   2.788   3.497  0.3622  0.7470  0.3802
 8856SOL    HW138201   2.727   2.732   3.477  1.8618 -0.3363 -2.1874
 8856SOL    HW238202   2.763   2.840   3.567 -1.5849  0.1163 -0.2223
 8857SOL     OW38203   1.864   0.495  14.496  0.2689 -0.0661 -0.4378
 8857SOL    HW138204   1.875   0.422  14.434  0.6236 -2.8608  2.9148
 8857SOL    HW238205   1.899   0.457  14.577  0.8458  2.6894  0.5865
 8858SOL     OW38206   4.276   0.499   4.126  0.4278  0.3535  0.3294
 8858SOL    HW138207   4.245   0.580   4.165  1.4211  1.0595 -0.3397
 8858SOL    HW238208   4.363   0.496   4.165 -0.2163 -1.1381  1.6773
 8859SOL     OW38209   0.319   1.410   5.106  0.5128  0.5536  0.5660
 8859SOL    HW138210   0.275   1.356   5.172  4.2544 -2.5041  0.5029
 8859SOL    HW238211   0.293   1.373   5.022 -2.4167  0.9165  1.2826
 8860SOL     OW38212   3.903   2.685  12.056 -0.2768 -0.2100  0.9996
 8860SOL    HW138213   3.978   2.642  12.015 -0.6895 -0.5912  0.6401
 8860SOL    HW238214   3.864   2.723  11.977 -2.0366 -2.7970  0.6012
 8861SOL     OW38215   3.210   2.366   8.637  0.2854 -0.4900 -0.2340
 8861SOL    HW138216   3.142   2.315   8.681  0.6542  1.1556  2.2419
 8861SOL    HW238217   3.275   2.368   8.708 -1.4913 -1.7972  1.4173
 8862SOL     OW38218   2.965   0.183   8.093 -0.3477 -0.2108  0.3899
 8862SOL    HW138219   2.939   0.241   8.022  0.2462 -0.6723 -0.2110
 8862SOL    HW238220   2.986   0.102   8.046 -1.2935 -0.3608  0.2359
 8863SOL     OW38221   0.457   3.002  11.434 -0.1048 -0.4849  0.4858
 8863SOL    HW138222   0.529   3.041  11.385 -0.9030  0.8570  0.3827
 8863SOL    HW238223   0.424   3.072  11.490  0.1685  0.0002  0.0269
 8864SOL     OW38224   1.697   1.751   6.422  0.2101 -0.2812  0.1340
 8864SOL    HW138225   1.693   1.808   6.346  1.9223  1.2575  1.1914
 8864SOL    HW238226   1.786   1.766   6.454 -0.7714 -0.9554  3.2317
 8865SOL     OW38227   3.127   0.313   1.643 -0.1618 -0.0094 -0.9745
 8865SOL    HW138228   3.128   0.337   1.736  2.4321 -0.4483 -0.8798
 8865SOL    HW238229   3.118   0.401   1.606  1.6530  0.7329  0.3027
 8866SOL     OW38230   0.300   2.445   5.243 -0.1451 -0.0178  0.2705
 8866SOL    HW138231   0.265   2.490   5.319 -0.9634  0.7056 -0.5298
 8866SOL    HW238232   0.376   2.401   5.280 -0.9220 -0.2587  1.5708
 8867SOL     OW38233   2.928   4.020   7.395 -0.1665  0.2767 -0.4210
 8867SOL    HW138234   2.939   4.045   7.303 -1.7520  1.2628 -0.3468
 8867SOL    HW238235   2.835   3.996   7.395  0.5033 -2.3350  2.8798
 8868SOL     OW38236   2.991   1.770  16.736  0.0576 -0.1241  0.3970
 8868SOL    HW138237   2.949   1.834  16.793  0.6255 -0.1570  0.8527
 8868SOL    HW238238   3.040   1.832  16.681 -1.7337 -1.5449 -2.8381
 8869SOL     OW38239   0.094   1.329   8.935 -0.2508 -0.0455  0.3532
 8869SOL    HW138240   0.015   1.375   8.905 -1.8543 -1.2902  2.5845
 8869SOL    HW238241   0.065   1.238   8.928 -1.2732  0.3103 -0.1529
 8870SOL     OW38242   3.271   1.054   8.793 -0.1391  0.3967  0.8583
 8870SOL    HW138243   3.344   1.053   8.730  0.1202 -2.6370  1.1938
 8870SOL    HW238244   3.239   0.968   8.768  0.9110 -0.2821  1.8573
 8871SOL     OW38245   1.075   2.505  10.503 -0.0612  0.2942 -0.2463
 8871SOL    HW138246   1.026   2.503  10.585  1.8556  1.0100  0.9162
 8871SOL    HW238247   1.084   2.410  10.495 -2.4290  0.0400  0.0779
 8872SOL     OW38248   0.576   4.299   7.142 -0.2100  0.1662  0.2525
 8872SOL    HW138249   0.642   4.317   7.209  1.0128 -0.4738 -0.7774
 8872SOL    HW238250   0.564   4.388   7.110  3.2916 -0.5000 -2.8947
 8873SOL     OW38251   4.434   3.644   0.577 -0.9140  0.3509  0.3100
 8873SOL    HW138252   4.427   3.600   0.661  2.0842 -0.0929  0.3252
 8873SOL    HW238253   4.523   3.678   0.578 -0.3971 -1.0186  0.4166
 8874SOL     OW38254   3.134   2.904   3.845  0.7544 -0.2628 -0.4966
 8874SOL    HW138255   3.167   2.993   3.850 -0.7263  0.2775 -0.3318
 8874SOL    HW238256   3.050   2.907   3.800  1.2684 -0.0538 -1.4462
 8875SOL     OW38257   3.339   4.199   2.495  0.6850 -0.5517 -0.1415
 8875SOL    HW138258   3.427   4.177   2.465  0.9427 -0.7196  0.7400
 8875SOL    HW238259   3.294   4.114   2.502 -3.2285  1.5922  0.7814
 8876SOL     OW38260   1.009   3.756   0.713 -0.1397  0.4090 -0.0866
 8876SOL    HW138261   1.021   3.757   0.808  2.2492 -0.2055 -0.3756
 8876SOL    HW238262   1.038   3.846   0.697  0.2905  0.2641 -0.1266
 8877SOL     OW38263   0.026   4.443   3.033  0.0266  0.4615 -0.0064
 8877SOL    HW138264   4.694   4.507   3.031  1.7404  2.3782  0.6201
 8877SOL    HW238265   0.092   4.481   2.975 -0.1639 -2.1806 -1.9978
 8878SOL     OW38266   1.595   0.613   3.536  0.2478 -0.1871 -0.0967
 8878SOL    HW138267   1.625   0.685   3.481  1.0172  0.2071  0.8324
 8878SOL    HW238268   1.624   0.536   3.486  1.2566 -0.9998  1.7221
 8879SOL     OW38269   2.639   1.126   5.591  0.2717  0.2853 -0.2600
 8879SOL    HW138270   2.596   1.111   5.506 -0.5473  0.0987  0.1890
 8879SOL    HW238271   2.566   1.121   5.653  1.0482 -0.6059  0.5765
 8880SOL     OW38272   2.049   2.494   6.395  0.3540 -0.2699  0.2398
 8880SOL    HW138273   2.131   2.465   6.354 -0.3522 -2.0710  0.1252
 8880SOL    HW238274   1.994   2.478   6.318  1.2513 -0.9438 -0.2671
 8881SOL     OW38275   0.583   1.662   1.175 -0.5133 -0.1412 -0.3248
 8881SOL    HW138276   0.577   1.737   1.115 -1.8652  0.7212  0.8990
 8881SOL    HW238277   0.524   1.685   1.247 -1.2746 -0.4896 -0.8350
 8882SOL     OW38278   4.267   2.546  17.423  0.1694 -0.5573  0.0740
 8882SOL    HW138279   4.240   2.456  17.437 -2.1138 -0.2794 -2.6399
 8882SOL    HW238280   4.258   2.557  17.328 -1.9711  0.4015  0.3999
 8883SOL     OW38281   3.241   0.113   7.864 -0.4431  0.4617  0.3955
 8883SOL    HW138282   3.330   0.133   7.837 -0.4079 -1.1859 -0.6843
 8883SOL    HW238283   3.256   0.083   7.954  1.7158  1.9702  0.5109
 8884SOL     OW38284   2.265   3.106   4.337  0.1364 -0.2223  0.3416
 8884SOL    HW138285   2.271   3.186   4.389 -0.4908  1.3714 -2.0599
 8884SOL    HW238286   2.246   3.129   4.246  0.5133  1.2991  0.6498
 8885SOL     OW38287   4.448   4.033   2.414 -0.3197 -0.0722  0.2226
 8885SOL    HW138288   4.439   3.951   2.462 -2.2119 -0.0404 -0.0515
 8885SOL    HW238289   4.505   3.997   2.346 -0.7614  0.3347 -0.3667
 8886SOL     OW38290   0.903   4.446  13.234  0.2489  0.2006 -0.5817
 8886SOL    HW138291   0.966   4.517  13.236 -0.7517  1.1609 -3.0735
 8886SOL    HW238292   0.848   4.479  13.163 -0.4435 -0.9910 -0.5927
 8887SOL     OW38293   4.660   2.574   1.769 -0.4638 -0.0053 -0.5152
 8887SOL    HW138294   4.565   2.563   1.758 -0.6025 -0.8412  1.5024
 8887SOL    HW238295   4.678   2.657   1.725  1.2473 -0.7403 -1.1995
 8888SOL     OW38296   3.020   1.209   2.045  0.0836 -0.2310 -0.0519
 8888SOL    HW138297   3.045   1.294   2.009 -2.7050  0.6971  0.2221
 8888SOL    HW238298   3.080   1.151   1.998  2.0010  1.0801  0.7850
 8889SOL     OW38299   4.165   3.189  17.509  0.1502  0.5060  0.8506
 8889SOL    HW138300   4.218   3.269  17.510 -0.5239  1.0050 -2.0967
 8889SOL    HW238301   4.089   3.213  17.562 -1.6020 -0.1228 -1.3636
 8890SOL     OW38302   2.926   3.165   6.327  0.1667  0.3862 -0.3197
 8890SOL    HW138303   2.864   3.235   6.343  0.1817  0.3622 -0.1478
 8890SOL    HW238304   2.923   3.155   6.232  1.6892  1.2489 -0.4685
 8891SOL     OW38305   3.867   1.883   1.972  0.3428  0.0352 -0.1792
 8891SOL    HW138306   3.829   1.961   2.014  0.4817 -1.0169  1.8977
 8891SOL    HW238307   3.956   1.910   1.952  0.7318  0.4127  2.0801
 8892SOL     OW38308   0.976   1.836   7.880 -0.3662  0.5820 -0.1464
 8892SOL    HW138309   0.965   1.905   7.815 -0.2479  0.6662 -0.0755
 8892SOL    HW238310   0.962   1.866   7.970  0.8644 -1.4456  0.7127
 8893SOL     OW38311   0.754   1.775  16.192 -0.1153 -0.6561 -0.2083
 8893SOL    HW138312   0.792   1.841  16.133 -2.1994  0.7026 -0.0228
 8893SOL    HW238313   0.735   1.833  16.265  0.1189 -1.6470  0.6462
 8894SOL     OW38314   3.142   0.790  16.857  0.4074 -0.0759 -0.5290
 8894SOL    HW138315   3.157   0.704  16.896 -0.7909  0.0113  0.1287
 8894SOL    HW238316   3.087   0.780  16.779  1.1165 -0.4235 -0.9802
 8895SOL     OW38317   0.759   1.780  16.657  0.5271 -0.5766 -0.0161
 8895SOL    HW138318   0.852   1.802  16.665  0.6158 -1.1028  0.4086
 8895SOL    HW238319   0.742   1.715  16.725 -0.4098 -3.0319 -2.6009
 8896SOL     OW38320   2.627   1.855   3.720 -0.0175 -0.1507 -0.2661
 8896SOL    HW138321   2.635   1.813   3.806 -3.0691  0.8519  0.4820
 8896SOL    HW238322   2.721   1.858   3.701  0.4906  1.4492  2.5503
 8897SOL     OW38323   1.113   0.733   3.564 -0.6463  0.0909  0.6763
 8897SOL    HW138324   1.046   0.754   3.629 -1.6826 -2.3159  0.4071
 8897SOL    HW238325   1.193   0.764   3.607 -0.8378  0.8623  0.4557
 8898SOL     OW38326   3.831   3.445   2.472 -0.2294  0.0773  0.1678
 8898SOL    HW138327   3.768   3.444   2.545  0.3330 -0.7533  0.6294
 8898SOL    HW238328   3.764   3.459   2.405 -0.7788 -1.1609  0.4543
 8899SOL     OW38329   2.264   2.667   0.431  0.1803 -0.2949  0.2290
 8899SOL    HW138330   2.286   2.739   0.491  2.0447  0.1887 -1.0304
 8899SOL    HW238331   2.314   2.699   0.356 -0.8060  3.3397  1.1058
 8900SOL     OW38332   3.805   3.198   0.794  0.4073 -0.2939 -0.3046
 8900SOL    HW138333   3.722   3.206   0.745  0.8132  3.5151 -0.3009
 8900SOL    HW238334   3.875   3.200   0.729 -2.0052 -0.6811 -2.9360
 8901SOL     OW38335   0.651   4.001   2.248 -0.5014 -0.1881  0.0216
 8901SOL    HW138336   0.707   4.057   2.194 -1.5822  0.6040 -0.2658
 8901SOL    HW238337   0.580   3.983   2.186 -0.1540  1.1899 -0.7781
 8902SOL     OW38338   3.822   0.182  10.424 -0.2454 -0.1996 -0.2323
 8902SOL    HW138339   3.746   0.168  10.368 -0.3901 -1.5726  0.3089
 8902SOL    HW238340   3.831   0.277  10.417 -0.3459 -0.2101 -0.4880
 8903SOL     OW38341   2.572   3.645  17.571  0.6228  0.0449 -0.1052
 8903SOL    HW138342   2.625   3.669  17.496 -0.8351  1.1696 -0.7893
 8903SOL    HW238343   2.589   3.726  17.619 -0.9980  0.5533 -0.3870
 8904SOL     OW38344   2.947   3.843   1.625 -0.0089  0.1980 -0.2689
 8904SOL    HW138345   2.853   3.837   1.614 -0.1627  1.0937  0.5642
 8904SOL    HW238346   2.952   3.818   1.717  3.6240 -1.8998 -1.0281
 8905SOL     OW38347   2.774   2.617   2.442  0.5528 -0.4598 -0.2227
 8905SOL    HW138348   2.702   2.601   2.381  0.0177  0.8305  0.0593
 8905SOL    HW238349   2.776   2.713   2.443 -0.3246 -0.4606  0.9514
 8906SOL     OW38350   3.165   2.710   6.229 -0.2452  0.4343 -0.6826
 8906SOL    HW138351   3.197   2.643   6.168  2.9014  1.4379 -0.1187
 8906SOL    HW238352   3.092   2.666   6.272 -0.2911  0.5975 -0.5948
 8907SOL     OW38353   4.565   0.165  15.294  0.3522  0.1265 -0.4064
 8907SOL    HW138354   4.623   0.152  15.219 -1.0255 -2.8602 -0.9130
 8907SOL    HW238355   4.534   0.253  15.270 -2.1667 -0.3536  1.0995
 8908SOL     OW38356   1.351   2.854   9.038  1.1626  0.2257 -0.4512
 8908SOL    HW138357   1.328   2.762   9.050 -0.7197  0.8550  0.9181
 8908SOL    HW238358   1.342   2.873   8.945  1.3932  0.3449 -0.4475
 8909SOL     OW38359   1.007   3.671   5.606 -0.3782  0.3675  0.6476
 8909SOL    HW138360   1.102   3.686   5.608 -0.5127  1.4072 -1.1556
 8909SOL    HW238361   0.973   3.719   5.681 -0.4435  0.3429  0.6337
 8910SOL     OW38362   2.929   0.297   6.942 -0.5869  0.5876  0.1802
 8910SOL    HW138363   2.934   0.354   6.865  0.6371  1.5042  0.9209
 8910SOL    HW238364   2.962   0.351   7.014 -0.3415  1.1811 -0.3738
 8911SOL     OW38365   4.627   4.406   3.760  0.4127 -0.0886  0.5793
 8911SOL    HW138366   4.661   4.495   3.766 -1.8479  0.7894  0.3323
 8911SOL    HW238367   4.603   4.388   3.851  0.3940  1.9216  0.9686
 8912SOL     OW38368   0.402   2.708   8.940 -0.0290  0.2730 -0.0574
 8912SOL    HW138369   0.382   2.761   9.018 -4.2693  0.3247 -1.1824
 8912SOL    HW238370   0.498   2.703   8.940 -0.0854 -0.8127  0.4608
 8913SOL     OW38371   3.923   2.176   4.947  0.2120 -0.4512 -0.8403
 8913SOL    HW138372   3.887   2.087   4.955 -1.0778  0.5770  4.3513
 8913SOL    HW238373   3.848   2.218   4.904  1.9175  1.1677 -2.1824
 8914SOL     OW38374   1.984   3.410   5.896  0.7749 -0.3458 -0.5173
 8914SOL    HW138375   2.059   3.363   5.934  1.1465  0.3664 -0.3726
 8914SOL    HW238376   1.937   3.439   5.975  0.2162  0.4287 -1.1370
 8915SOL     OW38377   3.790   2.850   7.746  0.7524  0.0359 -0.6748
 8915SOL    HW138378   3.838   2.793   7.807  1.5790 -0.1064 -1.4567
 8915SOL    HW238379   3.751   2.785   7.689 -0.1457  0.4331 -0.5088
 8916SOL     OW38380   4.579   3.615   8.081  0.0994  0.4852  0.2334
 8916SOL    HW138381   4.515   3.632   8.012 -0.4715 -1.4348  0.2880
 8916SOL    HW238382   4.521   3.626   8.156  0.6532  2.2495  0.3975
 8917SOL     OW38383   3.226   1.238   7.666 -0.8753  0.0093  0.6233
 8917SOL    HW138384   3.314   1.258   7.699 -1.3522  2.1158  0.6140
 8917SOL    HW238385   3.220   1.278   7.579 -1.2947 -0.4575  0.4400
 8918SOL     OW38386   0.262   3.894  15.048  0.2694 -0.5500 -0.0825
 8918SOL    HW138387   0.201   3.962  15.074 -0.8498 -1.2848 -0.7864
 8918SOL    HW238388   0.256   3.908  14.953 -1.6863 -4.8136 -0.6192
 8919SOL     OW38389   2.834   4.569   1.311 -0.3290  0.0778  0.0555
 8919SOL    HW138390   2.885   4.490   1.324  0.9510  0.9298  0.2726
 8919SOL    HW238391   2.898   4.640   1.318 -1.3249  0.8817  0.9905
 8920SOL     OW38392   4.261   0.528   5.625 -0.0708 -0.3370  0.4245
 8920SOL    HW138393   4.351   0.510   5.597  0.0565  0.6217  0.2343
 8920SOL    HW238394   4.266   0.622   5.636 -2.5511 -0.2573  0.9026
 8921SOL     OW38395   0.122   2.349   6.702 -0.5624 -0.3391  0.3501
 8921SOL    HW138396   0.094   2.432   6.663  0.9171  0.4186  0.9151
 8921SOL    HW238397   0.193   2.322   6.644 -1.1767 -0.2341 -0.4507
 8922SOL     OW38398   3.893   2.407   5.144  0.0065  0.5348  0.4882
 8922SOL    HW138399   3.909   2.318   5.112  0.5734  0.5006  0.8686
 8922SOL    HW238400   3.854   2.452   5.069  0.2793 -0.8937 -0.5094
 8923SOL     OW38401   1.953   0.570   2.632  0.7314  0.2544  0.0931
 8923SOL    HW138402   1.895   0.503   2.669  0.1828 -0.0743 -1.3872
 8923SOL    HW238403   1.935   0.634   2.701  0.0621 -0.0551  0.1971
 8924SOL     OW38404   0.260   3.576   5.483 -0.0622 -0.3385  1.1770
 8924SOL    HW138405   0.226   3.487   5.487 -0.5987 -0.1705  0.4196
 8924SOL    HW238406   0.350   3.563   5.452 -0.7367  0.8849 -1.2772
 8925SOL     OW38407   3.499   1.811   4.196 -0.4559 -0.3228  0.3856
 8925SOL    HW138408   3.435   1.874   4.162  2.2115  0.8134 -2.4702
 8925SOL    HW238409   3.482   1.744   4.130  1.0774  1.6149 -1.9449
 8926SOL     OW38410   3.438   1.712   9.193 -0.3974  0.4180  0.3080
 8926SOL    HW138411   3.357   1.665   9.212  0.4295 -1.0999  0.0199
 8926SOL    HW238412   3.415   1.791   9.242  1.1201 -0.7502  2.9056
 8927SOL     OW38413   2.529   1.115   2.181  0.0947  0.1914  0.0311
 8927SOL    HW138414   2.481   1.179   2.129 -1.2261  0.9681  2.2367
 8927SOL    HW238415   2.486   1.118   2.266 -1.5674  0.7515 -0.8378
 8928SOL     OW38416   4.583   2.089   2.535 -0.3716 -0.0358  0.1552
 8928SOL    HW138417   4.512   2.152   2.525 -0.1191  0.0390 -1.3037
 8928SOL    HW238418   4.538   2.007   2.514  0.9448 -0.9538  0.8541
 8929SOL     OW38419   3.442   0.055   0.415 -0.0164  0.0326 -0.7239
 8929SOL    HW138420   3.510   0.107   0.371  1.1387  0.4832  1.5658
 8929SOL    HW238421   3.460   4.706   0.382 -0.7574 -0.0731 -0.8282
 8930SOL     OW38422   0.855   4.170   1.563 -0.2745 -0.4343  0.2785
 8930SOL    HW138423   0.760   4.169   1.578  0.0199 -1.9508  2.0355
 8930SOL    HW238424   0.891   4.198   1.648 -1.2420 -0.7328  0.7872
 8931SOL     OW38425   2.912   1.933   8.221  0.2419 -0.0976  0.2372
 8931SOL    HW138426   2.852   1.943   8.295 -0.1777 -0.7055 -0.0299
 8931SOL    HW238427   2.938   1.841   8.213 -3.3795 -1.2257  1.2732
 8932SOL     OW38428   4.336   4.134   2.852  0.0827 -0.1421  0.4859
 8932SOL    HW138429   4.280   4.142   2.775  0.9898  2.2003  0.0836
 8932SOL    HW238430   4.309   4.209   2.905  3.6065  1.4629 -0.0758
 8933SOL     OW38431   2.014   1.837  14.620 -0.3955  0.7783  0.1185
 8933SOL    HW138432   2.076   1.909  14.625  0.0106  0.6107 -2.7565
 8933SOL    HW238433   2.047   1.777  14.687 -1.7336 -0.0048  0.0756
 8934SOL     OW38434   3.543   1.770   5.477  0.5067  0.3132 -0.1784
 8934SOL    HW138435   3.585   1.849   5.512 -1.8470  1.3724  0.2938
 8934SOL    HW238436   3.498   1.807   5.401  0.1349 -0.7720 -0.4872
 8935SOL     OW38437   3.474   4.219   0.100  0.5692  0.0758  0.2521
 8935SOL    HW138438   3.455   4.157   0.030  1.2522 -0.6994  0.7518
 8935SOL    HW238439   3.385   4.235   0.131 -0.4807  2.1348 -3.7977
 8936SOL     OW38440   0.940   0.525   7.929 -0.7998  0.0395  0.5342
 8936SOL    HW138441   1.030   0.555   7.945 -0.7706  0.4388 -0.3485
 8936SOL    HW238442   0.951   0.430   7.933 -0.0443  0.1053  0.0322
 8937SOL     OW38443   4.309   2.000   6.023 -0.0108 -0.0303 -1.2503
 8937SOL    HW138444   4.356   1.917   6.013  1.0617  0.3494  0.7107
 8937SOL    HW238445   4.365   2.048   5.962 -0.2191  3.3991  1.2671
 8938SOL     OW38446   2.699   3.940   5.111  0.6839 -0.0347  0.0040
 8938SOL    HW138447   2.776   3.904   5.066 -0.7008 -0.0904 -2.3574
 8938SOL    HW238448   2.717   3.920   5.203  0.5855  1.8261  0.4126
 8939SOL     OW38449   0.424   3.979  11.205 -0.1124 -0.8452 -0.0526
 8939SOL    HW138450   0.347   3.922  11.211  1.6798 -3.1574  1.1681
 8939SOL    HW238451   0.423   4.012  11.294 -3.4202  0.0193 -0.3947
 8940SOL     OW38452   2.081   3.956   3.312 -0.3307 -0.1869  0.5961
 8940SOL    HW138453   2.056   4.048   3.307 -1.5951 -0.5538  0.1952
 8940SOL    HW238454   2.043   3.940   3.398 -0.6610 -0.7474  0.3507
 8941SOL     OW38455   4.166   0.372   4.477 -0.1558  0.1449  0.2133
 8941SOL    HW138456   4.150   0.366   4.571 -0.7744 -1.4721  0.0004
 8941SOL    HW238457   4.212   0.456   4.477  1.3680 -0.7079 -0.2346
 8942SOL     OW38458   2.405   0.242  14.652 -0.3600  0.0981  0.1237
 8942SOL    HW138459   2.487   0.265  14.609 -1.3008  0.3668 -1.5504
 8942SOL    HW238460   2.356   0.193  14.585 -2.0673 -0.4587  1.7732
 8943SOL     OW38461   3.432   4.607   4.678  0.0704 -0.0567 -0.1547
 8943SOL    HW138462   3.447   4.658   4.599 -0.9769  3.8531  2.1412
 8943SOL    HW238463   3.487   4.530   4.665 -0.2670 -0.3826  0.3389
 8944SOL     OW38464   0.451   2.396   8.705  0.1562 -0.1146 -0.2008
 8944SOL    HW138465   0.416   2.483   8.687 -0.2705 -0.6905 -2.1129
 8944SOL    HW238466   0.436   2.356   8.619  0.2458  0.2479 -0.3831
 8945SOL     OW38467   2.725   0.797   2.383 -0.0649 -0.0707  0.0192
 8945SOL    HW138468   2.742   0.720   2.438 -3.1337 -0.0249  1.0104
 8945SOL    HW238469   2.706   0.864   2.448  0.8473 -0.1747  0.3926
 8946SOL     OW38470   0.902   3.297  10.393 -0.3979 -0.5332  0.1029
 8946SOL    HW138471   0.875   3.365  10.331 -2.9120  0.2615  2.0595
 8946SOL    HW238472   0.898   3.342  10.478 -1.8586  0.1008 -0.3075
 8947SOL     OW38473   2.396   1.536   2.013 -0.3360 -0.0918 -0.8771
 8947SOL    HW138474   2.441   1.539   2.097 -2.5291 -1.4546  0.3466
 8947SOL    HW238475   2.383   1.441   2.007  2.2676 -0.6182  1.9198
 8948SOL     OW38476   1.152   1.021   5.487  0.6058 -0.5800  0.1201
 8948SOL    HW138477   1.120   0.962   5.419  3.6435 -0.7165 -1.1712
 8948SOL    HW238478   1.072   1.031   5.539 -0.8715 -0.4734 -2.1857
 8949SOL     OW38479   3.624   2.297   9.013 -0.0326  0.2673 -0.3492
 8949SOL    HW138480   3.597   2.323   8.925 -1.0934  0.0365 -0.0938
 8949SOL    HW238481   3.639   2.203   9.007 -0.3306  0.3584 -2.4950
 8950SOL     OW38482   2.073   2.099   7.004  0.2112 -0.4658 -0.3970
 8950SOL    HW138483   2.097   2.023   6.949  2.3598 -1.1087  1.4429
 8950SOL    HW238484   2.089   2.175   6.948 -0.6034  1.0442  1.4555
 8951SOL     OW38485   0.373   3.749   4.018 -0.5833 -0.5584  0.8516
 8951SOL    HW138486   0.285   3.727   4.051 -1.5110  1.6625 -0.0996
 8951SOL    HW238487   0.416   3.666   4.037  2.1670  0.6088 -0.3118
 8952SOL     OW38488   4.511   3.567   2.629 -0.1733  0.9464  0.2483
 8952SOL    HW138489   4.601   3.561   2.663  0.0775  1.5702 -0.3002
 8952SOL    HW238490   4.480   3.535   2.714 -1.4581  1.6823  0.0571
 8953SOL     OW38491   0.596   3.479   2.742  0.1599 -0.0958 -0.3274
 8953SOL    HW138492   0.646   3.550   2.703 -0.3376 -0.4809 -1.6781
 8953SOL    HW238493   0.604   3.502   2.835 -0.2220 -1.2764  0.0060
 8954SOL     OW38494   3.271   1.680   8.209  0.3455 -0.1198  0.1135
 8954SOL    HW138495   3.312   1.649   8.129  0.6669  0.5187  0.0295
 8954SOL    HW238496   3.299   1.772   8.206 -0.1535  0.0252 -0.1826
 8955SOL     OW38497   3.685   2.417   4.635  0.0540  0.0343  0.0512
 8955SOL    HW138498   3.766   2.468   4.635 -0.6427  1.1540 -0.5083
 8955SOL    HW238499   3.630   2.480   4.588  2.2112  1.1888 -0.9560
 8956SOL     OW38500   3.497   2.893   7.596 -0.4795  0.0883  0.5056
 8956SOL    HW138501   3.479   2.850   7.512  1.0739 -0.6490  0.5604
 8956SOL    HW238502   3.491   2.821   7.659  1.0455  0.8223  1.4787
 8957SOL     OW38503   2.806   2.959   4.094 -0.1608  0.0660 -0.2175
 8957SOL    HW138504   2.722   2.966   4.138 -1.5586 -0.5758 -2.8023
 8957SOL    HW238505   2.810   3.051   4.066 -0.1071 -0.4597 -1.8992
 8958SOL     OW38506   1.432   2.526  10.411 -0.1078 -0.3060 -0.1544
 8958SOL    HW138507   1.401   2.517  10.321  1.0806  0.2419 -0.6182
 8958SOL    HW238508   1.370   2.593  10.440  0.3476 -0.4556  1.1558
 8959SOL     OW38509   3.695   4.638  16.348 -0.1982  0.0970  0.1792
 8959SOL    HW138510   3.758   4.569  16.364 -1.3272 -0.1173  3.8507
 8959SOL    HW238511   3.757   4.711  16.351  0.3442 -0.3319 -0.6402
 8960SOL     OW38512   1.324   1.882   2.658 -0.1548  0.3792  0.2032
 8960SOL    HW138513   1.236   1.914   2.640 -0.5330 -0.7650  0.0605
 8960SOL    HW238514   1.300   1.852   2.745 -0.9895  0.9014  0.1514
 8961SOL     OW38515   3.872   4.377  14.965  0.5322  0.6673 -0.3921
 8961SOL    HW138516   3.793   4.382  14.910  0.0544 -2.4559 -0.0155
 8961SOL    HW238517   3.881   4.282  14.967  0.3577  0.6608  0.0458
 8962SOL     OW38518   1.069   3.027   8.922  0.0955  0.3059  0.4190
 8962SOL    HW138519   1.072   3.074   9.005  1.4833  0.6984  0.1393
 8962SOL    HW238520   0.993   2.970   8.932  1.7106 -1.6505  1.5572
 8963SOL     OW38521   3.126   1.799   5.565 -0.0603  0.3429 -0.4608
 8963SOL    HW138522   3.042   1.753   5.566  0.0495  0.1077 -2.0464
 8963SOL    HW238523   3.188   1.727   5.558  0.4215  0.6142  0.9887
 8964SOL     OW38524   4.518   3.819  17.741  0.0280  0.1803 -0.4713
 8964SOL    HW138525   4.573   3.744  17.718  0.6599  0.4592  0.1478
 8964SOL    HW238526   4.538   3.826   0.081 -1.7489  0.5225 -0.1211
 8965SOL     OW38527   4.339   1.333   4.446  0.4651  0.0420  0.2793
 8965SOL    HW138528   4.260   1.385   4.430  0.7567 -0.7365 -3.6497
 8965SOL    HW238529   4.325   1.261   4.385 -0.4554 -0.6201  1.2611
 8966SOL     OW38530   0.348   1.301   2.030 -0.0798  0.4884  0.6251
 8966SOL    HW138531   0.320   1.383   2.070 -0.8504 -0.1205  1.3220
 8966SOL    HW238532   0.303   1.285   1.947  0.1552  1.6668  0.2731
 8967SOL     OW38533   0.212   3.691   2.945 -0.6431  0.6033 -0.1720
 8967SOL    HW138534   0.233   3.675   2.853 -0.0957 -0.7834  0.1903
 8967SOL    HW238535   0.273   3.761   2.970  2.4397 -2.7874  1.6905
 8968SOL     OW38536   2.015   1.363  16.217  0.0043 -0.7035 -0.1347
 8968SOL    HW138537   1.980   1.365  16.128  0.9411 -0.6864 -0.5071
 8968SOL    HW238538   1.968   1.288  16.255 -0.4328  0.1211  0.9583
 8969SOL     OW38539   3.826   2.243   0.136 -0.4062 -0.0105  0.2499
 8969SOL    HW138540   3.886   2.274   0.204  0.2595  2.6244 -1.5154
 8969SOL    HW238541   3.775   2.321   0.114 -0.5638  0.1209  1.0781
 8970SOL     OW38542   2.225   3.086   8.152  0.9040 -0.4694 -0.5930
 8970SOL    HW138543   2.181   3.087   8.237 -2.0054  0.2600 -2.1058
 8970SOL    HW238544   2.196   3.171   8.119 -1.3020 -1.3189 -0.8785
 8971SOL     OW38545   4.446   0.630  16.783 -0.7197  0.1101  0.4429
 8971SOL    HW138546   4.427   0.693  16.853 -0.1897  0.5424  0.1974
 8971SOL    HW238547   4.364   0.623  16.735 -1.2794 -1.4437  1.6227
 8972SOL     OW38548   0.832   0.498   9.476 -0.1216 -0.6493  0.0710
 8972SOL    HW138549   0.862   0.409   9.496 -2.2066 -1.7033 -1.4262
 8972SOL    HW238550   0.821   0.490   9.381  1.3993 -0.3784 -0.1188
 8973SOL     OW38551   2.363   0.955   8.646  0.7440  0.3305 -0.4479
 8973SOL    HW138552   2.357   0.998   8.561  1.9640 -0.0329 -0.7167
 8973SOL    HW238553   2.392   1.028   8.701 -0.9287 -0.0873  0.9876
 8974SOL     OW38554   4.075   3.857   2.475 -0.3923 -0.6948  0.2520
 8974SOL    HW138555   4.079   3.872   2.381  0.4690 -1.9739  0.0843
 8974SOL    HW238556   4.088   3.763   2.483  1.6441 -0.4444 -0.3834
 8975SOL     OW38557   1.299   4.056   3.986 -1.0158 -0.0402  0.6109
 8975SOL    HW138558   1.273   3.980   3.935  0.7516 -0.5451  0.4613
 8975SOL    HW238559   1.316   4.013   4.070 -2.2846 -1.1731  0.2898
 8976SOL     OW38560   1.204   0.098   4.470  0.4841  0.2510 -0.1649
 8976SOL    HW138561   1.250   0.019   4.442 -1.1845 -0.9945  0.5860
 8976SOL    HW238562   1.262   0.172   4.454  0.1784  0.3118 -1.0160
 8977SOL     OW38563   2.317   1.249   1.700 -0.2427  0.3884  0.2827
 8977SOL    HW138564   2.381   1.182   1.674  0.1793  1.0248 -0.3191
 8977SOL    HW238565   2.314   1.287   1.613 -0.3716  0.0108  0.1244
 8978SOL     OW38566   3.334   1.482   8.390 -0.3508  0.8302 -0.1639
 8978SOL    HW138567   3.343   1.560   8.335  0.3203  0.2050 -0.9313
 8978SOL    HW238568   3.387   1.501   8.467  0.8528  1.2165 -1.0919
 8979SOL     OW38569   3.799   0.520   7.694  0.3349  0.3805  0.0531
 8979SOL    HW138570   3.747   0.443   7.717  4.7016 -1.9643  2.0760
 8979SOL    HW238571   3.771   0.579   7.764 -0.2138  0.9564 -0.6574
 8980SOL     OW38572   0.950   3.021  10.669 -0.2472 -0.6441  0.1034
 8980SOL    HW138573   0.992   3.107  10.661  1.6997 -1.5184  1.1898
 8980SOL    HW238574   0.861   3.040  10.699 -1.3824 -0.9399 -3.0823
 8981SOL     OW38575   3.261   0.976   7.443 -0.7273  0.0593  0.4751
 8981SOL    HW138576   3.214   0.985   7.360 -1.0254  0.1619  0.6535
 8981SOL    HW238577   3.211   0.910   7.493 -0.8476  0.4425  0.8628
 8982SOL     OW38578   0.861   0.421   6.805 -0.3246 -0.1584 -0.0916
 8982SOL    HW138579   0.876   0.477   6.881 -0.8176  0.7218 -0.6478
 8982SOL    HW238580   0.856   0.488   6.737 -0.4100  2.1711  2.2213
 8983SOL     OW38581   2.545   0.611  10.429  0.6411  0.2573  0.0743
 8983SOL    HW138582   2.463   0.605  10.478 -0.6577  2.7465 -1.7492
 8983SOL    HW238583   2.518   0.588  10.340  0.8714 -1.5579  0.4899
 8984SOL     OW38584   1.503   0.400  16.953 -0.6093 -0.2888  0.2731
 8984SOL    HW138585   1.408   0.410  16.956 -0.9023 -2.4181 -1.9416
 8984SOL    HW238586   1.510   0.364  17.041 -0.7349 -3.4169 -0.9921
 8985SOL     OW38587   3.535   2.562   6.044  0.4282  0.5093  0.5647
 8985SOL    HW138588   3.618   2.514   6.040  0.3372  0.4919 -1.1046
 8985SOL    HW238589   3.558   2.651   6.018  0.4084 -0.1118 -1.5652
 8986SOL     OW38590   0.942   4.605   3.721 -0.2632 -0.1466  0.0805
 8986SOL    HW138591   0.856   4.589   3.760  0.5892 -0.7020  1.7717
 8986SOL    HW238592   0.924   4.629   3.630  1.9449  0.0864 -0.2958
 8987SOL     OW38593   1.115   3.275   8.035 -0.5191  0.1559  0.3346
 8987SOL    HW138594   1.208   3.299   8.042  0.3077 -2.5674 -1.6885
 8987SOL    HW238595   1.126   3.203   7.973 -1.1278 -0.5696  1.0793
 8988SOL     OW38596   1.236   3.039  12.598 -0.6929  0.2025  0.1606
 8988SOL    HW138597   1.276   2.960  12.635 -1.0322 -0.9652 -1.9474
 8988SOL    HW238598   1.316   3.090  12.588  1.6227 -2.6007  4.1821
 8989SOL     OW38599   3.509   4.140   2.771  0.2657 -0.0016  0.4778
 8989SOL    HW138600   3.471   4.071   2.717  0.7781 -1.8330  2.4456
 8989SOL    HW238601   3.438   4.145   2.835 -1.5248  0.1363 -1.5388
 8990SOL     OW38602   1.111   4.155   2.322  0.1013 -0.2035 -0.4220
 8990SOL    HW138603   1.200   4.142   2.355 -0.0837 -0.3876 -0.0016
 8990SOL    HW238604   1.102   4.070   2.278  1.1465 -1.4410  1.7481
 8991SOL     OW38605   4.699   1.396   5.639  0.1272  0.0062 -1.0041
 8991SOL    HW138606   0.017   1.438   5.574  0.3518 -1.7198 -1.9294
 8991SOL    HW238607   0.001   1.310   5.645 -0.4396 -0.3068 -1.7212
 8992SOL     OW38608   4.239   0.793  15.986  0.0872  0.5438  0.2662
 8992SOL    HW138609   4.152   0.801  16.025  0.1340  1.2110  0.2299
 8992SOL    HW238610   4.231   0.840  15.903 -1.9221 -0.8458 -0.3033
 8993SOL     OW38611   2.286   3.509  17.539  0.1488  0.1876  0.2200
 8993SOL    HW138612   2.262   3.595  17.575  2.6716  0.5962  0.9571
 8993SOL    HW238613   2.381   3.515  17.553 -0.1833  0.9165  2.1847
 8994SOL     OW38614   3.193   0.572   6.699 -0.7194 -0.1911  0.0863
 8994SOL    HW138615   3.185   0.621   6.617 -0.1421 -0.2623 -0.0137
 8994SOL    HW238616   3.263   0.511   6.676  1.3928  2.1054  0.4889
 8995SOL     OW38617   4.243   3.791  17.650 -0.3923 -0.1681  0.7748
 8995SOL    HW138618   4.337   3.785  17.668 -0.2084 -0.9789 -0.4525
 8995SOL    HW238619   4.221   3.879  17.679 -0.8405 -0.5925  1.7488
 8996SOL     OW38620   0.563   1.604   2.465  0.1494 -0.5067  0.2320
 8996SOL    HW138621   0.523   1.659   2.397  0.7422 -0.8827 -0.4219
 8996SOL    HW238622   0.649   1.607   2.423 -0.8151  2.3594 -1.5716
 8997SOL     OW38623   2.538   0.109   3.342  0.1378 -0.0124 -0.1724
 8997SOL    HW138624   2.538   0.069   3.429  0.8457  1.6615  0.5790
 8997SOL    HW238625   2.453   0.074   3.315  0.3947  0.2422 -1.3038
 8998SOL     OW38626   2.850   3.667   3.117  0.0707  0.3535  0.5992
 8998SOL    HW138627   2.757   3.646   3.125  0.0296 -0.0854 -0.9489
 8998SOL    HW238628   2.869   3.724   3.191 -0.0657  1.1514  0.0282
 8999SOL     OW38629   4.484   0.363   6.627  0.2145  0.0407 -0.0830
 8999SOL    HW138630   4.390   0.376   6.638  0.3736  1.4180 -0.3513
 8999SOL    HW238631   4.515   0.412   6.703  2.5938  0.2167 -1.1586
 9000SOL     OW38632   2.659   0.924   4.765 -0.2928  0.2622  0.0242
 9000SOL    HW138633   2.713   0.998   4.737 -1.3518  1.4061  0.9753
 9000SOL    HW238634   2.670   0.934   4.859  0.6689 -1.6183  0.1063
 9001SOL     OW38635   2.940   3.718   4.122  0.5568 -0.4848 -0.4208
 9001SOL    HW138636   2.932   3.805   4.083  2.0867 -0.5882 -0.9709
 9001SOL    HW238637   2.983   3.664   4.056  2.0405  0.4095 -0.1780
 9002SOL     OW38638   1.405   3.931   4.188 -0.1421 -0.3242 -0.4742
 9002SOL    HW138639   1.456   3.869   4.240 -1.0855 -0.5015  0.2423
 9002SOL    HW238640   1.333   3.937   4.251  0.5799 -0.7787  0.3930
 9003SOL     OW38641   3.166   3.635  12.357 -0.0132 -0.1112  0.6433
 9003SOL    HW138642   3.075   3.654  12.336 -0.1109  1.1134  2.2320
 9003SOL    HW238643   3.175   3.546  12.322  0.5764 -1.0368  3.1754
 9004SOL     OW38644   4.367   1.756   5.791  0.4017  0.0568 -0.2466
 9004SOL    HW138645   4.447   1.795   5.826  0.4930 -0.3620  0.0132
 9004SOL    HW238646   4.331   1.818   5.727 -1.6223 -0.7343  0.1111
 9005SOL     OW38647   4.540   3.045   2.333 -0.2234 -0.7792  0.3753
 9005SOL    HW138648   4.467   3.095   2.369  1.4142  1.6425  0.3418
 9005SOL    HW238649   4.565   3.103   2.261 -0.1155 -1.7091 -0.3417
 9006SOL     OW38650   3.908   1.060  10.909  0.3882 -0.1505  0.0604
 9006SOL    HW138651   3.911   1.028  10.999 -3.6202 -1.0811 -0.1281
 9006SOL    HW238652   3.909   1.153  10.930  0.1108 -0.3169  0.8305
 9007SOL     OW38653   1.554   3.575   3.911  0.4333 -0.4775  0.0701
 9007SOL    HW138654   1.500   3.525   3.851  0.8108 -0.8673  0.0557
 9007SOL    HW238655   1.499   3.605   3.983 -0.7578  0.3392 -1.1858
 9008SOL     OW38656   3.179   4.503   0.484 -0.3455 -0.4226 -0.2459
 9008SOL    HW138657   3.119   4.462   0.546  0.0845 -1.4124 -0.4924
 9008SOL    HW238658   3.209   4.577   0.536 -0.1711 -0.5195 -0.2103
 9009SOL     OW38659   0.433   0.285  12.244  0.2286  0.4178 -0.2056
 9009SOL    HW138660   0.474   0.287  12.330 -3.0717  0.1552  1.3485
 9009SOL    HW238661   0.474   0.208  12.203 -0.4128 -0.4836  0.8329
 9010SOL     OW38662   3.641   1.371   2.435 -0.6163 -0.4784  0.2379
 9010SOL    HW138663   3.660   1.464   2.445 -0.9604 -0.5075  1.1575
 9010SOL    HW238664   3.563   1.374   2.379 -0.1705 -4.0559 -0.6075
 9011SOL     OW38665   4.394   0.144   3.369 -0.4430 -0.0200 -0.0818
 9011SOL    HW138666   4.377   0.223   3.421  0.6424 -0.3217  0.7388
 9011SOL    HW238667   4.359   0.170   3.284  1.1644 -3.1318 -1.7159
 9012SOL     OW38668   4.506   0.696  16.027  0.9003 -0.3282 -0.1876
 9012SOL    HW138669   4.421   0.739  16.037  1.0583  0.1289 -0.8554
 9012SOL    HW238670   4.476   0.634  15.961 -1.7692  0.8750 -0.1253
 9013SOL     OW38671   1.774   0.982   9.187  0.3715 -0.4282  0.3744
 9013SOL    HW138672   1.802   1.025   9.268 -0.5416  0.7280  0.0716
 9013SOL    HW238673   1.681   1.004   9.193 -0.1780 -2.3641 -1.0158
 9014SOL     OW38674   3.846   4.250   7.991 -0.9635 -0.5591  0.3016
 9014SOL    HW138675   3.876   4.283   8.076 -1.2933 -1.2778  0.7065
 9014SOL    HW238676   3.769   4.303   7.972 -0.0771  1.5514  2.5364
 9015SOL     OW38677   1.415   2.772   4.963 -0.2452 -0.4393 -0.0131
 9015SOL    HW138678   1.441   2.684   4.991 -1.9551  0.1177  3.4237
 9015SOL    HW238679   1.360   2.802   5.036  0.7073 -1.8625  1.2731
 9016SOL     OW38680   2.993   2.542  10.111  0.5277 -0.0001 -0.3057
 9016SOL    HW138681   3.074   2.490  10.114  1.7899  2.1629  2.6108
 9016SOL    HW238682   2.977   2.566  10.202 -0.6257 -0.5707 -0.3597
 9017SOL     OW38683   4.245   0.092  10.444 -0.1104 -0.1160  0.6139
 9017SOL    HW138684   4.322   0.036  10.430 -0.7968 -0.4988 -1.7110
 9017SOL    HW238685   4.281   0.171  10.405  0.8038 -0.3754  0.9374
 9018SOL     OW38686   0.602   4.136   9.788 -0.6347 -0.0424  0.5807
 9018SOL    HW138687   0.568   4.212   9.836 -0.2347  0.6538 -0.2298
 9018SOL    HW238688   0.687   4.114   9.826 -0.5063 -0.6077 -0.0278
 9019SOL     OW38689   1.564   1.138   6.500 -0.1445 -0.4417 -0.3727
 9019SOL    HW138690   1.642   1.190   6.519 -0.7820  0.3552  0.0882
 9019SOL    HW238691   1.503   1.174   6.565 -2.6576 -1.0345 -2.4178
 9020SOL     OW38692   2.898   2.934   2.075 -0.3665  0.2208  1.0997
 9020SOL    HW138693   2.938   2.848   2.067 -0.0673  0.4195  0.4749
 9020SOL    HW238694   2.950   2.983   2.140 -0.3381  0.2237  1.0749
 9021SOL     OW38695   3.839   4.457  11.183  0.2331  0.0764 -0.3150
 9021SOL    HW138696   3.815   4.440  11.274  2.7833 -2.2661 -0.0796
 9021SOL    HW238697   3.932   4.457  11.204  0.7337  1.8485 -2.5216
 9022SOL     OW38698   0.498   0.729  14.596 -0.5667 -0.5494 -0.0189
 9022SOL    HW138699   0.437   0.656  14.592 -0.0558 -1.1183  2.5485
 9022SOL    HW238700   0.540   0.702  14.677  0.1292  1.0708  0.1678
 9023SOL     OW38701   2.008   2.284   2.028 -0.2227 -0.5838  0.1451
 9023SOL    HW138702   1.922   2.242   2.026 -0.5390  0.1866 -1.8008
 9023SOL    HW238703   2.011   2.348   2.099  1.1645 -0.1818 -0.2813
 9024SOL     OW38704   2.095   2.046  15.340 -0.4561  0.1368  0.1282
 9024SOL    HW138705   2.041   2.111  15.384 -2.2849  1.0801 -3.5409
 9024SOL    HW238706   2.042   1.968  15.357  0.5497 -0.4104  0.7371
 9025SOL     OW38707   1.398   3.114  12.991 -0.1464  0.0680  0.2551
 9025SOL    HW138708   1.434   3.091  13.077 -1.1259  3.0782  1.4640
 9025SOL    HW238709   1.431   3.035  12.948  0.1179  0.0316  0.5234
 9026SOL     OW38710   3.180   4.342   6.433  0.0206  0.0525 -0.5317
 9026SOL    HW138711   3.111   4.400   6.467 -0.4309 -2.1644  2.3119
 9026SOL    HW238712   3.164   4.352   6.339 -0.3017  1.3599 -0.3421
 9027SOL     OW38713   3.992   3.822   3.960  0.9687 -0.3655 -0.4599
 9027SOL    HW138714   4.010   3.878   4.036  2.2452  0.0453 -1.0691
 9027SOL    HW238715   3.943   3.875   3.897  0.3900 -0.0336  0.2678
 9028SOL     OW38716   3.401   3.029   4.077 -0.4614  0.3665  0.0392
 9028SOL    HW138717   3.306   3.038   4.085 -0.4019  0.6157  0.4640
 9028SOL    HW238718   3.418   2.981   4.158  0.8603 -1.6152 -1.4084
 9029SOL     OW38719   2.542   1.908   8.010  0.4819  0.3534 -0.5470
 9029SOL    HW138720   2.474   1.969   8.038 -1.6254 -2.1086 -0.2921
 9029SOL    HW238721   2.513   1.828   8.053 -0.6755  0.3905 -1.2655
 9030SOL     OW38722   4.330   0.742   5.205 -0.2091 -0.2396  0.4710
 9030SOL    HW138723   4.320   0.649   5.225  2.8799 -0.0792  2.8430
 9030SOL    HW238724   4.420   0.738   5.171 -0.5955 -1.4465 -0.3883
 9031SOL     OW38725   1.329   4.660   1.907 -0.7379 -0.3577 -0.0721
 9031SOL    HW138726   1.292   4.598   1.844  1.6781 -0.1634 -1.6745
 9031SOL    HW238727   1.424   4.648   1.901 -0.7793 -0.6471 -0.1611
 9032SOL     OW38728   4.620   4.244   6.921  0.4996 -0.3458  0.2469
 9032SOL    HW138729   4.655   4.305   6.856  4.5511 -0.1295  2.6839
 9032SOL    HW238730   4.641   4.161   6.878 -0.1608 -0.1450 -0.4630
 9033SOL     OW38731   4.339   0.992   4.845  0.1772  0.0385 -0.3828
 9033SOL    HW138732   4.283   0.918   4.822  1.1477 -0.2677 -1.7286
 9033SOL    HW238733   4.270   1.056   4.863 -1.5364 -2.0127  0.4005
 9034SOL     OW38734   2.653   4.365   5.352  0.0006 -0.1072 -0.0316
 9034SOL    HW138735   2.586   4.374   5.420 -1.0937 -0.0706 -1.1263
 9034SOL    HW238736   2.711   4.441   5.362  0.8086 -0.8036  0.5307
 9035SOL     OW38737   1.153   1.935   4.964 -0.6006 -0.1367  0.3294
 9035SOL    HW138738   1.127   1.892   5.046  2.0172 -2.3109  0.0084
 9035SOL    HW238739   1.219   2.001   4.984 -0.0307 -0.5719 -0.1333
 9036SOL     OW38740   2.139   1.804   3.715  0.4106  0.2772  0.5051
 9036SOL    HW138741   2.189   1.751   3.776 -3.2768 -1.6691  1.8324
 9036SOL    HW238742   2.070   1.839   3.771 -0.0833  1.0408 -0.5646
 9037SOL     OW38743   0.966   0.799   5.800 -0.3089 -0.0464 -0.1081
 9037SOL    HW138744   0.983   0.884   5.758 -0.7974  0.2351  0.2672
 9037SOL    HW238745   1.010   0.815   5.884 -1.9880 -0.0722  0.7608
 9038SOL     OW38746   1.040   2.860  15.979 -0.0750  0.3987 -0.0102
 9038SOL    HW138747   0.996   2.904  16.052  0.4102 -1.3710  1.3416
 9038SOL    HW238748   1.002   2.772  15.972  0.2863  0.1713  0.8722
 9039SOL     OW38749   3.705   0.778   4.097  0.1719  0.0264 -0.4077
 9039SOL    HW138750   3.723   0.694   4.140 -0.4664 -0.2447 -0.6750
 9039SOL    HW238751   3.786   0.820   4.070  1.0658 -0.2975  1.7370
 9040SOL     OW38752   3.437   1.315   5.953  0.1408  0.0593 -0.5273
 9040SOL    HW138753   3.346   1.334   5.974 -0.0763 -4.1082  2.3194
 9040SOL    HW238754   3.413   1.284   5.866  1.7612 -3.5927  0.3005
 9041SOL     OW38755   4.210   4.686   4.752  0.0450  0.5434  0.3194
 9041SOL    HW138756   4.209   4.704   4.846 -0.4294  1.5531  0.1210
 9041SOL    HW238757   4.141   0.005   4.719  0.3323 -0.3064 -1.7906
 9042SOL     OW38758   4.101   4.223  15.419 -0.1004  0.1187 -0.1180
 9042SOL    HW138759   4.041   4.151  15.442 -3.0018  2.6574  0.2837
 9042SOL    HW238760   4.180   4.175  15.395  0.0228  0.2504  0.0245
 9043SOL     OW38761   1.036   0.163  14.613  0.2081 -0.4489 -0.3797
 9043SOL    HW138762   1.086   0.082  14.602  1.7835  0.8432 -2.7858
 9043SOL    HW238763   0.995   0.167  14.526  0.2040 -0.1972 -0.3680
 9044SOL     OW38764   2.328   2.512  15.913  0.2262 -1.0102 -0.1980
 9044SOL    HW138765   2.328   2.607  15.921  1.3667 -1.1503  1.3751
 9044SOL    HW238766   2.400   2.487  15.854  1.9330 -0.0221  1.4454
 9045SOL     OW38767   3.896   2.589   4.622  0.3749  0.3032 -0.4142
 9045SOL    HW138768   3.887   2.647   4.546 -2.2377 -0.5295 -0.7467
 9045SOL    HW238769   3.966   2.627   4.675 -0.5526 -0.4376  1.3315
 9046SOL     OW38770   0.420   1.987   8.619 -0.3192 -0.4413  0.0160
 9046SOL    HW138771   0.416   1.891   8.617 -0.4272 -0.4221 -0.7548
 9046SOL    HW238772   0.512   1.998   8.592  0.0173  1.5325  1.9453
 9047SOL     OW38773   2.098   2.414   4.134  0.2759  0.1638  0.3569
 9047SOL    HW138774   2.151   2.439   4.059 -0.9205 -0.5346 -0.7120
 9047SOL    HW238775   2.135   2.479   4.194  0.5707  0.0490  0.2991
 9048SOL     OW38776   3.167   0.575  15.065  0.0380  0.6349 -0.7574
 9048SOL    HW138777   3.256   0.542  15.056 -0.3735 -0.7401  0.0710
 9048SOL    HW238778   3.183   0.666  15.040 -2.3119  1.7444  1.7953
 9049SOL     OW38779   3.248   4.716   5.521 -0.0692 -0.0753 -0.4454
 9049SOL    HW138780   3.205   4.694   5.438  0.3371 -1.2611 -0.3462
 9049SOL    HW238781   3.323   4.657   5.532 -1.4248 -2.0300 -1.7093
 9050SOL     OW38782   0.341   2.361   0.731  0.4276 -0.1062 -0.5177
 9050SOL    HW138783   0.270   2.315   0.686 -0.1974  0.7341 -0.3764
 9050SOL    HW238784   0.311   2.451   0.743 -0.0696 -0.3126 -0.2165
 9051SOL     OW38785   4.197   4.611   8.458 -0.2365  0.3269 -0.0364
 9051SOL    HW138786   4.198   4.530   8.408  0.5919 -0.2662  0.9423
 9051SOL    HW238787   4.286   4.644   8.447 -0.5545  1.0896 -0.3225
 9052SOL     OW38788   2.827   1.423  14.044  0.3773 -0.3917  0.4826
 9052SOL    HW138789   2.774   1.463  13.975  1.4711 -1.5194 -1.0120
 9052SOL    HW238790   2.756   1.368  14.078 -1.3499  1.1217 -0.7435
 9053SOL     OW38791   4.231   1.834   1.199 -0.7967  0.3883  0.1059
 9053SOL    HW138792   4.324   1.812   1.205 -1.5695 -2.6509  1.0566
 9053SOL    HW238793   4.201   1.818   1.288 -0.3825 -2.3364 -0.2321
 9054SOL     OW38794   4.620   1.018  12.815  0.0790  0.4691 -0.1575
 9054SOL    HW138795   4.605   1.111  12.831  2.2321  0.7248  0.2705
 9054SOL    HW238796   4.692   1.002  12.876 -0.3690 -1.0699 -0.0310
 9055SOL     OW38797   2.080   0.871   6.135  0.1699 -0.2167  0.1509
 9055SOL    HW138798   2.170   0.883   6.167  0.1465 -1.2348  0.5861
 9055SOL    HW238799   2.043   0.955   6.163  0.9853  0.0605  0.4071
 9056SOL     OW38800   0.998   1.567   0.503  0.0559  0.0249  0.2013
 9056SOL    HW138801   0.952   1.570   0.587 -0.5324  0.4012 -0.1317
 9056SOL    HW238802   0.959   1.485   0.473 -2.1623  0.5939  1.5028
 9057SOL     OW38803   3.276   0.437  16.905  0.7097 -0.7084  0.9529
 9057SOL    HW138804   3.249   0.361  16.854 -1.9483  0.5178  0.5233
 9057SOL    HW238805   3.232   0.406  16.984 -0.3376  1.2161  1.1181
 9058SOL     OW38806   1.110   2.643  12.174 -0.6925 -0.4517 -0.0033
 9058SOL    HW138807   1.140   2.693  12.098  0.0251 -2.2723 -0.9190
 9058SOL    HW238808   1.158   2.690  12.242 -1.8329  2.1934 -1.0426
 9059SOL     OW38809   3.077   4.333   4.064  0.2277  0.7174 -0.5590
 9059SOL    HW138810   3.156   4.278   4.070  0.4955  0.8168 -2.9374
 9059SOL    HW238811   3.100   4.415   4.021 -1.0570  1.0459 -0.6036
 9060SOL     OW38812   1.158   4.496   9.037  0.1512 -0.4752  0.1663
 9060SOL    HW138813   1.218   4.467   8.969  1.0876  0.6843  0.4851
 9060SOL    HW238814   1.215   4.565   9.072  0.1516 -0.9566  1.1268
 9061SOL     OW38815   2.662   0.404   4.333  0.2508  0.5585 -0.4256
 9061SOL    HW138816   2.736   0.425   4.390  0.8924 -0.6356 -0.8024
 9061SOL    HW238817   2.609   0.355   4.395 -1.4190  1.6906 -0.9635
 9062SOL     OW38818   3.812   1.868   8.509 -0.0593 -0.2699  0.0101
 9062SOL    HW138819   3.844   1.949   8.470 -2.1704  0.3531 -0.4237
 9062SOL    HW238820   3.879   1.807   8.478 -1.4855 -3.2107  2.7128
 9063SOL     OW38821   4.127   4.465  15.583  0.3666 -0.2036  0.4127
 9063SOL    HW138822   4.128   4.375  15.550  0.4692  0.5047 -1.5026
 9063SOL    HW238823   4.217   4.494  15.571  1.1865 -2.3408  1.4717
 9064SOL     OW38824   1.328   0.466  15.908  0.2414 -0.1769  0.3989
 9064SOL    HW138825   1.402   0.523  15.885 -1.9606  1.8309 -1.7451
 9064SOL    HW238826   1.335   0.403  15.835 -1.9744  1.5805 -1.3439
 9065SOL     OW38827   3.476   0.186  16.993 -0.2514  0.0955 -0.2079
 9065SOL    HW138828   3.560   0.148  17.018  0.7547  1.5124 -1.4250
 9065SOL    HW238829   3.501   0.278  16.987  1.0938 -0.1346  1.9490
 9066SOL     OW38830   2.262   2.872   6.663  0.1980 -0.0728  0.3562
 9066SOL    HW138831   2.228   2.961   6.675 -1.3910 -0.8906  1.9350
 9066SOL    HW238832   2.250   2.851   6.571  1.9520 -0.6885  0.2656
 9067SOL     OW38833   0.988   2.984  12.435  0.3228 -0.5351 -0.1502
 9067SOL    HW138834   0.972   2.890  12.449  0.6381  0.0388  3.9695
 9067SOL    HW238835   1.073   2.994  12.478  0.4681 -0.4497 -0.4601
 9068SOL     OW38836   2.434   2.515   6.752 -0.0823  0.1489  0.4605
 9068SOL    HW138837   2.405   2.561   6.830  1.1600 -1.6142  1.9519
 9068SOL    HW238838   2.353   2.526   6.701  1.8638 -1.2162 -2.9368
 9069SOL     OW38839   0.410   1.592   0.906 -0.1328  0.6479 -0.0327
 9069SOL    HW138840   0.410   1.671   0.960  1.2232 -0.8278  2.1164
 9069SOL    HW238841   0.465   1.613   0.831  1.1299 -0.4674  0.5874
 9070SOL     OW38842   0.562   4.346   8.142 -0.4120  0.2909  0.1082
 9070SOL    HW138843   0.545   4.396   8.062 -1.1524  2.2032  1.4548
 9070SOL    HW238844   0.513   4.266   8.122  0.9418 -0.3878 -0.4432
 9071SOL     OW38845   1.554   3.979   5.553  0.6468 -0.5946 -0.2606
 9071SOL    HW138846   1.550   4.045   5.484 -0.4730 -0.1620  0.2192
 9071SOL    HW238847   1.625   3.933   5.509  0.5318 -1.9792  0.9905
 9072SOL     OW38848   2.225   3.402   6.056 -0.1624  0.4471  0.1879
 9072SOL    HW138849   2.283   3.330   6.079 -0.9195  0.0381  0.8220
 9072SOL    HW238850   2.234   3.454   6.136 -0.7934 -1.6521  1.6274
 9073SOL     OW38851   1.614   2.198   4.554  0.2139 -0.5811 -0.1291
 9073SOL    HW138852   1.537   2.168   4.506  0.3657 -0.8497 -0.2043
 9073SOL    HW238853   1.575   2.274   4.597 -1.5777 -2.2087  1.1194
 9074SOL     OW38854   3.049   0.478   5.287  0.5342  0.0959 -0.7033
 9074SOL    HW138855   3.016   0.390   5.266  1.0476 -0.0236 -0.9945
 9074SOL    HW238856   3.102   0.506   5.212  0.2108  2.3068 -0.0980
 9075SOL     OW38857   3.678   0.306   7.770 -0.3409  0.0593  0.1441
 9075SOL    HW138858   3.689   0.287   7.864 -2.7292  3.1489  1.0366
 9075SOL    HW238859   3.616   0.234   7.755 -1.0289  0.1353  2.5648
 9076SOL     OW38860   0.524   2.355   5.757 -0.0032 -0.3660 -0.3113
 9076SOL    HW138861   0.528   2.403   5.675  0.2034  0.4884  0.2074
 9076SOL    HW238862   0.441   2.374   5.802 -1.1364 -1.2093 -2.0470
 9077SOL     OW38863   0.946   1.450  11.556  0.0716  0.0933 -0.7295
 9077SOL    HW138864   0.930   1.397  11.634 -0.1730  3.2520  1.3704
 9077SOL    HW238865   1.041   1.456  11.566  0.0297 -1.4141  0.5259
 9078SOL     OW38866   2.235   3.278   2.534  0.1529 -0.4972  0.3019
 9078SOL    HW138867   2.312   3.335   2.527 -0.0398 -0.5157 -1.8967
 9078SOL    HW238868   2.191   3.300   2.616 -0.4663  0.5162 -0.3074
 9079SOL     OW38869   0.252   2.646  11.406 -0.0564  0.3449  0.3524
 9079SOL    HW138870   0.299   2.612  11.482 -1.6073 -0.0016  1.1581
 9079SOL    HW238871   0.163   2.611  11.409  0.0635  0.1064  1.1741
 9080SOL     OW38872   3.791   1.642  11.556  0.1780  0.4130 -0.0713
 9080SOL    HW138873   3.768   1.733  11.578 -1.8779 -0.3781  0.9971
 9080SOL    HW238874   3.704   1.607  11.539 -0.8338  1.1404  3.4200
 9081SOL     OW38875   0.503   4.400   9.866  0.0309  0.4071 -0.2584
 9081SOL    HW138876   0.433   4.416   9.803 -0.6037  0.3895  0.4395
 9081SOL    HW238877   0.474   4.445   9.945  0.1488  2.4768 -1.3847
 9082SOL     OW38878   0.368   4.029   6.569 -0.6371  0.2454  0.1228
 9082SOL    HW138879   0.444   3.970   6.568 -0.4742  0.4156  2.5503
 9082SOL    HW238880   0.387   4.105   6.514  1.6298  0.0262  0.6181
 9083SOL     OW38881   3.291   1.879   3.316 -0.1670 -0.0732 -0.1849
 9083SOL    HW138882   3.369   1.930   3.297  0.2753 -1.2639 -1.5400
 9083SOL    HW238883   3.290   1.901   3.409 -0.1347 -0.3311 -0.1245
 9084SOL     OW38884   0.085   0.453   9.488 -0.1864 -0.4944 -0.0435
 9084SOL    HW138885   0.118   0.363   9.488  0.3736 -0.2861 -1.6052
 9084SOL    HW238886   0.004   0.446   9.437  1.0132 -0.5000 -1.9490
 9085SOL     OW38887   2.498   3.248   8.699 -0.2082 -0.0605  0.6663
 9085SOL    HW138888   2.520   3.161   8.665  2.5995  0.1608  1.9617
 9085SOL    HW238889   2.478   3.224   8.790 -0.5997  0.4290  0.7100
 9086SOL     OW38890   3.414   2.408   6.410  0.3076  0.0824  0.1362
 9086SOL    HW138891   3.380   2.453   6.332  0.3702  1.3696  0.8439
 9086SOL    HW238892   3.417   2.481   6.472 -4.0217  0.2185  0.1611
 9087SOL     OW38893   0.350   0.529  14.697 -0.1928  0.0873 -0.4547
 9087SOL    HW138894   0.406   0.457  14.668  1.8899 -0.0875  4.0413
 9087SOL    HW238895   0.317   0.500  14.782 -0.8365  2.0611 -0.0391
 9088SOL     OW38896   0.720   2.710   9.380  0.1952  0.0979 -0.2630
 9088SOL    HW138897   0.748   2.618   9.388 -0.2908  0.0116  0.5614
 9088SOL    HW238898   0.690   2.732   9.469 -1.2630  0.4383 -0.8346
 9089SOL     OW38899   2.947   1.509   3.865 -0.0234 -0.2142 -0.3025
 9089SOL    HW138900   2.910   1.437   3.814 -0.4844  0.5456 -1.0407
 9089SOL    HW238901   3.028   1.534   3.821 -0.5645 -1.6118 -2.0857
 9090SOL     OW38902   1.233   1.836   5.772  0.3021  0.3536 -0.0889
 9090SOL    HW138903   1.301   1.789   5.724  0.1482 -0.0114  0.0533
 9090SOL    HW238904   1.190   1.885   5.702 -0.2365 -0.1324 -0.0974
 9091SOL     OW38905   0.474   2.239  14.783 -0.2807  0.6151 -0.1747
 9091SOL    HW138906   0.408   2.228  14.714  0.4796  2.6193 -1.2015
 9091SOL    HW238907   0.426   2.307  14.832 -1.0519 -1.0014  1.3288
 9092SOL     OW38908   2.085   0.375   2.206  0.0165  0.1191  0.0359
 9092SOL    HW138909   2.076   0.288   2.169  0.3620 -0.4011  1.1819
 9092SOL    HW238910   2.168   0.403   2.168  0.2300 -1.7597 -0.8517
 9093SOL     OW38911   0.805   2.053   1.942  0.2602 -0.3066  0.2463
 9093SOL    HW138912   0.802   2.079   2.034 -1.6709 -2.3143  0.7631
 9093SOL    HW238913   0.854   2.128   1.909 -1.3123 -0.2536 -2.0188
 9094SOL     OW38914   0.556   0.883   9.608 -0.0118  0.6251  0.4389
 9094SOL    HW138915   0.574   0.949   9.541 -1.8678  0.7339  0.0630
 9094SOL    HW238916   0.638   0.833   9.613  0.3528  1.2227  0.5112
 9095SOL     OW38917   1.303   0.079  16.841  0.5308  0.9417  0.0224
 9095SOL    HW138918   1.304   4.733  16.798  1.3479  0.9785 -0.0198
 9095SOL    HW238919   1.325   0.049  16.929 -0.1957  1.9222  0.5437
 9096SOL     OW38920   3.360   4.726   3.581 -0.1938 -0.2272  0.1057
 9096SOL    HW138921   3.272   0.023   3.571 -1.0905 -2.4090  0.1076
 9096SOL    HW238922   3.343   4.649   3.635 -0.1821 -1.2559 -1.3792
 9097SOL     OW38923   3.466   0.060   5.741 -0.2955 -0.2685 -0.0684
 9097SOL    HW138924   3.421   4.719   5.769  0.6038 -1.3263 -1.6069
 9097SOL    HW238925   3.521   0.082   5.816 -0.5209  1.5552 -0.4307
 9098SOL     OW38926   0.940   2.773   8.777  0.5781  0.4230  0.4887
 9098SOL    HW138927   0.921   2.860   8.743  0.3613 -0.0597 -0.6221
 9098SOL    HW238928   0.997   2.731   8.713  0.4295  1.1760 -0.1424
 9099SOL     OW38929   0.983   4.421   0.750  0.2439 -0.4835  0.0038
 9099SOL    HW138930   0.972   4.422   0.655  0.8410 -3.6303 -0.1216
 9099SOL    HW238931   0.928   4.493   0.780 -1.4295 -1.4814 -0.6513
 9100SOL     OW38932   0.269   4.584   2.599  0.5657  0.2010  0.2470
 9100SOL    HW138933   0.351   4.633   2.593  0.2730  0.3669 -2.4816
 9100SOL    HW238934   0.272   4.553   2.508 -1.9062  0.9174 -0.0767
 9101SOL     OW38935   1.284   4.621   5.028  0.2075  0.1705 -0.1285
 9101SOL    HW138936   1.370   4.589   5.055  0.4869  1.9864  1.1346
 9101SOL    HW238937   1.291   4.716   5.026 -0.6695  0.1973 -2.3217
 9102SOL     OW38938   1.022   3.112   6.839  0.1319 -0.2140  0.0914
 9102SOL    HW138939   1.028   3.205   6.815  0.6937 -0.5923 -1.2249
 9102SOL    HW238940   0.955   3.075   6.781 -0.6974 -0.9632  1.5582
 9103SOL     OW38941   4.084   3.133   5.897 -0.0550 -0.4526 -0.4158
 9103SOL    HW138942   4.113   3.180   5.975 -1.4422  0.1969 -0.2917
 9103SOL    HW238943   3.995   3.169   5.894 -0.2257 -0.6697  1.6904
 9104SOL     OW38944   2.287   3.331   4.510 -0.1052  0.7033 -0.2066
 9104SOL    HW138945   2.285   3.406   4.451  0.5351 -0.1036 -1.2677
 9104SOL    HW238946   2.219   3.352   4.574 -0.3636 -1.5372  0.2728
 9105SOL     OW38947   2.112   1.145   3.546 -0.0901  0.4162 -0.4581
 9105SOL    HW138948   2.177   1.083   3.514 -0.2946  0.2636 -0.5807
 9105SOL    HW238949   2.161   1.223   3.520 -0.4238  1.5021  2.2524
 9106SOL     OW38950   3.332   2.177   0.787 -0.2923  0.1102 -0.3156
 9106SOL    HW138951   3.275   2.250   0.761 -1.4478 -0.6229  0.1995
 9106SOL    HW238952   3.397   2.188   0.717 -0.7535  0.4167 -0.7003
 9107SOL     OW38953   0.689   2.373   4.609 -0.1310 -0.3310 -0.2138
 9107SOL    HW138954   0.708   2.415   4.526 -0.1242 -0.3585 -0.2259
 9107SOL    HW238955   0.594   2.376   4.619 -0.0793  0.0994  0.2091
 9108SOL     OW38956   3.789   0.784  12.265 -0.4889 -0.1643 -0.0092
 9108SOL    HW138957   3.717   0.747  12.316 -0.7834 -0.0527 -0.3459
 9108SOL    HW238958   3.769   0.753  12.177 -0.3004 -0.6949  0.1312
 9109SOL     OW38959   2.545   0.256   4.535 -0.0262  1.0047  0.0217
 9109SOL    HW138960   2.608   0.191   4.504  0.3849  0.8192  1.2637
 9109SOL    HW238961   2.459   0.226   4.503 -0.2731  0.6119  1.0512
 9110SOL     OW38962   0.688   3.128   5.013  0.4204  0.4641 -0.6339
 9110SOL    HW138963   0.716   3.040   4.989  1.4693  0.1717  1.6627
 9110SOL    HW238964   0.758   3.183   4.979 -0.2440  1.3953 -0.5041
 9111SOL     OW38965   4.487   1.302   4.669 -0.2237 -0.2934 -0.0108
 9111SOL    HW138966   4.417   1.286   4.606  0.1067 -0.7767 -0.2498
 9111SOL    HW238967   4.428   1.354   4.724 -0.9324 -1.1105  0.0038
 9112SOL     OW38968   0.678   2.557   1.231  0.4826  0.3114 -0.4125
 9112SOL    HW138969   0.645   2.608   1.157 -1.4688 -1.4559 -0.7644
 9112SOL    HW238970   0.761   2.526   1.196  0.0226 -1.3954 -0.0303
 9113SOL     OW38971   4.499   3.397  14.782  0.0455  0.2982 -0.2130
 9113SOL    HW138972   4.432   3.358  14.838  0.4251  1.1339  0.8218
 9113SOL    HW238973   4.521   3.327  14.720 -0.5580  0.1013 -0.2050
 9114SOL     OW38974   3.202   3.672   6.635 -0.4379 -0.0754 -0.5281
 9114SOL    HW138975   3.277   3.713   6.678 -1.9483  1.1629  0.9470
 9114SOL    HW238976   3.210   3.585   6.673 -1.0982 -1.3658 -3.3333
 9115SOL     OW38977   1.304   3.302  15.435 -0.0658 -0.5516 -0.1972
 9115SOL    HW138978   1.290   3.212  15.464  2.8012 -1.7030 -2.3648
 9115SOL    HW238979   1.228   3.308  15.377 -0.7948  0.9479  0.8960
 9116SOL     OW38980   4.279   0.496   3.447 -0.1435 -0.3616  0.5775
 9116SOL    HW138981   4.193   0.490   3.404  0.2970 -1.4720 -0.1692
 9116SOL    HW238982   4.261   0.482   3.539 -1.5296  1.9667  0.6631
 9117SOL     OW38983   4.210   0.688   8.867 -0.5437 -0.0813  0.5779
 9117SOL    HW138984   4.136   0.748   8.864 -1.4811 -1.1487  2.2389
 9117SOL    HW238985   4.250   0.698   8.953 -3.5129 -0.7291  2.0303
 9118SOL     OW38986   1.766   4.023   7.938  0.3711  0.0436 -0.1419
 9118SOL    HW138987   1.708   4.081   7.889  0.8806  1.4562  0.9312
 9118SOL    HW238988   1.816   3.985   7.866  0.2594  0.6915 -0.5603
 9119SOL     OW38989   1.029   1.770   7.489 -0.1742 -0.8910  0.6154
 9119SOL    HW138990   0.991   1.846   7.531  1.0769  0.7299 -1.1701
 9119SOL    HW238991   0.953   1.712   7.484 -1.1189  0.4833 -1.0216
 9120SOL     OW38992   3.583   4.331   8.570  0.3287  0.0402  0.5451
 9120SOL    HW138993   3.587   4.425   8.554 -0.6142 -0.1197 -0.5692
 9120SOL    HW238994   3.672   4.307   8.598  0.4052  2.2022  2.1338
 9121SOL     OW38995   1.212   3.759  10.561  0.1792  0.8857 -0.0712
 9121SOL    HW138996   1.231   3.841  10.515  1.2313  1.2982  1.0957
 9121SOL    HW238997   1.165   3.796  10.636 -0.4645  0.3410 -0.2095
 9122SOL     OW38998   4.435   0.757   5.561  0.2558 -0.4995  0.1369
 9122SOL    HW138999   4.490   0.834   5.563  1.3304 -1.2503 -0.4395
 9122SOL    HW239000   4.473   0.719   5.482 -1.2241 -0.2152 -0.7072
 9123SOL     OW39001   0.459   2.860  10.221 -0.2335  0.6980 -0.4963
 9123SOL    HW139002   0.366   2.840  10.238 -0.1485  2.0095  1.5472
 9123SOL    HW239003   0.490   2.796  10.157  0.1061  0.7075 -0.3383
 9124SOL     OW39004   3.564   4.367   4.733 -0.3286  0.3707  0.6652
 9124SOL    HW139005   3.493   4.323   4.778  0.1505  0.7553  1.7866
 9124SOL    HW239006   3.616   4.290   4.707  2.4702  2.6410 -0.5876
 9125SOL     OW39007   2.131   0.098   5.529 -0.0732  0.3664  0.0972
 9125SOL    HW139008   2.074   0.171   5.556 -2.1736 -1.3394  0.3288
 9125SOL    HW239009   2.128   0.110   5.434 -1.8130  1.5436  0.2882
 9126SOL     OW39010   3.598   2.784   6.978 -0.6062  0.0200  0.0197
 9126SOL    HW139011   3.620   2.807   6.888  0.5647 -1.7643 -0.1514
 9126SOL    HW239012   3.637   2.857   7.027  2.6373 -2.5749  1.2943
 9127SOL     OW39013   2.473   3.755  13.094  0.6247 -0.1315 -0.1209
 9127SOL    HW139014   2.561   3.738  13.126 -0.1494 -0.8244  1.6431
 9127SOL    HW239015   2.472   3.849  13.113  3.3162 -0.1832  0.2366
 9128SOL     OW39016   0.921   0.427  11.185 -0.4007  0.1499  0.1829
 9128SOL    HW139017   0.832   0.417  11.218 -0.7776 -1.8678 -1.4499
 9128SOL    HW239018   0.977   0.415  11.261  0.2823  0.4713 -0.2675
 9129SOL     OW39019   4.504   3.724   6.890 -0.2483  0.0428 -0.1014
 9129SOL    HW139020   4.540   3.646   6.848 -1.1745 -1.7412  2.4155
 9129SOL    HW239021   4.439   3.752   6.825  0.1478  0.2061 -0.4226
 9130SOL     OW39022   2.759   4.323   3.912  0.3768  0.3272 -0.0203
 9130SOL    HW139023   2.784   4.348   4.001 -0.8165  2.4520 -0.2712
 9130SOL    HW239024   2.672   4.288   3.932  0.0521 -0.6166 -3.0743
 9131SOL     OW39025   3.946   2.850   3.263 -0.6351 -0.0494  0.7853
 9131SOL    HW139026   3.941   2.812   3.351 -2.6073  0.3717  0.8630
 9131SOL    HW239027   4.014   2.794   3.226  0.0882  1.0394  0.4694
 9132SOL     OW39028   2.989   3.644  14.964 -0.3688 -0.5496 -0.7593
 9132SOL    HW139029   2.993   3.681  15.052 -0.4688 -1.6201 -0.3033
 9132SOL    HW239030   2.982   3.726  14.916  1.0237 -0.5229 -0.8940
 9133SOL     OW39031   1.813   4.730   2.208  0.2698  0.1518 -0.1096
 9133SOL    HW139032   1.842   4.707   2.296  0.5934  0.5753 -0.1043
 9133SOL    HW239033   1.782   0.082   2.215 -1.4813 -0.4446 -0.3233
 9134SOL     OW39034   3.100   0.024   1.656 -0.3230  0.5374 -0.5567
 9134SOL    HW139035   3.007   0.019   1.675 -0.4697 -2.2462 -2.0419
 9134SOL    HW239036   3.105   0.117   1.637  0.7649  0.4417 -0.7512
 9135SOL     OW39037   1.355   4.413   2.904 -0.4650 -0.3837  0.5668
 9135SOL    HW139038   1.375   4.327   2.868 -0.1035 -0.4302  0.8795
 9135SOL    HW239039   1.314   4.460   2.831  0.3490 -0.3971  0.1009
 9136SOL     OW39040   1.224   1.362  13.537  0.0108  0.4482 -0.0240
 9136SOL    HW139041   1.154   1.355  13.602 -0.1242  1.2461 -0.0897
 9136SOL    HW239042   1.172   1.385  13.460 -3.0296 -1.2620  1.5334
 9137SOL     OW39043   2.137   3.987   0.050 -0.1566 -0.4439  0.3638
 9137SOL    HW139044   2.104   3.936   0.124 -0.7354 -0.1960  0.2804
 9137SOL    HW239045   2.060   4.025   0.007  1.3516 -0.4582 -2.3245
 9138SOL     OW39046   1.953   1.218   4.846  0.1182 -0.0532 -0.4069
 9138SOL    HW139047   1.925   1.129   4.868 -1.5666  0.7820  0.8242
 9138SOL    HW239048   1.893   1.240   4.775 -0.5230  1.8149  0.7039
 9139SOL     OW39049   1.330   2.369  12.799 -0.6272 -0.4169 -0.0460
 9139SOL    HW139050   1.321   2.289  12.747  2.4283  0.4961 -1.9620
 9139SOL    HW239051   1.401   2.344  12.859  2.1591  0.4141 -3.0359
 9140SOL     OW39052   3.570   3.162   5.578  0.3216 -0.5895  0.1961
 9140SOL    HW139053   3.533   3.243   5.614 -1.0859 -1.4599  0.7018
 9140SOL    HW239054   3.589   3.111   5.657 -2.2941  1.3249  2.0535
 9141SOL     OW39055   4.208   0.517   6.024  0.1385  0.5493 -0.0400
 9141SOL    HW139056   4.207   0.606   6.058 -0.2815  1.1030 -1.5003
 9141SOL    HW239057   4.265   0.525   5.947  0.5965  0.4946  0.2933
 9142SOL     OW39058   4.271   2.167   3.337 -0.1870  0.1713  0.2703
 9142SOL    HW139059   4.241   2.183   3.426  0.2258  1.7977  0.1197
 9142SOL    HW239060   4.328   2.241   3.314  1.3081 -1.1100 -0.1846
 9143SOL     OW39061   1.073   3.113   9.183  0.1897 -0.0865 -0.1681
 9143SOL    HW139062   1.051   3.034   9.233  0.6479 -0.3216 -0.3358
 9143SOL    HW239063   1.140   3.151   9.239 -0.1978  0.5847 -0.1651
 9144SOL     OW39064   3.297   1.588   4.755  0.5069  0.4818 -0.2277
 9144SOL    HW139065   3.203   1.583   4.771  0.5619  0.2950  0.0397
 9144SOL    HW239066   3.293   1.541   4.671  0.0119  1.0011 -0.4916
 9145SOL     OW39067   2.513   2.463   3.310  0.2974  0.3930 -0.2341
 9145SOL    HW139068   2.526   2.550   3.273 -0.0504  1.0117  1.1052
 9145SOL    HW239069   2.421   2.466   3.335  0.9442  2.0556  1.9195
 9146SOL     OW39070   0.499   1.909  11.010  0.1201 -0.1610  0.8259
 9146SOL    HW139071   0.500   1.814  11.008  0.1479 -0.0666 -3.8321
 9146SOL    HW239072   0.460   1.923  11.096 -0.4446 -0.9350  0.6960
 9147SOL     OW39073   4.405   0.694   8.674 -0.7225 -0.5036  0.6096
 9147SOL    HW139074   4.356   0.692   8.756 -1.7602 -1.8722 -0.0447
 9147SOL    HW239075   4.340   0.670   8.608 -1.2941  1.7534  0.3676
 9148SOL     OW39076   1.094   3.599   6.378 -0.0776  0.1707 -0.0762
 9148SOL    HW139077   1.150   3.648   6.318 -0.3992  0.2167 -0.3425
 9148SOL    HW239078   1.102   3.507   6.352  0.0531 -0.2008  1.3010
 9149SOL     OW39079   0.834   0.663   3.952  0.2803  0.5056 -0.0366
 9149SOL    HW139080   0.848   0.617   4.034 -0.9954  2.1540  1.1122
 9149SOL    HW239081   0.825   0.754   3.981 -4.0187  0.6371 -1.6517
 9150SOL     OW39082   4.313   4.528   6.470 -0.1358 -0.0547 -0.0670
 9150SOL    HW139083   4.326   4.604   6.413  1.6278 -2.1927 -2.4960
 9150SOL    HW239084   4.237   4.546   6.525  1.8300 -0.4865  2.8093
 9151SOL     OW39085   1.551   1.016  13.756  0.2543  0.7219 -0.1263
 9151SOL    HW139086   1.514   0.939  13.713  1.0715  0.0073  0.4523
 9151SOL    HW239087   1.473   1.070  13.767  1.8128  2.7380  0.8382
 9152SOL     OW39088   2.508   3.201   5.508  0.2127  0.0392  0.3552
 9152SOL    HW139089   2.511   3.179   5.415  0.1010  1.2566  0.0529
 9152SOL    HW239090   2.580   3.155   5.550  0.9083  0.5761 -0.2474
 9153SOL     OW39091   4.705   0.525   4.046  0.5244 -0.7257  0.4736
 9153SOL    HW139092   4.630   0.508   3.989 -0.1000 -0.3462  1.1762
 9153SOL    HW239093   4.723   0.619   4.047 -0.4402 -0.5299 -0.2527
 9154SOL     OW39094   2.018   2.990  10.113  0.1545  0.1470  0.3827
 9154SOL    HW139095   2.100   2.951  10.142  0.8942  1.0689 -0.5087
 9154SOL    HW239096   2.023   3.075  10.156  0.5729  0.5623 -0.4893
 9155SOL     OW39097   4.720   4.439   6.311 -0.3100 -0.0383  0.4778
 9155SOL    HW139098   0.053   4.490   6.349  0.1958 -3.1286  3.6588
 9155SOL    HW239099   4.646   4.500   6.321  1.2422  1.6875  1.3944
 9156SOL     OW39100   0.154   2.443  14.500 -0.4948  0.5842 -0.0075
 9156SOL    HW139101   0.162   2.384  14.575 -0.6312 -1.1071 -1.3202
 9156SOL    HW239102   0.064   2.431  14.470 -0.7301  2.8958 -0.2622
 9157SOL     OW39103   2.409   1.642   7.326 -0.2547 -0.7454  0.6119
 9157SOL    HW139104   2.331   1.614   7.374 -0.8002  0.2827  0.3229
 9157SOL    HW239105   2.448   1.692   7.398  2.0554  0.1557 -1.2584
 9158SOL     OW39106   3.364   3.830   8.336  0.0879  0.3952 -0.0004
 9158SOL    HW139107   3.336   3.779   8.259 -1.3149 -0.8027  1.3105
 9158SOL    HW239108   3.450   3.795   8.359 -0.4361 -0.5620  0.5192
 9159SOL     OW39109   3.186   4.708   3.062 -0.2271 -0.0051  0.3183
 9159SOL    HW139110   3.121   4.641   3.082 -1.3994  1.2284  0.5892
 9159SOL    HW239111   3.274   4.674   3.079 -0.4387  0.0740  1.5390
 9160SOL     OW39112   2.019   2.605   2.941 -0.1708 -0.2771  0.3251
 9160SOL    HW139113   1.961   2.559   3.002 -0.8781 -0.2920 -0.3696
 9160SOL    HW239114   2.103   2.569   2.969  1.0845  1.2911 -1.4054
 9161SOL     OW39115   3.905   3.318   7.552 -0.1546 -0.0945 -0.2628
 9161SOL    HW139116   3.974   3.259   7.584 -1.7519 -1.4416  0.6724
 9161SOL    HW239117   3.824   3.270   7.570  0.8531 -2.0067 -0.8759
 9162SOL     OW39118   1.147   1.749  17.105  0.3331 -0.5533  0.2427
 9162SOL    HW139119   1.217   1.688  17.128  0.2714 -0.4501  0.7032
 9162SOL    HW239120   1.099   1.704  17.035  0.5108  1.2567 -1.0716
 9163SOL     OW39121   4.651   0.849   2.731  0.2037 -0.7089  0.1756
 9163SOL    HW139122   4.583   0.861   2.797  1.4857 -0.7527  1.5126
 9163SOL    HW239123   4.703   0.922   2.765 -0.8190  0.7423 -1.3343
 9164SOL     OW39124   3.505   2.168   1.390  0.2098  0.3004 -0.4006
 9164SOL    HW139125   3.574   2.134   1.447 -0.1069 -0.0458 -0.2248
 9164SOL    HW239126   3.490   2.087   1.343 -0.0632  0.1540 -0.0636
 9165SOL     OW39127   4.442   2.125   0.578  0.2097  0.1030  0.0158
 9165SOL    HW139128   4.506   2.195   0.561 -1.9276  1.5440 -2.0647
 9165SOL    HW239129   4.461   2.065   0.505  1.3178 -0.2972  0.6272
 9166SOL     OW39130   3.175   1.723   0.311 -0.4270 -0.1816 -0.4097
 9166SOL    HW139131   3.261   1.717   0.270  0.0683  1.8336  0.3138
 9166SOL    HW239132   3.148   1.636   0.280 -1.2276  0.0857 -0.4550
 9167SOL     OW39133   0.621   0.232   1.589  0.4491 -0.2689  0.2190
 9167SOL    HW139134   0.656   0.250   1.501 -2.0427 -0.9987 -0.9321
 9167SOL    HW239135   0.533   0.224   1.553  1.8975 -2.3632 -2.8670
 9168SOL     OW39136   4.635   0.513   8.755  0.0649 -0.4912  0.0745
 9168SOL    HW139137   4.572   0.573   8.715  0.8208 -0.3269 -0.8707
 9168SOL    HW239138   4.645   0.447   8.687  3.3444  1.0066 -0.8902
 9169SOL     OW39139   1.092   0.101   6.104 -0.0720  0.5872  0.5222
 9169SOL    HW139140   1.013   0.082   6.156  0.5026 -2.3017  0.3751
 9169SOL    HW239141   1.154   0.063   6.167 -0.1010  0.5852  0.5494
 9170SOL     OW39142   4.415   2.514  12.359  0.4135 -0.1730 -0.2537
 9170SOL    HW139143   4.344   2.458  12.391  0.0810  0.9581  0.9862
 9170SOL    HW239144   4.437   2.563  12.438 -0.5849 -0.8207  0.4151
 9171SOL     OW39145   2.020   4.034   5.130  0.1358 -0.1077 -0.6654
 9171SOL    HW139146   2.030   3.990   5.214  2.8710  0.0439 -0.9358
 9171SOL    HW239147   1.944   4.090   5.147 -0.1438 -0.1314 -1.8564
 9172SOL     OW39148   1.939   2.412   7.648  0.2225 -0.3264  0.2443
 9172SOL    HW139149   1.930   2.317   7.643  0.1077 -0.2022 -1.7195
 9172SOL    HW239150   1.881   2.444   7.580 -0.6104  0.5375  1.3684
 9173SOL     OW39151   3.363   4.138   7.979 -0.1150 -0.1027  0.2190
 9173SOL    HW139152   3.426   4.167   7.914 -0.5070  1.3562  0.5066
 9173SOL    HW239153   3.291   4.138   7.917  1.0662 -1.2085 -1.1564
 9174SOL     OW39154   0.003   0.397  13.243 -0.1567 -0.1619  0.6682
 9174SOL    HW139155   0.040   0.485  13.248 -1.2467  0.5018 -2.7197
 9174SOL    HW239156   0.056   0.357  13.312  0.8170  0.4778  0.2901
 9175SOL     OW39157   1.311   0.580   0.053 -0.1498  0.4717 -0.2064
 9175SOL    HW139158   1.364   0.626  17.741  0.9037  1.0463  1.0674
 9175SOL    HW239159   1.278   0.509  17.751 -1.5932 -0.4164  1.8301
 9176SOL     OW39160   4.212   4.704  13.461 -0.6246 -0.2114 -0.3197
 9176SOL    HW139161   4.290   4.716  13.407 -0.9104 -2.0166 -1.1067
 9176SOL    HW239162   4.239   4.629  13.514 -1.7533  1.1221  2.1701
 9177SOL     OW39163   3.707   2.061   1.528 -0.0960 -0.1245 -0.3854
 9177SOL    HW139164   3.766   2.120   1.576 -0.4896 -0.0350 -0.0067
 9177SOL    HW239165   3.704   1.984   1.585  1.9932  0.2536  0.2453
 9178SOL     OW39166   0.566   0.026   7.973 -0.3623  0.1109  0.0324
 9178SOL    HW139167   0.519   0.089   8.027  0.6727  0.2611  0.7620
 9178SOL    HW239168   0.656   0.059   7.978 -0.4488  0.1546  1.2189
 9179SOL     OW39169   2.815   3.488   6.429 -0.8668 -0.0571  0.1999
 9179SOL    HW139170   2.766   3.410   6.405 -2.3110  0.6878  0.6579
 9179SOL    HW239171   2.768   3.555   6.379  0.4897  1.2072  0.6108
 9180SOL     OW39172   1.962   4.699   3.748 -0.0094 -0.3316  0.0155
 9180SOL    HW139173   1.953   4.604   3.738 -0.7245 -0.5897  3.1181
 9180SOL    HW239174   2.037   4.704   3.807 -0.8956  1.3877  0.9912
 9181SOL     OW39175   3.300   2.359   4.384 -0.5484 -0.5482  0.8118
 9181SOL    HW139176   3.211   2.372   4.416 -0.6732  0.7623 -0.0390
 9181SOL    HW239177   3.288   2.269   4.352 -0.7788  0.6145 -2.4124
 9182SOL     OW39178   0.896   3.399   4.710 -0.1902  0.4519 -0.5725
 9182SOL    HW139179   0.869   3.319   4.755  1.0551  0.4024  0.0772
 9182SOL    HW239180   0.827   3.461   4.730 -1.8626 -1.3133 -0.8730
 9183SOL     OW39181   1.866   2.413  13.918  0.1199 -0.5237  0.0353
 9183SOL    HW139182   1.873   2.374  13.832  0.0572 -0.3786 -0.0363
 9183SOL    HW239183   1.957   2.433  13.942  1.2517 -2.3346 -2.8265
 9184SOL     OW39184   2.119   2.140  12.055  0.1908 -0.4277  0.1898
 9184SOL    HW139185   2.091   2.104  12.140 -1.9681  0.1579 -0.2804
 9184SOL    HW239186   2.156   2.060  12.019 -1.6076 -0.7570 -0.8904
 9185SOL     OW39187   1.954   4.715  13.601  0.8203 -0.4058  0.2390
 9185SOL    HW139188   1.964   4.716  13.506  1.8218  0.4057  0.3592
 9185SOL    HW239189   1.889   0.043  13.624 -0.9749 -2.3741  0.8857
 9186SOL     OW39190   0.131   2.025  16.359 -0.2367 -0.0935  0.7095
 9186SOL    HW139191   0.129   1.939  16.402 -1.6191 -0.0232  0.7753
 9186SOL    HW239192   0.153   2.003  16.268  1.5291 -0.3850  1.2051
 9187SOL     OW39193   4.681   4.505   5.850 -0.4336 -0.2277  0.1480
 9187SOL    HW139194   4.673   4.510   5.755  3.2319 -1.0263 -0.2278
 9187SOL    HW239195   0.017   4.565   5.860 -0.1677 -0.0070 -3.3612
 9188SOL     OW39196   1.219   1.706  16.678  0.3737 -0.3145 -0.1294
 9188SOL    HW139197   1.146   1.708  16.616  1.8648 -1.2264 -1.9247
 9188SOL    HW239198   1.201   1.784  16.731  1.4839 -0.4642  0.4606
 9189SOL     OW39199   1.837   2.004   4.453 -0.2232  0.0113 -0.3305
 9189SOL    HW139200   1.771   1.939   4.475  0.8550 -0.3096  1.9415
 9189SOL    HW239201   1.798   2.088   4.478 -1.6328 -0.7906  0.1347
 9190SOL     OW39202   3.004   4.118   9.337  0.1344 -0.5499 -0.5169
 9190SOL    HW139203   2.999   4.125   9.241  1.8401  1.7441 -0.4400
 9190SOL    HW239204   2.913   4.115   9.365 -0.4696 -0.3811 -2.4363
 9191SOL     OW39205   4.282   4.491   3.504  0.8374 -0.3690 -0.2772
 9191SOL    HW139206   4.319   4.555   3.565 -0.7399  0.4391 -0.1715
 9191SOL    HW239207   4.324   4.506   3.420 -0.1967 -0.9332 -0.8930
 9192SOL     OW39208   3.005   0.198   3.083 -0.1470  0.1111  0.1378
 9192SOL    HW139209   3.070   0.259   3.048  0.2618 -1.7387 -2.2926
 9192SOL    HW239210   3.060   0.123   3.104  0.5636 -0.2738 -3.0433
 9193SOL     OW39211   4.149   2.343  10.461 -0.0893 -0.9038 -0.0191
 9193SOL    HW139212   4.087   2.273  10.441  0.5805 -1.7146  0.7649
 9193SOL    HW239213   4.103   2.379  10.536  0.1147 -0.9716  0.1384
 9194SOL     OW39214   3.728   1.342   5.705 -0.7625 -0.3008 -0.4188
 9194SOL    HW139215   3.766   1.397   5.773  0.9698 -3.1378  0.8823
 9194SOL    HW239216   3.682   1.266   5.742 -3.7261  1.1580 -1.0527
 9195SOL     OW39217   0.553   4.191  16.448  0.2498 -0.5177  0.4101
 9195SOL    HW139218   0.593   4.257  16.504 -1.5862 -1.5157  2.8891
 9195SOL    HW239219   0.493   4.147  16.509 -0.2717 -0.4522 -0.0515
 9196SOL     OW39220   3.774   1.247   4.269  0.1461 -0.0825  0.3653
 9196SOL    HW139221   3.816   1.244   4.183  1.1661  1.2232  0.8186
 9196SOL    HW239222   3.808   1.327   4.309 -2.3374  0.7798  0.7262
 9197SOL     OW39223   4.255   2.231  16.933  0.1162  0.0062  0.0392
 9197SOL    HW139224   4.243   2.138  16.954  1.8115 -0.1087  0.5525
 9197SOL    HW239225   4.345   2.244  16.963  1.1442  0.5456 -3.2474
 9198SOL     OW39226   3.880   4.349   4.915  0.4587 -0.5435  0.1391
 9198SOL    HW139227   3.892   4.298   4.835  3.2108 -0.1066  0.3036
 9198SOL    HW239228   3.943   4.312   4.977  0.9523  0.2514  0.1081
 9199SOL     OW39229   2.961   3.719   1.882 -0.1672  0.9801 -0.6172
 9199SOL    HW139230   3.037   3.661   1.889 -0.4485  1.2261  4.1918
 9199SOL    HW239231   2.986   3.784   1.947  1.6971  2.1347 -2.4854
 9200SOL     OW39232   0.143   4.632  13.434  0.0289  0.3850 -0.4590
 9200SOL    HW139233   0.057   4.621  13.393 -1.3549  0.2550  2.4755
 9200SOL    HW239234   0.121   4.666  13.521 -3.5599 -2.6438 -0.1688
 9201SOL     OW39235   2.754   4.558  17.316  0.2774  0.0702  0.3383
 9201SOL    HW139236   2.794   4.627  17.369  0.4666 -1.4770  2.1995
 9201SOL    HW239237   2.767   4.580  17.224 -1.1036 -0.8154 -0.0569
 9202SOL     OW39238   1.879   2.262  11.986 -0.4442 -0.0985 -0.6518
 9202SOL    HW139239   1.895   2.284  11.894 -1.0090  0.4103 -0.6242
 9202SOL    HW239240   1.963   2.218  12.003  0.1425  0.6883 -1.5054
 9203SOL     OW39241   4.722   4.330   5.016  0.2049  0.2925  0.2544
 9203SOL    HW139242   4.718   4.249   4.965  0.0950 -0.5096  1.5500
 9203SOL    HW239243   0.068   4.360   4.982  0.2318 -0.8252 -0.6846
 9204SOL     OW39244   3.970   0.742   6.322 -0.0455  0.1240 -0.2213
 9204SOL    HW139245   3.964   0.825   6.369 -0.9629 -1.0213  1.6824
 9204SOL    HW239246   4.050   0.761   6.272 -0.9152  1.8941 -0.9221
 9205SOL     OW39247   3.920   2.784  13.779 -0.2199  0.0386  0.0515
 9205SOL    HW139248   3.963   2.856  13.824  0.1323 -0.7271  0.9489
 9205SOL    HW239249   3.983   2.778  13.707 -2.1072  1.0025 -1.6956
 9206SOL     OW39250   3.886   2.986   0.948  0.2056  0.2504 -0.2445
 9206SOL    HW139251   3.924   3.022   1.028  0.0816 -2.7545  1.1960
 9206SOL    HW239252   3.842   3.062   0.911  0.0398  0.8358  1.1470
 9207SOL     OW39253   0.059   4.342   6.065  0.0155 -0.1377 -0.5358
 9207SOL    HW139254   0.118   4.269   6.083 -2.1442 -1.4764  1.0963
 9207SOL    HW239255   0.024   4.358   6.153  1.7729 -0.3436  0.1875
 9208SOL     OW39256   2.505   3.355   6.644  0.1605 -0.0175 -0.5741
 9208SOL    HW139257   2.555   3.284   6.603 -1.8129 -0.9221 -1.4520
 9208SOL    HW239258   2.470   3.309   6.720  1.8314 -0.8760 -0.3253
 9209SOL     OW39259   0.340   2.986   1.941  0.1165 -0.3336 -0.1430
 9209SOL    HW139260   0.283   2.936   1.999 -0.6722  1.8653  0.9778
 9209SOL    HW239261   0.304   3.074   1.949 -3.6964 -2.0452  1.3074
 9210SOL     OW39262   0.784   2.708   7.844 -0.1252  0.2061 -0.0825
 9210SOL    HW139263   0.866   2.659   7.856 -0.7019 -1.2525 -2.0648
 9210SOL    HW239264   0.817   2.795   7.867 -0.6602 -0.0175  1.5177
 9211SOL     OW39265   0.369   1.053   4.352  0.0288  0.0457  0.2563
 9211SOL    HW139266   0.319   0.989   4.302 -0.4145 -0.5901  1.5014
 9211SOL    HW239267   0.308   1.064   4.425 -2.3497 -0.5259 -1.6451
 9212SOL     OW39268   1.453   3.266   2.567 -0.2107  0.0113 -0.5514
 9212SOL    HW139269   1.400   3.193   2.536  0.4373 -0.6804 -0.0251
 9212SOL    HW239270   1.501   3.231   2.642 -1.0259  1.3765  0.6055
 9213SOL     OW39271   2.364   1.986  15.345 -0.0544 -0.3529 -0.5695
 9213SOL    HW139272   2.330   1.898  15.362 -0.9325  0.7751  3.4337
 9213SOL    HW239273   2.277   2.024  15.330 -0.1238  0.0836  0.9581
 9214SOL     OW39274   2.163   0.768   6.849 -0.2480  0.1923  0.2240
 9214SOL    HW139275   2.197   0.853   6.879 -0.4228  0.0226  0.9093
 9214SOL    HW239276   2.197   0.779   6.760 -2.0621  1.7987 -0.2823
 9215SOL     OW39277   1.057   4.602   1.293 -0.2762 -0.0985  0.6193
 9215SOL    HW139278   0.976   4.571   1.333 -1.8826  0.1232 -2.4257
 9215SOL    HW239279   1.085   4.669   1.355  1.3400  0.6218 -0.8795
 9216SOL     OW39280   0.153   0.091   6.572  0.1192  0.2968  0.1746
 9216SOL    HW139281   0.188   0.088   6.661  3.5532  0.7986 -1.1373
 9216SOL    HW239282   0.160   0.187   6.569 -0.2941  0.3043 -0.4295
 9217SOL     OW39283   2.267   2.303   4.379  0.1039 -0.2228 -0.3301
 9217SOL    HW139284   2.263   2.212   4.349  2.0797 -0.6044  0.5448
 9217SOL    HW239285   2.312   2.295   4.463 -0.4381 -0.5419 -0.0724
 9218SOL     OW39286   3.314   3.340  10.574 -0.9219  0.4491  0.1312
 9218SOL    HW139287   3.320   3.372  10.484 -0.5436  1.2523  0.4376
 9218SOL    HW239288   3.354   3.254  10.569  0.9759  1.3791 -0.7840
 9219SOL     OW39289   3.670   1.785   3.192 -0.1370  0.2004 -0.3957
 9219SOL    HW139290   3.710   1.783   3.279  1.7268 -0.3949 -1.2599
 9219SOL    HW239291   3.751   1.794   3.141 -0.2833 -1.5553 -0.9223
 9220SOL     OW39292   1.248   2.284   7.538  1.0530 -0.2246 -0.1396
 9220SOL    HW139293   1.155   2.305   7.528  1.6336  2.1055 -0.5848
 9220SOL    HW239294   1.242   2.204   7.591  2.8599  1.4595  2.6241
 9221SOL     OW39295   0.708   3.914  11.450  0.3847 -0.0650  0.3491
 9221SOL    HW139296   0.667   3.853  11.512  0.1756  1.7789  2.0046
 9221SOL    HW239297   0.637   3.978  11.443  0.0643 -0.2828  1.6385
 9222SOL     OW39298   0.439   1.902   2.037 -0.2355  0.5696  0.4409
 9222SOL    HW139299   0.373   1.886   1.970 -0.6797 -4.5158  2.1428
 9222SOL    HW239300   0.507   1.941   1.982 -2.0297  1.9298 -0.8609
 9223SOL     OW39301   3.234   0.296   8.784  0.6994 -1.0525 -0.2706
 9223SOL    HW139302   3.314   0.320   8.737  0.2718 -0.3387 -0.6478
 9223SOL    HW239303   3.268   0.279   8.872  0.4214  0.4823  0.1336
 9224SOL     OW39304   2.961   2.886   6.161 -0.6556 -0.3041  0.6305
 9224SOL    HW139305   3.042   2.837   6.149 -2.0991 -2.3747 -0.6331
 9224SOL    HW239306   2.919   2.890   6.075 -1.5584  1.7013  1.1521
 9225SOL     OW39307   0.102   3.426  11.365  0.5019  0.1990 -0.8098
 9225SOL    HW139308   0.067   3.338  11.354 -0.6688  0.5476  0.0384
 9225SOL    HW239309   0.071   3.468  11.285  1.6186 -1.5149 -2.1245
 9226SOL     OW39310   3.458   2.041   9.607 -0.0134  0.4123  0.1527
 9226SOL    HW139311   3.424   2.117   9.655 -0.9369 -2.6789  4.3877
 9226SOL    HW239312   3.510   1.988   9.667 -0.0101 -0.3788 -0.5597
 9227SOL     OW39313   4.455   1.516   1.964  0.5414  0.4567  0.2658
 9227SOL    HW139314   4.549   1.500   1.978  0.5006 -1.3515 -1.5246
 9227SOL    HW239315   4.428   1.430   1.932  0.0234  0.6310  0.2448
 9228SOL     OW39316   0.173   1.765   5.736  0.2137 -0.1010 -0.2197
 9228SOL    HW139317   0.229   1.842   5.726 -2.0665  1.5817 -0.0946
 9228SOL    HW239318   0.234   1.717   5.792  0.7245  0.4425 -0.3072
 9229SOL     OW39319   0.702   2.654  15.903  0.3765 -0.7315 -0.4032
 9229SOL    HW139320   0.782   2.674  15.951  0.9457 -0.1119 -1.6127
 9229SOL    HW239321   0.663   2.581  15.951 -0.9250  0.2301  0.0144
 9230SOL     OW39322   4.512   4.675   3.266 -0.3865  0.3066  0.0404
 9230SOL    HW139323   4.468   0.008   3.310  1.3658  0.1309  2.0580
 9230SOL    HW239324   4.566   4.653   3.342  0.3756  0.2008 -0.5302
 9231SOL     OW39325   2.955   2.701  10.735  0.4012  0.1696 -0.7437
 9231SOL    HW139326   3.033   2.690  10.789 -0.4180  0.7240  0.5442
 9231SOL    HW239327   2.948   2.621  10.683  1.7192 -0.5065  0.1119
 9232SOL     OW39328   1.409   3.658   4.610  0.9262  0.0804  0.1560
 9232SOL    HW139329   1.487   3.696   4.652  0.0935  1.2625  0.6374
 9232SOL    HW239330   1.404   3.566   4.634  0.7912 -0.5420 -2.2538
 9233SOL     OW39331   2.301   2.257   2.320 -0.2018 -0.6253 -0.1039
 9233SOL    HW139332   2.267   2.188   2.264 -0.1956 -0.8541  0.1754
 9233SOL    HW239333   2.236   2.327   2.314  0.0857 -0.2342  1.2941
 9234SOL     OW39334   1.813   4.523   9.184 -0.1305 -0.4563 -0.1724
 9234SOL    HW139335   1.889   4.484   9.141  0.2633  0.5044 -0.3361
 9234SOL    HW239336   1.817   4.610   9.146 -0.4676 -0.8176 -1.0366
 9235SOL     OW39337   3.439   4.507   6.961  0.5474  0.0261  0.1036
 9235SOL    HW139338   3.411   4.423   6.995 -0.3525  0.0877 -0.4869
 9235SOL    HW239339   3.474   4.554   7.037  0.5382 -0.0207  0.1362
 9236SOL     OW39340   1.691   4.405   0.646  0.1208 -0.6050  0.4726
 9236SOL    HW139341   1.597   4.401   0.666 -0.4390  2.7137 -1.4829
 9236SOL    HW239342   1.719   4.494   0.624 -0.5137  0.2264  2.9835
 9237SOL     OW39343   1.359   4.635   5.556  0.5458 -0.3387  0.7849
 9237SOL    HW139344   1.292   4.696   5.525  1.7696 -0.5074 -2.1582
 9237SOL    HW239345   1.431   4.696   5.573  0.7917  0.0677 -1.8472
 9238SOL     OW39346   0.377   3.849   5.899 -0.3201 -0.4629 -0.5899
 9238SOL    HW139347   0.368   3.782   5.966 -2.6183  0.9158  0.4684
 9238SOL    HW239348   0.472   3.857   5.892 -0.3508 -0.0179 -0.4830
 9239SOL     OW39349   1.179   0.528   8.926 -0.5063  0.0425 -0.0385
 9239SOL    HW139350   1.178   0.446   8.975  1.6457  0.0566  0.0229
 9239SOL    HW239351   1.111   0.508   8.862 -2.0730  1.3739  1.1953
 9240SOL     OW39352   3.499   4.372  12.295  0.0512 -0.0572 -0.1329
 9240SOL    HW139353   3.593   4.354  12.289 -0.2654 -2.0011  0.7006
 9240SOL    HW239354   3.494   4.359  12.389 -1.0765 -2.3260 -0.5033
 9241SOL     OW39355   2.392   4.504   2.785  0.0972 -0.3109  0.3289
 9241SOL    HW139356   2.356   4.562   2.853  1.3668 -0.6855  1.3177
 9241SOL    HW239357   2.481   4.537   2.774 -0.3238  0.4209 -0.9512
 9242SOL     OW39358   0.616   1.646  12.542  0.1109  0.2957 -0.1356
 9242SOL    HW139359   0.676   1.685  12.479  0.5525  0.0222  0.1118
 9242SOL    HW239360   0.532   1.682  12.514  0.2122 -0.4758 -1.4086
 9243SOL     OW39361   3.827   4.172  12.052  0.3672 -0.1968 -0.8047
 9243SOL    HW139362   3.778   4.186  12.134  3.5788  0.2160  1.0295
 9243SOL    HW239363   3.918   4.194  12.073 -0.1079  1.6241 -0.5735
 9244SOL     OW39364   2.789   4.701   3.072  0.1263 -0.0384  0.2751
 9244SOL    HW139365   2.866   4.653   3.040 -1.4765  0.2412 -3.9186
 9244SOL    HW239366   2.812   4.711   3.165 -0.6476  0.1612  0.4434
 9245SOL     OW39367   2.676   3.904  17.512  0.0069  0.0956  0.5959
 9245SOL    HW139368   2.755   3.952  17.536 -1.6094  2.6350  0.7955
 9245SOL    HW239369   2.631   3.977  17.470 -2.2815 -1.9580 -0.5932
 9246SOL     OW39370   1.170   3.661   2.364  0.5031 -0.4831 -0.0437
 9246SOL    HW139371   1.263   3.674   2.379 -0.5710  3.4598  3.5253
 9246SOL    HW239372   1.166   3.602   2.289  3.0492 -1.3394  0.4976
 9247SOL     OW39373   4.073   0.014  13.175 -0.2017  0.1344  0.7095
 9247SOL    HW139374   4.166   4.733  13.162 -0.3873 -0.9156  0.9520
 9247SOL    HW239375   4.036   4.672  13.211 -2.0718  0.4467 -0.5060
 9248SOL     OW39376   3.740   0.655  12.702  0.2226  0.0152  0.6904
 9248SOL    HW139377   3.683   0.710  12.757 -0.9987 -1.7806  1.2239
 9248SOL    HW239378   3.829   0.689  12.713  0.1559  0.0969  0.9673
 9249SOL     OW39379   0.308   2.294   1.625  0.4411 -0.5018 -0.0916
 9249SOL    HW139380   0.214   2.295   1.610  0.3176 -1.4395  0.6602
 9249SOL    HW239381   0.304   2.388   1.646 -0.5782 -0.3993 -0.7963
 9250SOL     OW39382   3.512   3.617  12.580 -0.2192 -0.0813 -0.4179
 9250SOL    HW139383   3.500   3.643  12.489  0.1433 -0.2379 -0.5083
 9250SOL    HW239384   3.430   3.644  12.620  0.4714  2.8587 -0.9452
 9251SOL     OW39385   2.471   2.178  13.743  0.5215  0.5109 -0.0058
 9251SOL    HW139386   2.485   2.245  13.811  1.9136  1.2213 -0.9783
 9251SOL    HW239387   2.539   2.114  13.763 -1.2110 -1.3147 -0.0864
 9252SOL     OW39388   2.301   3.984   8.898  0.7016  0.3110 -0.5241
 9252SOL    HW139389   2.342   4.040   8.964  0.8959  0.1377 -0.4967
 9252SOL    HW239390   2.335   3.898   8.923  1.4274  0.0809 -2.3088
 9253SOL     OW39391   1.989   2.268   8.530 -0.2914 -0.0415  0.4952
 9253SOL    HW139392   1.957   2.235   8.446 -0.7118 -2.3648  1.5781
 9253SOL    HW239393   1.959   2.359   8.536 -0.5111 -0.2061  1.8597
 9254SOL     OW39394   1.622   2.866   5.200 -1.0207  0.1007  0.2512
 9254SOL    HW139395   1.634   2.898   5.110  0.4549  1.9930  1.0948
 9254SOL    HW239396   1.694   2.915   5.243 -1.7157  2.0673 -0.8140
 9255SOL     OW39397   4.021   0.615  14.174  0.2373 -0.1995 -0.0588
 9255SOL    HW139398   4.034   0.567  14.256  1.0007  0.2077  0.0553
 9255SOL    HW239399   4.113   0.616  14.146 -0.1963  0.0457 -1.4297
 9256SOL     OW39400   3.222   0.794   4.887  0.4445 -0.4874  0.1712
 9256SOL    HW139401   3.238   0.715   4.836 -0.7172  0.0396 -1.0004
 9256SOL    HW239402   3.240   0.868   4.828  0.7332 -1.4580 -0.9467
 9257SOL     OW39403   1.281   0.838   1.900  0.1958  0.8305 -0.4966
 9257SOL    HW139404   1.255   0.746   1.893 -0.2748  0.9689 -0.5628
 9257SOL    HW239405   1.311   0.826   1.990  0.6567  1.1384 -0.6082
 9258SOL     OW39406   3.185   1.843   7.591 -0.6566  0.0519  0.2576
 9258SOL    HW139407   3.275   1.848   7.560 -0.7697 -1.1754 -0.2865
 9258SOL    HW239408   3.174   1.748   7.581 -0.2277 -0.0759  1.0027
 9259SOL     OW39409   2.497   3.100   4.815 -0.2516 -0.4210  0.1328
 9259SOL    HW139410   2.558   3.027   4.821  0.3482  0.0199 -0.5623
 9259SOL    HW239411   2.414   3.058   4.793 -0.2371 -0.5643  0.3538
 9260SOL     OW39412   2.905   2.470   5.006  0.2943 -0.1949 -0.3425
 9260SOL    HW139413   2.877   2.404   4.943  0.4638 -2.9801  2.5110
 9260SOL    HW239414   2.998   2.448   5.011  0.6407  1.1644 -0.7597
 9261SOL     OW39415   4.628   2.881  13.366  0.2388 -0.9231 -0.1470
 9261SOL    HW139416   4.626   2.960  13.311  0.2478 -0.5361  0.4053
 9261SOL    HW239417   4.714   2.888  13.407  0.6225 -0.9942 -0.9437
 9262SOL     OW39418   1.104   2.079  13.943 -0.0295  0.2988  1.0530
 9262SOL    HW139419   1.181   2.023  13.949  0.9119  1.6607  1.6594
 9262SOL    HW239420   1.070   2.083  14.033 -1.1641 -3.8925  0.8105
 9263SOL     OW39421   2.094   3.687  16.834 -0.1537  0.7203  0.3379
 9263SOL    HW139422   1.999   3.692  16.821  0.1765 -0.2053 -2.4370
 9263SOL    HW239423   2.099   3.769  16.883 -4.6618  2.1192 -1.5448
 9264SOL     OW39424   2.740   1.435  16.617 -0.2402  0.2530 -0.5148
 9264SOL    HW139425   2.780   1.353  16.644  0.1702  0.1997 -1.2688
 9264SOL    HW239426   2.712   1.421  16.526  2.1959 -0.6228 -1.1280
 9265SOL     OW39427   2.359   4.146   0.954  0.1127  0.0062  0.2054
 9265SOL    HW139428   2.295   4.139   0.884 -0.8328  2.9896  0.7917
 9265SOL    HW239429   2.428   4.197   0.912 -0.0238  0.7673  0.8990
 9266SOL     OW39430   2.689   4.443   9.627  0.4842 -0.0618 -0.0216
 9266SOL    HW139431   2.652   4.501   9.560  0.2055  2.0300  1.9375
 9266SOL    HW239432   2.776   4.421   9.595  0.6210 -1.2188  1.1201
 9267SOL     OW39433   2.912   4.570  11.522 -0.3979 -0.0698  0.1374
 9267SOL    HW139434   2.991   4.611  11.484 -0.3839 -1.1064 -0.9631
 9267SOL    HW239435   2.950   4.524  11.597 -1.4403 -1.7824 -0.3829
 9268SOL     OW39436   2.960   1.462   3.221  0.1586  0.0128  0.1630
 9268SOL    HW139437   3.007   1.419   3.292 -2.1071  0.2529  1.7885
 9268SOL    HW239438   2.932   1.546   3.256 -0.2095  0.3024 -0.8200
 9269SOL     OW39439   1.471   0.962  12.235 -0.0807 -0.0158  0.8410
 9269SOL    HW139440   1.483   0.876  12.193 -0.1080 -0.3075  1.4348
 9269SOL    HW239441   1.564   0.971  12.258 -0.7689  2.9048  2.3460
 9270SOL     OW39442   4.056   4.522   1.602  0.0535 -0.1978 -0.1052
 9270SOL    HW139443   4.015   4.501   1.686  1.1900 -0.2131  0.4466
 9270SOL    HW239444   3.983   4.574   1.569  1.1654  0.4739 -1.5115
 9271SOL     OW39445   0.711   4.081   7.588  0.1082 -0.1201 -0.6358
 9271SOL    HW139446   0.750   3.994   7.581  0.2572 -0.1761  0.7227
 9271SOL    HW239447   0.769   4.126   7.649 -1.6431  2.6196 -0.9738
 9272SOL     OW39448   2.278   3.689  10.007 -0.2768  0.4809 -0.1976
 9272SOL    HW139449   2.269   3.782  10.030 -1.7505  0.1374  0.6315
 9272SOL    HW239450   2.244   3.688   9.918 -0.1211  1.0503 -0.2639
 9273SOL     OW39451   3.840   2.776  17.082  0.4862  0.1157  0.2633
 9273SOL    HW139452   3.844   2.841  17.152  1.2285  1.2743 -0.8491
 9273SOL    HW239453   3.934   2.768  17.066 -0.0496 -2.4008 -1.6082
 9274SOL     OW39454   1.094   3.054   7.841  0.2023 -1.0718 -0.1965
 9274SOL    HW139455   1.176   3.004   7.848  0.5908 -0.4756 -0.4496
 9274SOL    HW239456   1.031   2.996   7.883 -1.2556  0.0455 -0.8379
 9275SOL     OW39457   2.826   1.033   6.190  0.5226  0.6325  0.2069
 9275SOL    HW139458   2.871   0.984   6.121 -0.4954  0.9870 -0.7003
 9275SOL    HW239459   2.773   0.967   6.234 -0.7666  1.9638  0.6285
 9276SOL     OW39460   0.599   3.434  11.832  0.2093  0.5599 -0.0503
 9276SOL    HW139461   0.587   3.374  11.905 -1.9141  0.1944 -0.6820
 9276SOL    HW239462   0.653   3.387  11.769 -2.1910 -0.8421 -1.0704
 9277SOL     OW39463   1.389   0.430   8.499 -0.4453  0.1702  0.4716
 9277SOL    HW139464   1.374   0.374   8.576 -1.1860  0.9556  0.8934
 9277SOL    HW239465   1.359   0.368   8.432 -0.2179  1.4147 -0.7797
 9278SOL     OW39466   0.662   1.081   7.267  0.1459 -0.8146 -0.6137
 9278SOL    HW139467   0.721   1.082   7.192 -0.1448  0.4236 -0.8357
 9278SOL    HW239468   0.580   1.034   7.249  0.8652 -2.1455 -0.4107
 9279SOL     OW39469   2.617   2.576   7.504  0.8277 -0.2220 -0.5054
 9279SOL    HW139470   2.591   2.642   7.568  2.0014  0.8556 -1.1521
 9279SOL    HW239471   2.548   2.582   7.437  0.3364 -0.0640  0.0171
 9280SOL     OW39472   0.143   2.247   0.249  0.5704 -0.0810  0.3471
 9280SOL    HW139473   0.053   2.215   0.236  0.1062  1.3373  0.0349
 9280SOL    HW239474   0.187   2.168   0.219  0.0977 -0.1424 -0.1848
 9281SOL     OW39475   0.566   1.078   3.587 -0.0157  0.4491  0.3372
 9281SOL    HW139476   0.527   1.113   3.507  0.2273  0.0189  0.0332
 9281SOL    HW239477   0.562   1.156   3.642  0.4037 -0.1656  1.2523
 9282SOL     OW39478   2.559   2.743   5.886  0.3757 -0.3534 -0.1961
 9282SOL    HW139479   2.590   2.750   5.796  0.4035 -1.7556 -0.2995
 9282SOL    HW239480   2.502   2.667   5.875 -0.2726 -0.4918  3.9880
 9283SOL     OW39481   1.117   2.096   9.256 -0.1379  0.0080  0.2072
 9283SOL    HW139482   1.041   2.090   9.314  0.5010  1.0906  1.1716
 9283SOL    HW239483   1.095   2.170   9.198  3.1577  0.0017 -1.0794
 9284SOL     OW39484   2.508   1.516   6.390 -0.3641 -0.0628 -0.3529
 9284SOL    HW139485   2.558   1.470   6.458  0.9924  0.7818 -0.7890
 9284SOL    HW239486   2.552   1.480   6.313  0.6690  0.2598  0.0886
 9285SOL     OW39487   3.803   2.739   5.088 -0.0212  0.4068  0.1790
 9285SOL    HW139488   3.714   2.726   5.122 -0.3495  1.2527 -0.3649
 9285SOL    HW239489   3.824   2.663   5.035  2.9628 -1.3934  3.9631
 9286SOL     OW39490   1.544   1.046   8.829  0.4848 -0.0457 -0.1223
 9286SOL    HW139491   1.495   1.095   8.895  0.4884 -0.0087 -0.1473
 9286SOL    HW239492   1.489   0.967   8.830  1.8373 -0.9749  1.1227
 9287SOL     OW39493   2.979   1.088   3.465  0.1020  0.2931 -0.2150
 9287SOL    HW139494   3.043   1.027   3.503 -1.9189 -2.4256 -1.2155
 9287SOL    HW239495   2.996   1.072   3.372 -0.2177 -2.4036  0.1992
 9288SOL     OW39496   2.972   4.340   2.200 -0.1973  0.1052 -0.1291
 9288SOL    HW139497   2.989   4.265   2.257  0.1199 -0.1744 -0.5924
 9288SOL    HW239498   3.061   4.374   2.191 -0.4124  0.5203 -0.6852
 9289SOL     OW39499   4.033   3.017  16.816  0.0017 -0.3138 -0.0201
 9289SOL    HW139500   4.108   2.974  16.858  0.1959 -1.8897 -1.9663
 9289SOL    HW239501   3.981   3.035  16.895 -1.2925 -0.4541 -0.8537
 9290SOL     OW39502   3.086   1.764   2.136 -0.8670  0.0342  0.3021
 9290SOL    HW139503   3.173   1.798   2.156 -0.4364  1.4412 -4.0126
 9290SOL    HW239504   3.044   1.777   2.221 -1.3668 -2.1253  0.3800
 9291SOL     OW39505   3.732   0.831  12.949 -0.7205 -0.3307  0.3537
 9291SOL    HW139506   3.786   0.906  12.975  0.6966 -0.3599 -2.4844
 9291SOL    HW239507   3.652   0.878  12.927  0.2386  0.9524 -0.3964
 9292SOL     OW39508   2.173   4.428  17.259  0.6979 -0.0139 -0.1432
 9292SOL    HW139509   2.082   4.409  17.281  1.3526 -0.6296  2.0244
 9292SOL    HW239510   2.226   4.401  17.335  1.9793 -0.0462 -1.0411
 9293SOL     OW39511   3.545   1.782   8.542 -0.9047  0.1978  0.6636
 9293SOL    HW139512   3.541   1.689   8.563  1.7663 -0.2396 -0.8849
 9293SOL    HW239513   3.640   1.788   8.537 -1.1441  1.4652 -2.2401
 9294SOL     OW39514   2.564   1.847   0.514 -0.7402 -0.7695  0.3018
 9294SOL    HW139515   2.497   1.914   0.504 -0.7544 -0.7373  0.5955
 9294SOL    HW239516   2.630   1.889   0.460 -1.2782 -0.6026 -0.2165
 9295SOL     OW39517   3.894   0.891   6.767 -0.1552  0.8844  0.3320
 9295SOL    HW139518   3.906   0.801   6.738  1.1094  0.3143  2.6757
 9295SOL    HW239519   3.799   0.896   6.771 -0.0907  0.5690  2.0389
 9296SOL     OW39520   2.235   0.007   2.865  0.2984 -0.9438 -0.3959
 9296SOL    HW139521   2.220   0.028   2.773  2.7786 -1.2941 -0.8800
 9296SOL    HW239522   2.161   0.046   2.911  0.0045 -1.1193 -0.7178
 9297SOL     OW39523   3.168   3.309   6.155 -0.0900 -0.0052  0.2589
 9297SOL    HW139524   3.079   3.293   6.124 -1.2318  2.0568  2.4518
 9297SOL    HW239525   3.159   3.379   6.219  2.0702  0.2239  0.2989
 9298SOL     OW39526   3.746   0.659   6.142  0.2244  0.2441 -0.0545
 9298SOL    HW139527   3.813   0.591   6.145 -1.3091 -1.0749  4.2475
 9298SOL    HW239528   3.696   0.631   6.066  0.5398  1.5111 -0.7152
 9299SOL     OW39529   0.884   1.596   3.319 -0.0152  0.7118  0.0883
 9299SOL    HW139530   0.883   1.501   3.302 -1.3344  1.1032 -1.9951
 9299SOL    HW239531   0.839   1.640   3.248 -1.9190  0.3636  1.0530
 9300SOL     OW39532   4.618   4.135   0.103  0.5756  0.3348 -0.4242
 9300SOL    HW139533   4.542   4.166   0.152  0.1159  0.1015 -0.9860
 9300SOL    HW239534   4.582   4.076   0.037  0.8026  1.0074 -1.1497
 9301SOL     OW39535   0.847   1.928  16.006  0.0608 -0.1276 -0.4831
 9301SOL    HW139536   0.933   1.965  15.987  0.2948 -0.5235 -0.1776
 9301SOL    HW239537   0.792   1.986  15.952  1.3275 -0.4107 -2.0902
 9302SOL     OW39538   4.382   2.585   6.507  0.1805 -0.7769 -0.4579
 9302SOL    HW139539   4.409   2.670   6.541 -2.4827 -0.0639 -0.1553
 9302SOL    HW239540   4.380   2.537   6.590  1.9794 -1.8020 -1.0116
 9303SOL     OW39541   2.682   2.625   8.652 -0.5298 -0.2647 -0.0814
 9303SOL    HW139542   2.607   2.576   8.620  0.0545 -0.1567 -1.6258
 9303SOL    HW239543   2.640   2.659   8.731  1.1199 -0.8408  1.0497
 9304SOL     OW39544   3.767   1.632   5.397  0.0558 -0.1318  0.2654
 9304SOL    HW139545   3.689   1.673   5.436  0.1038  0.9317 -0.7362
 9304SOL    HW239546   3.821   1.621   5.475  1.6333  1.5091 -0.6041
 9305SOL     OW39547   1.457   2.255   1.980 -0.1768 -0.1659  0.4771
 9305SOL    HW139548   1.487   2.211   1.900  1.2712 -0.5569  1.2305
 9305SOL    HW239549   1.446   2.348   1.960  0.4322 -0.1111  0.3953
 9306SOL     OW39550   1.469   0.682   5.387 -0.1370  0.0131  0.5775
 9306SOL    HW139551   1.464   0.728   5.471 -0.0915 -0.8113  1.0312
 9306SOL    HW239552   1.471   0.594   5.424 -0.2773  0.0213  0.6054
 9307SOL     OW39553   4.156   3.945   5.642 -0.0845 -0.1468 -0.0191
 9307SOL    HW139554   4.159   4.017   5.579 -2.0365  0.6012  0.7258
 9307SOL    HW239555   4.091   3.980   5.704 -0.9157 -1.7943  0.0294
 9308SOL     OW39556   0.708   1.325   9.333  0.2870  0.4198 -0.4520
 9308SOL    HW139557   0.673   1.410   9.360 -0.0676 -0.4464  1.7863
 9308SOL    HW239558   0.794   1.351   9.300  0.6471 -0.7377 -0.3960
 9309SOL     OW39559   3.030   0.854   8.475 -0.1783 -0.6591  0.4271
 9309SOL    HW139560   2.974   0.907   8.418  0.0486  1.5495  2.2722
 9309SOL    HW239561   3.002   0.875   8.564  0.7948  0.5461  0.4377
 9310SOL     OW39562   2.292   2.819  11.667 -0.0955 -0.3121 -0.0860
 9310SOL    HW139563   2.385   2.815  11.691  0.2021  0.4556 -1.0727
 9310SOL    HW239564   2.260   2.885  11.727 -1.5429  1.0539 -2.3597
 9311SOL     OW39565   3.737   1.226   7.557  0.7982  0.4649 -0.3692
 9311SOL    HW139566   3.735   1.321   7.572  3.3212  0.5609 -0.7542
 9311SOL    HW239567   3.829   1.212   7.535  0.4188 -3.1575  0.3696
 9312SOL     OW39568   0.138   0.505  11.172 -0.1034 -0.4893  0.3796
 9312SOL    HW139569   0.109   0.594  11.152 -0.0218 -1.0417 -2.2573
 9312SOL    HW239570   0.227   0.512  11.138  0.1209 -1.0094  0.8612
 9313SOL     OW39571   0.984   2.737   5.393 -0.0874  0.1323 -0.3080
 9313SOL    HW139572   1.001   2.651   5.432  1.7360  0.8592  0.4792
 9313SOL    HW239573   1.030   2.792   5.456  0.1937 -0.3203 -0.1196
 9314SOL     OW39574   3.727   0.096  14.762 -0.4907  0.1138  0.5740
 9314SOL    HW139575   3.696   0.075  14.850  0.3486 -2.8995  0.1603
 9314SOL    HW239576   3.674   0.031  14.714  0.8972 -0.6279  0.0603
 9315SOL     OW39577   0.721   1.299  16.067 -0.2418  0.2289 -0.4009
 9315SOL    HW139578   0.660   1.357  16.022  1.2826  3.2622  1.4820
 9315SOL    HW239579   0.658   1.228  16.079  0.2533  0.1182  1.4999
 9316SOL     OW39580   0.520   3.839   9.780 -0.2666  0.6554 -0.0907
 9316SOL    HW139581   0.516   3.934   9.790 -3.2555  0.7190 -2.0774
 9316SOL    HW239582   0.611   3.816   9.800 -0.7358 -0.2983  0.8855
 9317SOL     OW39583   0.696   1.400   3.043 -0.1969  0.3192 -0.1272
 9317SOL    HW139584   0.657   1.461   3.104 -1.7155 -0.9201  0.1369
 9317SOL    HW239585   0.674   1.315   3.081 -1.7841  1.4833  1.5241
 9318SOL     OW39586   0.961   4.050   6.439 -1.0871  0.1109  0.2157
 9318SOL    HW139587   0.874   4.010   6.449 -1.0709  0.2442  0.8412
 9318SOL    HW239588   0.964   4.115   6.509 -0.7773 -1.1200  1.3489
 9319SOL     OW39589   1.164   3.019   4.252 -0.0160 -0.2251 -0.5999
 9319SOL    HW139590   1.118   2.982   4.176 -3.7182  0.7658  1.1388
 9319SOL    HW239591   1.249   2.975   4.252  0.2466  0.2830  1.5712
 9320SOL     OW39592   0.540   4.459   6.681 -0.0178  0.1869  0.2913
 9320SOL    HW139593   0.606   4.405   6.637  0.2798 -1.1969  2.4195
 9320SOL    HW239594   0.569   4.452   6.772  0.1778 -0.1206  0.2083
 9321SOL     OW39595   1.781   3.889  11.078 -0.2325  0.8724  0.3183
 9321SOL    HW139596   1.780   3.932  11.163  0.0415 -2.4464  1.9877
 9321SOL    HW239597   1.870   3.855  11.072 -0.3847  0.2500  1.7447
 9322SOL     OW39598   3.624   1.106   0.849 -0.2540  0.0087  0.6005
 9322SOL    HW139599   3.641   1.138   0.937 -2.9534  0.0245  1.0989
 9322SOL    HW239600   3.629   1.193   0.810 -0.3019  0.8013  2.3687
 9323SOL     OW39601   1.241   2.213   2.593 -0.7251  0.3587 -0.2821
 9323SOL    HW139602   1.294   2.195   2.515  0.0907 -1.3428  0.6605
 9323SOL    HW239603   1.193   2.131   2.594 -0.2667  0.1028  0.8970
 9324SOL     OW39604   1.124   0.090   5.228 -0.0233  0.2349  0.8398
 9324SOL    HW139605   1.102   0.112   5.319 -0.6037  2.2522  0.2106
 9324SOL    HW239606   1.196   0.149   5.208  0.5861 -1.8794 -3.2135
 9325SOL     OW39607   3.654   0.095   5.964 -0.9277  0.3217 -0.5361
 9325SOL    HW139608   3.674   0.151   5.889 -2.0729  2.2567  0.6166
 9325SOL    HW239609   3.742   0.058   5.972 -1.0933  0.2458  0.9334
 9326SOL     OW39610   3.705   2.279   5.960  0.2550 -0.1143  0.0629
 9326SOL    HW139611   3.789   2.242   5.935 -0.3432 -0.6068 -1.2018
 9326SOL    HW239612   3.733   2.370   5.974  1.5946 -0.4233 -0.6572
 9327SOL     OW39613   1.004   3.189   2.308  0.0044  0.3585  0.0322
 9327SOL    HW139614   1.042   3.177   2.221 -0.7115 -0.6431 -0.1481
 9327SOL    HW239615   0.910   3.180   2.291 -0.1140  1.4728  0.0812
 9328SOL     OW39616   0.926   1.222   5.249  0.3080 -0.4572  0.4584
 9328SOL    HW139617   0.884   1.215   5.163  1.9477 -0.8165 -0.3027
 9328SOL    HW239618   0.896   1.139   5.285  2.5367  0.0283  3.4032
 9329SOL     OW39619   1.632   3.285   1.914  0.6756  0.0570  0.5576
 9329SOL    HW139620   1.716   3.329   1.925  1.1523 -0.7728  0.2623
 9329SOL    HW239621   1.619   3.243   1.999 -2.0862  0.8057  0.5049
 9330SOL     OW39622   2.951   2.554  10.380 -0.1933  0.3522  0.8844
 9330SOL    HW139623   2.885   2.623  10.376 -0.4147  0.2156  2.1136
 9330SOL    HW239624   2.938   2.519  10.469 -3.1368 -0.4532  0.1559
 9331SOL     OW39625   0.543   4.278   1.235  0.5590  0.5580 -0.0653
 9331SOL    HW139626   0.509   4.364   1.210 -0.9268  0.0463  0.1996
 9331SOL    HW239627   0.627   4.289   1.190 -0.9874  0.6225 -2.9922
 9332SOL     OW39628   4.327   2.578   3.402  0.0746 -1.0107  0.1963
 9332SOL    HW139629   4.405   2.556   3.452  0.6912  0.9028  0.0518
 9332SOL    HW239630   4.275   2.628   3.465  0.6021  0.1852 -0.3127
 9333SOL     OW39631   0.533   2.203  14.267 -0.0134 -0.2413  0.2798
 9333SOL    HW139632   0.622   2.223  14.295 -0.6457  0.5599  1.6808
 9333SOL    HW239633   0.481   2.210  14.347 -0.0250 -0.8619  0.3284
 9334SOL     OW39634   0.448   0.003   4.781 -0.4208 -0.1874  0.2876
 9334SOL    HW139635   0.476   0.091   4.757 -0.6385 -0.9671 -2.7086
 9334SOL    HW239636   0.388   0.028   4.852  1.0887  2.0762  0.7738
 9335SOL     OW39637   2.049   4.732   9.308 -1.0723  0.2197  0.0766
 9335SOL    HW139638   2.040   0.002   9.403 -2.3577  1.6025 -0.1735
 9335SOL    HW239639   2.110   0.064   9.288  0.0294 -0.8409 -0.2877
 9336SOL     OW39640   2.947   2.761   4.676 -0.2017  0.4520  0.2772
 9336SOL    HW139641   2.966   2.795   4.588 -0.6354 -0.3697 -0.1370
 9336SOL    HW239642   2.965   2.668   4.667  3.7253  1.0075  2.7740
 9337SOL     OW39643   2.423   2.281   2.988 -0.1342 -0.7558 -0.5808
 9337SOL    HW139644   2.333   2.314   2.984  0.2346  0.3451  0.2241
 9337SOL    HW239645   2.449   2.272   2.897  0.1702  1.3933 -0.7108
 9338SOL     OW39646   3.588   0.488   8.218 -0.2938  0.0513 -0.1993
 9338SOL    HW139647   3.540   0.430   8.159  1.7873 -0.9474 -0.9228
 9338SOL    HW239648   3.646   0.428   8.265  0.2282  0.7576  0.0662
 9339SOL     OW39649   4.522   1.843   0.916  0.3625  0.4543  0.5783
 9339SOL    HW139650   4.514   1.828   1.010 -2.4213  0.1589  0.2712
 9339SOL    HW239651   4.432   1.836   0.887  0.1446 -0.9097  1.5394
 9340SOL     OW39652   0.875   1.488   8.993 -0.0615 -0.0998  0.3757
 9340SOL    HW139653   0.938   1.555   9.020  0.1342  0.1607 -0.7271
 9340SOL    HW239654   0.816   1.540   8.938  1.2090  2.0535  1.0193
 9341SOL     OW39655   4.141   1.043   2.893 -0.1156  0.2605  0.2357
 9341SOL    HW139656   4.047   1.025   2.904  0.5685 -3.3031  0.2715
 9341SOL    HW239657   4.126   1.092   2.812  0.3422 -1.2510 -0.7571
 9342SOL     OW39658   2.937   4.297   4.911 -0.0357  0.1733  0.2479
 9342SOL    HW139659   2.965   4.368   4.853 -1.6609  1.0585  0.5464
 9342SOL    HW239660   3.007   4.282   4.974  0.0708 -0.1114  0.0646
 9343SOL     OW39661   1.396   1.004   5.232  0.0329 -0.5013 -0.1732
 9343SOL    HW139662   1.320   1.051   5.267  0.2609 -0.0224 -0.3322
 9343SOL    HW239663   1.342   0.933   5.196  1.5743 -1.3860 -0.7505
 9344SOL     OW39664   2.306   3.212  11.038 -0.4886  0.1627  0.2865
 9344SOL    HW139665   2.390   3.197  11.083 -1.0354  1.9824  1.9252
 9344SOL    HW239666   2.340   3.263  10.964 -0.1359 -0.3784  0.0773
 9345SOL     OW39667   2.119   1.727  15.856  0.0015  0.2124  0.2783
 9345SOL    HW139668   2.127   1.632  15.844  5.1585  0.5128  1.2547
 9345SOL    HW239669   2.055   1.746  15.787  0.9838 -2.8988 -1.5252
 9346SOL     OW39670   0.173   1.787   0.713 -0.0633 -0.1239  0.4098
 9346SOL    HW139671   0.189   1.711   0.657  0.1036 -0.6310  1.1446
 9346SOL    HW239672   0.262   1.823   0.713  0.5392 -1.6207  2.8691
 9347SOL     OW39673   1.620   4.015   5.060  0.2256  0.0577  0.2331
 9347SOL    HW139674   1.567   4.082   5.103  1.1003  1.2767 -0.6178
 9347SOL    HW239675   1.662   4.073   4.997  3.2008  0.2891  2.4218
 9348SOL     OW39676   1.004   1.897   2.160 -0.0586 -0.3370  0.0483
 9348SOL    HW139677   0.925   1.843   2.152 -1.0773  1.2646 -0.6346
 9348SOL    HW239678   1.028   1.914   2.069 -1.2688  0.7680 -0.0551
 9349SOL     OW39679   3.905   2.284  12.719 -0.0992 -0.1518  0.3487
 9349SOL    HW139680   3.952   2.282  12.636  0.6633 -2.5092  0.8311
 9349SOL    HW239681   3.954   2.346  12.774  0.6981 -0.9588  0.5585
 9350SOL     OW39682   3.285   2.602   1.222 -0.0375 -0.3125  0.0269
 9350SOL    HW139683   3.362   2.659   1.216 -0.2692  0.0366  0.3313
 9350SOL    HW239684   3.318   2.512   1.221  3.4218  0.9964 -2.4360
 9351SOL     OW39685   0.321   2.093   4.015  0.3979 -0.1841 -0.0697
 9351SOL    HW139686   0.315   2.052   3.929  0.0883  1.6021 -0.8990
 9351SOL    HW239687   0.416   2.103   4.007  0.4221  1.4155  2.1240
 9352SOL     OW39688   3.101   4.596   3.941  0.4270  0.0276 -0.6373
 9352SOL    HW139689   3.138   4.551   3.865  1.7822 -0.5882  0.3890
 9352SOL    HW239690   3.037   4.641   3.886 -0.5317 -0.3039  0.2186
 9353SOL     OW39691   4.417   3.432   5.876 -0.0651  0.7084 -0.3096
 9353SOL    HW139692   4.489   3.475   5.921  1.8684 -1.3553 -1.4653
 9353SOL    HW239693   4.473   3.357   5.856 -2.9683 -0.8448 -2.6678
 9354SOL     OW39694   1.817   1.637  14.527 -0.3778  0.0605 -0.5986
 9354SOL    HW139695   1.852   1.631  14.616  0.2366  0.1840 -0.8287
 9354SOL    HW239696   1.862   1.710  14.485 -0.7457  2.0424  2.4800
 9355SOL     OW39697   4.169   0.803   6.072  0.2287 -0.3452  0.3544
 9355SOL    HW139698   4.184   0.839   5.984 -1.4065 -1.2060 -0.2827
 9355SOL    HW239699   4.173   0.886   6.119  0.1896  0.6542 -1.4028
 9356SOL     OW39700   0.686   0.696   7.890 -0.0752 -0.2216 -0.3470
 9356SOL    HW139701   0.642   0.650   7.961  0.3098  0.3498  0.2609
 9356SOL    HW239702   0.762   0.642   7.872 -0.6241  0.3920 -4.4316
 9357SOL     OW39703   0.882   4.228  14.251  0.2877  0.4253 -1.0773
 9357SOL    HW139704   0.800   4.270  14.278  0.8527  2.0330 -1.8615
 9357SOL    HW239705   0.855   4.138  14.265 -1.1297  0.5411 -3.1353
 9358SOL     OW39706   3.920   1.103   9.629 -0.3321 -0.2675 -0.0412
 9358SOL    HW139707   3.920   1.179   9.571 -2.3372 -0.4429 -0.2739
 9358SOL    HW239708   3.901   1.042   9.558  1.5777  0.9965 -1.6444
 9359SOL     OW39709   3.346   4.383  15.617  0.0280 -0.1099 -0.1279
 9359SOL    HW139710   3.406   4.452  15.587  0.0130 -0.4226 -0.8788
 9359SOL    HW239711   3.314   4.344  15.535  0.6784  2.0663 -1.4075
 9360SOL     OW39712   1.782   4.389   4.172 -0.2792 -0.1722 -0.3386
 9360SOL    HW139713   1.778   4.313   4.115 -1.0157 -0.3175 -0.0916
 9360SOL    HW239714   1.701   4.436   4.150  0.3031 -0.1401 -2.4234
 9361SOL     OW39715   0.596   4.709   7.666 -0.1852 -0.4951  0.3871
 9361SOL    HW139716   0.626   0.029   7.597 -1.6709  0.1128  0.2531
 9361SOL    HW239717   0.667   4.686   7.725 -2.0103  1.1397  3.2447
 9362SOL     OW39718   4.040   0.417   3.326  0.0229  0.4300 -0.4697
 9362SOL    HW139719   4.082   0.374   3.251 -0.1063  1.4958 -1.1642
 9362SOL    HW239720   3.963   0.360   3.325 -0.1987  0.7108  1.5764
 9363SOL     OW39721   4.700   0.735  15.735  0.1421  0.1684 -0.5881
 9363SOL    HW139722   0.001   0.744  15.821 -0.4697 -1.2957 -0.1569
 9363SOL    HW239723   4.640   0.661  15.746  0.3637 -0.1250 -1.3563
 9364SOL     OW39724   0.146   2.520  14.965 -0.4505 -0.4721 -0.2515
 9364SOL    HW139725   0.217   2.495  14.905 -0.9726 -0.2021 -0.9746
 9364SOL    HW239726   0.153   2.448  15.028 -1.5983 -1.6318 -1.4438
 9365SOL     OW39727   0.708   4.025  16.317 -0.5590  0.2552  0.4393
 9365SOL    HW139728   0.667   4.095  16.369 -2.5663  0.1881 -1.0459
 9365SOL    HW239729   0.631   3.969  16.313 -0.9795  0.8587  0.1007
 9366SOL     OW39730   0.011   2.161   2.729 -0.4091 -0.6149 -0.3367
 9366SOL    HW139731   0.069   2.086   2.713 -0.7754 -1.4108  2.1117
 9366SOL    HW239732   4.690   2.137   2.658 -1.2373  0.6529 -0.0601
 9367SOL     OW39733   3.835   1.467   6.798 -0.4890 -0.4269  0.0807
 9367SOL    HW139734   3.828   1.454   6.703 -0.4040  0.9702 -0.1180
 9367SOL    HW239735   3.746   1.449   6.828 -0.2422  1.1058  1.7459
 9368SOL     OW39736   3.738   4.131   0.657 -0.0402 -0.8256 -0.1426
 9368SOL    HW139737   3.773   4.204   0.605  0.1479 -0.6156  0.2796
 9368SOL    HW239738   3.757   4.158   0.747 -0.9883 -3.0706  0.7463
 9369SOL     OW39739   2.762   3.377   7.667 -0.4514 -0.2913  0.1297
 9369SOL    HW139740   2.800   3.398   7.581  0.0670  1.4890  0.7825
 9369SOL    HW239741   2.812   3.302   7.700 -0.0011  1.1324  2.6806
 9370SOL     OW39742   1.740   0.744   0.885 -0.0859  0.0148  0.3429
 9370SOL    HW139743   1.752   0.765   0.793  1.4851  0.1291  0.5801
 9370SOL    HW239744   1.659   0.692   0.883  0.4841 -0.8220 -0.8320
 9371SOL     OW39745   2.954   0.979  16.945 -0.2199  0.3773  0.1752
 9371SOL    HW139746   2.883   0.925  16.981 -1.3654  0.8509 -1.3527
 9371SOL    HW239747   3.019   0.909  16.937  0.1480  0.6152  1.0941
 9372SOL     OW39748   4.123   2.508   0.042 -0.8059 -0.5643  0.5510
 9372SOL    HW139749   4.048   2.547  17.751 -2.3119 -1.9988  1.8645
 9372SOL    HW239750   4.201   2.528  17.741 -0.0913 -3.5128  0.4848
 9373SOL     OW39751   0.991   2.359   2.543  0.6696 -0.0522  0.3876
 9373SOL    HW139752   1.035   2.417   2.482 -0.5884 -0.8251 -1.2424
 9373SOL    HW239753   1.028   2.277   2.512  0.3766 -0.6756  1.6607
 9374SOL     OW39754   1.044   4.046   5.644 -0.1652 -0.1160  0.2274
 9374SOL    HW139755   1.108   4.102   5.600  0.3407 -0.2077  0.8427
 9374SOL    HW239756   0.966   4.088   5.608  0.0316 -0.6381 -0.8208
 9375SOL     OW39757   3.225   2.794   0.294  0.3020  0.1702  0.9353
 9375SOL    HW139758   3.317   2.790   0.268 -0.0862  2.3471 -0.8837
 9375SOL    HW239759   3.209   2.883   0.262  0.7462  0.3154  1.1117
 9376SOL     OW39760   3.003   3.424   4.844  0.2048  0.5268  0.0861
 9376SOL    HW139761   3.044   3.355   4.896 -2.3248 -0.4196  0.8170
 9376SOL    HW239762   2.930   3.454   4.899  1.0314  2.1514  0.3208
 9377SOL     OW39763   2.896   1.942  16.928 -0.0148  0.1067  0.3954
 9377SOL    HW139764   2.928   1.914  17.014 -0.8478 -1.9041  0.0358
 9377SOL    HW239765   2.802   1.952  16.941 -0.1359 -2.3131  1.3975
 9378SOL     OW39766   2.499   3.267   3.516  1.1560  0.2421  1.3018
 9378SOL    HW139767   2.454   3.351   3.524 -0.5358 -0.4723 -0.9737
 9378SOL    HW239768   2.542   3.275   3.431 -0.0256  0.2550  0.7048
 9379SOL     OW39769   4.443   3.523   6.288  0.1120  0.6907 -0.4084
 9379SOL    HW139770   4.380   3.571   6.234 -0.8861 -0.2955 -0.1200
 9379SOL    HW239771   4.443   3.575   6.368  0.2617 -1.5230  1.0046
 9380SOL     OW39772   0.405   0.662   8.730 -0.0238  0.9099 -0.2643
 9380SOL    HW139773   0.451   0.598   8.785  0.2358  0.8164 -0.5891
 9380SOL    HW239774   0.445   0.624   8.652 -1.5984  1.6169 -1.3980
 9381SOL     OW39775   2.854   0.867   7.282 -0.0426  0.0057 -0.3322
 9381SOL    HW139776   2.835   0.918   7.204  1.5116 -0.4117 -0.9808
 9381SOL    HW239777   2.941   0.836   7.257 -0.5358 -0.4008 -1.5281
 9382SOL     OW39778   1.675   0.893  12.929  0.1522 -0.0025 -0.0515
 9382SOL    HW139779   1.705   0.904  12.838 -0.0971 -1.7217 -0.3285
 9382SOL    HW239780   1.742   0.830  12.953  0.3634 -0.7440 -2.5442
 9383SOL     OW39781   1.326   3.243   8.643  0.1709  0.1408  0.1296
 9383SOL    HW139782   1.307   3.336   8.632  0.0508 -0.1999 -2.4554
 9383SOL    HW239783   1.367   3.234   8.729 -0.4444 -2.7220  0.1444
 9384SOL     OW39784   0.579   2.637   8.090  0.0886  0.2334  0.5582
 9384SOL    HW139785   0.531   2.636   8.172 -2.1005  0.9112 -0.7241
 9384SOL    HW239786   0.603   2.545   8.073  2.5545  1.0149 -0.1567
 9385SOL     OW39787   3.805   2.802   5.484  0.0224 -0.1174  0.5602
 9385SOL    HW139788   3.780   2.862   5.415  2.5659  0.6064  0.2760
 9385SOL    HW239789   3.848   2.867   5.539  1.5016  1.0175 -1.9390
 9386SOL     OW39790   4.360   4.474  13.362  0.1711 -0.6210 -0.5614
 9386SOL    HW139791   4.434   4.532  13.351 -1.0698  1.2312  0.8851
 9386SOL    HW239792   4.326   4.449  13.276  2.6560 -0.2395 -1.6254
 9387SOL     OW39793   2.353   2.263  14.227 -0.2617  0.4925  0.0995
 9387SOL    HW139794   2.433   2.313  14.244  1.4156 -2.0920 -0.1646
 9387SOL    HW239795   2.308   2.330  14.176 -1.0650  0.7642  1.1818
 9388SOL     OW39796   4.088   3.528   3.595 -0.3584  0.0818  0.7040
 9388SOL    HW139797   4.153   3.554   3.529 -0.7847 -1.6694 -0.3951
 9388SOL    HW239798   4.115   3.568   3.678 -0.1942 -1.3841  1.3585
 9389SOL     OW39799   2.887   0.223   1.069 -0.1121  0.2371  0.0244
 9389SOL    HW139800   2.926   0.265   1.145 -0.2303 -0.8612  0.6944
 9389SOL    HW239801   2.919   0.134   1.082 -1.2931 -0.1269  0.4998
 9390SOL     OW39802   3.282   3.096   8.008 -0.0430  0.5198 -0.3927
 9390SOL    HW139803   3.338   3.172   8.025 -1.6578  1.8419 -0.9111
 9390SOL    HW239804   3.315   3.048   8.084  1.2109 -0.5559 -1.6198
 9391SOL     OW39805   2.022   2.016   3.246 -0.3642  0.3672  0.6134
 9391SOL    HW139806   2.076   1.959   3.302  0.9276  0.6217 -0.3636
 9391SOL    HW239807   2.052   2.002   3.156 -1.5630 -0.2738  0.3102
 9392SOL     OW39808   3.748   1.221   8.188  0.0619 -0.0290 -0.9657
 9392SOL    HW139809   3.811   1.245   8.121  1.3437  1.4001  0.7311
 9392SOL    HW239810   3.797   1.226   8.271 -2.0375  3.8963  0.0446
 9393SOL     OW39811   4.232   1.701  17.428  0.4100  0.3349 -0.1042
 9393SOL    HW139812   4.194   1.728  17.512  0.1574  1.3205 -0.5425
 9393SOL    HW239813   4.154   1.660  17.391 -1.0162  1.8409  1.2152
 9394SOL     OW39814   2.933   4.380   4.498 -0.3938 -0.3939  0.0347
 9394SOL    HW139815   2.952   4.432   4.420 -0.2394  0.4046  0.5964
 9394SOL    HW239816   2.870   4.311   4.479  0.0959 -1.4110  2.1303
 9395SOL     OW39817   0.956   3.408   3.484 -0.8915 -0.6727  0.3693
 9395SOL    HW139818   1.007   3.477   3.443 -0.3496 -1.6841 -0.6521
 9395SOL    HW239819   0.873   3.415   3.438  0.2638  0.0283 -1.6075
 9396SOL     OW39820   2.358   4.161  15.232  0.1702 -0.4636  0.0436
 9396SOL    HW139821   2.315   4.237  15.269 -0.8340 -1.8884  1.8231
 9396SOL    HW239822   2.304   4.147  15.154  1.7562 -1.7396 -0.8299
 9397SOL     OW39823   4.150   3.722   5.410 -0.1151 -0.0206 -0.6892
 9397SOL    HW139824   4.190   3.637   5.424  0.0164  0.0127 -0.8679
 9397SOL    HW239825   4.161   3.767   5.493  1.1105 -1.6904  0.0471
 9398SOL     OW39826   3.924   3.198   5.054 -0.0046 -0.7477  0.2224
 9398SOL    HW139827   3.866   3.197   4.977  0.4317 -0.7322 -0.1035
 9398SOL    HW239828   3.902   3.281   5.095  1.2643  0.7574 -2.1152
 9399SOL     OW39829   0.334   1.816  11.585 -0.3831 -0.3338 -0.5936
 9399SOL    HW139830   0.364   1.725  11.592  0.7274  0.0490 -0.2880
 9399SOL    HW239831   0.263   1.812  11.521  1.2672  1.5435 -2.5611
 9400SOL     OW39832   2.311   3.723  15.604 -0.9476 -0.6531  0.0671
 9400SOL    HW139833   2.234   3.721  15.548 -2.2125  1.4223  1.7288
 9400SOL    HW239834   2.273   3.696  15.687 -0.1813 -0.1487  0.5794
 9401SOL     OW39835   1.810   0.349   4.871 -0.0333 -0.8213  0.4165
 9401SOL    HW139836   1.747   0.299   4.819 -0.8284  0.4551  0.1665
 9401SOL    HW239837   1.772   0.436   4.870 -1.3427 -1.4058 -1.2216
 9402SOL     OW39838   0.354   2.303   7.130  0.1790  0.0789 -0.2919
 9402SOL    HW139839   0.392   2.216   7.119  0.4348 -0.0048  1.2975
 9402SOL    HW239840   0.390   2.332   7.213  2.2130 -0.5485 -0.9709
 9403SOL     OW39841   2.683   0.566   2.542  0.2913  0.0385  0.5524
 9403SOL    HW139842   2.685   0.478   2.581 -1.1280 -0.1727  0.1526
 9403SOL    HW239843   2.619   0.554   2.472 -0.3587  3.4313  0.5494
 9404SOL     OW39844   3.689   3.728   9.282 -0.3750  0.0292  0.1390
 9404SOL    HW139845   3.694   3.760   9.192  0.7606 -0.4745  0.0256
 9404SOL    HW239846   3.611   3.775   9.310  0.2522  1.1216  0.0834
 9405SOL     OW39847   0.171   1.021  12.556 -0.0031 -0.1922 -0.1782
 9405SOL    HW139848   0.145   1.113  12.551  1.2328  0.1644  0.0334
 9405SOL    HW239849   0.200   1.002  12.467  0.8895  2.9118 -0.5551
 9406SOL     OW39850   1.213   2.902   3.238  0.7631  0.1653  0.7377
 9406SOL    HW139851   1.279   2.952   3.190  1.1521 -0.1988  0.8907
 9406SOL    HW239852   1.255   2.817   3.228  0.1935  0.1374 -1.3277
 9407SOL     OW39853   4.689   4.118   3.519  0.5382  0.0432  0.3543
 9407SOL    HW139854   0.002   4.181   3.571  0.8158 -1.9619  2.4928
 9407SOL    HW239855   4.619   4.165   3.474  0.3448 -0.2078  0.3926
 9408SOL     OW39856   0.406   3.357   6.810 -0.2318  0.1856 -0.3058
 9408SOL    HW139857   0.365   3.426   6.862 -0.0117 -2.2765  3.1538
 9408SOL    HW239858   0.453   3.316   6.882  1.3414  0.2249 -1.3216
 9409SOL     OW39859   4.736   1.957   2.979  0.1046 -0.0317 -0.0691
 9409SOL    HW139860   0.035   1.925   3.061  0.4496  1.6271  0.4187
 9409SOL    HW239861   0.079   1.999   2.953 -0.3541  1.4546  0.9155
 9410SOL     OW39862   4.674   0.011   4.880  0.0618  0.2361  0.4575
 9410SOL    HW139863   4.731   0.083   4.853  1.5085 -1.3787 -0.8080
 9410SOL    HW239864   4.615   0.004   4.805 -0.0641 -2.0565  0.7608
 9411SOL     OW39865   2.991   1.139   5.079 -0.1928 -0.2687 -0.1807
 9411SOL    HW139866   3.057   1.185   5.131 -1.0522 -0.0203  0.6771
 9411SOL    HW239867   2.934   1.118   5.152 -0.2617  0.0495 -0.1455
 9412SOL     OW39868   3.248   4.126   3.034  0.1910 -0.1574 -0.1627
 9412SOL    HW139869   3.282   4.040   3.058 -0.6326 -0.3010  0.5017
 9412SOL    HW239870   3.326   4.180   3.048  0.6012 -1.1638  1.5046
 9413SOL     OW39871   3.883   2.862  17.599  0.4523 -0.1552  0.4557
 9413SOL    HW139872   3.883   2.865  17.503 -0.5789  5.2214  0.6069
 9413SOL    HW239873   3.846   2.946  17.625  1.3589  0.1381  0.7940
 9414SOL     OW39874   0.638   0.242   2.649  0.4238  0.2262  0.3616
 9414SOL    HW139875   0.665   0.299   2.721  0.4340  1.7877 -0.8817
 9414SOL    HW239876   0.544   0.257   2.658 -0.0323 -1.0231 -2.4793
 9415SOL     OW39877   1.767   3.877   8.654  0.1418 -0.0733  0.2551
 9415SOL    HW139878   1.789   3.813   8.586 -0.1697 -0.0953  0.1742
 9415SOL    HW239879   1.712   3.934   8.600 -0.4202 -0.3948  0.4855
 9416SOL     OW39880   0.754   3.806   3.027  0.2024  0.5832 -0.0324
 9416SOL    HW139881   0.725   3.718   3.003  0.2738  0.6731 -0.4535
 9416SOL    HW239882   0.720   3.859   2.954  1.1211  0.3992 -0.5885
 9417SOL     OW39883   2.333   1.176   6.309  0.7915 -0.5726 -0.2920
 9417SOL    HW139884   2.420   1.152   6.342  0.5206 -1.3037 -0.1026
 9417SOL    HW239885   2.321   1.093   6.262 -0.8472  0.0990 -1.0728
 9418SOL     OW39886   2.779   2.900   7.828  0.1252 -0.5251  0.1685
 9418SOL    HW139887   2.799   2.927   7.739  2.1441 -1.4995  0.3219
 9418SOL    HW239888   2.829   2.819   7.822  2.9218  1.0318  2.0120
 9419SOL     OW39889   2.938   0.206   9.450 -0.4652 -0.0195 -0.7733
 9419SOL    HW139890   2.991   0.222   9.528 -0.6453  2.3533 -1.1437
 9419SOL    HW239891   2.871   0.148   9.486 -0.0388 -1.6524 -2.6357
 9420SOL     OW39892   3.344   3.879   3.151 -0.6667 -0.2222 -0.0795
 9420SOL    HW139893   3.436   3.883   3.125 -1.1088 -1.0623 -1.7677
 9420SOL    HW239894   3.330   3.790   3.183  1.9687 -0.8658 -0.7266
 9421SOL     OW39895   1.234   2.065   7.727 -0.0542  0.1740  0.1790
 9421SOL    HW139896   1.171   2.093   7.793  1.4414  0.2158  1.5644
 9421SOL    HW239897   1.259   1.979   7.760  1.7026  0.4639 -0.3701
 9422SOL     OW39898   1.975   4.234  10.129 -0.8489  0.1686 -0.0129
 9422SOL    HW139899   1.946   4.148  10.159 -0.2422 -0.2751 -0.7115
 9422SOL    HW239900   1.939   4.233  10.041  0.9863 -1.7749 -0.7211
 9423SOL     OW39901   4.096   0.972   2.210 -0.6930  0.5850 -0.5086
 9423SOL    HW139902   4.156   0.998   2.280 -0.8725 -0.8730  0.1983
 9423SOL    HW239903   4.132   0.883   2.198  0.6155  0.7993  1.9288
 9424SOL     OW39904   2.711   0.501  15.800 -0.4731  0.0423  0.0076
 9424SOL    HW139905   2.671   0.430  15.749  0.0070 -1.9824  2.4671
 9424SOL    HW239906   2.773   0.539  15.738  0.6082  1.6827  2.0994
 9425SOL     OW39907   4.507   1.790   1.199  0.0360  0.2053 -0.1174
 9425SOL    HW139908   4.592   1.750   1.214  0.6516  1.6877  0.3798
 9425SOL    HW239909   4.504   1.836   1.283 -0.9805 -0.9444  0.4683
 9426SOL     OW39910   1.757   3.669  11.294  0.2241  0.4983 -0.4398
 9426SOL    HW139911   1.671   3.629  11.294 -1.5034  4.1565  0.3926
 9426SOL    HW239912   1.784   3.633  11.209 -1.6491 -0.6053 -0.5488
 9427SOL     OW39913   2.236   0.046   8.581  0.6700 -0.4555 -0.3101
 9427SOL    HW139914   2.185   0.028   8.502  0.7262 -1.0759 -0.2040
 9427SOL    HW239915   2.296   0.112   8.545 -0.0809 -0.4478 -1.5618
 9428SOL     OW39916   3.246   1.578  12.018  0.7390  0.1434 -0.5108
 9428SOL    HW139917   3.205   1.498  12.050  1.0765 -0.5304 -1.7723
 9428SOL    HW239918   3.338   1.566  12.042  0.7434  1.5077  0.1634
 9429SOL     OW39919   2.870   4.136  10.717  0.3053  0.0426 -0.4947
 9429SOL    HW139920   2.903   4.063  10.665  1.0091 -1.5550  2.1692
 9429SOL    HW239921   2.955   4.163  10.752 -0.4381  1.1867  0.4208
 9430SOL     OW39922   1.494   3.330   7.262 -0.2295 -0.1566  0.0816
 9430SOL    HW139923   1.489   3.368   7.174  1.4353  1.7147  0.8157
 9430SOL    HW239924   1.540   3.247   7.245  0.3583  0.1876  0.0004
 9431SOL     OW39925   4.578   1.423   8.844  0.2781 -0.1442  0.0079
 9431SOL    HW139926   4.591   1.476   8.765 -0.2367 -2.1511 -1.4383
 9431SOL    HW239927   4.508   1.465   8.893 -0.4935 -0.3667 -0.8959
 9432SOL     OW39928   3.309   0.762   9.179 -0.0533 -0.5025  0.0724
 9432SOL    HW139929   3.226   0.808   9.165  2.3401  3.0050 -2.5307
 9432SOL    HW239930   3.298   0.682   9.128  1.2074  1.9054 -3.9551
 9433SOL     OW39931   4.576   3.417  13.670 -0.0738 -0.2064  0.2965
 9433SOL    HW139932   4.639   3.471  13.718  0.9082 -0.0741 -1.1688
 9433SOL    HW239933   4.498   3.474  13.664 -1.4307 -2.0315  0.5532
 9434SOL     OW39934   4.716   3.680   5.630  0.0998 -0.1065  0.2665
 9434SOL    HW139935   4.658   3.621   5.581  1.8036 -1.6398  0.1093
 9434SOL    HW239936   4.642   3.726   5.670  1.0972  0.7216  1.1436
 9435SOL     OW39937   1.430   4.449   6.944 -0.2086  0.5226 -0.3508
 9435SOL    HW139938   1.372   4.517   6.978 -0.0291  1.4321 -1.8576
 9435SOL    HW239939   1.377   4.370   6.932 -1.5444  1.1420  1.4802
 9436SOL     OW39940   0.773   2.516  16.804  0.5136  0.3805  0.0378
 9436SOL    HW139941   0.756   2.482  16.892 -1.8603  2.7796  0.5151
 9436SOL    HW239942   0.865   2.541  16.809  0.0993  2.2863 -1.4002
 9437SOL     OW39943   3.619   4.656   2.075 -0.1263 -0.1810  0.0653
 9437SOL    HW139944   3.639   4.574   2.120 -1.0062 -1.1348 -1.2682
 9437SOL    HW239945   3.615   4.613   1.989  0.1595  0.4734 -0.2728
 9438SOL     OW39946   2.817   0.842   3.076  0.1299 -0.0868  0.2007
 9438SOL    HW139947   2.876   0.814   3.006 -0.2066 -0.2107 -0.0294
 9438SOL    HW239948   2.755   0.900   3.033 -0.2429 -1.5537 -1.2425
 9439SOL     OW39949   3.279   1.407   6.401 -0.3047 -0.1861  0.1197
 9439SOL    HW139950   3.280   1.475   6.334 -0.2674  0.9264  1.2521
 9439SOL    HW239951   3.336   1.443   6.470 -0.9497  0.3843  0.3558
 9440SOL     OW39952   1.967   0.377   6.895  0.0451  0.5955  0.0254
 9440SOL    HW139953   2.032   0.412   6.834  1.5385 -0.3664  1.0607
 9440SOL    HW239954   1.950   0.455   6.947 -2.1492  0.0142  0.1792
 9441SOL     OW39955   0.432   2.883  12.405 -0.3216  0.5588 -0.0857
 9441SOL    HW139956   0.419   2.967  12.359 -2.3777  1.2125  1.6928
 9441SOL    HW239957   0.478   2.918  12.481  0.3015 -1.0972  0.2877
 9442SOL     OW39958   0.974   2.425   4.354 -0.4593 -0.0068  0.1504
 9442SOL    HW139959   0.881   2.440   4.339 -0.9293 -1.1725  1.9791
 9442SOL    HW239960   1.012   2.513   4.346  0.3821 -0.5126 -1.4253
 9443SOL     OW39961   3.431   1.599   9.846  0.5261 -0.3016 -1.1000
 9443SOL    HW139962   3.460   1.615   9.935 -1.1237 -0.7254 -0.4907
 9443SOL    HW239963   3.465   1.510   9.833  2.0449  0.0394  0.6214
 9444SOL     OW39964   4.607   2.005  17.235  0.0891 -0.1916 -1.0222
 9444SOL    HW139965   4.668   1.937  17.263 -0.2662 -0.1023 -0.0132
 9444SOL    HW239966   4.672   2.059  17.190 -0.2560  1.0370 -0.0781
 9445SOL     OW39967   1.371   1.775   8.849 -0.1092  0.3471  0.3347
 9445SOL    HW139968   1.459   1.814   8.842  0.2866 -0.3655  1.4216
 9445SOL    HW239969   1.323   1.821   8.917 -1.5838 -0.4642 -0.1686
 9446SOL     OW39970   3.983   1.661  17.317  0.2895  0.9372  0.4482
 9446SOL    HW139971   3.930   1.587  17.289 -1.2122  1.7371  1.1938
 9446SOL    HW239972   3.979   1.723  17.244 -0.2431 -0.0853 -0.3933
 9447SOL     OW39973   1.654   1.557   4.780 -0.5487 -0.1639  0.2199
 9447SOL    HW139974   1.654   1.488   4.847 -2.0628 -0.3403  0.0568
 9447SOL    HW239975   1.727   1.533   4.724 -0.8557 -2.8887  0.9932
 9448SOL     OW39976   2.316   3.437   3.634 -0.0753  0.3310 -0.6557
 9448SOL    HW139977   2.282   3.420   3.722 -1.8477 -0.6091 -1.5310
 9448SOL    HW239978   2.316   3.532   3.622 -0.6544  0.2556 -1.2303
 9449SOL     OW39979   0.100   0.375   8.880  0.2434 -0.2673 -0.9360
 9449SOL    HW139980   0.007   0.379   8.858  0.0400  2.2054  0.4194
 9449SOL    HW239981   0.131   0.375   8.789  1.0285 -1.9777 -0.6586
 9450SOL     OW39982   4.575   0.406   6.375 -0.0867  0.1243  0.4757
 9450SOL    HW139983   4.558   0.390   6.468 -0.2846 -0.2676  0.3713
 9450SOL    HW239984   4.507   0.466   6.345 -0.9076 -0.3302  1.4115
 9451SOL     OW39985   3.873   2.829   7.370  0.2398  0.3238  0.0318
 9451SOL    HW139986   3.817   2.856   7.298  1.0531  2.1986  0.1117
 9451SOL    HW239987   3.818   2.778   7.430 -1.1611 -0.0701 -1.5855
 9452SOL     OW39988   4.311   2.994   0.368 -0.4392  0.0983  0.5624
 9452SOL    HW139989   4.288   2.956   0.283  0.5102 -0.4312  0.5381
 9452SOL    HW239990   4.236   2.976   0.425  0.9087  0.7648  2.5420
 9453SOL     OW39991   2.013   2.099  16.415  0.4927 -0.3859  0.0982
 9453SOL    HW139992   2.100   2.119  16.381 -0.0625 -0.9337 -1.6525
 9453SOL    HW239993   1.956   2.104  16.339  0.6991 -2.2304 -0.1692
 9454SOL     OW39994   1.713   2.535   3.045 -0.0061  0.1085 -0.0487
 9454SOL    HW139995   1.658   2.486   2.985  0.0952 -1.6588  1.2877
 9454SOL    HW239996   1.714   2.617   2.996 -0.0947 -0.6864 -1.3669
 9455SOL     OW39997   1.614   2.296   4.142 -0.4473  0.1176  0.1931
 9455SOL    HW139998   1.579   2.235   4.206 -0.3258  0.1698  0.3108
 9455SOL    HW239999   1.550   2.365   4.155  1.0146  1.7141 -0.9834
 9456SOL     OW40000   2.688   1.643  15.915  0.3449 -0.7396 -0.1911
 9456SOL    HW140001   2.645   1.703  15.854  0.1127 -1.1472 -0.4296
 9456SOL    HW240002   2.613   1.609  15.964  0.0143 -0.5007 -0.5386
 9457SOL     OW40003   1.041   4.204   3.153  0.7574  0.1846  0.1748
 9457SOL    HW140004   1.020   4.146   3.080  0.4193 -0.8091  1.0577
 9457SOL    HW240005   0.978   4.272   3.128  2.7010  1.6481 -0.7683
 9458SOL     OW40006   3.296   0.761   8.601 -0.0186 -0.4280 -0.0809
 9458SOL    HW140007   3.250   0.753   8.684  0.8634 -0.1965  0.4313
 9458SOL    HW240008   3.305   0.855   8.584  1.0173 -0.3070  1.0970
 9459SOL     OW40009   0.265   2.983   5.984 -0.1278 -0.1466 -0.1833
 9459SOL    HW140010   0.324   3.037   5.931  0.9245  1.0771  2.2106
 9459SOL    HW240011   0.307   2.971   6.069  1.7189  1.1413 -0.8988
 9460SOL     OW40012   0.952   3.606   7.517 -0.2731  0.4916  0.4205
 9460SOL    HW140013   0.887   3.652   7.570 -0.2718  1.5543 -0.5049
 9460SOL    HW240014   1.021   3.599   7.583  2.0228 -1.3616 -2.1725
 9461SOL     OW40015   0.525   2.581   2.310 -0.3171  0.4443  0.4971
 9461SOL    HW140016   0.558   2.493   2.294  1.6222  1.6391 -1.9595
 9461SOL    HW240017   0.565   2.609   2.393  1.1897  0.8372 -0.3665
 9462SOL     OW40018   3.912   2.702   6.716 -0.0975 -0.2624 -0.2498
 9462SOL    HW140019   3.902   2.617   6.760 -0.3385  0.0831  0.3644
 9462SOL    HW240020   3.958   2.758   6.778 -2.4277  0.0558  1.1787
 9463SOL     OW40021   2.153   4.649  10.669 -0.2798 -0.2591  0.3528
 9463SOL    HW140022   2.210   4.572  10.666 -2.2033 -1.5878 -2.3885
 9463SOL    HW240023   2.080   4.601  10.708 -1.1586 -0.1308 -1.1230
 9464SOL     OW40024   4.271   2.612   7.966 -0.1444 -0.0038 -0.1040
 9464SOL    HW140025   4.258   2.663   7.886  0.2404 -1.3983 -1.0576
 9464SOL    HW240026   4.353   2.566   7.949  1.1586  1.5130  2.0416
 9465SOL     OW40027   2.370   1.665   0.377 -0.1281  0.3783 -0.1018
 9465SOL    HW140028   2.380   1.748   0.331  0.7776  0.7674  0.7742
 9465SOL    HW240029   2.462   1.647   0.395 -0.3773 -2.6545 -1.9835
 9466SOL     OW40030   0.715   3.571   7.261 -1.0226  0.7175 -0.8128
 9466SOL    HW140031   0.666   3.591   7.340  0.2770  2.8024 -0.5396
 9466SOL    HW240032   0.772   3.648   7.258 -0.2683  0.1995 -0.1539
 9467SOL     OW40033   0.232   3.747  12.773  1.0088 -0.0951 -0.3466
 9467SOL    HW140034   0.245   3.823  12.829 -2.7363  0.1133  0.2495
 9467SOL    HW240035   0.317   3.741  12.728  0.7367 -1.4034 -0.6956
 9468SOL     OW40036   4.607   2.457   6.296 -0.0022 -0.0899 -0.0516
 9468SOL    HW140037   4.632   2.547   6.273 -0.4623  0.0837  0.1160
 9468SOL    HW240038   4.536   2.477   6.357  0.2966 -0.9123  0.5560
 9469SOL     OW40039   0.350   3.546   2.294 -0.3281 -0.1280 -0.1491
 9469SOL    HW140040   0.291   3.518   2.224  1.5449  2.7479 -2.9162
 9469SOL    HW240041   0.303   3.576   2.372 -0.0508 -0.0632 -0.0066
 9470SOL     OW40042   1.666   1.698  15.562  0.1286  0.2209  0.2011
 9470SOL    HW140043   1.591   1.679  15.617 -1.8256  2.8584 -1.5436
 9470SOL    HW240044   1.625   1.709  15.476  2.5486 -0.1467 -1.0220
 9471SOL     OW40045   1.760   2.391   8.797  0.1164  0.1021 -0.7409
 9471SOL    HW140046   1.753   2.479   8.834 -3.6388 -0.4349 -0.1581
 9471SOL    HW240047   1.708   2.410   8.719  2.1143 -2.0384 -2.5805
 9472SOL     OW40048   3.844   1.253   5.019 -0.6039  0.1095 -0.7002
 9472SOL    HW140049   3.755   1.281   5.039  0.4940  2.4293  0.8706
 9472SOL    HW240050   3.868   1.182   5.078 -1.6628  0.4315  0.1213
 9473SOL     OW40051   1.525   3.084   5.713  0.1579 -0.0508 -0.7398
 9473SOL    HW140052   1.587   3.129   5.656  1.4553 -1.4621 -0.4519
 9473SOL    HW240053   1.587   3.039   5.770 -2.3282 -0.2072  1.8139
 9474SOL     OW40054   1.112   0.947   9.794 -0.3153 -0.5070  0.5540
 9474SOL    HW140055   1.025   0.918   9.766 -0.4984  0.8220 -0.2656
 9474SOL    HW240056   1.149   0.949   9.706  0.5815  1.5627  0.9794
 9475SOL     OW40057   1.368   2.875  12.750 -0.5628  0.0288 -0.0500
 9475SOL    HW140058   1.331   2.788  12.735 -0.8136  0.1118  0.0930
 9475SOL    HW240059   1.436   2.849  12.812  0.4520  1.5861 -0.5104
 9476SOL     OW40060   1.096   0.869   6.031 -0.5631  0.0559  1.0022
 9476SOL    HW140061   1.082   0.923   6.109 -0.3714  0.8462  0.4951
 9476SOL    HW240062   1.188   0.849   6.046 -0.2620  0.7584  0.0458
 9477SOL     OW40063   1.504   4.693  10.023  0.2342 -0.0973  0.4766
 9477SOL    HW140064   1.520   4.599  10.029 -1.3136 -0.4016 -0.0397
 9477SOL    HW240065   1.416   4.701  10.060 -0.1827 -0.9650 -0.3369
 9478SOL     OW40066   3.329   1.650   6.283 -0.4343  0.3376  0.2673
 9478SOL    HW140067   3.256   1.688   6.234 -0.2394  2.0988  1.3543
 9478SOL    HW240068   3.322   1.702   6.363 -0.5327 -1.7654  1.6436
 9479SOL     OW40069   2.673   1.133   9.126  0.4705  0.8144  0.2011
 9479SOL    HW140070   2.719   1.143   9.209  0.7749 -1.0675  0.2485
 9479SOL    HW240071   2.613   1.207   9.136  1.5493  1.7500 -0.2389
 9480SOL     OW40072   0.752   3.122   0.984 -0.2549 -0.0496 -0.1358
 9480SOL    HW140073   0.764   3.070   0.905  1.3645 -0.2168  0.2106
 9480SOL    HW240074   0.776   3.059   1.052 -3.2359  1.2548  2.1597
 9481SOL     OW40075   1.270   0.920   7.091  0.2199  0.3088 -0.0268
 9481SOL    HW140076   1.325   0.852   7.131 -1.7649 -0.3015  1.6958
 9481SOL    HW240077   1.240   0.879   7.010 -2.0403  1.6393  0.1544
 9482SOL     OW40078   2.784   1.917   8.865  0.3756 -0.1931 -0.2547
 9482SOL    HW140079   2.865   1.870   8.846 -0.1910 -0.2988 -2.4292
 9482SOL    HW240080   2.782   1.986   8.798 -2.2462  0.0482  0.0748
 9483SOL     OW40081   2.542   0.552   3.432  0.4127 -0.0823  0.2656
 9483SOL    HW140082   2.600   0.617   3.472  0.3778  0.5450 -0.7024
 9483SOL    HW240083   2.454   0.590   3.434  0.4346  0.0015 -0.3214
 9484SOL     OW40084   0.467   3.009   8.737  0.1170  0.2882  0.1004
 9484SOL    HW140085   0.467   3.098   8.773  0.8649  1.2025 -2.1709
 9484SOL    HW240086   0.518   2.971   8.808  1.4598 -2.9966 -2.6743
 9485SOL     OW40087   1.508   0.804   8.206  0.3308 -0.0392 -0.1987
 9485SOL    HW140088   1.470   0.852   8.280  0.7060  0.8905 -0.5961
 9485SOL    HW240089   1.464   0.719   8.203 -2.0974  1.2773 -1.8750
 9486SOL     OW40090   0.991   1.630  16.885 -0.2006 -0.1072  0.0846
 9486SOL    HW140091   0.896   1.638  16.890 -0.3335  0.3594 -3.1879
 9486SOL    HW240092   1.001   1.536  16.872 -3.2163 -0.5186  0.8942
 9487SOL     OW40093   3.837   4.661   1.481 -0.1642  0.2865 -0.7407
 9487SOL    HW140094   3.766   4.611   1.439  0.5940 -2.8552  1.7657
 9487SOL    HW240095   3.818   0.005   1.436  1.4525  0.5371 -0.9664
 9488SOL     OW40096   3.623   4.209   3.435  0.0054 -0.5227  0.3831
 9488SOL    HW140097   3.590   4.291   3.398 -1.0370 -1.6413 -1.1596
 9488SOL    HW240098   3.705   4.195   3.387 -1.0362  0.4574 -1.6616
 9489SOL     OW40099   2.518   2.295   0.177  0.2503 -0.2275 -0.0371
 9489SOL    HW140100   2.529   2.377   0.226  0.4585  0.4329 -1.1785
 9489SOL    HW240101   2.568   2.323   0.100 -2.1384 -1.6977 -2.1279
 9490SOL     OW40102   2.594   2.428   7.058 -0.3897 -0.1505 -0.4767
 9490SOL    HW140103   2.569   2.336   7.057 -1.2481  0.0885 -0.3370
 9490SOL    HW240104   2.687   2.431   7.034 -1.1230  0.8165 -3.2083
 9491SOL     OW40105   0.049   1.243   3.331  0.4839 -0.4624  0.1558
 9491SOL    HW140106   0.128   1.252   3.278  0.8324 -0.2935  0.7008
 9491SOL    HW240107   0.081   1.293   3.406 -1.2211 -1.9630  1.8737
 9492SOL     OW40108   4.276   0.082   7.991 -0.3833  0.2000  0.4560
 9492SOL    HW140109   4.355   0.028   8.000 -0.1715  0.3459 -0.6098
 9492SOL    HW240110   4.314   0.168   7.972 -0.2061 -0.1320 -0.6890
 9493SOL     OW40111   0.660   2.003   3.179 -0.9325  0.0610  0.4549
 9493SOL    HW140112   0.657   2.098   3.177  1.0390  0.2016  3.0898
 9493SOL    HW240113   0.748   1.993   3.215 -1.1284 -1.2663  0.5947
 9494SOL     OW40114   4.172   0.836   3.393  0.4298  0.4876  0.0397
 9494SOL    HW140115   4.104   0.901   3.376  0.0935  0.1484  0.0976
 9494SOL    HW240116   4.135   0.756   3.355 -1.0739  2.0002 -1.6745
 9495SOL     OW40117   0.408   2.293   0.122  0.6520  0.3408  0.5766
 9495SOL    HW140118   0.334   2.329   0.172 -0.5693 -1.1814 -0.1438
 9495SOL    HW240119   0.398   2.353   0.048  0.0208 -0.3833  0.0877
 9496SOL     OW40120   3.613   3.855   3.212 -0.2955 -0.3725 -0.7702
 9496SOL    HW140121   3.680   3.794   3.183  0.5669 -0.0789  0.6412
 9496SOL    HW240122   3.678   3.924   3.222 -1.2942  0.3419  0.9003
 9497SOL     OW40123   1.699   0.964  10.532  0.2569 -0.6845 -0.2652
 9497SOL    HW140124   1.618   0.917  10.553  0.4051 -0.6037  0.4636
 9497SOL    HW240125   1.704   1.039  10.591  2.0890  0.3138 -1.6789
 9498SOL     OW40126   1.492   0.616   5.064  0.1279  0.7208 -0.4395
 9498SOL    HW140127   1.558   0.597   4.997 -0.4201 -2.2829 -0.1139
 9498SOL    HW240128   1.502   0.711   5.072  3.6552  0.2810  0.3258
 9499SOL     OW40129   1.524   1.662  11.392  0.2342  0.4550  0.0169
 9499SOL    HW140130   1.579   1.725  11.346  0.4013 -0.6925 -1.3298
 9499SOL    HW240131   1.454   1.643  11.329  2.2999  1.1022 -2.4552
 9500SOL     OW40132   2.574   0.075   8.825  0.0986  0.0835 -0.2278
 9500SOL    HW140133   2.601   4.738   8.774 -1.7114  0.7385 -2.1664
 9500SOL    HW240134   2.599   0.147   8.766  0.2360 -0.9305 -1.3921
 9501SOL     OW40135   2.964   1.853   5.818  0.0883 -0.1762  0.4655
 9501SOL    HW140136   3.053   1.859   5.852  0.9078  0.1962 -1.7664
 9501SOL    HW240137   2.911   1.901   5.882  1.1505  1.9822 -0.2672
 9502SOL     OW40138   2.164   3.422  16.945 -0.1774 -0.0379  0.3214
 9502SOL    HW140139   2.159   3.455  17.035  0.7147  0.4118  0.2108
 9502SOL    HW240140   2.123   3.494  16.897 -0.0760 -1.2095 -1.5156
 9503SOL     OW40141   0.069   2.951   0.197 -0.2490  0.1558 -0.2420
 9503SOL    HW140142   0.123   3.002   0.136 -1.3617  2.0145  0.3282
 9503SOL    HW240143   0.111   2.985   0.276  0.8938  0.5204 -0.9988
 9504SOL     OW40144   2.089   1.094   8.821  0.5637  0.2913  0.8856
 9504SOL    HW140145   2.134   1.010   8.827  0.9815  0.5225  1.0337
 9504SOL    HW240146   2.040   1.077   8.741  0.1631 -0.7396  1.3583
 9505SOL     OW40147   1.721   3.776   9.351 -0.1693  0.4211 -0.4560
 9505SOL    HW140148   1.658   3.835   9.392 -0.2596  0.5292 -0.7521
 9505SOL    HW240149   1.704   3.797   9.259 -0.9096  1.4169 -0.0794
 9506SOL     OW40150   4.010   4.066  16.694 -0.3598 -0.0421  0.2936
 9506SOL    HW140151   4.000   3.975  16.721 -0.7583 -0.3585 -0.8916
 9506SOL    HW240152   4.104   4.063  16.676 -0.8519 -1.6238 -2.0979
 9507SOL     OW40153   0.533   2.684   4.267 -0.1383 -0.5604  0.2824
 9507SOL    HW140154   0.465   2.619   4.284  0.9099 -1.9276 -0.7730
 9507SOL    HW240155   0.528   2.733   4.349 -0.8935  0.6547 -0.4813
 9508SOL     OW40156   0.714   0.620   2.613 -0.2417 -0.0589 -0.1734
 9508SOL    HW140157   0.808   0.616   2.600 -0.5248 -0.3813 -2.2402
 9508SOL    HW240158   0.694   0.614   2.706  0.5739  1.8141  0.1200
 9509SOL     OW40159   1.928   2.116   9.197 -0.1344 -0.4916  0.3924
 9509SOL    HW140160   1.966   2.191   9.244  2.7093 -1.6727 -0.0077
 9509SOL    HW240161   1.853   2.157   9.153  1.5760 -0.6810 -2.7123
 9510SOL     OW40162   3.723   2.584   8.250 -0.7599 -0.2670  0.0978
 9510SOL    HW140163   3.817   2.596   8.264 -0.9875  2.1665 -0.4702
 9510SOL    HW240164   3.727   2.491   8.227  0.8830 -0.3810  0.7983
 9511SOL     OW40165   1.207   4.629   3.774  0.0694 -0.3867 -0.3518
 9511SOL    HW140166   1.117   4.620   3.744 -0.5372 -2.6155  2.1498
 9511SOL    HW240167   1.208   4.554   3.834  3.2805 -2.3750 -2.8588
 9512SOL     OW40168   2.904   4.098   3.473 -0.2679 -0.4554 -0.3925
 9512SOL    HW140169   2.991   4.127   3.501 -0.8388  1.5051 -0.6965
 9512SOL    HW240170   2.853   4.155   3.530 -0.6030 -1.3989  0.2573
 9513SOL     OW40171   1.888   1.189  17.370  0.7191 -0.1394 -0.6548
 9513SOL    HW140172   1.870   1.253  17.439  1.5828 -1.2789  0.6093
 9513SOL    HW240173   1.946   1.237  17.311  0.1429  1.0032 -0.2935
 9514SOL     OW40174   4.470   4.301  15.943  0.8992 -0.0403 -0.2599
 9514SOL    HW140175   4.493   4.364  15.876  0.4263  0.0960 -0.2911
 9514SOL    HW240176   4.420   4.357  16.002 -0.5518 -0.1373 -1.4173
 9515SOL     OW40177   2.382   1.417  12.812 -0.1957  0.8707  0.0399
 9515SOL    HW140178   2.327   1.397  12.736 -2.5742  0.5230  1.8742
 9515SOL    HW240179   2.454   1.471  12.780  0.4591 -0.0275  0.0172
 9516SOL     OW40180   2.204   3.008   7.647 -0.7244 -0.4405  0.0023
 9516SOL    HW140181   2.240   2.919   7.651 -2.6376 -1.2429 -0.4806
 9516SOL    HW240182   2.203   3.034   7.555  0.6642 -0.1423  0.0824
 9517SOL     OW40183   0.033   2.661  16.732 -0.1357 -0.3556  0.1327
 9517SOL    HW140184   0.058   2.744  16.692 -0.9036 -0.6550 -0.9732
 9517SOL    HW240185   4.725   2.615  16.662  1.0407  0.3658 -1.1076
 9518SOL     OW40186   1.093   2.499   1.984  0.1727  0.0212 -0.6010
 9518SOL    HW140187   1.118   2.504   2.077 -1.2797  1.0866 -0.2700
 9518SOL    HW240188   1.031   2.570   1.970 -0.1523  0.0209  0.8379
 9519SOL     OW40189   1.919   0.458   4.452  0.2751  0.0246 -0.4898
 9519SOL    HW140190   1.982   0.464   4.380  1.8685  0.1620  0.8985
 9519SOL    HW240191   1.861   0.384   4.433  0.8099 -0.5467  0.0876
 9520SOL     OW40192   2.801   3.400   1.614  0.2206  0.1541 -0.1755
 9520SOL    HW140193   2.778   3.314   1.580  1.0095 -0.0923 -0.1022
 9520SOL    HW240194   2.720   3.446   1.595  0.9923  1.2097 -0.9567
 9521SOL     OW40195   2.634   3.088   6.116 -0.0877 -0.1921  0.0313
 9521SOL    HW140196   2.643   3.001   6.155  0.4606 -0.4774 -0.7500
 9521SOL    HW240197   2.696   3.088   6.043  0.6853 -1.2983  0.6989
 9522SOL     OW40198   4.019   2.204  11.556 -0.1028 -0.1163 -0.4137
 9522SOL    HW140199   4.030   2.163  11.642 -0.0394 -0.0355 -0.3834
 9522SOL    HW240200   3.926   2.199  11.532  0.2916 -1.3381 -1.7019
 9523SOL     OW40201   3.268   1.007  12.668  0.0295  0.2837 -0.8975
 9523SOL    HW140202   3.184   0.972  12.697  0.4542 -1.4393 -1.7785
 9523SOL    HW240203   3.326   0.952  12.720  0.1710  0.5921 -0.7323
 9524SOL     OW40204   3.175   0.983   1.974  0.3738 -0.9253 -0.3792
 9524SOL    HW140205   3.102   0.950   2.026 -1.2200  0.1250 -1.9458
 9524SOL    HW240206   3.229   0.905   1.965 -1.5806 -2.2686 -0.4426
 9525SOL     OW40207   4.544   2.962   0.480  0.2623 -0.1179 -0.1936
 9525SOL    HW140208   4.589   3.042   0.452 -1.1370  0.1995 -1.5452
 9525SOL    HW240209   4.460   2.973   0.437  0.0504 -1.0068 -0.0048
 9526SOL     OW40210   0.980   2.194  14.149  0.3018 -0.1241 -0.0471
 9526SOL    HW140211   0.942   2.198  14.237 -1.2767  0.7921 -0.7703
 9526SOL    HW240212   0.918   2.245  14.096  1.5009  0.0921 -1.2640
 9527SOL     OW40213   3.148   3.248   4.997  0.1521  0.8801 -0.1648
 9527SOL    HW140214   3.227   3.196   5.008 -1.0050 -0.9378 -0.4189
 9527SOL    HW240215   3.095   3.231   5.075  1.3642 -1.7765  0.0835
 9528SOL     OW40216   2.643   2.344  15.510 -0.1319 -0.3224 -0.1213
 9528SOL    HW140217   2.734   2.372  15.495 -0.5580  0.1302 -1.8797
 9528SOL    HW240218   2.614   2.322  15.421  0.3894 -0.4954 -0.2565
 9529SOL     OW40219   0.579   3.442   9.767 -0.3227 -0.0066  0.2341
 9529SOL    HW140220   0.505   3.487   9.725 -1.2014 -2.0906 -0.4780
 9529SOL    HW240221   0.635   3.520   9.767  0.3495 -0.4886 -2.7249
 9530SOL     OW40222   1.063   3.695   2.709  0.7247 -0.6603  0.0468
 9530SOL    HW140223   1.061   3.629   2.778  2.2993  0.7760  1.4561
 9530SOL    HW240224   1.087   3.647   2.629 -1.0955  1.6636 -1.9024
 9531SOL     OW40225   0.973   1.245  11.372 -0.1927  0.1293  0.0870
 9531SOL    HW140226   1.011   1.306  11.309  2.3273  0.4110  1.8948
 9531SOL    HW240227   0.974   1.302  11.449 -0.1500 -0.2207  0.3469
 9532SOL     OW40228   1.634   3.891   1.264  0.0754 -0.3772 -0.0906
 9532SOL    HW140229   1.625   3.824   1.196  1.6459 -1.2430  0.5577
 9532SOL    HW240230   1.725   3.868   1.284  0.0070  0.6656  1.4558
 9533SOL     OW40231   0.944   1.150   9.436 -0.0112  0.4330  0.4666
 9533SOL    HW140232   1.025   1.120   9.395  0.0435  1.9136 -0.5002
 9533SOL    HW240233   0.927   1.219   9.372  0.0118  0.5424  0.5793
 9534SOL     OW40234   3.354   2.198   0.200 -0.4012 -0.0978  0.2117
 9534SOL    HW140235   3.325   2.137   0.268  2.3097  0.3370  1.7553
 9534SOL    HW240236   3.360   2.146   0.120 -0.6319 -0.6374  0.5441
 9535SOL     OW40237   1.187   1.530  11.555  0.1223  0.1873 -0.3769
 9535SOL    HW140238   1.235   1.610  11.537  0.0681  0.4486  0.6319
 9535SOL    HW240239   1.253   1.479  11.603  0.6833  1.1085 -0.1658
 9536SOL     OW40240   1.328   4.166   2.765  0.0517  1.0005 -0.3213
 9536SOL    HW140241   1.316   4.071   2.764 -1.3579  1.1815 -1.7007
 9536SOL    HW240242   1.237   4.196   2.768 -0.2885 -0.0300 -0.4006
 9537SOL     OW40243   1.195   0.529   5.216 -0.1625  0.3392 -0.7439
 9537SOL    HW140244   1.249   0.583   5.274 -0.4289  1.0405 -1.1430
 9537SOL    HW240245   1.243   0.446   5.218 -1.0341 -0.1318  1.2542
 9538SOL     OW40246   1.456   0.068  15.296 -0.2019  0.2117  0.5602
 9538SOL    HW140247   1.372   0.114  15.296  0.1062  0.7725 -1.3817
 9538SOL    HW240248   1.475   0.032  15.210  1.8459  1.9758  0.2842
 9539SOL     OW40249   3.834   1.043   5.889 -0.2873 -0.2445  0.1758
 9539SOL    HW140250   3.920   1.035   5.847  0.3138  1.1874  1.1355
 9539SOL    HW240251   3.775   1.058   5.815  2.1268  1.1399 -1.4774
 9540SOL     OW40252   0.657   1.724   0.021  0.3525 -0.1680  0.1899
 9540SOL    HW140253   0.659   1.637   0.060 -0.1472 -0.7597 -1.0884
 9540SOL    HW240254   0.737   1.711  17.721  0.4801  1.0848  0.0710
 9541SOL     OW40255   3.121   3.726   9.198  0.0463 -0.2898  0.0142
 9541SOL    HW140256   3.152   3.707   9.110 -1.3945 -1.7918 -0.1714
 9541SOL    HW240257   3.065   3.802   9.179  0.1281 -0.7874 -2.1445
 9542SOL     OW40258   4.186   4.459   6.855 -1.0691 -0.0998 -0.6183
 9542SOL    HW140259   4.103   4.425   6.822 -1.5337 -0.4263  0.8859
 9542SOL    HW240260   4.208   4.394   6.921  1.3570 -0.3052 -1.6526
 9543SOL     OW40261   1.179   3.737   3.963 -0.0491  0.1643 -0.1931
 9543SOL    HW140262   1.105   3.691   4.004  0.1004 -0.2825 -0.4272
 9543SOL    HW240263   1.249   3.701   4.016 -0.0086 -0.8339 -0.9366
 9544SOL     OW40264   1.570   3.593   1.427  0.0381 -0.6015  0.8607
 9544SOL    HW140265   1.626   3.579   1.351 -2.5860  0.2215 -1.2458
 9544SOL    HW240266   1.485   3.574   1.386 -0.4460  3.3726 -0.0488
 9545SOL     OW40267   1.532   2.812   6.606  0.6919 -0.0251  0.1750
 9545SOL    HW140268   1.464   2.761   6.650  0.9139 -1.9858 -1.7168
 9545SOL    HW240269   1.556   2.882   6.666 -2.0426  0.4264  0.7342
 9546SOL     OW40270   2.895   3.712   2.832  0.0810 -0.6584 -0.3724
 9546SOL    HW140271   2.803   3.728   2.815 -0.2170 -0.7256  1.1607
 9546SOL    HW240272   2.896   3.723   2.927  1.0619 -0.1664 -0.4402
 9547SOL     OW40273   1.826   0.835  14.675  0.3492 -0.0324  0.1715
 9547SOL    HW140274   1.857   0.925  14.661  0.6506 -0.1106  0.3306
 9547SOL    HW240275   1.818   0.807  14.584  1.1735 -0.5369  0.2498
 9548SOL     OW40276   3.374   1.021  16.572 -0.0929 -0.2780 -0.0540
 9548SOL    HW140277   3.283   0.990  16.568 -0.2200 -0.0974  1.5739
 9548SOL    HW240278   3.394   1.006  16.664  0.9724  0.9228 -0.0956
 9549SOL     OW40279   3.029   4.218   8.200  0.1258 -0.3705 -0.1421
 9549SOL    HW140280   3.124   4.209   8.211  0.3986  1.1438 -1.1500
 9549SOL    HW240281   2.996   4.209   8.289  1.9517 -0.2212  0.5546
 9550SOL     OW40282   1.678   4.137  11.863  0.2676  0.4357 -0.1498
 9550SOL    HW140283   1.633   4.065  11.818 -2.6838  1.5938  0.9640
 9550SOL    HW240284   1.667   4.206  11.797 -0.0851 -0.6097 -1.1783
 9551SOL     OW40285   0.424   3.756   2.540  0.3299  0.6675 -0.2181
 9551SOL    HW140286   0.461   3.766   2.453 -0.7799  0.7453 -0.6797
 9551SOL    HW240287   0.485   3.785   2.608  0.6301 -0.1291 -0.1409
 9552SOL     OW40288   1.240   4.678  10.089 -0.0301 -0.0933 -0.2487
 9552SOL    HW140289   1.207   4.589  10.101 -1.5767  0.5336  0.2333
 9552SOL    HW240290   1.181   4.717  10.154  0.4370 -0.3482  0.3231
 9553SOL     OW40291   1.286   2.557   9.089  0.7475  0.2725 -0.0194
 9553SOL    HW140292   1.350   2.486   9.083 -0.8632 -1.2569  0.8884
 9553SOL    HW240293   1.272   2.575   9.182 -2.7113 -1.2810 -0.2361
 9554SOL     OW40294   3.469   0.782   5.752  1.0261  0.2379  0.2150
 9554SOL    HW140295   3.503   0.721   5.817  0.0508  0.7264  1.1783
 9554SOL    HW240296   3.547   0.815   5.706  0.0821  1.0167 -0.8427
 9555SOL     OW40297   1.262   1.777  11.465  0.4303  0.0191  0.1532
 9555SOL    HW140298   1.267   1.765  11.371  0.5234  1.5253 -0.0418
 9555SOL    HW240299   1.355   1.797  11.479  0.4170 -1.3721  2.2236
 9556SOL     OW40300   3.100   0.837   8.804  0.2041  0.1105 -0.5842
 9556SOL    HW140301   3.074   0.833   8.896  0.7883  0.8636 -0.3924
 9556SOL    HW240302   3.027   0.872   8.753 -1.4468 -0.8820  1.0777
 9557SOL     OW40303   1.153   2.628   7.610  0.2477 -0.6003 -0.3205
 9557SOL    HW140304   1.198   2.552   7.646 -0.0664 -0.3984  0.4946
 9557SOL    HW240305   1.091   2.598   7.543 -0.7543  0.2858  0.1970
 9558SOL     OW40306   2.612   2.164   0.594  0.0665 -0.2586 -0.1127
 9558SOL    HW140307   2.690   2.112   0.614 -0.1086  0.6550  2.9530
 9558SOL    HW240308   2.609   2.248   0.640 -0.0192 -0.2406 -0.1510
 9559SOL     OW40309   2.740   3.342   8.567  0.2771  0.1363  0.2177
 9559SOL    HW140310   2.662   3.306   8.609  1.4455 -1.0516  1.3387
 9559SOL    HW240311   2.772   3.396   8.640  2.2439  2.8291 -2.6267
 9560SOL     OW40312   2.299   0.477   2.069  0.5849  0.2404  0.0142
 9560SOL    HW140313   2.376   0.531   2.051  0.2919  0.8592  0.5947
 9560SOL    HW240314   2.251   0.487   1.986  0.2018 -0.5880  0.1376
 9561SOL     OW40315   3.179   2.038   8.083 -0.7205 -0.6547  0.4645
 9561SOL    HW140316   3.161   1.995   7.999  0.4569  1.4098 -0.8681
 9561SOL    HW240317   3.091   2.054   8.116 -0.6055  3.2852 -1.0614
 9562SOL     OW40318   2.558   0.755  14.001  0.3092  0.0256  0.4326
 9562SOL    HW140319   2.513   0.819  14.055 -0.8887  0.7303 -1.3821
 9562SOL    HW240320   2.648   0.756  14.031  0.7641  0.7660 -0.9682
 9563SOL     OW40321   3.809   0.591  15.170 -0.4671  0.1803 -0.9234
 9563SOL    HW140322   3.895   0.625  15.196 -0.2347 -0.9927 -0.1856
 9563SOL    HW240323   3.782   0.659  15.108  0.4015  0.3747 -1.0875
 9564SOL     OW40324   3.864   0.795  13.955  0.3265  0.0625  0.6514
 9564SOL    HW140325   3.948   0.750  13.949 -0.4523 -1.3357  0.3641
 9564SOL    HW240326   3.810   0.717  13.945 -0.3515  0.5450  0.5245
 9565SOL     OW40327   3.098   2.321   5.267  0.0785 -0.1056 -0.2499
 9565SOL    HW140328   3.165   2.279   5.320 -2.4095 -2.5864  0.9815
 9565SOL    HW240329   3.020   2.301   5.319 -1.0639 -2.4528 -2.8684
 9566SOL     OW40330   1.265   2.480   3.589  0.3468 -0.6324  0.2995
 9566SOL    HW140331   1.302   2.404   3.544  0.3122 -0.0286 -0.7439
 9566SOL    HW240332   1.287   2.549   3.526 -0.7341 -0.8815 -0.3356
 9567SOL     OW40333   0.611   3.711   1.525 -0.2159  0.4226 -0.8606
 9567SOL    HW140334   0.668   3.658   1.470  2.1896  1.8447  0.2668
 9567SOL    HW240335   0.635   3.802   1.506  1.4043  0.0368 -0.6453
 9568SOL     OW40336   1.870   3.532   4.990 -0.4535 -0.7203  0.1048
 9568SOL    HW140337   1.948   3.544   4.936 -0.5396 -1.7541 -0.2510
 9568SOL    HW240338   1.813   3.602   4.958 -0.3561 -0.3620  0.7190
 9569SOL     OW40339   4.025   1.825   6.298 -0.1657 -0.0733 -0.3938
 9569SOL    HW140340   4.018   1.902   6.241 -0.8070 -0.9793 -1.5466
 9569SOL    HW240341   4.089   1.848   6.364  0.0397 -0.6772 -0.3797
 9570SOL     OW40342   2.348   1.547   1.740  0.5171 -0.1443  0.2439
 9570SOL    HW140343   2.311   1.458   1.732  1.3412 -0.5935  1.4415
 9570SOL    HW240344   2.377   1.548   1.831 -0.8354 -0.6809  0.6865
 9571SOL     OW40345   2.423   3.877   1.193  0.5731 -0.2479  0.4963
 9571SOL    HW140346   2.487   3.891   1.123  1.4123 -1.0344  1.1055
 9571SOL    HW240347   2.394   3.791   1.165 -1.5018 -0.1543  2.3963
   4.73871   4.73871  17.75278
