Membrane in water
40347
    1TMC1    C1    1   0.152   2.270  11.618  0.2795  0.1995 -0.3785
    1TMC1    C2    2   0.250   2.333  11.693  0.2931 -0.5280 -0.4169
    1TMC1    C3    3   0.366   2.352  11.629  0.3916 -0.9520  0.3342
    1TMC1    C4    4   0.174   2.221  11.493  0.2077  0.2989  0.6585
    1TMC1    C5    5   0.294   2.251  11.438  0.3264  0.3061  0.6102
    1TMC1    C6    6   0.399   2.315  11.501 -0.3237 -0.0665  0.2236
    1TMC1     C    7   0.025   2.280  11.675 -0.5785  0.1120  0.4829
    1TMC1     O    8   0.008   2.359  11.764  0.1196  0.1159  0.6780
    1TMC1     H    9   0.241   2.364  11.796 -0.5700  1.0213 -0.9472
    1TMC1    H1   10   0.090   2.189  11.433 -0.3440 -1.4586  2.3477
    1TMC1    H2   11   0.503   2.314  11.469  0.1175 -1.6491  1.7433
    1TMC1    C7   12   0.341   2.153  11.338 -0.8414 -0.7636 -0.0336
    1TMC1    C8   13   0.466   2.433  11.694  0.2005  0.0926 -0.6873
    1TMC1    O1   14   0.443   2.095  11.361 -0.6448 -0.6899 -0.5251
    1TMC1    O2   15   0.471   2.555  11.716 -0.1396 -0.0733  0.3793
    1TMC1    O3   16   0.236   2.113  11.272  0.3703 -0.1952 -0.0611
    1TMC1    H3   17   0.180   2.194  11.274  2.3463  1.2018 -1.6437
    1TMC1    O5   18   0.571   2.350  11.710 -0.0937 -0.0508  0.3268
    1TMC1    H5   19   0.542   2.258  11.722 -0.6809  0.1071  0.1386
    2MPD2     C   20   4.265   2.138  11.700  0.0709  0.7629 -0.7355
    2MPD2    C1   21   4.326   2.248  11.751  1.1840  0.3229  0.2916
    2MPD2    C2   22   4.467   2.259  11.731  0.3384 -0.1020  0.1157
    2MPD2    C3   23   4.539   2.174  11.651  0.2738  0.3382 -1.3636
    2MPD2    C4   24   4.474   2.069  11.600  0.3532 -0.1711  0.3455
    2MPD2    C5   25   4.340   2.052  11.623  0.1695 -0.8676  0.3282
    2MPD2     H   26   4.521   2.339  11.780 -1.0458  0.8992  0.0291
    2MPD2    H1   27   4.529   1.993  11.546  0.8570 -0.3916  1.1560
    2MPD2    H2   28   4.158   2.122  11.712  0.4907 -2.9145 -1.8191
    2MPD2    H3   29   4.290   1.964  11.586  0.8115 -0.5229 -1.3577
    2MPD2     N   30   4.673   2.182  11.621  0.1364  0.2819 -0.0598
    2MPD2    H5   31   4.711   2.124  11.547 -0.0061 -2.9654  2.4037
    2MPD2    N1   32   4.268   2.347  11.832  0.9405  0.4383 -0.5748
    2MPD2    H7   33   4.332   2.419  11.864  0.2428 -0.3056  2.4144
    3TMC1    C1   34   2.882   4.176  10.287 -0.2584 -0.7830  0.0737
    3TMC1    C2   35   2.962   4.280  10.268  0.3835  0.2695  0.4533
    3TMC1    C3   36   3.010   4.305  10.145  0.0419  0.0388 -0.3018
    3TMC1    C4   37   2.842   4.101  10.183 -0.3891  0.6094 -0.5162
    3TMC1    C5   38   2.891   4.133  10.061 -0.4956  0.0586 -0.6887
    3TMC1    C6   39   2.966   4.241  10.034 -0.1456 -0.0383 -0.2709
    3TMC1     C   40   2.820   4.134  10.415  0.0164  0.0751  0.0193
    3TMC1     O   41   2.747   4.036  10.419 -0.3982  0.1945 -0.3579
    3TMC1     H   42   2.987   4.350  10.347  0.9464 -0.7946  1.2177
    3TMC1    H1   43   2.779   4.014  10.199  1.1022 -0.2577  0.6578
    3TMC1    H2   44   2.986   4.275   9.933 -1.5989  0.1795 -0.4875
    3TMC1    C7   45   2.863   4.036   9.962  0.3035  0.6682  0.2349
    3TMC1    C8   46   3.063   4.440  10.129  0.0327 -0.4086 -0.3074
    3TMC1    O1   47   2.801   3.930   9.983 -0.3775 -0.2237  0.4368
    3TMC1    O2   48   3.029   4.505  10.033  0.5111 -0.2587 -0.0638
    3TMC1    O3   49   2.941   4.054   9.847  0.1710 -0.4267 -0.3503
    3TMC1    H3   50   2.998   4.133   9.845  1.6289 -1.3954  2.3363
    3TMC1    O5   51   3.148   4.471  10.235 -0.1367 -0.0170  0.1841
    3TMC1    H5   52   3.183   4.391  10.279 -0.7863  0.1639  1.0121
    4MPD2     C   53   2.761   4.172  10.925 -0.4796  0.1593 -0.1117
    4MPD2    C1   54   2.811   4.299  10.880 -0.2762 -0.1575  0.3752
    4MPD2    C2   55   2.835   4.311  10.742 -0.2939  1.2837 -0.3994
    4MPD2    C3   56   2.817   4.203  10.654  0.0357 -0.0829  0.4826
    4MPD2    C4   57   2.777   4.084  10.707 -0.2813  0.5113 -0.0407
    4MPD2    C5   58   2.758   4.061  10.844 -0.3827  0.1919  0.3191
    4MPD2     H   59   2.871   4.407  10.705  1.2695  0.9187  0.1597
    4MPD2    H1   60   2.771   4.002  10.636  0.9654  0.9978 -0.7063
    4MPD2    H2   61   2.736   4.157  11.029  0.1931  0.7516  0.1339
    4MPD2    H3   62   2.747   3.963  10.888 -1.3908 -0.2851 -1.0234
    4MPD2     N   63   2.850   4.219  10.518 -0.4731  0.0179 -0.7129
    4MPD2    H5   64   2.915   4.291  10.489  0.6716 -1.1796 -1.0813
    4MPD2    N1   65   2.824   4.412  10.963  0.3734 -0.2218 -0.0253
    4MPD2    H7   66   2.862   4.491  10.911  2.6201 -1.2350  0.0698
    5TCq1    O1   67   4.449   1.042  12.431  0.0061 -0.3394  0.3122
    5TCq1    C1   68   4.385   0.947  12.498 -0.0854  0.4365  0.1598
    5TCq1    O2   69   4.356   0.962  12.614  0.4815  0.1348 -0.0422
    5TCq1    C2   70   4.296   0.882  12.410 -0.0646  0.8522  0.0984
    5TCq1    C3   71   4.211   0.807  12.479  0.0739 -0.6925 -0.3896
    5TCq1    C4   72   4.079   0.791  12.447 -0.1781  0.2259 -0.4361
    5TCq1    C5   73   4.019   0.870  12.354 -0.0703  0.1719 -0.0647
    5TCq1    C6   74   4.110   0.942  12.284  0.0752  1.0990  0.0595
    5TCq1    C7   75   4.242   0.955  12.313  0.0402 -0.1741 -0.3123
    5TCq1    C8   76   4.062   1.036  12.192 -0.3033 -0.1000  0.2053
    5TCq1    O4   77   4.128   1.061  12.097 -0.0668  0.7755 -0.1932
    5TCq1    C9   78   3.999   0.701  12.531 -0.6362 -0.0653 -0.1379
    5TCq1    O5   79   3.874   0.705  12.526 -0.1809 -0.3707  0.3414
    5TCq1    O6   80   4.055   0.624  12.610 -0.5130 -0.1062  0.5985
    5TCq1    H1   81   4.467   1.019  12.338 -2.7901  2.7270 -0.9942
    5TCq1    H2   82   4.254   0.748  12.559 -0.2799 -0.5283 -0.0769
    5TCq1    H3   83   3.912   0.868  12.334 -0.1613 -0.4276  0.4781
    5TCq1    H4   84   4.305   1.014  12.248 -0.7690  1.6903  0.6128
    6MPD2     C   85   3.725   1.184  12.200  0.8012  0.1746  0.0727
    6MPD2    C1   86   3.842   1.145  12.144  0.0957 -0.4271 -0.6601
    6MPD2    C2   87   3.854   1.147  12.006 -0.7401  0.1675  0.4837
    6MPD2    C3   88   3.752   1.196  11.926  0.0534  0.0441 -0.3923
    6MPD2    C4   89   3.636   1.235  11.987 -0.3848 -0.2409  0.2910
    6MPD2    C5   90   3.625   1.232  12.118 -0.2123 -0.8256  0.9410
    6MPD2     H   91   3.943   1.108  11.958 -2.6878 -0.0019 -2.9907
    6MPD2    H1   92   3.549   1.260  11.927  0.3825  1.5534 -0.0716
    6MPD2    H2   93   3.706   1.187  12.307 -2.3468 -0.4957 -0.4579
    6MPD2    H3   94   3.525   1.254  12.153  0.4783  1.4551  1.4765
    6MPD2     N   95   3.787   1.205  11.789 -0.4916 -0.1255  0.4746
    6MPD2    H5   96   3.878   1.167  11.768 -1.7154 -2.2905 -0.8320
    6MPD2    N1   97   3.934   1.081  12.224 -0.1405 -0.2359  0.3210
    6MPD2    H7   98   3.909   1.066  12.321  2.1564 -1.9171  0.6390
    7TCq1    O1   99   0.478   4.675  12.661 -0.0957  0.1120  0.1785
    7TCq1    C1  100   0.604   4.672  12.699  0.2746  0.5869 -0.0248
    7TCq1    O2  101   0.698   4.618  12.639 -0.0009  0.4677  0.5676
    7TCq1    C2  102   0.622   4.735  12.827 -0.5074  0.7139 -0.4506
    7TCq1    C3  103   0.560   0.117  12.868  0.3410  0.1199 -0.5601
    7TCq1    C4  104   0.583   0.159  12.993  0.3040 -0.2096  0.1063
    7TCq1    C5  105   0.661   0.089  13.082 -0.8314  0.3733  0.0293
    7TCq1    C6  106   0.729   4.724  13.039 -0.4741 -0.0225 -0.1539
    7TCq1    C7  107   0.715   4.678  12.910  0.1917 -0.6777 -0.1398
    7TCq1    C8  108   0.823   4.651  13.126  0.2774  0.8460  0.3190
    7TCq1    O4  109   0.864   4.541  13.085 -0.1904  0.0283  0.3966
    7TCq1    C9  110   0.475   0.231  13.037 -0.2362 -0.3218  0.4147
    7TCq1    O5  111   0.477   0.266  13.158  0.3534 -0.0010  0.0934
    7TCq1    O6  112   0.365   0.229  12.968 -0.1107  0.4390  0.6166
    7TCq1    H1  113   0.417   4.701  12.733  1.4711 -0.0765  1.5738
    7TCq1    H2  114   0.489   0.159  12.797 -1.4197  0.4645  1.3798
    7TCq1    H3  115   0.650   0.125  13.184  0.7687  1.5882 -0.2272
    7TCq1    H4  116   0.768   4.589  12.880 -0.4111 -1.1536  0.2136
    8MPD2     C  117   1.199   4.652  13.461  1.2700  0.2330  0.4501
    8MPD2    C1  118   1.165   4.556  13.364  0.1445  0.3395 -0.0697
    8MPD2    C2  119   1.055   4.580  13.288  0.1921 -0.0420 -0.5116
    8MPD2    C3  120   0.984   4.694  13.297  0.1007  0.1005  0.0885
    8MPD2    C4  121   1.014   0.049  13.393  0.5041  0.2338 -0.3607
    8MPD2    C5  122   1.108   0.020  13.481 -0.1919 -0.1602  0.3817
    8MPD2     H  123   1.022   4.502  13.219 -0.1631 -0.7796  0.4802
    8MPD2    H1  124   0.961   0.143  13.397 -0.8008 -0.5524  0.6964
    8MPD2    H2  125   1.275   4.631  13.535 -0.5553 -2.0728  1.6681
    8MPD2    H3  126   1.135   0.089  13.561  1.5032  1.6850 -1.7915
    8MPD2     N  127   0.873   4.727  13.226 -0.4600  0.0629  0.2011
    8MPD2    H5  128   0.841   0.085  13.233 -1.8980 -0.3293 -1.0282
    8MPD2    N1  129   1.233   4.432  13.369  0.2125  0.4232  0.0954
    8MPD2    H7  130   1.311   4.425  13.433 -0.4241  0.8202  0.9121
    9TMC1    C1  131   3.506   4.002  11.702  0.4064  0.2150  0.1612
    9TMC1    C2  132   3.380   4.055  11.693  0.1743  0.0790  0.4138
    9TMC1    C3  133   3.368   4.190  11.683  1.1050  0.2554 -0.6518
    9TMC1    C4  134   3.621   4.076  11.690  0.6058  0.9960  0.1763
    9TMC1    C5  135   3.599   4.214  11.674 -0.2223 -0.3601 -0.3394
    9TMC1    C6  136   3.477   4.279  11.671 -0.2921  1.0355  0.2137
    9TMC1     C  137   3.517   3.860  11.737 -0.3868  0.2668  0.4042
    9TMC1     O  138   3.416   3.804  11.773 -0.1090 -0.4417  0.1264
    9TMC1     H  139   3.289   3.998  11.707  0.2308 -0.0914  0.0993
    9TMC1    H1  140   3.721   4.035  11.697 -0.0302  0.0072  3.4952
    9TMC1    H2  141   3.454   4.384  11.687 -2.7151  0.0032  3.4341
    9TMC1    C7  142   3.703   4.305  11.688 -0.3656 -0.2202 -0.6846
    9TMC1    C8  143   3.241   4.256  11.699 -0.1920 -0.7949 -0.0819
    9TMC1    O1  144   3.733   4.371  11.787 -0.1904  0.4498  0.3039
    9TMC1    O2  145   3.159   4.225  11.786  0.2762 -0.1717 -0.4093
    9TMC1    O3  146   3.709   4.355  11.562 -0.1536 -0.2191  0.6943
    9TMC1    H3  147   3.649   4.319  11.493 -0.5816  1.6738  0.0551
    9TMC1    O5  148   3.203   4.284  11.574 -0.1234 -0.1452  0.2666
    9TMC1    H5  149   3.282   4.282  11.516 -1.6540  0.0314 -1.8530
   10MPD2     C  150   3.612   3.577  11.776  0.7207  0.4135  0.0429
   10MPD2    C1  151   3.685   3.687  11.749 -0.2870 -0.8874 -0.1557
   10MPD2    C2  152   3.826   3.684  11.747 -0.6507 -0.0052  0.0470
   10MPD2    C3  153   3.895   3.568  11.781 -1.2517  0.5191 -0.2791
   10MPD2    C4  154   3.815   3.462  11.817  0.7582 -0.2652  0.2701
   10MPD2    C5  155   3.684   3.463  11.804 -0.1135  0.5081 -0.3415
   10MPD2     H  156   3.876   3.780  11.755 -0.9551 -0.0485  2.5007
   10MPD2    H1  157   3.864   3.374  11.856  2.1374 -0.0535 -0.9848
   10MPD2    H2  158   3.504   3.574  11.792  0.3200  0.5251 -2.6103
   10MPD2    H3  159   3.636   3.372  11.838 -2.4194  1.4773 -1.0054
   10MPD2     N  160   4.033   3.558  11.803 -0.0577  0.1093  0.8260
   10MPD2    H5  161   4.082   3.487  11.858 -1.2070  0.4998  2.3683
   10MPD2    N1  162   3.641   3.811  11.719  0.9060 -0.6138  0.2205
   10MPD2    H7  163   3.712   3.880  11.695  0.7585 -0.5104  0.0814
   11TCq1    O1  164   4.179   3.971  14.857  0.1619 -0.1983  0.5469
   11TCq1    C1  165   4.316   3.954  14.852  0.8556 -0.1124  0.7092
   11TCq1    O2  166   4.377   3.942  14.958 -0.3774 -0.7294 -0.7915
   11TCq1    C2  167   4.371   4.040  14.748 -0.3827 -0.3564  0.0467
   11TCq1    C3  168   4.447   4.152  14.791 -0.0439 -0.7609 -0.1140
   11TCq1    C4  169   4.516   4.217  14.689 -0.7953  0.1058 -0.0412
   11TCq1    C5  170   4.507   4.180  14.554 -0.4287  0.8508 -0.2533
   11TCq1    C6  171   4.445   4.068  14.528 -0.2610 -0.4477 -0.7417
   11TCq1    C7  172   4.378   3.989  14.620 -0.0560  0.5259 -0.2337
   11TCq1    C8  173   4.433   4.033  14.383 -0.3278  0.1512 -0.4209
   11TCq1    O4  174   4.443   4.130  14.305 -0.1920 -0.4737  0.0608
   11TCq1    C9  175   4.575   4.341  14.727 -0.0538  0.6111  0.4592
   11TCq1    O5  176   4.532   4.397  14.834 -0.6239  0.0658 -1.0038
   11TCq1    O6  177   4.644   4.402  14.639  0.2950 -0.2509  0.1489
   11TCq1    H1  178   4.148   4.021  14.778  3.4385 -0.0870 -0.6472
   11TCq1    H2  179   4.449   4.187  14.894  0.9546 -0.2303 -0.3195
   11TCq1    H3  180   4.543   4.250  14.481 -2.4968 -0.0615 -2.1516
   11TCq1    H4  181   4.307   3.913  14.589  0.2793  0.3098 -0.4686
   12MPD2     C  182   4.456   3.930  14.114 -0.0405 -0.1070  0.0099
   12MPD2    C1  183   4.425   3.852  14.223  0.4445 -0.2542 -0.4159
   12MPD2    C2  184   4.396   3.713  14.201 -0.0795  0.1745 -0.1865
   12MPD2    C3  185   4.400   3.658  14.072  0.2182 -0.8720 -0.3787
   12MPD2    C4  186   4.439   3.738  13.973 -0.1014  0.1624  0.2194
   12MPD2    C5  187   4.467   3.868  13.996  0.1128 -0.2576 -0.1506
   12MPD2     H  188   4.385   3.652  14.290  0.4160  0.8754  0.3546
   12MPD2    H1  189   4.454   3.688  13.879  1.0710  1.3428 -0.2132
   12MPD2    H2  190   4.468   4.037  14.116  2.2372 -0.3375 -1.0882
   12MPD2    H3  191   4.510   3.908  13.905  2.1117  0.8707  1.3031
   12MPD2     N  192   4.376   3.525  14.030  0.3463 -0.1120 -0.3578
   12MPD2    H5  193   4.391   3.501  13.932 -3.0475 -0.0983 -0.8848
   12MPD2    N1  194   4.420   3.903  14.353 -0.4752  0.2182 -0.1996
   12MPD2    H7  195   4.415   3.837  14.430 -0.7954 -0.3008 -0.6733
   13TCq1    O1  196   3.646   4.006  10.566  0.0107 -0.7169 -0.0612
   13TCq1    C1  197   3.539   3.919  10.564 -0.4012 -0.4754 -0.5881
   13TCq1    O2  198   3.552   3.802  10.589  0.1604  0.0261 -0.1256
   13TCq1    C2  199   3.431   4.000  10.612  0.1927 -0.0858  0.5001
   13TCq1    C3  200   3.379   4.098  10.536 -0.0054 -0.0304  0.2540
   13TCq1    C4  201   3.266   4.154  10.579  0.2140 -0.0864 -0.4062
   13TCq1    C5  202   3.214   4.136  10.705  0.0934 -0.3444 -0.5782
   13TCq1    C6  203   3.284   4.053  10.783  0.3887  0.7920 -0.4961
   13TCq1    C7  204   3.384   3.975  10.737 -0.1965 -0.0910  0.9333
   13TCq1    C8  205   3.246   4.041  10.929  0.1245  0.6796  0.6067
   13TCq1    O4  206   3.131   4.084  10.951  0.0336  0.3804 -0.4616
   13TCq1    C9  207   3.213   4.256  10.497 -0.1016 -0.4366 -0.1348
   13TCq1    O5  208   3.123   4.333  10.542 -0.1763  0.4692  0.2234
   13TCq1    O6  209   3.274   4.280  10.393 -0.5071 -0.9330  0.6711
   13TCq1    H1  210   3.626   4.102  10.565 -1.4421 -0.9957  1.4655
   13TCq1    H2  211   3.427   4.135  10.445  0.9351  0.2526  0.8669
   13TCq1    H3  212   3.125   4.188  10.737  0.1851  0.1143 -1.0559
   13TCq1    H4  213   3.437   3.913  10.809 -1.1751 -0.8972  0.9622
   14MPD2     C  214   3.452   3.913  11.203  0.0134 -0.6424  0.4161
   14MPD2    C1  215   3.342   3.970  11.144 -1.0236  0.8793  0.6562
   14MPD2    C2  216   3.226   3.985  11.222  0.1354  0.7286  0.5322
   14MPD2    C3  217   3.211   3.934  11.352 -1.0055  0.3534  0.5652
   14MPD2    C4  218   3.321   3.867  11.404  0.5312 -0.2257  0.3846
   14MPD2    C5  219   3.439   3.865  11.327  0.2665  0.4965  0.5760
   14MPD2     H  220   3.137   4.035  11.187  0.4945  0.0455 -1.3310
   14MPD2    H1  221   3.323   3.838  11.509  1.3515  0.2388  0.5007
   14MPD2    H2  222   3.550   3.903  11.158  0.1686  2.2791  0.0656
   14MPD2    H3  223   3.523   3.820  11.379  0.0561 -0.5601 -0.0089
   14MPD2     N  224   3.092   3.950  11.422  0.4257 -0.6812 -0.0513
   14MPD2    H5  225   3.023   4.005  11.372  0.4241 -1.4444 -0.8816
   14MPD2    N1  226   3.353   4.003  11.008  0.0797 -0.2112  0.0466
   14MPD2    H7  227   3.445   4.014  10.966 -0.4497  1.4831 -0.6728
   15TCq1    O1  228   2.275   3.438   2.034  0.2046 -0.3763  0.5939
   15TCq1    C1  229   2.176   3.492   2.102 -0.2346 -0.0267 -0.5412
   15TCq1    O2  230   2.180   3.602   2.165  0.0477 -0.0779  0.5115
   15TCq1    C2  231   2.052   3.418   2.090  0.7119 -0.4073  0.1795
   15TCq1    C3  232   1.948   3.478   2.161 -0.7979  0.4952 -0.7010
   15TCq1    C4  233   1.820   3.471   2.119  0.0349 -0.7264 -0.1296
   15TCq1    C5  234   1.788   3.394   2.013 -0.4126 -0.0160  0.9305
   15TCq1    C6  235   1.893   3.331   1.943 -0.1713 -0.4814  0.8000
   15TCq1    C7  236   2.025   3.343   1.979 -0.5234 -0.6413  0.2641
   15TCq1    C8  237   1.859   3.227   1.837  0.2552 -0.1075  0.4112
   15TCq1    O4  238   1.948   3.154   1.791  0.3847  0.3755  0.3736
   15TCq1    C9  239   1.712   3.522   2.201  0.0497  0.1909 -0.4552
   15TCq1    O5  240   1.600   3.529   2.142  0.0343 -0.3131 -0.7694
   15TCq1    O6  241   1.740   3.605   2.292 -0.5125 -0.6908  0.1667
   15TCq1    H1  242   2.257   3.343   2.016  0.7550 -0.5387  0.8800
   15TCq1    H2  243   1.974   3.530   2.252  0.1178 -0.4667 -0.4132
   15TCq1    H3  244   1.683   3.376   1.990 -0.2539  1.2024 -0.7312
   15TCq1    H4  245   2.100   3.305   1.911  0.1588  0.8256  0.1865
   16MPD2     C  246   1.536   3.223   1.661  0.1873  0.6233 -0.4127
   16MPD2    C1  247   1.654   3.169   1.698 -0.0919 -1.2911  0.3023
   16MPD2    C2  248   1.702   3.052   1.640  0.0827 -0.8441  0.5891
   16MPD2    C3  249   1.629   2.975   1.556  0.2912 -0.2609 -0.2413
   16MPD2    C4  250   1.509   3.030   1.522 -0.4654  0.8038 -0.0165
   16MPD2    C5  251   1.471   3.151   1.569  0.1926 -0.0877  0.5437
   16MPD2     H  252   1.807   3.027   1.645  0.0504 -1.0586  0.1731
   16MPD2    H1  253   1.439   2.983   1.454 -0.6703 -1.4013  1.7164
   16MPD2    H2  254   1.497   3.316   1.701 -0.8347 -1.0458  2.4335
   16MPD2    H3  255   1.378   3.195   1.533  0.4452  1.5114  1.8736
   16MPD2     N  256   1.671   2.847   1.524 -0.5340  0.3522  0.5973
   16MPD2    H5  257   1.757   2.815   1.569 -0.0329  0.6123 -0.1657
   16MPD2    N1  258   1.732   3.246   1.788  0.4376  0.3771  0.0594
   16MPD2    H7  259   1.690   3.335   1.813 -0.7895 -0.2224  0.0966
   17TMC1    C1  260   3.135   2.208  11.448  0.0569 -0.0246 -0.5088
   17TMC1    C2  261   3.018   2.136  11.449 -0.6757 -0.4238  0.3286
   17TMC1    C3  262   3.010   2.015  11.503 -0.6166  0.2520  0.4552
   17TMC1    C4  263   3.242   2.153  11.503  0.3222 -0.3226 -0.3022
   17TMC1    C5  264   3.229   2.032  11.569 -0.0488 -0.4151  0.0600
   17TMC1    C6  265   3.114   1.958  11.566  0.1835 -0.5911  0.1706
   17TMC1     C  266   3.138   2.349  11.407  0.3908  0.3617  0.1565
   17TMC1     O  267   3.036   2.416  11.421 -0.3206 -0.2330 -0.3256
   17TMC1     H  268   2.928   2.179  11.409 -0.5388 -0.5179 -0.0767
   17TMC1    H1  269   3.336   2.206  11.496 -0.2762  0.2654 -3.8178
   17TMC1    H2  270   3.116   1.853  11.593 -0.0879 -1.0541 -1.6027
   17TMC1    C7  271   3.348   1.963  11.622 -0.8388 -0.3238 -0.8980
   17TMC1    C8  272   2.874   1.962  11.524 -0.0903 -0.3980  0.9312
   17TMC1    O1  273   3.454   1.958  11.562 -0.2103 -0.3781 -0.0798
   17TMC1    O2  274   2.862   1.881  11.614 -0.1049  0.3911 -0.0244
   17TMC1    O3  275   3.304   1.880  11.723  0.3767 -0.4045 -0.1817
   17TMC1    H3  276   3.221   1.906  11.768  0.4045 -1.3625  0.4152
   17TMC1    O5  277   2.845   1.928  11.400 -0.4498  0.1075 -0.5335
   17TMC1    H5  278   2.876   2.002  11.343  0.3534  1.3898  1.5910
   18MPD2     C  279   3.223   2.629  11.358  0.1193  0.1393  0.1100
   18MPD2    C1  280   3.308   2.523  11.349 -0.5550 -0.1571 -0.6377
   18MPD2    C2  281   3.438   2.538  11.313  0.4937 -0.7491 -0.2727
   18MPD2    C3  282   3.493   2.663  11.288  0.0081  0.4089 -0.3692
   18MPD2    C4  283   3.408   2.770  11.302  0.6682  0.6286  0.1453
   18MPD2    C5  284   3.280   2.749  11.349 -0.4998  0.6309 -0.2105
   18MPD2     H  285   3.507   2.456  11.298  2.2167  0.5613  0.5035
   18MPD2    H1  286   3.442   2.872  11.295  0.9012  0.4404 -1.3608
   18MPD2    H2  287   3.119   2.626  11.390 -0.1087 -0.0364 -0.6616
   18MPD2    H3  288   3.221   2.839  11.361 -1.3205  0.3358 -2.0495
   18MPD2     N  289   3.630   2.699  11.261  0.0039 -0.0496 -0.5525
   18MPD2    H5  290   3.643   2.795  11.231 -0.2257 -0.3882 -1.7250
   18MPD2    N1  291   3.261   2.389  11.364 -0.1168 -0.2113 -0.2618
   18MPD2    H7  292   3.330   2.316  11.350 -0.8250 -0.4304 -2.7450
   19TMC2    C1  293   0.238   3.508  14.053 -0.2753  0.2986 -1.5542
   19TMC2    C2  294   0.165   3.494  13.938  0.6441 -0.0391  0.1274
   19TMC2    C3  295   0.094   3.381  13.917  0.6792  0.0714  0.1374
   19TMC2    C4  296   0.250   3.402  14.140 -0.0405  0.1260 -0.6136
   19TMC2    C5  297   0.178   3.286  14.112 -0.2746  0.3425  1.0778
   19TMC2    C6  298   0.104   3.267  14.000  0.4398 -0.1801 -0.0113
   19TMC2     C  299   0.302   3.631  14.074  0.3660  0.0707  0.8572
   19TMC2     O  300   0.286   3.722  13.992  0.2482 -0.0540 -0.0759
   19TMC2     H  301   0.141   3.578  13.874  0.9561 -0.6699 -0.8125
   19TMC2    H1  302   0.302   3.416  14.234 -1.4386  0.0060  0.1766
   19TMC2    H2  303   0.052   3.173  13.988  1.9296 -0.9065 -0.6487
   19TMC2    C7  304   0.162   3.184  14.213  0.7576  0.6802 -0.1624
   19TMC2    C8  305   4.708   3.398  13.837  0.9492  0.2987 -0.1892
   19TMC2    O1  306   0.079   3.094  14.194  0.6973 -0.4768  0.5510
   19TMC2    O2  307   4.650   3.508  13.843  0.1942  0.1396  0.2313
   19TMC2    O5  308   4.656   3.273  13.833  0.0665 -0.0844  0.1334
   19TMC2    H5  309   4.734   3.216  13.813 -0.1251 -0.6235  0.9231
   20MPD2     C  310   0.490   3.827  14.179 -0.2846 -0.7009  0.1223
   20MPD2    C1  311   0.515   3.693  14.190  0.1256  0.5749 -0.2028
   20MPD2    C2  312   0.628   3.642  14.239 -0.0232  0.2625 -0.0218
   20MPD2    C3  313   0.731   3.732  14.273  1.0316 -0.7637  1.3209
   20MPD2    C4  314   0.710   3.869  14.257 -0.5536  0.5117 -0.4269
   20MPD2    C5  315   0.594   3.920  14.205 -0.0019 -0.0125 -0.1958
   20MPD2     H  316   0.634   3.534  14.237  0.0917  0.2736 -0.3682
   20MPD2    H1  317   0.788   3.942  14.280 -0.6518 -0.6526  3.7270
   20MPD2    H2  318   0.392   3.859  14.146 -0.1545 -0.5251 -0.0844
   20MPD2    H3  319   0.585   4.026  14.185 -1.5246  0.1471  1.3485
   20MPD2     N  320   0.860   3.693  14.319 -0.1441  0.3693 -0.2883
   20MPD2    H5  321   0.910   3.773  14.357  1.3509 -0.8256  0.2791
   20MPD2    N1  322   0.413   3.604  14.155 -0.6626 -0.6408  0.5070
   20MPD2    H7  323   0.439   3.507  14.168 -0.6576 -0.6556  0.3834
   21TMC2    C1  324   3.200   3.724  14.715  0.2833 -0.1005  0.3685
   21TMC2    C2  325   3.213   3.620  14.799  0.0773  0.7650 -0.7395
   21TMC2    C3  326   3.160   3.619  14.923  0.0077 -0.2249 -0.0060
   21TMC2    C4  327   3.134   3.836  14.758  0.0144  0.2745 -0.8161
   21TMC2    C5  328   3.057   3.826  14.876  0.0916  0.4295  0.6266
   21TMC2    C6  329   3.065   3.717  14.961  0.1466 -0.0816  0.9405
   21TMC2     C  330   3.279   3.725  14.593 -0.1476 -0.0118 -0.2612
   21TMC2     O  331   3.390   3.681  14.612 -1.1342 -0.4634 -0.7376
   21TMC2     H  332   3.264   3.531  14.766 -1.5449  0.0933 -1.4484
   21TMC2    H1  333   3.140   3.926  14.699  0.6162  0.1053 -1.0142
   21TMC2    H2  334   3.012   3.716  15.055 -2.7403 -0.2333 -0.6900
   21TMC2    C7  335   2.970   3.936  14.930 -0.2638 -0.8702 -0.1880
   21TMC2    C8  336   3.157   3.489  14.972 -0.4114  0.1135 -1.0926
   21TMC2    O1  337   2.921   3.923  15.046  0.1626  0.3654  0.0929
   21TMC2    O2  338   3.170   3.390  14.902 -0.2920 -0.1898 -0.4988
   21TMC2    O5  339   3.103   3.490  15.093  0.6176  0.3050 -0.3069
   21TMC2    H5  340   3.092   3.581  15.129  0.4092  0.3457 -0.4716
   22MPD2     C  341   3.424   3.912  14.134 -0.3843 -0.0060 -0.3050
   22MPD2    C1  342   3.488   3.830  14.232  0.6382  0.2238 -0.0888
   22MPD2    C2  343   3.418   3.787  14.345  0.0394 -0.3777 -0.2251
   22MPD2    C3  344   3.289   3.827  14.370 -0.6181 -0.3848 -0.5126
   22MPD2    C4  345   3.230   3.903  14.275 -0.1723 -0.4167 -0.5199
   22MPD2    C5  346   3.296   3.946  14.163  0.8951 -0.0956 -0.4502
   22MPD2     H  347   3.481   3.722  14.405 -2.2197 -1.3357  1.1168
   22MPD2    H1  348   3.127   3.936  14.289 -0.1789 -0.5458 -0.2689
   22MPD2    H2  349   3.471   3.954  14.046 -3.1834  1.4512 -1.1283
   22MPD2    H3  350   3.241   4.007  14.092  1.3540 -2.4651 -2.8630
   22MPD2     N  351   3.224   3.794  14.487 -0.2137  0.2580  0.1876
   22MPD2    H5  352   3.126   3.821  14.489 -0.2447  0.0736  0.9189
   22MPD2    N1  353   3.624   3.800  14.218  0.3263 -0.6188 -0.4155
   22MPD2    H7  354   3.659   3.738  14.290 -0.5285  1.2490  1.5857
   23TMC2    C1  355   4.721   0.336  14.322 -0.0893  0.2187  0.0228
   23TMC2    C2  356   0.060   0.372  14.215  0.4594 -0.9218 -0.6089
   23TMC2    C3  357   0.014   0.469  14.132 -0.3610 -0.0952  0.4382
   23TMC2    C4  358   4.587   0.375  14.329 -0.3171  0.2813 -0.1162
   23TMC2    C5  359   4.542   0.472  14.240 -0.0949 -0.4906  0.1609
   23TMC2    C6  360   4.625   0.523  14.150 -0.1582  0.4078  0.1833
   23TMC2     C  361   0.039   0.304  14.450  0.3400  0.6979  0.1895
   23TMC2     O  362   4.704   0.269  14.537  0.0893  0.6585 -0.3449
   23TMC2     H  363   0.161   0.333  14.203 -0.2850 -2.9269 -0.4491
   23TMC2    H1  364   4.523   0.342  14.410 -0.7851  0.7371 -0.3014
   23TMC2    H2  365   4.581   0.596  14.083  0.6853  1.1197  0.3959
   23TMC2    C7  366   4.425   0.554  14.278  0.2988  0.0760 -0.0419
   23TMC2    C8  367   0.098   0.520  14.029  0.4302  0.4825  0.0870
   23TMC2    O1  368   4.442   0.674  14.268  0.2511  0.0577 -0.3125
   23TMC2    O2  369   0.218   0.541  14.030  0.3418  0.0525  0.8429
   23TMC2    O5  370   0.020   0.515  13.918  0.0236  0.1119  0.2718
   23TMC2    H5  371   4.673   0.464  13.924  1.3762 -2.1541  0.0885
   24MPD2     C  372   0.429   0.220  14.763 -0.1842  0.6730 -0.1095
   24MPD2    C1  373   0.302   0.177  14.772  0.1751 -0.2510  0.1292
   24MPD2    C2  374   0.218   0.211  14.672  0.3592  0.2470 -0.7202
   24MPD2    C3  375   0.260   0.276  14.558  0.2297  0.4437  0.2168
   24MPD2    C4  376   0.383   0.328  14.553  0.1981  0.0995 -0.1714
   24MPD2    C5  377   0.467   0.301  14.660 -0.1745  0.0243  0.5453
   24MPD2     H  378   0.115   0.177  14.675 -0.2085  2.0898  1.1314
   24MPD2    H1  379   0.418   0.381  14.465 -0.1403  0.7492  0.0832
   24MPD2    H2  380   0.498   0.201  14.845 -2.0577  3.9366  2.1628
   24MPD2    H3  381   0.559   0.358  14.661 -0.3000  0.2481 -1.1402
   24MPD2     N  382   0.176   0.308  14.452 -0.5870 -0.3244 -0.0392
   24MPD2    H5  383   0.214   0.348  14.367 -0.9457 -0.0212 -0.0540
   24MPD2    N1  384   0.248   0.103  14.878 -0.4437 -0.1244  0.4034
   24MPD2    H7  385   0.148   0.085  14.876 -0.4338 -0.3407  1.7175
   25TMC2    C1  386   3.832   1.910  11.569  0.1319  0.7584 -0.1700
   25TMC2    C2  387   3.939   1.876  11.647 -0.0867  0.2665  0.4529
   25TMC2    C3  388   3.943   1.925  11.778 -0.0865  0.1131 -0.2354
   25TMC2    C4  389   3.736   1.997  11.615 -0.3055 -0.3504 -0.0983
   25TMC2    C5  390   3.742   2.038  11.743  0.2312 -0.0945 -0.3833
   25TMC2    C6  391   3.843   2.003  11.833 -0.2414 -0.0954  0.0393
   25TMC2     C  392   3.825   1.845  11.441  0.1136  0.0411  0.4561
   25TMC2     O  393   3.922   1.779  11.401 -0.2058 -0.2986 -0.3260
   25TMC2     H  394   4.012   1.803  11.613 -0.7256 -0.8642  1.4984
   25TMC2    H1  395   3.664   2.037  11.545  0.0159  1.7878  0.7847
   25TMC2    H2  396   3.839   2.028  11.938  0.5544  0.0452  0.0370
   25TMC2    C7  397   3.634   2.119  11.795 -0.1962 -1.1707 -0.2107
   25TMC2    C8  398   4.043   1.870  11.866 -0.7071  0.6475 -0.0202
   25TMC2    O1  399   3.645   2.140  11.914  0.2569 -0.2956 -0.0578
   25TMC2    O2  400   4.083   1.755  11.853  0.0675  0.2811 -0.0356
   25TMC2    O5  401   4.100   1.973  11.928  0.2553 -0.3405 -0.3168
   25TMC2    H5  402   4.050   2.056  11.919 -0.9283 -1.0482 -0.3325
   26MPD2     C  403   3.529   1.647  11.079 -0.0163  0.2756 -0.2203
   26MPD2    C1  404   3.446   1.716  11.170 -0.6337  0.2106 -0.2876
   26MPD2    C2  405   3.502   1.785  11.272  0.2694  0.6918  0.2373
   26MPD2    C3  406   3.641   1.787  11.287  0.3473 -0.6336  0.8291
   26MPD2    C4  407   3.718   1.733  11.182 -0.4127 -0.4797 -0.7853
   26MPD2    C5  408   3.664   1.664  11.079  0.3356  0.1706  0.0033
   26MPD2     H  409   3.453   1.834  11.355 -0.8471 -0.0829  0.0310
   26MPD2    H1  410   3.826   1.745  11.181 -0.4765  0.2096  0.4439
   26MPD2    H2  411   3.473   1.593  11.004 -0.7819 -0.4212  0.8684
   26MPD2    H3  412   3.727   1.610  11.009  0.8275  0.7570 -0.0079
   26MPD2     N  413   3.693   1.845  11.401  0.0466 -0.3496  0.7326
   26MPD2    H5  414   3.625   1.888  11.462  1.4125  1.6520  0.8766
   26MPD2    N1  415   3.309   1.710  11.141 -0.5053  0.0770  0.2051
   26MPD2    H7  416   3.286   1.652  11.061 -2.1391  0.7353  0.1930
   27TMC2    C1  417   1.901   4.634  12.306 -1.2112 -0.5597  0.1493
   27TMC2    C2  418   1.966   4.710  12.207 -0.4865  0.0495 -0.2292
   27TMC2    C3  419   1.977   0.106  12.224 -0.0107  0.8832 -0.8846
   27TMC2    C4  420   1.860   4.705  12.419  0.0424  0.8189  0.4471
   27TMC2    C5  421   1.879   0.099  12.433  1.3080 -0.5744  0.1896
   27TMC2    C6  422   1.939   0.172  12.337  0.8030 -0.6903 -0.8143
   27TMC2     C  423   1.929   4.490  12.323 -0.1128  0.2376 -0.1112
   27TMC2     O  424   1.954   4.419  12.228  0.6768  0.4169  0.6156
   27TMC2     H  425   2.010   4.664  12.119  0.4419  0.6525 -0.0757
   27TMC2    H1  426   1.787   4.657  12.484  0.2351  0.1854  0.2003
   27TMC2    H2  427   1.972   0.274  12.353 -1.3989 -0.1814  0.5060
   27TMC2    C7  428   1.855   0.138  12.564  0.6487  0.2864  0.1450
   27TMC2    C8  429   2.048   0.182  12.129  0.3565  0.2768 -0.1990
   27TMC2    O1  430   1.884   0.068  12.656 -0.2609  0.0669  0.4425
   27TMC2    O2  431   2.103   0.286  12.160 -0.4639  0.1360  0.4986
   27TMC2    O5  432   2.038   0.129  12.007 -0.3250 -0.6014 -0.2194
   27TMC2    H5  433   1.967   0.062  12.008 -2.1016  1.2834  4.1128
   28MPD2     C  434   1.815   4.094  12.627  0.1518  0.3811 -0.3794
   28MPD2    C1  435   1.795   4.207  12.697 -0.7796  0.0004 -0.3079
   28MPD2    C2  436   1.834   4.322  12.626  0.6870 -0.5632  0.4802
   28MPD2    C3  437   1.874   4.326  12.497 -0.2399 -0.1932 -0.1495
   28MPD2    C4  438   1.874   4.207  12.428  0.2514  0.2421  0.3654
   28MPD2    C5  439   1.836   4.096  12.493 -0.7322  0.3395  0.0005
   28MPD2     H  440   1.831   4.418  12.676  2.5906 -1.8105  3.0015
   28MPD2    H1  441   1.895   4.196  12.322  0.3696  0.5168  0.3617
   28MPD2    H2  442   1.783   4.002  12.675 -1.4257  0.4714 -1.2507
   28MPD2    H3  443   1.817   4.010  12.431 -0.0730  0.1508  0.0579
   28MPD2     N  444   1.903   4.454  12.451 -0.3479 -0.2351  0.6466
   28MPD2    H5  445   1.891   4.531  12.516  0.1016  0.1442  0.2747
   28MPD2    N1  446   1.737   4.206  12.829  0.4244  0.0628 -0.0418
   28MPD2    H7  447   1.718   4.114  12.868 -0.2655  0.6809  1.0994
   29TMC2    C1  448   1.921   2.224  14.446 -0.3320  0.5965 -0.4409
   29TMC2    C2  449   1.830   2.243  14.546  0.7248 -0.1327  0.1827
   29TMC2    C3  450   1.824   2.368  14.596 -0.7227 -0.0870 -0.2350
   29TMC2    C4  451   1.995   2.327  14.400 -0.5143  0.4339  0.6046
   29TMC2    C5  452   1.986   2.448  14.453 -0.5448 -0.4457  0.5622
   29TMC2    C6  453   1.899   2.476  14.556 -0.0817  0.3300  0.0254
   29TMC2     C  454   1.963   2.095  14.406 -0.4147  0.3701 -0.3319
   29TMC2     O  455   1.950   2.002  14.483 -0.3825 -0.3085 -0.9263
   29TMC2     H  456   1.778   2.158  14.588 -1.4553  1.6834  1.1493
   29TMC2    H1  457   2.090   2.318  14.350 -0.6029 -0.5202  0.6126
   29TMC2    H2  458   1.881   2.576  14.593 -0.3820  1.1388 -2.3273
   29TMC2    C7  459   2.063   2.553  14.387 -0.3119 -0.9465 -0.1427
   29TMC2    C8  460   1.741   2.404  14.705  0.2988 -0.1473 -0.4509
   29TMC2    O1  461   2.053   2.559  14.266 -0.1076  0.2896  0.2515
   29TMC2    O2  462   1.751   2.509  14.769 -0.7892  0.0574  0.0619
   29TMC2    O5  463   1.631   2.322  14.708  0.1617 -0.7386 -0.2865
   29TMC2    H5  464   1.625   2.247  14.646  1.7533 -2.0085  1.0841
   30MPD2     C  465   2.014   1.788  14.007 -0.7420  0.0686 -0.4888
   30MPD2    C1  466   2.006   1.750  14.141  1.0484  0.4429 -0.5264
   30MPD2    C2  467   2.014   1.854  14.232  0.4759 -0.6730 -0.5041
   30MPD2    C3  468   1.988   1.984  14.188  0.5441 -0.8805 -0.3996
   30MPD2    C4  469   1.977   2.006  14.052  0.3375  0.7463  0.3760
   30MPD2    C5  470   2.003   1.912  13.963 -0.4393  0.3137 -0.3533
   30MPD2     H  471   2.033   1.828  14.335 -0.0044 -1.6356 -0.6641
   30MPD2    H1  472   1.966   2.105  14.010 -1.1462  0.5769  0.3429
   30MPD2    H2  473   2.034   1.704  13.941  0.7555 -0.0316  0.0947
   30MPD2    H3  474   2.013   1.942  13.859  2.8385 -1.5156 -0.5681
   30MPD2     N  475   1.975   2.099  14.271 -0.4813 -0.2704 -0.9137
   30MPD2    H5  476   1.956   2.194  14.238 -0.0209  0.0542 -0.2504
   30MPD2    N1  477   2.005   1.611  14.175 -0.2066  0.0263 -0.1697
   30MPD2    H7  478   2.020   1.594  14.274  0.2941  2.8632  0.2315
   31TMC2    C1  479   4.194   0.731  15.550  0.4193 -0.2223  0.2597
   31TMC2    C2  480   4.054   0.750  15.550  0.0931  0.3794  0.2922
   31TMC2    C3  481   3.989   0.735  15.667  0.3960  1.0535  0.8194
   31TMC2    C4  482   4.266   0.708  15.661  0.6351 -0.2866 -0.5071
   31TMC2    C5  483   4.191   0.683  15.774 -0.1678 -0.1536 -0.2292
   31TMC2    C6  484   4.053   0.702  15.782  0.2483 -0.1552 -0.4068
   31TMC2     C  485   4.253   0.798  15.437 -0.2810 -0.8685  0.1232
   31TMC2     O  486   4.184   0.820  15.338  0.0308  0.6634  0.5157
   31TMC2     H  487   3.996   0.783  15.465 -0.8885  1.1025  1.2525
   31TMC2    H1  488   4.364   0.663  15.649  1.9584  1.8889  2.1821
   31TMC2    H2  489   3.996   0.707  15.874  2.5082  1.1268  0.9248
   31TMC2    C7  490   4.258   0.634  15.897 -0.0196 -0.3631  0.6352
   31TMC2    C8  491   3.864   0.805  15.675  0.8384 -0.2626  0.5140
   31TMC2    O1  492   4.381   0.643  15.892  0.3421  0.0293 -0.0327
   31TMC2    O2  493   3.757   0.750  15.706  0.4584 -0.2744  0.4329
   31TMC2    O5  494   3.909   0.926  15.713  0.1864  0.1913  0.4453
   31TMC2    H5  495   4.002   0.953  15.695 -0.0765  0.4668 -0.4550
   32MPD2     C  496   4.664   0.981  15.206  0.4615 -0.9978  0.3337
   32MPD2    C1  497   4.540   0.970  15.156  0.7683  0.1942 -0.7224
   32MPD2    C2  498   4.438   0.918  15.237 -0.5653 -0.1745 -0.7406
   32MPD2    C3  499   4.473   0.872  15.361 -0.1111 -0.7078  0.5131
   32MPD2    C4  500   4.603   0.882  15.402 -0.0746 -0.4522  0.3508
   32MPD2    C5  501   4.699   0.944  15.329  0.2602 -0.2750  0.4534
   32MPD2     H  502   4.334   0.937  15.216 -1.1529 -1.7497  0.7345
   32MPD2    H1  503   4.626   0.848  15.503  0.2766 -0.7714  0.1652
   32MPD2    H2  504   0.007   1.028  15.151  0.5929  1.3051  2.4958
   32MPD2    H3  505   0.063   0.959  15.363  0.5919 -1.4928 -0.0013
   32MPD2     N  506   4.386   0.810  15.452  0.3410  0.1132 -0.7100
   32MPD2    H5  507   4.429   0.772  15.536 -1.7624  0.3558  0.4873
   32MPD2    N1  508   4.522   1.034  15.028  0.5680 -0.6113 -0.2962
   32MPD2    H7  509   4.598   1.093  14.995 -0.0750 -0.4388 -1.4812
   33TMC2    C1  510   4.091   3.597  10.730  0.6101 -0.1950  0.3648
   33TMC2    C2  511   3.964   3.551  10.746  0.3911 -0.0280  0.2474
   33TMC2    C3  512   3.864   3.639  10.708  0.0635  0.5638  0.5591
   33TMC2    C4  513   4.118   3.708  10.659 -0.3075 -0.2659 -0.2631
   33TMC2    C5  514   4.017   3.778  10.607  0.4115  0.6832 -0.1358
   33TMC2    C6  515   3.890   3.751  10.637 -0.0183  0.4117 -0.0575
   33TMC2     C  516   4.202   3.530  10.799  0.0275 -0.0468  0.3187
   33TMC2     O  517   4.316   3.584  10.797 -0.8052  0.1794 -0.0077
   33TMC2     H  518   3.934   3.458  10.793 -2.9108  0.4004 -1.0131
   33TMC2    H1  519   4.222   3.734  10.643 -0.0958 -0.2232  1.1844
   33TMC2    H2  520   3.811   3.821  10.613  0.3356  0.0146 -2.3262
   33TMC2    C7  521   4.056   3.894  10.518  0.5779 -0.2541 -0.4472
   33TMC2    C8  522   3.726   3.613  10.740 -0.1021  0.2365 -0.4404
   33TMC2    O1  523   4.172   3.893  10.487 -0.2926  0.9781 -0.0997
   33TMC2    O2  524   3.680   3.512  10.691 -0.7344 -0.2106  0.0298
   33TMC2    O5  525   3.714   3.663  10.865  0.3175  0.4952  0.3372
   33TMC2    H5  526   3.770   3.742  10.878 -0.2575  1.0763 -0.6473
   34MPD2     C  527   4.375   3.129  11.073  0.0957  0.1504 -0.6140
   34MPD2    C1  528   4.244   3.109  11.050  0.3745 -0.5730 -0.0771
   34MPD2    C2  529   4.174   3.205  10.973 -0.0333  0.2026  0.0483
   34MPD2    C3  530   4.234   3.324  10.931  0.4160  0.0084  0.6984
   34MPD2    C4  531   4.362   3.335  10.956  0.2090 -0.2283 -0.7514
   34MPD2    C5  532   4.435   3.236  11.024  0.3013  0.5751 -0.7164
   34MPD2     H  533   4.068   3.199  10.956  0.0743  1.4920 -1.0888
   34MPD2    H1  534   4.421   3.422  10.929  0.8409  0.0789  1.6577
   34MPD2    H2  535   4.433   3.050  11.121 -0.5222  0.1768  0.1832
   34MPD2    H3  536   4.542   3.241  11.040  0.0556 -0.3816  1.1964
   34MPD2     N  537   4.158   3.418  10.855  0.0269 -0.0976 -0.1205
   34MPD2    H5  538   4.060   3.400  10.840  0.1331  0.2321 -1.2031
   34MPD2    N1  539   4.183   2.992  11.095  0.1282 -0.9620  0.2538
   34MPD2    H7  540   4.242   2.921  11.136  2.1808  0.8445  0.4316
   35TMC2    C1  541   1.296   4.511  11.703 -0.4236 -0.0877  0.7413
   35TMC2    C2  542   1.322   4.623  11.624 -0.2973 -0.0071  0.0238
   35TMC2    C3  543   1.217   4.649  11.537  0.7100 -0.0644  0.6914
   35TMC2    C4  544   1.173   4.444  11.709 -0.5521 -0.0663  0.7484
   35TMC2    C5  545   1.074   4.485  11.627  0.0347  0.2993 -0.4433
   35TMC2    C6  546   1.096   4.584  11.528 -0.2548  0.2104  0.5511
   35TMC2     C  547   1.382   4.499  11.815 -0.9122 -0.3678 -0.5385
   35TMC2     O  548   1.481   4.568  11.810 -0.3958  0.5373  0.2192
   35TMC2     H  549   1.418   4.672  11.626  0.9389 -2.3460 -2.4075
   35TMC2    H1  550   1.162   4.358  11.775 -1.2730  0.2844  1.0848
   35TMC2    H2  551   1.016   4.610  11.459  2.0402 -0.0588 -2.1958
   35TMC2    C7  552   0.961   4.401  11.616 -0.4934  0.3027 -0.2043
   35TMC2    C8  553   1.233   4.728  11.414  0.8096  0.6585  0.0371
   35TMC2    O1  554   0.966   4.301  11.685 -0.2024  0.5534 -0.1356
   35TMC2    O2  555   1.151   4.733  11.324  0.4911 -0.0347  0.2108
   35TMC2    O5  556   1.353   0.055  11.420 -0.5204  0.0173 -0.2885
   35TMC2    H5  557   1.376   0.062  11.515 -1.1383 -0.1081 -0.1270
   36MPD2     C  558   1.494   4.295  12.271  0.6791 -0.0941 -0.3243
   36MPD2    C1  559   1.357   4.312  12.266  0.0942  0.1112 -0.2974
   36MPD2    C2  560   1.310   4.369  12.152  0.2862  0.6030 -1.4175
   36MPD2    C3  561   1.392   4.416  12.048 -0.2872 -0.3921 -0.0934
   36MPD2    C4  562   1.526   4.409  12.068 -0.5999 -0.2514  0.4094
   36MPD2    C5  563   1.574   4.349  12.174 -0.1380 -0.9377 -0.2374
   36MPD2     H  564   1.206   4.367  12.121 -0.5421  0.8326  1.3144
   36MPD2    H1  565   1.593   4.462  12.001 -0.3573 -0.7690  0.2435
   36MPD2    H2  566   1.542   4.243  12.353  0.4869  1.5552  0.8599
   36MPD2    H3  567   1.679   4.353  12.201  0.1894  0.1520 -1.6920
   36MPD2     N  568   1.320   4.455  11.930 -0.2493 -0.5670  0.3141
   36MPD2    H5  569   1.219   4.454  11.917 -0.3765  1.0485  1.1506
   36MPD2    N1  570   1.273   4.246  12.360 -0.2985 -0.3118  0.2138
   36MPD2    H7  571   1.317   4.189  12.432 -1.6566 -0.1726  1.1778
   37TMC2    C1  572   2.860   0.679  11.543  0.1407 -0.1169 -0.0523
   37TMC2    C2  573   2.837   0.705  11.404 -0.3519  0.0082  0.1984
   37TMC2    C3  574   2.960   0.731  11.340 -0.0085  0.6922 -0.6485
   37TMC2    C4  575   2.988   0.677  11.596 -0.0930 -0.3525  0.1879
   37TMC2    C5  576   3.101   0.709  11.518  0.2449  0.1834  0.2154
   37TMC2    C6  577   3.083   0.745  11.389 -0.6281 -0.0017 -0.6662
   37TMC2     C  578   2.758   0.598  11.610 -0.1313  0.4399 -0.4995
   37TMC2     O  579   2.654   0.579  11.548  0.2934  0.0703  0.1841
   37TMC2     H  580   2.744   0.711  11.348 -1.1021 -0.1112  1.4417
   37TMC2    H1  581   3.000   0.652  11.701 -1.0001  0.1688  0.4170
   37TMC2    H2  582   3.166   0.760  11.321 -0.0254  0.7869  0.2474
   37TMC2    C7  583   3.226   0.659  11.571  0.2697 -0.0137  1.5540
   37TMC2    C8  584   2.949   0.722  11.199 -0.0912  0.4781  0.7703
   37TMC2    O1  585   3.213   0.575  11.659 -0.0034 -0.5746 -0.2275
   37TMC2    O2  586   2.978   0.820  11.131  0.0653  0.7063 -0.4252
   37TMC2    O5  587   2.864   0.620  11.163  0.1782 -0.3726 -0.1469
   37TMC2    H5  588   2.860   0.550  11.232  1.0538 -0.8786 -0.6135
   38MPD2     C  589   2.604   0.222  11.921 -0.3563 -0.3631 -0.2457
   38MPD2    C1  590   2.740   0.216  11.902  0.2153 -0.1858  0.9753
   38MPD2    C2  591   2.808   0.321  11.847  0.1773 -0.9335  0.3879
   38MPD2    C3  592   2.742   0.417  11.773 -0.2485  0.0546  0.5727
   38MPD2    C4  593   2.610   0.430  11.797  0.3369  0.2765 -0.5805
   38MPD2    C5  594   2.544   0.336  11.874  0.1537 -0.3654 -0.0050
   38MPD2     H  595   2.911   0.299  11.818  0.9063  1.0217  1.5433
   38MPD2    H1  596   2.559   0.519  11.763 -0.9225 -1.2003 -2.5790
   38MPD2    H2  597   2.549   0.144  11.973 -1.8438  1.8316  1.4472
   38MPD2    H3  598   2.440   0.356  11.893  0.2653  0.8304 -0.6086
   38MPD2     N  599   2.816   0.509  11.697 -0.3379 -0.4866  0.1551
   38MPD2    H5  600   2.916   0.500  11.684 -0.1874  1.0176  0.3135
   38MPD2    N1  601   2.812   0.102  11.922  0.3560 -0.1970 -0.4187
   38MPD2    H7  602   2.912   0.118  11.917  1.0474 -3.6824  2.6302
   39TMC2    C1  603   1.820   2.199   1.907  0.0234 -0.1783 -0.1121
   39TMC2    C2  604   1.890   2.109   1.982  0.0360  0.4925 -0.2750
   39TMC2    C3  605   1.970   2.167   2.079 -0.0133 -0.2564  0.0057
   39TMC2    C4  606   1.804   2.327   1.942 -0.3723 -0.3473 -0.1159
   39TMC2    C5  607   1.877   2.374   2.043  0.2051 -0.0059  0.0655
   39TMC2    C6  608   1.973   2.305   2.108 -0.3006  1.1600 -0.0790
   39TMC2     C  609   1.741   2.145   1.800 -0.4304  0.2295 -0.5754
   39TMC2     O  610   1.622   2.175   1.808  0.0444 -0.5119  0.6896
   39TMC2     H  611   1.893   2.003   1.959  0.7086  0.1157  1.5967
   39TMC2    H1  612   1.730   2.390   1.894 -0.2827  0.4670  0.8184
   39TMC2    H2  613   2.039   2.356   2.176  1.4385 -1.8759  0.5041
   39TMC2    C7  614   1.864   2.519   2.067  0.0012  0.4300  0.0175
   39TMC2    C8  615   2.054   2.073   2.159 -1.0193 -0.4334  0.5152
   39TMC2    O1  616   1.746   2.552   2.076 -0.4864  0.5565 -0.0955
   39TMC2    O2  617   2.089   1.968   2.107 -0.5196 -0.4570 -0.0017
   39TMC2    O5  618   1.997   2.079   2.282  0.3878  0.5903  0.3165
   39TMC2    H5  619   1.960   2.166   2.309  2.5553  1.7493 -0.3844
   40MPD2     C  620   1.813   1.860   1.600  0.1566 -0.4077 -0.1570
   40MPD2    C1  621   1.741   1.967   1.639  0.4558 -0.3615 -0.1126
   40MPD2    C2  622   1.630   2.007   1.564  0.3814 -0.5524  0.1533
   40MPD2    C3  623   1.596   1.935   1.452 -0.2814 -0.0905  0.1487
   40MPD2    C4  624   1.674   1.823   1.418 -0.1908  0.5204 -0.0095
   40MPD2    C5  625   1.783   1.781   1.491  0.4334 -0.4374 -0.9012
   40MPD2     H  626   1.568   2.090   1.596 -0.2059 -1.2196  0.7563
   40MPD2    H1  627   1.658   1.769   1.325  1.6874 -0.1957  0.0911
   40MPD2    H2  628   1.900   1.824   1.655  0.1556 -0.7010 -0.3424
   40MPD2    H3  629   1.849   1.697   1.471 -0.9348 -1.7623  0.1279
   40MPD2     N  630   1.481   1.964   1.370  0.4017 -0.5593 -0.3342
   40MPD2    H5  631   1.463   1.909   1.287 -0.3609 -0.3320 -0.3224
   40MPD2    N1  632   1.799   2.042   1.737  0.0531 -0.1285 -0.4465
   40MPD2    H7  633   1.894   2.015   1.759  0.3543 -0.0172 -1.6499
   41TMC2    C1  634   0.769   4.562  13.838 -0.4041 -1.0099  0.0464
   41TMC2    C2  635   0.886   4.500  13.800 -0.5218  0.1824  1.0469
   41TMC2    C3  636   0.900   4.470  13.663 -0.4671 -0.5176 -0.2319
   41TMC2    C4  637   0.663   4.574  13.749  0.5336  0.3091 -0.2588
   41TMC2    C5  638   0.689   4.562  13.613  0.0201  0.8412  0.7183
   41TMC2    C6  639   0.809   4.510  13.570  0.3041 -0.0411  0.4377
   41TMC2     C  640   0.740   4.562  13.978 -0.0211 -0.0821 -0.5287
   41TMC2     O  641   0.834   4.554  14.051  0.4396  0.1419 -0.1439
   41TMC2     H  642   0.967   4.486  13.871  0.0125  0.4608  0.4918
   41TMC2    H1  643   0.578   4.633  13.780  1.3625  1.7448 -0.7460
   41TMC2    H2  644   0.827   4.480  13.467 -1.7156 -0.2907  0.1694
   41TMC2    C7  645   0.574   4.580  13.520 -0.4111  0.3850  0.2565
   41TMC2    C8  646   0.996   4.365  13.624  0.1046  0.7862  0.8002
   41TMC2    O1  647   0.463   4.611  13.570 -0.3937  0.2288  0.8470
   41TMC2    O2  648   0.974   4.305  13.523 -0.2927  0.3365  0.4141
   41TMC2    O5  649   1.088   4.342  13.720  0.1274  0.2410  0.0992
   41TMC2    H5  650   1.118   4.430  13.750  0.6573  0.6110 -1.4973
   42MPD2     C  651   0.439   4.435  14.129 -0.1707 -0.5239  0.3393
   42MPD2    C1  652   0.554   4.498  14.128 -0.3376 -0.1096  0.5685
   42MPD2    C2  653   0.625   4.528  14.245  0.4119 -0.0568 -0.6900
   42MPD2    C3  654   0.569   4.493  14.363  0.6431 -0.0052 -0.0481
   42MPD2    C4  655   0.445   4.432  14.365 -1.1218 -0.9739  0.0889
   42MPD2    C5  656   0.382   4.397  14.245  0.1947  0.1941 -0.1484
   42MPD2     H  657   0.718   4.584  14.244  1.1504 -1.2555  0.6946
   42MPD2    H1  658   0.394   4.412  14.458 -0.2140  2.7167  1.3648
   42MPD2    H2  659   0.390   4.402  14.038  2.4195  1.1832 -1.6559
   42MPD2    H3  660   0.281   4.357  14.237 -0.9383  3.2101 -0.8036
   42MPD2     N  661   0.618   4.538  14.489 -0.1670  0.2090  0.0153
   42MPD2    H5  662   0.561   4.511  14.569 -0.3068  0.4108 -0.0163
   42MPD2    N1  663   0.607   4.530  14.000 -0.0306 -0.4323  0.3998
   42MPD2    H7  664   0.550   4.505  13.918  1.9629 -2.5199 -0.3483
   43TMC2    C1  665   2.430   2.633   1.089 -0.1370  0.1696 -0.2726
   43TMC2    C2  666   2.485   2.595   1.207  0.2419  0.3484 -0.1166
   43TMC2    C3  667   2.566   2.682   1.269  0.3956 -1.2371  0.2792
   43TMC2    C4  668   2.458   2.749   1.032 -0.3186  0.0061 -0.3781
   43TMC2    C5  669   2.533   2.837   1.103  0.7028 -0.6771  0.4876
   43TMC2    C6  670   2.591   2.804   1.220  0.4180  0.3342  0.1818
   43TMC2     C  671   2.356   2.530   1.013  0.2486 -0.3406  0.3943
   43TMC2     O  672   2.365   2.417   1.052  0.0463 -0.0525  0.3926
   43TMC2     H  673   2.451   2.508   1.263  0.0298  1.7531  1.9212
   43TMC2    H1  674   2.424   2.785   0.936 -0.3879  0.2312 -0.2711
   43TMC2    H2  675   2.678   2.857   1.255 -0.4251  0.4826  2.0775
   43TMC2    C7  676   2.587   2.954   1.034 -0.0136  0.7692 -0.8638
   43TMC2    C8  677   2.672   2.619   1.344 -0.1929 -0.6072  0.5674
   43TMC2    O1  678   2.579   2.956   0.912  0.5312  0.1754  0.3048
   43TMC2    O2  679   2.765   2.684   1.378 -0.3752 -0.2432 -0.1254
   43TMC2    O5  680   2.675   2.492   1.312  0.2828 -0.4677 -0.7780
   43TMC2    H5  681   2.601   2.466   1.255  1.3028 -1.2988 -1.7229
   44MPD2     C  682   2.119   2.356   0.591  0.8925  0.4559 -0.4794
   44MPD2    C1  683   2.213   2.296   0.676  0.4664  0.0825 -0.1114
   44MPD2    C2  684   2.252   2.373   0.781  0.5091  0.5222 -0.1724
   44MPD2    C3  685   2.218   2.500   0.806  0.5953 -0.8944  0.1641
   44MPD2    C4  686   2.133   2.564   0.713 -0.0519 -0.5461  0.3751
   44MPD2    C5  687   2.095   2.490   0.603 -0.8401 -0.1832  0.3603
   44MPD2     H  688   2.325   2.321   0.842 -0.1079 -0.8492 -0.5858
   44MPD2    H1  689   2.108   2.669   0.723 -0.3013 -0.4901 -0.7447
   44MPD2    H2  690   2.080   2.300   0.507 -0.6518  1.8665 -0.7181
   44MPD2    H3  691   2.036   2.535   0.524  1.3292  2.5153  0.2625
   44MPD2     N  692   2.279   2.575   0.908 -0.2362  0.4839 -0.5716
   44MPD2    H5  693   2.259   2.674   0.903 -0.3795  0.3588 -2.8790
   44MPD2    N1  694   2.274   2.169   0.656 -0.2001  0.9899 -0.8625
   44MPD2    H7  695   2.337   2.139   0.729  0.4191 -1.3558 -2.3559
   45TMC2    C1  696   2.300   0.062   9.612 -0.1564 -0.0734  0.4090
   45TMC2    C2  697   2.388   0.017   9.515 -0.0676  0.0970 -0.3856
   45TMC2    C3  698   2.468   0.117   9.469  0.2689  0.3764 -0.0948
   45TMC2    C4  699   2.313   0.182   9.681 -0.4951 -0.2360 -0.8059
   45TMC2    C5  700   2.401   0.270   9.631  0.1262 -0.4112 -0.7777
   45TMC2    C6  701   2.482   0.236   9.533 -0.8252 -0.0336 -0.3243
   45TMC2     C  702   2.178   4.726   9.600  0.1389 -0.4029  0.0034
   45TMC2     O  703   2.168   4.648   9.508  0.2250 -0.7090  0.1379
   45TMC2     H  704   2.396   4.655   9.474  0.4148 -0.9876  2.3682
   45TMC2    H1  705   2.239   0.228   9.746  0.6088 -1.8990  1.6211
   45TMC2    H2  706   2.553   0.312   9.503 -2.4758  1.4993 -0.3842
   45TMC2    C7  707   2.397   0.410   9.678  0.0188 -0.2607 -0.3155
   45TMC2    C8  708   2.542   0.088   9.349  0.6765  0.3257 -0.5749
   45TMC2    O1  709   2.367   0.420   9.799  0.1891 -0.3027  0.0267
   45TMC2    O2  710   2.534   4.715   9.300  0.1508  0.0664  0.0341
   45TMC2    O5  711   2.649   0.178   9.332 -0.2948  0.7628  0.6275
   45TMC2    H5  712   2.614   0.263   9.366  0.7340  1.7726 -0.8724
   46MPD2     C  713   1.927   4.595   9.641 -0.2397 -0.2025  0.0284
   46MPD2    C1  714   1.953   4.714   9.698  0.1545  0.7698 -0.4591
   46MPD2    C2  715   1.852   0.041   9.772  0.3996 -0.6137  0.2636
   46MPD2    C3  716   1.723   4.729   9.780 -0.0151  0.2742 -0.9572
   46MPD2    C4  717   1.702   4.607   9.719  0.0780 -0.3171 -0.2116
   46MPD2    C5  718   1.801   4.537   9.655  0.4779  0.4430  0.5337
   46MPD2     H  719   1.878   0.132   9.825 -2.8525 -0.3832  1.4725
   46MPD2    H1  720   1.607   4.554   9.721 -0.7913  1.2578  0.1464
   46MPD2    H2  721   2.002   4.535   9.592 -1.0643 -1.6176  0.4743
   46MPD2    H3  722   1.782   4.440   9.613 -0.3904  1.1246 -0.6377
   46MPD2     N  723   1.621   0.069   9.836 -0.1228 -0.2986  0.4294
   46MPD2    H5  724   1.645   0.162   9.868 -1.4485  0.4807 -0.8256
   46MPD2    N1  725   2.083   0.033   9.688 -0.0449  0.3510  0.4642
   46MPD2    H7  726   2.104   0.115   9.744  3.0452  0.7391 -1.2476
   47TMC2    C1  727   0.188   0.978   8.902  0.3213  0.6946 -0.8340
   47TMC2    C2  728   0.219   1.105   8.863  1.0114  0.4980  0.0041
   47TMC2    C3  729   0.157   1.208   8.920  0.0167 -0.3768  0.5656
   47TMC2    C4  730   0.090   0.951   9.002 -0.5670 -0.2287  0.3047
   47TMC2    C5  731   0.027   1.061   9.049  0.2543  0.1308 -0.3110
   47TMC2    C6  732   0.057   1.187   9.013  0.3193 -0.0341  0.8534
   47TMC2     C  733   0.260   0.866   8.839  0.3410 -0.3115  0.4294
   47TMC2     O  734   0.315   0.892   8.731 -0.1392 -0.0538 -0.0036
   47TMC2     H  735   0.290   1.118   8.782  1.7726  1.3910  0.8124
   47TMC2    H1  736   0.073   0.851   9.040  0.4489 -0.3521  0.4348
   47TMC2    H2  737   0.007   1.274   9.053  2.1708  0.7574  1.4564
   47TMC2    C7  738   4.662   1.026   9.149 -0.9033  0.0069  0.7084
   47TMC2    C8  739   0.196   1.343   8.893 -0.0061  0.1389  0.4919
   47TMC2    O1  740   4.637   0.906   9.160  0.0103  0.0233 -0.1250
   47TMC2    O2  741   0.134   1.444   8.899  0.4987  0.5962  0.1280
   47TMC2    O5  742   0.330   1.331   8.890 -0.3073 -0.0632  0.3087
   47TMC2    H5  743   0.357   1.237   8.886 -0.1971 -0.1568  2.8183
   48MPD2     C  744   0.350   0.595   8.768  0.1563  0.5142 -0.2178
   48MPD2    C1  745   0.347   0.640   8.902  0.0087  0.0719  0.1141
   48MPD2    C2  746   0.362   0.547   9.005  0.3714 -0.5390  0.1154
   48MPD2    C3  747   0.393   0.412   8.980 -0.6079 -0.2747  0.5287
   48MPD2    C4  748   0.393   0.373   8.844  0.9978 -0.3289  0.3579
   48MPD2    C5  749   0.367   0.459   8.745  0.3823 -0.6817  0.2574
   48MPD2     H  750   0.338   0.586   9.103 -0.3757  2.2870 -1.1988
   48MPD2    H1  751   0.405   0.272   8.807 -0.4275  0.0282 -1.0539
   48MPD2    H2  752   0.330   0.658   8.682 -0.3680  2.1943  1.1400
   48MPD2    H3  753   0.383   0.437   8.640 -2.3953 -0.4337 -0.2070
   48MPD2     N  754   0.389   0.321   9.081 -0.3648 -0.2407 -0.5100
   48MPD2    H5  755   0.370   0.361   9.173  0.6647  1.6698 -1.1235
   48MPD2    N1  756   0.302   0.768   8.932  0.2360  0.2370 -0.0873
   48MPD2    H7  757   0.281   0.786   9.030 -1.9953  0.0938 -0.5353
   49TMC2    C1  758   3.655   3.974   9.613 -0.0347 -0.5006 -0.6503
   49TMC2    C2  759   3.762   3.995   9.530  0.2860 -0.0343 -0.0101
   49TMC2    C3  760   3.741   4.081   9.422  0.2158 -0.3562  0.0191
   49TMC2    C4  761   3.540   4.050   9.605  0.3796  0.0538  0.2753
   49TMC2    C5  762   3.523   4.137   9.498 -0.0177  0.1711 -0.5750
   49TMC2    C6  763   3.629   4.154   9.405 -0.0161 -0.4638 -0.4151
   49TMC2     C  764   3.677   3.893   9.735  0.3822  0.2850 -0.5187
   49TMC2     O  765   3.782   3.831   9.748  0.2187 -0.3783 -0.0968
   49TMC2     H  766   3.840   3.921   9.513  1.8975  1.6479  0.0294
   49TMC2    H1  767   3.455   4.042   9.672  0.6985 -1.2475  0.5098
   49TMC2    H2  768   3.629   4.225   9.323 -1.5421 -1.0580 -0.9480
   49TMC2    C7  769   3.391   4.190   9.467 -0.3843  0.6175 -0.1617
   49TMC2    C8  770   3.827   4.046   9.310  0.0776  0.4045  0.0583
   49TMC2    O1  771   3.304   4.174   9.552 -0.1475 -0.2583  0.2816
   49TMC2    O2  772   3.778   4.045   9.201  0.1991  0.5495 -0.2159
   49TMC2    O5  773   3.949   4.088   9.344  0.7296  0.0138 -0.1694
   49TMC2    H5  774   3.962   4.090   9.441  0.1797 -1.8135 -0.0572
   50MPD2     C  775   3.636   3.712   9.983  0.0375 -0.2560 -0.5014
   50MPD2    C1  776   3.546   3.813   9.935 -0.2966  0.4379  0.7481
   50MPD2    C2  777   3.431   3.836  10.014 -0.0479 -0.9289  0.8253
   50MPD2    C3  778   3.408   3.781  10.135 -0.3526  0.3010  0.1783
   50MPD2    C4  779   3.492   3.680  10.173 -0.6608  0.0358  0.0824
   50MPD2    C5  780   3.604   3.644  10.100 -0.3061  0.1400 -0.5343
   50MPD2     H  781   3.367   3.914   9.974  2.5783 -0.2199 -2.0475
   50MPD2    H1  782   3.471   3.621  10.261 -0.9557  0.8718  0.5733
   50MPD2    H2  783   3.729   3.686   9.933 -1.4696 -4.2926 -1.2707
   50MPD2    H3  784   3.667   3.562  10.134  1.7208  1.5330 -0.8774
   50MPD2     N  785   3.299   3.791  10.213 -0.0728 -0.2160 -0.1128
   50MPD2    H5  786   3.302   3.728  10.292  1.9278  0.6778  0.5183
   50MPD2    N1  787   3.570   3.892   9.821 -0.0184 -0.6866  0.2245
   50MPD2    H7  788   3.499   3.961   9.798 -0.1456 -0.4448  1.3527
   51TMC2    C1  789   3.933   2.595   0.562 -0.1072 -0.3747 -0.0339
   51TMC2    C2  790   3.819   2.667   0.537 -0.0029  0.6613 -0.1981
   51TMC2    C3  791   3.814   2.789   0.598  0.1379 -0.2509  0.3766
   51TMC2    C4  792   4.025   2.628   0.657 -0.0959 -0.7120  0.4451
   51TMC2    C5  793   4.013   2.752   0.719  0.3663 -0.0565  0.0879
   51TMC2    C6  794   3.907   2.832   0.689  0.8582  0.1745 -0.0586
   51TMC2     C  795   3.959   2.477   0.482 -0.2032  0.6072  0.4443
   51TMC2     O  796   4.021   2.390   0.545  0.4786  0.6827  0.4019
   51TMC2     H  797   3.736   2.626   0.482  0.6199 -1.2048  0.2610
   51TMC2    H1  798   4.121   2.579   0.650  1.0758  1.3245  2.5459
   51TMC2    H2  799   3.895   2.930   0.735  1.2883  1.2786 -2.2827
   51TMC2    C7  800   4.127   2.818   0.784 -0.1728  0.5412 -1.3049
   51TMC2    C8  801   3.701   2.880   0.571 -0.4160  0.4789  0.3495
   51TMC2    O1  802   4.102   2.919   0.844 -0.3226 -0.0420 -0.1633
   51TMC2    O2  803   3.689   2.990   0.623  0.4523 -0.7556  0.1080
   51TMC2    O5  804   3.663   2.855   0.448  0.4318 -0.8460  0.2740
   51TMC2    H5  805   3.699   2.778   0.399 -0.9463 -0.6031 -1.1240
   52MPD2     C  806   3.940   2.154   0.088  0.7163 -0.3394  0.3441
   52MPD2    C1  807   3.932   2.132   0.227 -0.0699  0.1320 -0.2543
   52MPD2    C2  808   3.923   2.244   0.310 -0.7511  0.1798  0.4992
   52MPD2    C3  809   3.909   2.374   0.263 -0.3490  0.3746  0.1694
   52MPD2    C4  810   3.925   2.396   0.132 -0.6775 -0.2275 -0.5205
   52MPD2    C5  811   3.932   2.282   0.046  0.1907  0.3317 -0.6706
   52MPD2     H  812   3.916   2.226   0.417  0.9800  0.4953  0.6621
   52MPD2    H1  813   3.917   2.493   0.084 -1.1395 -0.2833 -0.5515
   52MPD2    H2  814   3.928   2.077   0.012  1.1641 -0.3409  0.2743
   52MPD2    H3  815   3.942   2.303  17.688 -1.6729 -1.1029 -1.1279
   52MPD2     N  816   3.915   2.481   0.348 -0.0930  1.2458 -0.0580
   52MPD2    H5  817   3.886   2.569   0.307  2.4081  2.2487  0.2949
   52MPD2    N1  818   3.936   2.008   0.287  0.2927 -0.0472  0.0418
   52MPD2    H7  819   3.936   2.001   0.388 -0.5510  1.3064  0.1395
   53TMC2    C1  820   3.717   0.329  11.972  0.5097 -0.3976  0.5458
   53TMC2    C2  821   3.798   0.217  11.965 -0.2492  0.5021  0.5417
   53TMC2    C3  822   3.758   0.105  12.035  0.0357 -0.0853 -0.3414
   53TMC2    C4  823   3.602   0.326  12.040  0.3038  0.1362  0.0662
   53TMC2    C5  824   3.566   0.215  12.114 -0.6720 -0.8582  0.3318
   53TMC2    C6  825   3.645   0.102  12.111  0.8395 -0.2135 -0.1424
   53TMC2     C  826   3.743   0.434  11.874  0.6368  0.5627  0.3385
   53TMC2     O  827   3.856   0.446  11.827 -0.0751 -0.3395 -0.0434
   53TMC2     H  828   3.889   0.215  11.907 -0.7106  1.4131 -0.2160
   53TMC2    H1  829   3.529   0.406  12.033 -2.3505 -2.2375  0.2595
   53TMC2    H2  830   3.613   0.014  12.166  0.5082 -0.6487 -1.0323
   53TMC2    C7  831   3.425   0.202  12.133 -0.5277  0.2121 -0.1389
   53TMC2    C8  832   3.855   4.731  12.030 -0.5416  0.2539 -0.5034
   53TMC2    O1  833   3.364   0.305  12.127 -0.2427 -0.0310  0.1931
   53TMC2    O2  834   3.939   4.725  11.946 -0.2170 -0.0269  0.8140
   53TMC2    O5  835   3.877   4.703  12.158 -0.1818  0.3489 -0.2372
   53TMC2    H5  836   3.823   0.022  12.219  1.1906 -0.1464  1.4383
   54MPD2     C  837   3.719   0.663  11.672  0.0110  0.5282 -0.2161
   54MPD2    C1  838   3.620   0.579  11.716  0.2098  0.7362 -0.1393
   54MPD2    C2  839   3.494   0.592  11.661  0.1115  0.9033  0.7023
   54MPD2    C3  840   3.462   0.705  11.578 -0.0100 -0.5804 -0.1309
   54MPD2    C4  841   3.564   0.797  11.549 -0.1941 -0.7997  0.1772
   54MPD2    C5  842   3.694   0.775  11.598 -0.3685 -0.1246  0.3376
   54MPD2     H  843   3.419   0.523  11.699  0.0359  0.0776 -0.9272
   54MPD2    H1  844   3.544   0.877  11.478 -2.2047 -0.9460  0.5852
   54MPD2    H2  845   3.816   0.653  11.719 -0.3144 -1.4301  0.0495
   54MPD2    H3  846   3.781   0.832  11.566 -1.5935 -0.5550 -3.8416
   54MPD2     N  847   3.334   0.729  11.529  0.1837 -0.6553  0.4056
   54MPD2    H5  848   3.321   0.814  11.474 -1.9466 -1.3472 -0.1644
   54MPD2    N1  849   3.633   0.480  11.814  0.3268  0.6665 -0.0363
   54MPD2    H7  850   3.547   0.440  11.850  0.8622 -1.0909 -0.7420
   55TMC2    C1  851   0.498   3.438  17.474 -0.0334  0.9389 -0.2616
   55TMC2    C2  852   0.491   3.466  17.339 -0.3959 -0.2926  0.3686
   55TMC2    C3  853   0.520   3.360  17.255  0.4856  0.2261 -0.0228
   55TMC2    C4  854   0.552   3.321  17.520  0.4470 -0.2058 -0.0506
   55TMC2    C5  855   0.577   3.217  17.433  0.5686 -0.1846 -0.2049
   55TMC2    C6  856   0.570   3.237  17.297 -0.1378 -0.0452  0.0706
   55TMC2     C  857   0.436   3.530  17.570  0.3475  0.1027  0.0663
   55TMC2     O  858   0.393   3.478  17.673  0.0192 -0.4880 -0.2228
   55TMC2     H  859   0.460   3.556  17.288 -1.2928  0.5511  2.4149
   55TMC2    H1  860   0.562   3.313  17.628  1.1627  0.4639 -0.0693
   55TMC2    H2  861   0.590   3.166  17.218  0.0632  0.2469 -0.1429
   55TMC2    C7  862   0.627   3.092  17.486  0.5983  0.4264 -0.1993
   55TMC2    C8  863   0.497   3.375  17.116  0.0635 -0.7111  0.3213
   55TMC2    O1  864   0.693   3.020  17.410 -0.3351  0.7426 -0.2563
   55TMC2    O2  865   0.529   3.471  17.049  0.7065  0.3287  0.0532
   55TMC2    O5  866   0.421   3.269  17.073  0.7432  0.3916 -0.6886
   55TMC2    H5  867   0.404   3.204  17.144 -2.3719  0.7131 -1.1312
   56MPD2     C  868   0.310   3.871  17.494  0.1605 -0.1173 -0.1061
   56MPD2    C1  869   0.335   3.757  17.571  0.3762  0.7442  0.0448
   56MPD2    C2  870   0.282   3.756  17.703  0.1423  1.0536  0.4207
   56MPD2    C3  871   0.184   3.852  17.740 -0.7493  0.3546  0.1504
   56MPD2    C4  872   0.151   3.953  17.646  0.3092  0.0807  0.0140
   56MPD2    C5  873   0.215   3.963  17.526  0.1764  0.2218 -0.0081
   56MPD2     H  874   0.295   3.680   0.030  1.9447  0.9290  0.0029
   56MPD2    H1  875   0.075   4.024  17.675  0.8057  0.5332  0.2076
   56MPD2    H2  876   0.356   3.879  17.396 -0.4122  0.0360 -0.3635
   56MPD2    H3  877   0.202   4.048  17.460  1.1654  0.0308 -0.4486
   56MPD2     N  878   0.116   3.837   0.117 -0.1875 -0.3054  0.4033
   56MPD2    H5  879   0.122   3.751   0.171 -0.2590 -0.1578  0.6460
   56MPD2    N1  880   0.418   3.657  17.510 -0.4578 -0.0786  0.0469
   56MPD2    H7  881   0.460   3.676  17.419  0.3749  1.0553  0.6649
   57TMC2    C1  882   3.925   4.139  13.049 -0.2428 -0.3458 -0.1066
   57TMC2    C2  883   4.046   4.191  13.027  0.0267 -0.4596  0.4093
   57TMC2    C3  884   4.136   4.099  12.982 -0.3047  0.0335 -0.0030
   57TMC2    C4  885   3.887   4.008  13.028 -0.4606  0.7283  0.1995
   57TMC2    C5  886   3.977   3.925  12.972 -0.3868 -0.4291  0.2148
   57TMC2    C6  887   4.096   3.973  12.943  0.2057  0.2109  0.2204
   57TMC2     C  888   3.827   4.232  13.100  0.2017  0.1686 -0.0752
   57TMC2     O  889   3.708   4.203  13.085  0.1802 -0.3258 -0.3196
   57TMC2     H  890   4.059   4.297  13.042  0.7360 -0.7284  1.7631
   57TMC2    H1  891   3.788   3.971  13.052 -0.3440  0.3583  0.1039
   57TMC2    H2  892   4.157   3.917  12.873 -1.2944 -0.1593 -0.7828
   57TMC2    C7  893   3.932   3.790  12.927  0.1312 -0.7062  0.4771
   57TMC2    C8  894   4.257   4.142  12.922 -0.3983 -0.2279  0.3928
   57TMC2    O1  895   3.810   3.774  12.915  0.3391  0.2519 -0.8480
   57TMC2    O2  896   4.272   4.115  12.806 -0.7838  0.3950 -0.2826
   57TMC2    O5  897   4.305   4.256  12.972  0.0244  0.2276 -0.0636
   57TMC2    H5  898   4.283   4.257  13.067  0.9171  0.8376  0.1375
   58MPD2     C  899   3.681   4.638  13.378  0.3830  0.1508 -0.1194
   58MPD2    C1  900   3.608   4.531  13.333 -0.1809 -0.0331  0.2555
   58MPD2    C2  901   3.667   4.427  13.262 -1.0422  0.1972  0.2333
   58MPD2    C3  902   3.808   4.423  13.251 -0.8331 -0.3154  0.1866
   58MPD2    C4  903   3.879   4.530  13.296 -0.0539 -0.5521  0.5439
   58MPD2    C5  904   3.816   4.637  13.351 -0.2378  0.5136  0.0033
   58MPD2     H  905   3.609   4.341  13.230 -0.5101  0.5956 -1.8427
   58MPD2    H1  906   3.987   4.539  13.295 -0.2370  1.6216  0.5004
   58MPD2    H2  907   3.645   4.725  13.432  1.4112  0.2658  0.3762
   58MPD2    H3  908   3.872   4.726  13.377  1.0490 -0.2474 -0.1837
   58MPD2     N  909   3.882   4.324  13.180  0.3855 -0.3307  0.7237
   58MPD2    H5  910   3.981   4.332  13.201  0.9586  0.6084 -2.3781
   58MPD2    N1  911   3.463   4.534  13.333 -0.5998  0.2894 -0.1950
   58MPD2    H7  912   3.416   4.454  13.292  2.2688 -0.3769 -2.1399
   59TMC2    C1  913   1.537   3.496  13.112  0.0166 -0.4059  0.0226
   59TMC2    C2  914   1.553   3.424  13.229 -0.0117  0.6064  0.2166
   59TMC2    C3  915   1.464   3.326  13.247 -0.7396 -0.0803 -0.0587
   59TMC2    C4  916   1.439   3.472  13.020  0.6315 -0.3134 -0.2802
   59TMC2    C5  917   1.345   3.382  13.056  0.2517 -0.1429  0.3227
   59TMC2    C6  918   1.354   3.301  13.164 -0.4186 -0.0470 -0.3745
   59TMC2     C  919   1.656   3.544  13.046  0.2581 -0.1968 -1.1881
   59TMC2     O  920   1.661   3.531  12.922  0.0396  0.2398  0.3224
   59TMC2     H  921   1.649   3.435  13.279 -0.4698  3.8098  0.3991
   59TMC2    H1  922   1.441   3.532  12.930  0.6999 -2.8910 -1.9794
   59TMC2    H2  923   1.293   3.213  13.181 -1.9796  1.0439 -0.3681
   59TMC2    C7  924   1.229   3.374  12.973  0.4399 -0.0349  0.0911
   59TMC2    C8  925   1.494   3.212  13.333 -0.2091 -0.5816  0.7467
   59TMC2    O1  926   1.149   3.280  12.994  0.3391  0.0764  0.2938
   59TMC2    O2  927   1.499   3.102  13.283 -0.3905  0.0422  0.0419
   59TMC2    O5  928   1.577   3.267  13.424  0.7717 -0.8943  0.0758
   59TMC2    H5  929   1.558   3.361  13.445 -0.7905 -1.1418 -0.2120
   60MPD2     C  930   1.940   3.631  13.032 -0.7914 -1.1120  0.1308
   60MPD2    C1  931   1.850   3.686  13.120 -0.3083  0.3774 -0.5028
   60MPD2    C2  932   1.893   3.775  13.215 -0.1047  0.0782  0.1391
   60MPD2    C3  933   2.027   3.813  13.222  0.6911 -0.5192  0.2173
   60MPD2    C4  934   2.118   3.761  13.132 -0.7848 -0.0909  0.3692
   60MPD2    C5  935   2.073   3.676  13.036  0.3994  0.3588  0.1039
   60MPD2     H  936   1.824   3.816  13.288  0.1248  1.5923 -0.4903
   60MPD2    H1  937   2.223   3.784  13.127 -0.3799 -1.5018  2.5002
   60MPD2    H2  938   1.908   3.554  12.963 -0.8352  1.6317 -2.9595
   60MPD2    H3  939   2.139   3.641  12.957 -0.7378  0.7261 -1.0069
   60MPD2     N  940   2.077   3.894  13.320 -0.0503 -1.1047 -0.6119
   60MPD2    H5  941   2.178   3.900  13.325 -0.0472 -2.0922  0.6568
   60MPD2    N1  942   1.724   3.630  13.129 -0.1994  0.3123 -0.3823
   60MPD2    H7  943   1.670   3.653  13.212 -0.2863 -0.7513 -0.1423
   61TMC2    C1  944   1.141   0.199  14.950  0.4582  0.4290 -0.3755
   61TMC2    C2  945   1.142   0.097  15.040 -0.4974  0.6399 -0.1684
   61TMC2    C3  946   1.137   0.136  15.169  0.0847  0.6456  0.2641
   61TMC2    C4  947   1.104   0.326  14.982  0.4172  0.2339 -0.4523
   61TMC2    C5  948   1.095   0.355  15.113 -0.1765 -0.0451 -0.2999
   61TMC2    C6  949   1.103   0.261  15.211 -0.0834 -0.1972 -0.6394
   61TMC2     C  950   1.139   0.155  14.815 -0.2552 -0.8739 -0.2754
   61TMC2     O  951   1.077   0.052  14.794 -0.0491 -0.1997 -0.1063
   61TMC2     H  952   1.153   4.729  15.015  1.4125  1.5701 -3.2444
   61TMC2    H1  953   1.094   0.399  14.903  0.8290 -0.7292 -1.3998
   61TMC2    H2  954   1.116   0.294  15.313  1.3867 -1.3620 -0.4545
   61TMC2    C7  955   1.080   0.493  15.145  0.5062  0.4380  0.0970
   61TMC2    C8  956   1.218   0.052  15.253 -0.1314  1.0198 -0.2405
   61TMC2    O1  957   1.149   0.582  15.099  0.3113 -0.1385  0.5484
   61TMC2    O2  958   1.287   4.703  15.200  0.0653  0.0385 -0.3673
   61TMC2    O5  959   1.211   0.093  15.384 -0.0704  0.5317 -0.0257
   61TMC2    H5  960   1.125   0.127  15.415 -1.0667 -1.0707 -1.0112
   62MPD2     C  961   1.085   0.187  14.515  0.4185  0.2279 -0.3308
   62MPD2    C1  962   1.148   0.288  14.597  0.1965 -0.8498 -0.1844
   62MPD2    C2  963   1.180   0.414  14.550 -0.5107 -0.0533  0.1920
   62MPD2    C3  964   1.149   0.438  14.417 -0.2565  0.5699  0.1677
   62MPD2    C4  965   1.087   0.344  14.339  0.3924  0.3887 -0.0180
   62MPD2    C5  966   1.058   0.224  14.386 -0.1408 -0.0387  0.5944
   62MPD2     H  967   1.240   0.480  14.611 -0.6732  1.5253 -1.3356
   62MPD2    H1  968   1.069   0.364  14.234 -0.9395 -0.4757  0.0541
   62MPD2    H2  969   1.060   0.088  14.551 -1.1431  0.3198 -1.1978
   62MPD2    H3  970   1.018   0.139  14.331 -0.4974  0.4622  0.0796
   62MPD2     N  971   1.182   0.562  14.355 -0.3845 -0.0200 -1.0514
   62MPD2    H5  972   1.123   0.594  14.279  2.6263  2.2798 -2.4288
   62MPD2    N1  973   1.179   0.263  14.735 -0.4166 -0.0691  0.2144
   62MPD2    H7  974   1.221   0.339  14.787  0.8129 -0.7224  0.1835
   63TMC2    C1  975   0.006   0.490  10.116 -0.0542  0.0685  0.4860
   63TMC2    C2  976   0.057   0.530  10.237 -0.4242  0.2411 -0.4837
   63TMC2    C3  977   0.160   0.622  10.239  0.0403  0.1521  0.3629
   63TMC2    C4  978   0.045   0.553   9.995  0.5998  0.1853 -0.9461
   63TMC2    C5  979   0.143   0.646  10.003  0.0474 -0.3075  0.5010
   63TMC2    C6  980   0.205   0.682  10.119 -0.1671 -0.0545 -0.0142
   63TMC2     C  981   4.635   0.396  10.115 -0.0675 -0.5928  0.6697
   63TMC2     O  982   4.594   0.354  10.004 -0.0191 -0.1544 -0.7601
   63TMC2     H  983   0.029   0.479  10.329  1.4549 -1.0158 -0.5966
   63TMC2    H1  984   0.004   0.521   9.900  0.0752  0.8802 -0.9535
   63TMC2    H2  985   0.283   0.758  10.123  0.6834 -1.0028  1.2863
   63TMC2    C7  986   0.203   0.694   9.878  0.3297  0.3379  0.1630
   63TMC2    C8  987   0.238   0.639  10.359 -0.7233  0.2122  0.9907
   63TMC2    O1  988   0.131   0.677   9.782  0.2244  0.2616 -0.2226
   63TMC2    O2  989   0.192   0.603  10.465 -0.3680 -0.2988  0.1242
   63TMC2    O5  990   0.366   0.620  10.317  0.4038 -0.2403 -0.0769
   63TMC2    H5  991   0.384   0.635  10.222  0.2447 -0.8323 -0.2001
   64MPD2     C  992   4.318   0.059  10.337  0.2402  0.3545 -0.6483
   64MPD2    C1  993   4.414   0.096  10.431 -0.4975 -0.0498 -0.1932
   64MPD2    C2  994   4.499   0.202  10.407 -0.8149 -0.1956 -0.2485
   64MPD2    C3  995   4.500   0.261  10.273  0.0682 -0.8158  0.7943
   64MPD2    C4  996   4.417   0.216  10.178  0.1947  0.2358  0.4673
   64MPD2    C5  997   4.329   0.120  10.217  0.3852 -0.2394 -0.2350
   64MPD2     H  998   4.581   0.226  10.473 -0.8823 -0.9980  0.1320
   64MPD2    H1  999   4.413   0.259  10.078  1.8355  1.7483  1.0559
   64MPD2    H2 1000   4.248   4.713  10.336  0.7577 -0.0784 -1.6688
   64MPD2    H3 1001   4.257   0.101  10.137 -1.3115 -1.4199  1.5578
   64MPD2     N 1002   4.596   0.357  10.244 -0.5528  0.1575  0.5483
   64MPD2    H5 1003   4.645   0.402  10.321  1.0116 -0.6460  0.0243
   64MPD2    N1 1004   4.435   0.022  10.547  0.2857 -0.1018 -0.2567
   64MPD2    H7 1005   4.520   0.051  10.594  1.6146 -0.5430 -2.3720
   65TMC2    C1 1006   1.778   0.441  15.294 -0.1594 -0.4502  0.8666
   65TMC2    C2 1007   1.800   0.558  15.234 -0.0810  0.5686 -0.5076
   65TMC2    C3 1008   1.789   0.674  15.309  0.1689 -0.5387  0.6091
   65TMC2    C4 1009   1.741   0.437  15.428  0.3880 -0.4905  0.2764
   65TMC2    C5 1010   1.747   0.552  15.498 -0.3561  0.1806  0.3941
   65TMC2    C6 1011   1.761   0.674  15.440 -0.0577  0.3024  0.8104
   65TMC2     C 1012   1.825   0.329  15.219  0.2650  0.1582  0.5004
   65TMC2     O 1013   1.912   0.347  15.136  0.5295 -0.0489  0.7483
   65TMC2     H 1014   1.835   0.564  15.132 -0.1641  1.4813 -0.4800
   65TMC2    H1 1015   1.729   0.343  15.480  0.7197 -0.6547  0.0573
   65TMC2    H2 1016   1.741   0.770  15.487  1.1699  1.5405 -1.1689
   65TMC2    C7 1017   1.695   0.538  15.633  0.1474  0.2083  0.3058
   65TMC2    C8 1018   1.817   0.799  15.243  0.4454 -0.7224 -0.3185
   65TMC2    O1 1019   1.630   0.437  15.656 -0.1795 -0.2751 -0.5461
   65TMC2    O2 1020   1.832   0.898  15.308  0.4149  0.0854  0.0156
   65TMC2    O5 1021   1.757   0.794  15.121  0.2983 -0.4960  0.4464
   65TMC2    H5 1022   1.712   0.708  15.103  1.7037 -1.8273  3.2527
   66MPD2     C 1023   1.867   0.048  15.113 -0.1949 -0.8674 -0.1026
   66MPD2    C1 1024   1.746   0.100  15.171  0.6928  0.3746  0.3531
   66MPD2    C2 1025   1.630   0.022  15.165  0.2622 -0.2207 -1.0692
   66MPD2    C3 1026   1.625   4.657  15.075  0.2853  0.1463  0.5326
   66MPD2    C4 1027   1.736   4.622  15.002 -0.5248 -0.6688  0.0725
   66MPD2    C5 1028   1.851   4.681  15.027  0.6038  0.2421 -0.5089
   66MPD2     H 1029   1.546   0.054  15.225  1.5420 -0.9826  1.1444
   66MPD2    H1 1030   1.736   4.538  14.934 -0.3813  0.1701 -0.9689
   66MPD2    H2 1031   1.964   0.096  15.128  0.1473 -1.3296 -0.8691
   66MPD2    H3 1032   1.936   4.653  14.965  0.8887  2.8668 -1.2647
   66MPD2     N 1033   1.494   4.596  15.038 -0.5329 -0.1651 -0.4852
   66MPD2    H5 1034   1.420   4.639  15.094 -1.4185 -0.7796 -1.1849
   66MPD2    N1 1035   1.740   0.223  15.246 -0.2661 -0.0559 -0.1182
   66MPD2    H7 1036   1.658   0.237  15.303 -1.3200 -1.4793 -1.2923
   67TMC2    C1 1037   2.092   4.090  14.402  0.4154  0.2486 -0.4830
   67TMC2    C2 1038   2.013   4.190  14.361  0.1761  0.3836 -1.4498
   67TMC2    C3 1039   2.004   4.300  14.444  0.4421 -0.3299 -0.6919
   67TMC2    C4 1040   2.161   4.088  14.522  0.4654  0.1207 -0.4488
   67TMC2    C5 1041   2.137   4.197  14.602  0.2418  0.5122 -0.0801
   67TMC2    C6 1042   2.062   4.304  14.567  0.5514  0.5408  0.4272
   67TMC2     C 1043   2.078   3.960  14.333 -0.2217 -0.4444  0.0536
   67TMC2     O 1044   2.157   3.871  14.370  0.0389  0.5174 -0.0302
   67TMC2     H 1045   1.967   4.195  14.263 -0.9383  0.2559 -0.9307
   67TMC2    H1 1046   2.232   4.009  14.544 -0.0310 -0.4626 -0.9311
   67TMC2    H2 1047   2.052   4.392  14.631 -0.4180 -0.7013  1.9788
   67TMC2    C7 1048   2.204   4.208  14.732  0.2189 -0.0127  0.0406
   67TMC2    C8 1049   1.914   4.403  14.394  0.5127 -0.9604  0.1042
   67TMC2    O1 1050   2.300   4.130  14.746  0.3043  0.1950 -0.2984
   67TMC2    O2 1051   1.828   4.399  14.306  0.2438 -0.6942 -0.1644
   67TMC2    O5 1052   1.939   4.518  14.475 -0.0641 -0.0207  0.6460
   67TMC2    H5 1053   1.904   4.602  14.438  2.7997  1.3822  1.1649
   68MPD2     C 1054   2.021   3.737  14.151 -0.0439  0.2905 -0.6515
   68MPD2    C1 1055   1.927   3.841  14.174  0.2938  0.5446  0.3062
   68MPD2    C2 1056   1.807   3.831  14.109 -0.3872  0.3509 -0.2937
   68MPD2    C3 1057   1.781   3.723  14.028  0.1145 -0.0441 -0.0954
   68MPD2    C4 1058   1.859   3.612  14.026 -0.4187 -0.1665  0.4880
   68MPD2    C5 1059   1.984   3.624  14.084  0.3116 -0.0708 -0.2194
   68MPD2     H 1060   1.732   3.908  14.123 -0.4616  0.5230 -1.6524
   68MPD2    H1 1061   1.839   3.528  13.960  1.7351 -0.6739  0.4978
   68MPD2    H2 1062   2.122   3.734  14.190 -0.5837 -0.0455  0.7152
   68MPD2    H3 1063   2.052   3.539  14.078  0.7961  0.3333 -0.4572
   68MPD2     N 1064   1.669   3.710  13.938 -0.0054  0.7941 -0.2692
   68MPD2    H5 1065   1.662   3.635  13.870  2.3480 -0.8244  1.2779
   68MPD2    N1 1066   1.964   3.950  14.255  0.0850  0.5596  0.2060
   68MPD2    H7 1067   1.901   4.030  14.258 -0.1971  0.3852 -0.8274
   69TMC2    C1 1068   3.089   0.601  12.892 -0.1196 -0.3105  0.7639
   69TMC2    C2 1069   3.002   0.688  12.939  0.8160  0.7921 -0.6834
   69TMC2    C3 1070   2.984   0.805  12.871  0.3254  0.0657  0.1542
   69TMC2    C4 1071   3.161   0.634  12.785  0.7042  0.7093  0.1891
   69TMC2    C5 1072   3.147   0.752  12.723  0.3869  0.8991 -0.5429
   69TMC2    C6 1073   3.050   0.838  12.754  0.1956 -0.2256 -0.4509
   69TMC2     C 1074   3.062   0.464  12.911 -0.3720 -0.0083 -0.6454
   69TMC2     O 1075   2.997   0.424  13.007  0.7723 -0.4481 -0.0932
   69TMC2     H 1076   2.955   0.673  13.036  0.4951 -0.2248 -1.0010
   69TMC2    H1 1077   3.252   0.579  12.759  0.3696  1.0545 -1.7614
   69TMC2    H2 1078   3.033   0.937  12.712  0.7496 -0.0485 -0.2709
   69TMC2    C7 1079   3.229   0.762  12.602  0.2155 -0.4633 -0.3234
   69TMC2    C8 1080   2.881   0.900  12.917  0.0961  0.2357 -0.5490
   69TMC2    O1 1081   3.296   0.666  12.569 -0.1981  0.3954  0.1579
   69TMC2    O2 1082   2.874   1.017  12.876  0.7865  0.3119  0.4822
   69TMC2    O5 1083   2.790   0.837  12.993 -0.0498 -0.0841  0.2346
   69TMC2    H5 1084   2.796   0.740  12.995 -1.4528 -0.1764  0.3163
   70MPD2     C 1085   3.160   0.209  12.651  0.1110  0.0435  0.6975
   70MPD2    C1 1086   3.098   0.254  12.769  0.2609 -0.0770 -0.1861
   70MPD2    C2 1087   3.019   0.168  12.843 -0.6020 -0.9904 -0.0764
   70MPD2    C3 1088   2.999   0.037  12.794  0.4132 -0.5030  0.7673
   70MPD2    C4 1089   3.069   4.730  12.682 -0.1690 -0.3819 -0.1441
   70MPD2    C5 1090   3.135   0.086  12.601  0.1375 -0.3924 -0.5665
   70MPD2     H 1091   2.966   0.206  12.930  1.5204 -0.3900  0.9470
   70MPD2    H1 1092   3.071   4.627  12.651  0.7358 -0.8568  1.4916
   70MPD2    H2 1093   3.224   0.273  12.591  0.1258  0.1672  0.8461
   70MPD2    H3 1094   3.177   0.049  12.508 -0.7180 -0.3644 -0.9578
   70MPD2     N 1095   2.910   4.683  12.853 -0.3760 -0.6324  0.2430
   70MPD2    H5 1096   2.890   4.600  12.798  2.0322 -1.3053  0.3887
   70MPD2    N1 1097   3.117   0.397  12.802 -0.2459 -0.5701 -0.5794
   70MPD2    H7 1098   3.183   0.436  12.735 -0.9946 -1.1169 -1.6339
   71TMC2    C1 1099   1.259   1.577   1.375 -0.5838 -0.7441  0.5751
   71TMC2    C2 1100   1.340   1.597   1.488  0.1433 -0.2455  0.2099
   71TMC2    C3 1101   1.289   1.680   1.588 -0.3402  0.0083  0.5338
   71TMC2    C4 1102   1.146   1.650   1.354 -0.3048 -0.1326  0.0261
   71TMC2    C5 1103   1.102   1.735   1.458  0.4460 -0.2112 -0.1333
   71TMC2    C6 1104   1.168   1.749   1.576 -0.0892  0.9632 -0.8624
   71TMC2     C 1105   1.329   1.536   1.259  0.3575 -0.0001 -0.7933
   71TMC2     O 1106   1.440   1.582   1.247 -0.0738 -0.0998  0.3831
   71TMC2     H 1107   1.438   1.551   1.497 -0.1653 -0.7964  0.7318
   71TMC2    H1 1108   1.099   1.647   1.257 -0.3438 -1.0510  0.0719
   71TMC2    H2 1109   1.149   1.834   1.640  0.3445  0.5885 -0.2302
   71TMC2    C7 1110   0.993   1.823   1.433 -0.5326  0.8518 -0.0394
   71TMC2    C8 1111   1.376   1.725   1.691  0.1771  0.3430  0.2270
   71TMC2    O1 1112   0.970   1.909   1.519 -0.7951  0.2311  0.0056
   71TMC2    O2 1113   1.372   1.838   1.744 -0.1331  0.2638 -0.1306
   71TMC2    O5 1114   1.433   1.615   1.751  0.4170 -0.3310  0.0225
   71TMC2    H5 1115   1.418   1.531   1.702 -0.2813 -0.9009  1.2209
   72MPD2     C 1116   1.381   1.361   0.775 -0.7160 -0.3261 -0.2171
   72MPD2    C1 1117   1.414   1.482   0.839 -0.2957  0.0012 -0.3625
   72MPD2    C2 1118   1.377   1.512   0.970  0.1254  0.3463 -0.4076
   72MPD2    C3 1119   1.301   1.420   1.044 -0.5955  0.4422  0.6710
   72MPD2    C4 1120   1.258   1.303   0.979  0.1294 -0.5625  0.2973
   72MPD2    C5 1121   1.304   1.273   0.850  0.1799 -0.4297  0.3788
   72MPD2     H 1122   1.397   1.611   1.007 -0.1498 -0.7528  2.6551
   72MPD2    H1 1123   1.212   1.227   1.040 -0.7026 -1.4540 -1.4228
   72MPD2    H2 1124   1.401   1.333   0.672 -0.3803 -0.3853 -0.1357
   72MPD2    H3 1125   1.276   1.182   0.798  0.3143 -0.2279 -0.0517
   72MPD2     N 1126   1.261   1.448   1.180 -0.5277  0.3204 -0.5677
   72MPD2    H5 1127   1.187   1.392   1.222 -1.4427  0.1308 -2.4151
   72MPD2    N1 1128   1.478   1.584   0.770 -0.5639  0.4750 -0.5355
   72MPD2    H7 1129   1.506   1.669   0.819  0.2337 -0.8803  1.3509
   73TMC2    C1 1130   0.839   3.567  13.703  0.3036  0.7948 -0.7998
   73TMC2    C2 1131   0.728   3.548  13.786  0.1375 -0.0887 -0.3144
   73TMC2    C3 1132   0.639   3.452  13.745 -0.1346  0.4401 -0.6749
   73TMC2    C4 1133   0.838   3.511  13.580  0.1353 -0.3903  0.2647
   73TMC2    C5 1134   0.740   3.424  13.539 -0.1799  0.2392  0.1365
   73TMC2    C6 1135   0.640   3.389  13.624  0.3908  0.1003 -0.2435
   73TMC2     C 1136   0.974   3.550  13.761  0.2026 -0.1930  0.2310
   73TMC2     O 1137   1.050   3.486  13.697 -0.1177  0.4108 -0.5363
   73TMC2     H 1138   0.721   3.587  13.887  1.8655  0.6885 -0.4931
   73TMC2    H1 1139   0.920   3.535  13.514  0.2244  0.0890  0.5493
   73TMC2    H2 1140   0.568   3.310  13.604  0.3342  0.7925 -2.7097
   73TMC2    C7 1141   0.792   3.318  13.454  0.6099  0.2253  0.3993
   73TMC2    C8 1142   0.520   3.430  13.822  0.0305  0.1241 -0.1198
   73TMC2    O1 1143   0.713   3.256  13.384 -0.3900 -0.7446 -0.4500
   73TMC2    O2 1144   0.412   3.410  13.769 -0.0161  0.3206  0.3046
   73TMC2    O5 1145   0.560   3.380  13.940 -0.6911 -0.2236  0.1207
   73TMC2    H5 1146   0.658   3.374  13.950 -0.9148 -0.3943  2.1767
   74MPD2     C 1147   1.303   3.547  14.138 -0.1632  0.2558  0.0077
   74MPD2    C1 1148   1.275   3.453  14.044  0.0613  0.2831 -0.3003
   74MPD2    C2 1149   1.162   3.474  13.970 -0.5964 -0.3595 -0.2572
   74MPD2    C3 1150   1.083   3.585  13.983  0.0910 -0.5046 -0.3663
   74MPD2    C4 1151   1.112   3.681  14.080  0.2127  0.3413  0.5770
   74MPD2    C5 1152   1.230   3.664  14.147  0.7798 -0.5543 -0.0427
   74MPD2     H 1153   1.127   3.397  13.902 -0.8586 -0.0426 -0.4805
   74MPD2    H1 1154   1.055   3.772  14.089  2.1539  1.6428 -0.3682
   74MPD2    H2 1155   1.389   3.550  14.203  0.6775  0.9691 -1.1436
   74MPD2    H3 1156   1.255   3.737  14.223  2.3941 -0.4272 -0.6993
   74MPD2     N 1157   0.976   3.602  13.894 -0.0884 -0.4253  0.1609
   74MPD2    H5 1158   0.911   3.677  13.913  0.6698 -0.4526  2.9939
   74MPD2    N1 1159   1.367   3.347  14.026 -0.5957 -0.6389  0.2191
   74MPD2    H7 1160   1.440   3.343  14.097 -0.5441 -1.7506  0.1168
   75TMC2    C1 1161   1.465   3.765  13.839 -0.7686 -0.6707 -0.4203
   75TMC2    C2 1162   1.482   3.663  13.745  0.0247 -0.1214 -0.1210
   75TMC2    C3 1163   1.379   3.632  13.662  0.3905  0.5412  0.2138
   75TMC2    C4 1164   1.346   3.842  13.840  0.6970  0.4707  0.1957
   75TMC2    C5 1165   1.245   3.807  13.755  0.0233 -0.5701  0.2883
   75TMC2    C6 1166   1.259   3.695  13.678 -0.2901  0.2518  0.0240
   75TMC2     C 1167   1.565   3.797  13.939  0.5138  0.6429  0.3195
   75TMC2     O 1168   1.527   3.877  14.018 -0.0881 -0.0976  0.4577
   75TMC2     H 1169   1.579   3.618  13.726 -0.4018 -0.8828 -0.4589
   75TMC2    H1 1170   1.338   3.926  13.909 -2.2624  1.4478 -1.3578
   75TMC2    H2 1171   1.181   3.661  13.611  0.2185  1.7910 -1.3255
   75TMC2    C7 1172   1.123   3.885  13.730 -0.1904 -0.2290  0.8953
   75TMC2    C8 1173   1.390   3.520  13.566  0.6969  0.6274  0.5930
   75TMC2    O1 1174   1.065   3.862  13.626  0.3743 -0.0301  0.1332
   75TMC2    O2 1175   1.496   3.492  13.511  0.0260 -0.9608 -0.3004
   75TMC2    O5 1176   1.281   3.447  13.576  0.1602  0.1022  0.4097
   75TMC2    H5 1177   1.221   3.482  13.645 -0.7164  3.2559 -1.9393
   76TMC2    C1 1178   4.649   4.664  12.004 -0.0429  0.6310  0.2772
   76TMC2    C2 1179   4.611   4.691  11.872 -0.0048 -0.2641  0.2556
   76TMC2    C3 1180   4.648   4.604  11.767 -0.5843 -0.3623 -0.0787
   76TMC2    C4 1181   4.720   4.548  12.033 -1.2256 -0.6774  0.8128
   76TMC2    C5 1182   0.010   4.464  11.930  0.0562 -0.1995  0.1257
   76TMC2    C6 1183   4.723   4.494  11.799 -0.0046  0.4774  0.0944
   76TMC2     C 1184   4.573   4.717  12.117  0.1526 -0.0213 -0.1269
   76TMC2     O 1185   4.630   4.711  12.222 -0.0843  0.1340  0.2222
   76TMC2     H 1186   4.575   0.055  11.853 -0.0948 -0.1269  1.1776
   76TMC2    H1 1187   0.011   4.523  12.135  0.5252  0.1521  0.5262
   76TMC2    H2 1188   0.015   4.419  11.727 -0.8995 -1.2335  1.5191
   76TMC2    C7 1189   0.048   4.323  11.944 -0.1403  0.3679 -0.4731
   76TMC2    C8 1190   4.619   4.624  11.627  0.5507  0.2358  0.0435
   76TMC2    O1 1191   0.017   4.233  11.865  0.3423 -0.3352 -0.5697
   76TMC2    O2 1192   4.676   4.553  11.547 -0.0797  0.1248 -0.2087
   76TMC2    O5 1193   4.495   4.677  11.623 -1.3317  0.2973  0.3811
   76TMC2    H5 1194   4.455   4.705  11.708  2.0591  1.4536  1.6044
   77MPD2     C 1195   4.168   0.216  12.352  0.6174  0.2253  0.3168
   77MPD2    C1 1196   4.160   0.238  12.213 -0.1836 -0.0478  0.3375
   77MPD2    C2 1197   4.252   0.179  12.127  0.0906  0.4713  0.1028
   77MPD2    C3 1198   4.349   0.100  12.178  0.0918 -0.5719  0.4476
   77MPD2    C4 1199   4.369   0.085  12.310  0.1887 -0.0183 -0.5650
   77MPD2    C5 1200   4.274   0.142  12.393  0.3379  0.1051  0.2023
   77MPD2     H 1201   4.244   0.181  12.019  0.0557 -1.4859  0.0592
   77MPD2    H1 1202   4.448   0.031  12.360 -0.3979  1.9468  2.4430
   77MPD2    H2 1203   4.101   0.260  12.426  0.3902  0.8854 -0.2794
   77MPD2    H3 1204   4.293   0.121  12.497  1.0602  1.5833  0.3609
   77MPD2     N 1205   4.449   0.040  12.088 -0.8492  0.3642  0.5316
   77MPD2    H5 1206   4.430   0.052  11.989  0.7990 -0.1332  0.1606
   77MPD2    N1 1207   4.065   0.331  12.169 -0.4435 -0.1987 -0.0592
   77MPD2    H7 1208   4.071   0.357  12.071 -0.1156 -2.2654 -0.5722
   78TMC2    C1 1209   1.851   1.717   2.220 -0.6348  0.0747  0.2949
   78TMC2    C2 1210   1.874   1.665   2.343 -0.0853 -0.0928  0.4766
   78TMC2    C3 1211   1.970   1.564   2.342 -0.4189 -0.0126 -0.2734
   78TMC2    C4 1212   1.908   1.682   2.102 -0.0986  0.1970 -0.3041
   78TMC2    C5 1213   2.001   1.584   2.104 -1.0571  0.8776  0.4323
   78TMC2    C6 1214   2.036   1.534   2.231  0.3152  0.4478  0.4976
   78TMC2     C 1215   1.771   1.833   2.203  0.1636  0.4303 -0.4671
   78TMC2     O 1216   1.730   1.849   2.090  0.2910  0.0141 -0.7754
   78TMC2     H 1217   1.802   1.677   2.423 -1.1093 -0.8626 -0.3271
   78TMC2    H1 1218   1.876   1.719   2.005 -0.6412  0.9159  0.1519
   78TMC2    H2 1219   2.109   1.454   2.242  1.9524  1.6593 -1.4209
   78TMC2    C7 1220   2.030   1.505   1.986 -0.0157 -0.2098 -0.0873
   78TMC2    C8 1221   2.019   1.522   2.470 -0.1847  0.5680 -0.0212
   78TMC2    O1 1222   2.131   1.436   1.994 -0.7137 -0.4179  0.0858
   78TMC2    O2 1223   2.057   1.404   2.491  0.0664 -0.5990  0.5534
   78TMC2    O5 1224   1.982   1.606   2.565  0.7382  0.5899  0.0453
   78TMC2    H5 1225   1.951   1.696   2.540  1.9430  0.4134 -2.1658
   79MPD1     C 1226   1.471   2.209   2.378 -0.5579  0.3411 -0.3786
   79MPD1    C1 1227   1.462   2.138   2.264  0.2772  0.0572 -0.0566
   79MPD1    C2 1228   1.546   2.030   2.251 -0.7907  0.2470  0.4528
   79MPD1    C3 1229   1.642   2.001   2.347  0.3962 -0.2723  0.1007
   79MPD1    C4 1230   1.636   2.069   2.467  0.9098  0.0552 -0.2961
   79MPD1    C5 1231   1.556   2.177   2.485  0.0017 -0.0847  0.6249
   79MPD1     H 1232   1.549   1.973   2.159  0.9511  1.3696 -0.1957
   79MPD1    H1 1233   1.707   2.041   2.545  0.4182  1.6426  0.7255
   79MPD1    H2 1234   1.404   2.292   2.399 -1.3920 -0.3962 -0.1573
   79MPD1    H3 1235   1.555   2.244   2.571  0.8329  1.5021 -0.5884
   79MPD1     N 1236   1.744   1.896   2.318  0.0302  0.0160  0.1557
   79MPD1    H5 1237   1.789   1.859   2.401 -0.0996 -2.6120 -0.9347
   79MPD1    N1 1238   1.363   2.153   2.165  0.1894 -0.7659  0.1440
   79MPD1    H6 1239   1.385   2.113   2.074  0.7842 -1.7480  0.7174
   79MPD1    H7 1240   1.325   2.247   2.155 -0.3168 -1.1731 -1.7619
   80TMC2    C1 1241   3.919   4.617  11.582 -0.0532  0.5887 -0.4153
   80TMC2    C2 1242   3.999   4.648  11.478 -0.3673  0.4388  0.2740
   80TMC2    C3 1243   4.132   4.619  11.489 -0.6773 -0.0982  0.2954
   80TMC2    C4 1244   3.965   4.542  11.688  0.1384  0.0431 -0.1105
   80TMC2    C5 1245   4.095   4.502  11.685 -1.0197 -0.3879 -0.1034
   80TMC2    C6 1246   4.181   4.540  11.587 -0.0579 -0.0502  0.0416
   80TMC2     C 1247   3.823   4.711  11.623 -0.7606  0.7557  0.7271
   80TMC2     O 1248   3.853   0.085  11.589  0.3183 -0.0696 -0.5211
   80TMC2     H 1249   3.961   4.703  11.393  0.2466 -0.8326 -0.8293
   80TMC2    H1 1250   3.904   4.526  11.776  0.0089  0.8151 -0.0604
   80TMC2    H2 1251   4.288   4.531  11.598 -0.0765 -0.4287 -0.1005
   80TMC2    C7 1252   4.150   4.427  11.792 -0.7501  0.1560 -0.0123
   80TMC2    C8 1253   4.223   4.649  11.378  0.0996  0.2461 -0.7499
   80TMC2    O1 1254   4.249   4.470  11.845  0.8839 -0.0369 -0.2187
   80TMC2    O2 1255   4.336   4.605  11.368  0.0770  0.7360 -0.2708
   80TMC2    O5 1256   4.172   0.011  11.304  0.1734 -0.3091  0.2342
   80TMC2    H5 1257   4.092   0.058  11.335 -0.6701 -1.3384 -0.3732
   81MPD2     C 1258   3.579   0.133  11.672  0.3709  0.5280 -0.2691
   81MPD2    C1 1259   3.603   0.009  11.735  0.6931  0.5737 -0.4494
   81MPD2    C2 1260   3.500   4.681  11.799 -0.3049  0.2446  0.5437
   81MPD2    C3 1261   3.381   0.011  11.805 -0.1872 -0.5371 -0.5204
   81MPD2    C4 1262   3.362   0.141  11.761  0.2129  1.0679 -0.1682
   81MPD2    C5 1263   3.459   0.199  11.691 -0.2378  0.6558 -0.2666
   81MPD2     H 1264   3.518   4.581  11.838 -3.4379  0.1163  1.6504
   81MPD2    H1 1265   3.271   0.198  11.778  0.1033  0.5546  0.9570
   81MPD2    H2 1266   3.648   0.179  11.602  0.7982 -1.4963 -1.1795
   81MPD2    H3 1267   3.454   0.302  11.658 -0.2471  1.6051  2.6490
   81MPD2     N 1268   3.265   4.696  11.859 -0.3740 -0.1460 -0.0581
   81MPD2    H5 1269   3.188   0.025  11.861  0.5798  0.8453  3.7294
   81MPD2    N1 1270   3.729   4.674  11.715 -0.2165  0.6617 -0.4970
   81MPD2    H7 1271   3.735   4.576  11.742  1.9516  0.7271 -0.7073
   82TMC2    C1 1272   1.961   3.531  11.313 -0.6092  0.8315 -0.3980
   82TMC2    C2 1273   2.022   3.502  11.196 -0.4345 -0.3866 -0.7309
   82TMC2    C3 1274   2.080   3.380  11.180  0.8916  0.3382  0.2278
   82TMC2    C4 1275   1.969   3.437  11.416 -1.1209  1.2992  0.0159
   82TMC2    C5 1276   2.048   3.327  11.408 -0.1799  0.5917  0.0011
   82TMC2    C6 1277   2.103   3.295  11.288 -0.4368  0.1402  0.2721
   82TMC2     C 1278   1.842   3.615  11.302  0.5266  0.5224 -0.6866
   82TMC2     O 1279   1.796   3.624  11.190  0.1053  0.2863 -0.4241
   82TMC2     H 1280   2.004   3.569  11.113 -2.2340  1.9689  1.5636
   82TMC2    H1 1281   1.902   3.448  11.501 -0.1137 -1.7350  1.2177
   82TMC2    H2 1282   2.151   3.200  11.265 -0.6555  0.8377 -3.0969
   82TMC2    C7 1283   2.038   3.240  11.515 -0.4519 -0.5856 -0.4031
   82TMC2    C8 1284   2.132   3.345  11.051  0.0333 -0.1766  1.3350
   82TMC2    O1 1285   1.966   3.273  11.606 -0.1374 -0.5831  0.5079
   82TMC2    O2 1286   2.180   3.233  11.035  0.1608  0.0356 -0.7748
   82TMC2    O5 1287   2.079   3.420  10.943  0.1906  0.3696  0.0541
   82TMC2    H5 1288   2.029   3.501  10.967  1.7252  1.1672  0.6000
   83MPD2     C 1289   1.424   3.830  11.498  1.2337  0.1461 -0.9457
   83MPD2    C1 1290   1.442   3.768  11.378  0.3140  0.2658  0.6811
   83MPD2    C2 1291   1.566   3.716  11.345  0.1440 -0.8023  0.3583
   83MPD2    C3 1292   1.664   3.708  11.444 -0.4058 -0.1937 -0.5400
   83MPD2    C4 1293   1.639   3.760  11.564  0.4769  0.4993  0.1818
   83MPD2    C5 1294   1.526   3.828  11.593  0.4103  0.1773 -0.2096
   83MPD2     H 1295   1.584   3.687  11.242 -1.3181  2.3823 -0.7912
   83MPD2    H1 1296   1.726   3.765  11.629 -0.5529 -2.1777  1.7679
   83MPD2    H2 1297   1.327   3.871  11.524  1.5653 -0.2137  0.8537
   83MPD2    H3 1298   1.500   3.870  11.689 -0.1242  1.2742 -0.8276
   83MPD2     N 1299   1.792   3.657  11.424 -0.2704 -0.1579 -0.3196
   83MPD2    H5 1300   1.859   3.665  11.500 -0.5320  2.6444 -0.3811
   83MPD2    N1 1301   1.330   3.744  11.287  0.3817 -0.0533 -0.4221
   83MPD2    H7 1302   1.241   3.778  11.321 -0.1069 -0.1970 -1.5331
   84TMC2    C1 1303   3.008   3.781  10.497  0.2155  0.0267 -0.0437
   84TMC2    C2 1304   2.884   3.753  10.450  0.0511  0.7397  0.4806
   84TMC2    C3 1305   2.873   3.750  10.315 -0.0880  0.3659  0.7479
   84TMC2    C4 1306   3.108   3.823  10.417 -0.0047 -0.1357  0.5178
   84TMC2    C5 1307   3.080   3.843  10.282 -0.3006 -0.5968 -0.8143
   84TMC2    C6 1308   2.966   3.800  10.226  0.1368 -0.0496 -0.8376
   84TMC2     C 1309   3.024   3.750  10.638  0.1271 -0.3435 -0.5529
   84TMC2     O 1310   2.927   3.722  10.710  0.4235  0.0452 -0.5553
   84TMC2     H 1311   2.804   3.713  10.511 -2.8061  0.7988 -3.2024
   84TMC2    H1 1312   3.210   3.839  10.451 -0.1698 -0.4242  1.1450
   84TMC2    H2 1313   2.952   3.801  10.118  0.3768  1.7322 -0.8540
   84TMC2    C7 1314   3.183   3.864  10.185 -0.2218  0.1601 -0.8343
   84TMC2    C8 1315   2.744   3.714  10.258  0.1731 -0.4428  0.1396
   84TMC2    O1 1316   3.164   3.929  10.085  1.1594  0.1953 -0.3489
   84TMC2    O2 1317   2.737   3.647  10.157 -0.3280  0.6261 -0.2109
   84TMC2    O5 1318   2.655   3.796  10.319 -0.5463 -0.3378 -0.4960
   84TMC2    H5 1319   2.695   3.872  10.368 -0.9317 -0.6417  0.2920
   85TMC2    C1 1320   4.040   1.322  15.812 -0.1155 -0.3317 -0.5737
   85TMC2    C2 1321   3.923   1.337  15.743  0.2567 -0.5120  0.1251
   85TMC2    C3 1322   3.916   1.445  15.656 -0.9017 -0.1913  0.1781
   85TMC2    C4 1323   4.146   1.412  15.799 -0.1218 -0.4789  0.6936
   85TMC2    C5 1324   4.137   1.510  15.708 -0.0390 -0.1625 -1.0080
   85TMC2    C6 1325   4.023   1.531  15.633  0.6337 -0.2014 -0.6757
   85TMC2     C 1326   4.053   1.216  15.911  1.1626  0.0739  0.0163
   85TMC2     O 1327   4.163   1.211  15.966 -1.0144 -0.0061 -0.4408
   85TMC2     H 1328   3.841   1.266  15.744 -0.0740 -0.1265  0.4588
   85TMC2    H1 1329   4.245   1.401  15.842 -0.6645 -1.6920  1.6010
   85TMC2    H2 1330   4.028   1.613  15.562 -0.4084  0.4131 -0.0404
   85TMC2    C7 1331   4.265   1.537  15.639  0.1410  0.0599 -0.4457
   85TMC2    C8 1332   3.789   1.466  15.587  0.2351 -0.2644  0.0640
   85TMC2    O1 1333   4.367   1.521  15.704  0.0956  0.2168 -0.3161
   85TMC2    O2 1334   3.710   1.381  15.550  0.4478  0.3889  0.5702
   85TMC2    O5 1335   3.791   1.595  15.549  0.3119 -0.4246 -0.3771
   85TMC2    H5 1336   3.847   1.658  15.599 -2.9094  0.6482  1.8762
   86MPD2     C 1337   3.888   0.830  16.193  0.1200  0.0365 -0.1331
   86MPD2    C1 1338   3.797   0.861  16.091  0.1940  0.1843  0.3156
   86MPD2    C2 1339   3.818   0.966  15.999 -0.0397 -0.3741  0.2456
   86MPD2    C3 1340   3.932   1.042  16.014 -0.4551  0.1199 -0.8286
   86MPD2    C4 1341   4.020   1.013  16.119  0.2972  0.2101 -0.0378
   86MPD2    C5 1342   3.997   0.909  16.208 -0.7919  0.1193  0.0043
   86MPD2     H 1343   3.747   0.998  15.924  0.4313  0.6511  0.2494
   86MPD2    H1 1344   4.110   1.070  16.138 -0.3194  0.0825  3.1705
   86MPD2    H2 1345   3.881   0.745  16.260 -1.3832  0.9973  0.9069
   86MPD2    H3 1346   4.065   0.877  16.286 -2.2875  0.2052  1.3710
   86MPD2     N 1347   3.947   1.141  15.923  0.6456 -0.5928  0.2609
   86MPD2    H5 1348   3.864   1.167  15.871  1.1063  0.5747  0.1124
   86MPD2    N1 1349   3.678   0.784  16.078 -0.2770 -0.0426 -0.2443
   86MPD2    H7 1350   3.618   0.784  15.995 -0.3914  0.5557 -0.1656
   87TMC2    C1 1351   1.727   4.647   1.384  0.4365 -0.7816  0.1728
   87TMC2    C2 1352   1.759   4.633   1.517  0.0641 -0.2753 -0.4121
   87TMC2    C3 1353   1.666   4.670   1.613 -0.7464  0.9159 -0.4683
   87TMC2    C4 1354   1.606   4.698   1.346 -0.3848  0.1306 -0.1779
   87TMC2    C5 1355   1.522   4.734   1.444 -0.1613  0.5200 -1.2497
   87TMC2    C6 1356   1.553   4.733   1.574 -0.1953  0.0383 -0.3809
   87TMC2     C 1357   1.809   4.576   1.285  1.0341 -1.1909  0.0652
   87TMC2     O 1358   1.782   4.601   1.170 -0.4985 -0.3427 -0.2972
   87TMC2     H 1359   1.858   4.603   1.549  0.8962  0.3116 -2.4733
   87TMC2    H1 1360   1.583   4.703   1.241 -2.7222 -0.4396  0.3020
   87TMC2    H2 1361   1.485   0.024   1.654  0.4322  1.7890 -0.4720
   87TMC2    C7 1362   1.397   0.048   1.393  0.0710 -0.4681 -0.2502
   87TMC2    C8 1363   1.713   4.672   1.748  0.0542 -0.0475  0.0888
   87TMC2    O1 1364   1.384   0.060   1.271 -0.1710 -0.0911 -0.0625
   87TMC2    O2 1365   1.709   4.577   1.822  0.6228  0.1929  0.0118
   87TMC2    O5 1366   1.686   0.064   1.787 -0.4974  0.9842 -0.3749
   87TMC2    H5 1367   1.715   0.127   1.718  1.1184  0.3411 -0.2809
   88MPD2     C 1368   1.108   0.189   1.563 -0.3553  0.6330  0.3612
   88MPD2    C1 1369   1.180   0.143   1.454 -0.3870  0.2931  0.1371
   88MPD2    C2 1370   1.124   0.163   1.332 -0.0345 -0.3937  0.6461
   88MPD2    C3 1371   1.011   0.238   1.312 -0.1112 -0.2530  0.1180
   88MPD2    C4 1372   0.938   0.271   1.420 -0.1789  1.1471 -0.0938
   88MPD2    C5 1373   0.985   0.248   1.547  0.1544 -0.0856 -0.3304
   88MPD2     H 1374   1.180   0.130   1.245  2.1915  2.4755  0.9857
   88MPD2    H1 1375   0.849   0.333   1.420 -0.9353  0.0569 -0.4134
   88MPD2    H2 1376   1.147   0.171   1.663  1.5541  1.1483 -0.3018
   88MPD2    H3 1377   0.940   0.292   1.635 -0.9154 -1.6118 -0.1316
   88MPD2     N 1378   0.971   0.289   1.191  0.1582  0.2154 -0.7120
   88MPD2    H5 1379   0.878   0.329   1.179  0.6607  1.2191 -1.2353
   88MPD2    N1 1380   1.299   0.076   1.483 -0.0777 -0.5594 -0.1295
   88MPD2    H7 1381   1.322   0.077   1.582  2.3867  1.2980 -0.7049
   89TMC2    C1 1382   2.374   3.122   1.829  0.1466  0.1208  0.0805
   89TMC2    C2 1383   2.372   3.049   1.713 -0.1373  0.1539 -0.5081
   89TMC2    C3 1384   2.440   3.092   1.602 -0.5728  0.3669  0.3772
   89TMC2    C4 1385   2.448   3.240   1.835 -0.4107  0.8222 -0.1232
   89TMC2    C5 1386   2.541   3.254   1.737  1.0739  0.8839 -0.3234
   89TMC2    C6 1387   2.535   3.187   1.618 -0.4631 -0.6501 -0.4028
   89TMC2     C 1388   2.289   3.094   1.942  0.1213  1.0525 -0.0858
   89TMC2     O 1389   2.273   3.176   2.035  0.6555  0.2937  0.0418
   89TMC2     H 1390   2.310   2.961   1.703 -1.4583  1.0651 -0.3781
   89TMC2    H1 1391   2.459   3.295   1.927  0.2862 -0.1416  0.3763
   89TMC2    H2 1392   2.606   3.202   1.538  0.0887  0.3911  0.2832
   89TMC2    C7 1393   2.635   3.374   1.755 -0.8216  0.3817  0.1779
   89TMC2    C8 1394   2.418   3.046   1.470  0.0957 -0.4981 -0.2901
   89TMC2    O1 1395   2.622   3.442   1.859 -0.1648 -0.2984  0.3047
   89TMC2    O2 1396   2.494   3.058   1.373 -0.2602 -0.4711 -0.0640
   89TMC2    O5 1397   2.289   3.005   1.458 -0.5274  0.6048  0.1346
   89TMC2    H5 1398   2.236   3.002   1.540  1.6099 -1.1711  1.4489
   90MPD2     C 1399   1.906   2.809   2.093  0.8831 -0.1635  0.0872
   90MPD2    C1 1400   2.004   2.723   2.050  0.3991 -0.2680  0.0905
   90MPD2    C2 1401   2.124   2.777   2.014  0.1349 -0.0661 -0.4165
   90MPD2    C3 1402   2.140   2.916   2.012  0.2974  1.2096 -0.6852
   90MPD2    C4 1403   2.041   3.000   2.062  0.6012 -0.2376 -0.0966
   90MPD2    C5 1404   1.924   2.941   2.104 -0.3783  0.6647 -0.3105
   90MPD2     H 1405   2.193   2.710   1.964  1.2311  0.1704  0.7642
   90MPD2    H1 1406   2.059   3.107   2.065  1.1475 -0.3158 -0.4096
   90MPD2    H2 1407   1.813   2.772   2.135  0.3527  1.3645  0.2574
   90MPD2    H3 1408   1.840   2.994   2.148 -1.1861  0.4592 -1.6150
   90MPD2     N 1409   2.253   2.962   1.949 -0.5391 -0.1166  0.3493
   90MPD2    H5 1410   2.299   2.901   1.883 -0.3328 -1.1982  1.4952
   90MPD2    N1 1411   1.983   2.584   2.039 -0.3483 -0.6097 -0.2266
   90MPD2    H7 1412   2.065   2.527   2.025  1.0380  0.8586  1.8775
   91TMC2    C1 1413   4.499   2.155  16.519  0.2163 -0.6110  0.8926
   91TMC2    C2 1414   4.516   2.217  16.401 -0.2267 -0.9136 -0.2030
   91TMC2    C3 1415   4.404   2.234  16.320 -0.1597 -0.5639  0.6588
   91TMC2    C4 1416   4.372   2.107  16.555  0.1804  0.1301  0.1001
   91TMC2    C5 1417   4.266   2.135  16.477 -0.6273  0.2502 -0.2826
   91TMC2    C6 1418   4.281   2.194  16.354  0.0294 -0.1284 -0.1355
   91TMC2     C 1419   4.608   2.156  16.620  0.2755  0.3536 -0.5073
   91TMC2     O 1420   4.597   2.076  16.715 -0.0120  0.4508 -0.1614
   91TMC2     H 1421   4.613   2.248  16.364 -0.2798 -0.6511 -0.1199
   91TMC2    H1 1422   4.351   2.075  16.657 -0.1264 -1.7932 -0.5549
   91TMC2    H2 1423   4.199   2.212  16.285  0.5794 -0.4023 -0.8514
   91TMC2    C7 1424   4.132   2.108  16.531 -0.3895  0.2841 -0.0784
   91TMC2    C8 1425   4.409   2.364  16.253 -1.0964  0.0987  0.2237
   91TMC2    O1 1426   4.132   2.087  16.652 -0.2540  0.5558 -0.2581
   91TMC2    O2 1427   4.334   2.452  16.285 -0.0764  0.3105 -0.4716
   91TMC2    O5 1428   4.530   2.383  16.186 -0.5348  0.0755 -0.1706
   91TMC2    H5 1429   4.573   2.304  16.147 -1.4679 -0.8322  0.6261
   92MPD2     C 1430   0.149   2.160  16.730 -0.3013  0.2379 -0.2495
   92MPD2    C1 1431   0.099   2.257  16.644 -0.2687  0.1913  0.9089
   92MPD2    C2 1432   0.170   2.361  16.595 -0.2914 -0.8795  0.4420
   92MPD2    C3 1433   0.309   2.374  16.629 -0.1963 -0.4548 -0.0929
   92MPD2    C4 1434   0.359   2.274  16.714 -0.1072  0.8830 -0.1322
   92MPD2    C5 1435   0.283   2.165  16.758 -1.1350 -0.1383  0.7898
   92MPD2     H 1436   0.127   2.442  16.538 -0.3186 -1.7851 -0.8383
   92MPD2    H1 1437   0.456   2.272  16.762  0.6639  1.2122 -1.7020
   92MPD2    H2 1438   0.098   2.064  16.734 -2.3388  1.2841 -0.8728
   92MPD2    H3 1439   0.327   2.092  16.825 -0.3451 -0.2044  0.2082
   92MPD2     N 1440   0.385   2.472  16.561 -0.2676  0.5490 -0.1353
   92MPD2    H5 1441   0.328   2.540  16.513 -0.9325  0.9304  1.1892
   92MPD2    N1 1442   4.710   2.246  16.586 -0.2325 -0.7277  0.3734
   92MPD2    H7 1443   4.685   2.319  16.520 -1.2166 -3.0905 -1.8767
   93TMC2    C1 1444   1.252   1.990  13.897  0.5260  0.0290  0.2604
   93TMC2    C2 1445   1.192   1.990  13.769 -0.2669  0.1305  0.1486
   93TMC2    C3 1446   1.263   2.043  13.672  0.1841 -0.3648 -0.2048
   93TMC2    C4 1447   1.379   2.026  13.919  0.5864 -0.1930  0.5684
   93TMC2    C5 1448   1.449   2.071  13.820 -0.3550  0.1454  0.2579
   93TMC2    C6 1449   1.401   2.063  13.693 -0.0872  0.3520 -0.3099
   93TMC2     C 1450   1.176   1.957  14.013 -0.0198  0.3028 -0.6096
   93TMC2     O 1451   1.232   1.935  14.119  0.2741 -0.3787 -0.4022
   93TMC2     H 1452   1.095   1.943  13.751 -2.1767  3.1063  2.6555
   93TMC2    H1 1453   1.426   2.047  14.015 -0.1018 -2.3832  1.3715
   93TMC2    H2 1454   1.466   2.113  13.622 -1.0045  2.0965  0.0636
   93TMC2    C7 1455   1.580   2.135  13.843  0.5797 -0.6217 -0.2657
   93TMC2    C8 1456   1.204   2.072  13.540 -0.0532  0.1316 -0.0887
   93TMC2    O1 1457   1.657   2.085  13.923  0.0215 -0.4918  0.0909
   93TMC2    O2 1458   1.279   2.119  13.455 -0.2521  0.5422 -0.2640
   93TMC2    O5 1459   1.082   2.019  13.517 -0.5190 -0.7212  0.0442
   93TMC2    H5 1460   1.028   1.998  13.596  1.2069 -1.5627  0.9875
   94MPD2     C 1461   0.980   1.810  14.173 -0.0662  0.4465 -0.3184
   94MPD2    C1 1462   0.946   1.886  14.061  0.6824  0.1128  0.9751
   94MPD2    C2 1463   0.810   1.901  14.033  0.6621 -0.4827 -0.1428
   94MPD2    C3 1464   0.711   1.842  14.105 -0.3344  0.6067  0.2528
   94MPD2    C4 1465   0.745   1.766  14.215 -0.1246  0.3569 -0.0904
   94MPD2    C5 1466   0.879   1.759  14.252  1.1125  0.2348 -0.2355
   94MPD2     H 1467   0.783   1.961  13.947 -2.7847  1.9549  2.6521
   94MPD2    H1 1468   0.670   1.713  14.273 -0.8929  1.7017  0.1276
   94MPD2    H2 1469   1.084   1.789  14.197  0.0315  1.2420 -0.0352
   94MPD2    H3 1470   0.909   1.700  14.338 -0.2232  1.1615  0.8618
   94MPD2     N 1471   0.569   1.861  14.077  0.2304  0.0403  0.6373
   94MPD2    H5 1472   0.492   1.809  14.118  0.3665 -0.4675  0.2370
   94MPD2    N1 1473   1.048   1.941  13.982 -0.3822  0.3242  0.0838
   94MPD2    H7 1474   1.018   1.976  13.892 -0.5330  0.4230  0.1717
   95TMC2    C1 1475   0.472   4.690  15.483  0.4046  0.7456  0.5532
   95TMC2    C2 1476   0.456   4.690  15.623 -0.8874 -0.4237  0.6980
   95TMC2    C3 1477   0.400   0.057  15.682 -0.0167 -0.4451 -0.9465
   95TMC2    C4 1478   0.418   0.052  15.401  0.0073 -0.4306  0.5208
   95TMC2    C5 1479   0.357   0.157  15.467 -0.1789 -0.0155  0.1226
   95TMC2    C6 1480   0.341   0.152  15.607  1.0980 -0.6055 -0.3744
   95TMC2     C 1481   0.578   4.615  15.418  0.2455 -0.1060  0.3557
   95TMC2     O 1482   0.623   4.678  15.324 -0.1341  0.2637  0.1872
   95TMC2     H 1483   0.517   4.623  15.683  3.3888  1.1785 -1.8693
   95TMC2    H1 1484   0.420   0.038  15.293  4.6236 -1.2443  0.7020
   95TMC2    H2 1485   0.281   0.229  15.655  2.1260 -0.7830  1.1868
   95TMC2    C7 1486   0.309   0.274  15.391 -0.5268 -0.2582 -0.0522
   95TMC2    C8 1487   0.378   0.051  15.823  0.8895  0.1506 -0.0367
   95TMC2    O1 1488   0.218   0.335  15.443  0.1983  0.2086  0.4450
   95TMC2    O2 1489   0.268   0.020  15.876  0.1781  0.3560  0.1044
   95TMC2    O5 1490   0.454   0.151  15.871 -0.1004  0.3099  0.8990
   95TMC2    H5 1491   0.534   0.172  15.818 -0.9212  0.0518 -0.4497
   96MPD2     C 1492   0.999   4.324  15.475  1.2749  0.6064  0.0541
   96MPD2    C1 1493   0.963   4.396  15.361  0.4049  0.7701 -0.2532
   96MPD2    C2 1494   0.836   4.458  15.364  0.0013 -0.3112 -0.7862
   96MPD2    C3 1495   0.758   4.452  15.477  0.1221  0.2260  0.6350
   96MPD2    C4 1496   0.801   4.381  15.584  0.4430 -0.2119  0.1024
   96MPD2    C5 1497   0.925   4.326  15.588 -0.8730 -0.3056  0.2531
   96MPD2     H 1498   0.790   4.510  15.281  1.4804  0.6537 -1.0175
   96MPD2    H1 1499   0.752   4.373  15.680 -2.0230  0.3127 -1.1277
   96MPD2    H2 1500   1.093   4.269  15.476 -0.0999 -1.7124  1.4427
   96MPD2    H3 1501   0.967   4.273  15.673  0.2474 -1.6251 -1.1201
   96MPD2     N 1502   0.638   4.520  15.495 -0.7353 -0.3863  0.4035
   96MPD2    H5 1503   0.605   4.496  15.587  1.1135 -2.2267  0.5956
   96MPD2    N1 1504   1.046   4.400  15.251  0.4733 -0.3484 -0.1155
   96MPD2    H7 1505   1.118   4.329  15.260  1.0525  0.4572  1.7418
   97TMC2    C1 1506   3.587   2.096  17.689 -0.6508  0.3254 -0.3285
   97TMC2    C2 1507   3.556   2.001  17.596  0.2126 -0.9620 -0.5934
   97TMC2    C3 1508   3.552   2.034  17.469 -0.4046  0.1955  0.4025
   97TMC2    C4 1509   3.621   2.224  17.661  0.1833 -1.5865 -0.0785
   97TMC2    C5 1510   3.621   2.256  17.529 -0.5486  0.5171  0.0430
   97TMC2    C6 1511   3.597   2.158  17.427 -0.1988  0.3570  0.3833
   97TMC2     C 1512   3.560   2.066   0.074 -0.5060 -0.3052 -0.2903
   97TMC2     O 1513   3.557   1.948   0.103  0.0746 -0.0542 -0.3202
   97TMC2     H 1514   3.508   1.912  17.635  0.4309 -0.6306  0.4299
   97TMC2    H1 1515   3.641   2.307  17.728  0.0398 -0.8522 -0.9403
   97TMC2    H2 1516   3.587   2.181  17.321  2.7316 -0.4057 -0.0749
   97TMC2    C7 1517   3.686   2.385  17.498  0.2223  1.0227 -0.5315
   97TMC2    C8 1518   3.535   1.933  17.372  0.1220 -0.0077 -0.6932
   97TMC2    O1 1519   3.697   2.466  17.588 -0.6125  0.1562  0.2363
   97TMC2    O2 1520   3.473   1.962  17.270 -0.2908  0.1597 -0.4326
   97TMC2    O5 1521   3.637   1.844  17.385  0.3971  0.2183 -0.0901
   97TMC2    H5 1522   3.683   1.834  17.472  0.6918  1.8552 -0.0492
   98MPD2     C 1523   3.522   2.197   0.561  0.2772 -0.8168 -0.0429
   98MPD2    C1 1524   3.514   2.077   0.506 -0.0628 -0.1323  0.0803
   98MPD2    C2 1525   3.516   2.068   0.369 -0.0748 -0.0222 -0.2127
   98MPD2    C3 1526   3.552   2.180   0.298 -0.3443 -0.4199 -0.9699
   98MPD2    C4 1527   3.568   2.303   0.353 -0.9473 -0.4448  0.0804
   98MPD2    C5 1528   3.545   2.311   0.490 -0.5379  0.4151  0.2508
   98MPD2     H 1529   3.485   1.976   0.321 -1.3912  0.5820 -0.5047
   98MPD2    H1 1530   3.562   2.391   0.289 -0.9123  1.3372  2.4938
   98MPD2    H2 1531   3.494   2.211   0.665 -1.9593 -1.4124 -0.5618
   98MPD2    H3 1532   3.559   2.403   0.545  0.3710  1.3572 -1.5424
   98MPD2     N 1533   3.555   2.173   0.156  0.2943 -0.7449 -0.8421
   98MPD2    H5 1534   3.574   2.265   0.117  0.2608 -0.6461 -0.6207
   98MPD2    N1 1535   3.494   1.970   0.599  0.4314  0.3658  0.0311
   98MPD2    H7 1536   3.464   1.998   0.692 -0.7903  0.8514 -0.5089
   99TMC2    C1 1537   2.732   3.725   1.342 -1.0644 -0.3551 -0.8454
   99TMC2    C2 1538   2.807   3.839   1.342  0.1975  0.2806 -0.0807
   99TMC2    C3 1539   2.788   3.928   1.445 -0.6809  0.2024 -0.7854
   99TMC2    C4 1540   2.653   3.695   1.451  0.5466 -0.1726  0.0739
   99TMC2    C5 1541   2.654   3.782   1.557  0.5725  0.1176 -0.3788
   99TMC2    C6 1542   2.714   3.901   1.554 -0.0200  0.0093 -0.0887
   99TMC2     C 1543   2.738   3.636   1.228  0.0976 -0.0389  0.5088
   99TMC2     O 1544   2.795   3.686   1.134  0.1673 -0.1842 -0.3266
   99TMC2     H 1545   2.876   3.853   1.259 -2.0903 -0.1175 -2.0368
   99TMC2    H1 1546   2.610   3.596   1.459  0.1360 -0.0348 -0.3997
   99TMC2    H2 1547   2.702   3.980   1.627 -0.3040 -1.1890  1.1511
   99TMC2    C7 1548   2.543   3.779   1.660  0.0154 -0.2538  0.3368
   99TMC2    C8 1549   2.879   4.039   1.459 -0.4173 -0.5526 -0.1680
   99TMC2    O1 1550   2.560   3.859   1.749  0.3220 -0.2475  0.2099
   99TMC2    O2 1551   2.902   4.084   1.572  0.1783 -0.8221  0.3107
   99TMC2    O5 1552   2.863   4.109   1.346 -0.0705  0.2816 -0.0384
   99TMC2    H5 1553   2.817   4.059   1.277 -0.2924  0.5004 -0.0497
  100MPD2     C 1554   2.725   3.433   1.007  0.3586  0.0661 -0.1588
  100MPD2    C1 1555   2.691   3.410   1.140  0.4344  0.5773 -0.5212
  100MPD2    C2 1556   2.664   3.278   1.172  0.3256 -0.0226  0.3942
  100MPD2    C3 1557   2.676   3.181   1.078 -0.4428  0.7999  0.2279
  100MPD2    C4 1558   2.713   3.201   0.948  0.2947 -0.9523 -0.0606
  100MPD2    C5 1559   2.733   3.334   0.913  0.5887 -0.1021 -0.0875
  100MPD2     H 1560   2.641   3.254   1.275  0.4370  1.2823  0.7250
  100MPD2    H1 1561   2.718   3.128   0.868  2.3814  0.4031 -1.1934
  100MPD2    H2 1562   2.747   3.534   0.976  1.2485  0.7673  2.7804
  100MPD2    H3 1563   2.764   3.349   0.811 -0.7805 -1.0187 -0.6447
  100MPD2     N 1564   2.628   3.054   1.119 -0.8629  0.4021  0.4260
  100MPD2    H5 1565   2.612   3.041   1.218 -1.8084  1.7270  0.4529
  100MPD2    N1 1566   2.698   3.507   1.241  0.4336  0.1158 -0.0029
  100MPD2    H7 1567   2.668   3.477   1.333  0.2360  2.3935  0.6748
  101TMC2    C1 1568   1.954   0.296  13.049  0.4934 -0.3231  0.0599
  101TMC2    C2 1569   1.944   0.394  13.148 -0.0688  0.0912 -0.3579
  101TMC2    C3 1570   1.935   0.519  13.105  0.4209 -0.8918  0.0363
  101TMC2    C4 1571   1.971   0.326  12.918  0.0036 -0.1532  1.1634
  101TMC2    C5 1572   1.952   0.458  12.879  0.1799 -0.0674 -0.0488
  101TMC2    C6 1573   1.935   0.558  12.977  0.4561  0.1796 -0.6672
  101TMC2     C 1574   2.006   0.170  13.097  0.2009 -0.2503 -0.8093
  101TMC2     O 1575   1.991   0.136  13.215  0.2355 -1.0544 -0.1193
  101TMC2     H 1576   1.943   0.378  13.255  2.2321 -1.8459 -0.6280
  101TMC2    H1 1577   1.966   0.250  12.840 -1.1691  1.9845 -0.8470
  101TMC2    H2 1578   1.912   0.657  12.940  0.7738  0.3744 -0.3336
  101TMC2    C7 1579   2.023   0.485  12.757  0.2243 -0.4076  0.3961
  101TMC2    C8 1580   1.929   0.623  13.202 -0.1877 -0.4563  0.1586
  101TMC2    O1 1581   2.110   0.398  12.741  0.2149  0.2591  0.3647
  101TMC2    O2 1582   1.861   0.724  13.185  0.0572 -0.2509 -0.3593
  101TMC2    O5 1583   2.043   0.619  13.272  0.0550  0.2345 -0.2652
  101TMC2    H5 1584   2.103   0.549  13.240  0.2704  0.6874 -0.8576
  102MPD2     C 1585   2.244   4.702  12.917 -0.7467  0.4874  0.3413
  102MPD2    C1 1586   2.162   4.735  13.026  0.4517 -0.2580  0.3389
  102MPD2    C2 1587   2.159   4.648  13.135  0.0871  0.3800 -0.1659
  102MPD2    C3 1588   2.232   4.535  13.134 -0.3283 -0.3934  0.8190
  102MPD2    C4 1589   2.314   4.507  13.028 -0.5984 -0.1032 -0.1649
  102MPD2    C5 1590   2.325   4.594  12.919 -0.0108  0.1422 -0.0926
  102MPD2     H 1591   2.100   4.666  13.224 -0.5766  0.8044 -0.6941
  102MPD2    H1 1592   2.363   4.410  13.027  0.0788  0.2427 -0.5438
  102MPD2    H2 1593   2.249   0.014  12.820  0.9654  0.7189  0.5436
  102MPD2    H3 1594   2.385   4.589  12.829  1.8309 -0.4976  1.1770
  102MPD2     N 1595   2.229   4.449  13.250 -0.3592 -0.0611 -0.6916
  102MPD2    H5 1596   2.161   4.471  13.322  0.3293  0.0081 -0.0534
  102MPD2    N1 1597   2.084   0.112  13.004 -0.2797  0.6376 -0.1191
  102MPD2    H7 1598   2.109   0.175  12.928  1.7542 -1.3244 -1.0850
  103TMC2    C1 1599   0.479   4.199  12.583 -0.1739 -0.1528  0.1362
  103TMC2    C2 1600   0.542   4.082  12.569 -0.0062 -0.1792 -0.4166
  103TMC2    C3 1601   0.644   4.072  12.658 -0.3923  0.4199  0.3495
  103TMC2    C4 1602   0.506   4.292  12.683 -0.6895 -0.9467  0.0093
  103TMC2    C5 1603   0.593   4.255  12.783 -0.5096  0.1830  0.0597
  103TMC2    C6 1604   0.671   4.147  12.770 -0.3680  0.4880  0.2847
  103TMC2     C 1605   0.376   4.222  12.488 -0.1313  0.0998  0.1048
  103TMC2     O 1606   0.345   4.340  12.465  0.4838 -0.6293 -0.0566
  103TMC2     H 1607   0.556   4.022  12.480  1.3370 -0.3278 -0.1038
  103TMC2    H1 1608   0.429   4.366  12.698 -0.2821 -0.3181 -0.9750
  103TMC2    H2 1609   0.744   4.122  12.846 -0.9004 -0.2251  0.5585
  103TMC2    C7 1610   0.599   4.329  12.913 -0.1269  0.0277  1.1491
  103TMC2    C8 1611   0.751   4.001  12.596  0.6804  1.0601  0.2826
  103TMC2    O1 1612   0.697   4.301  12.987  0.3989  0.3258  0.1626
  103TMC2    O2 1613   0.743   3.901  12.526 -0.7436  0.1040  0.3738
  103TMC2    O5 1614   0.860   4.076  12.613 -0.3086 -0.6464 -0.1064
  103TMC2    H5 1615   0.843   4.171  12.632  1.6087 -0.7352  2.0416
  104MPD2     C 1616   0.175   3.979  12.311  0.1613  0.4451  0.4402
  104MPD2    C1 1617   0.241   4.100  12.331 -0.1330 -0.6880  0.0707
  104MPD2    C2 1618   0.212   4.210  12.249  0.2619  0.1392 -0.5082
  104MPD2    C3 1619   0.132   4.193  12.143  0.0296 -0.5389  0.3346
  104MPD2    C4 1620   0.074   4.075  12.115 -0.5570  1.2410  0.6379
  104MPD2    C5 1621   0.095   3.971  12.203  0.4211  0.1019  0.1380
  104MPD2     H 1622   0.262   4.306  12.256 -0.7396  0.6646 -0.6274
  104MPD2    H1 1623   0.009   4.049  12.032 -1.2927  0.1713  1.5517
  104MPD2    H2 1624   0.181   3.898  12.384  1.1261  0.0655 -0.0500
  104MPD2    H3 1625   0.029   3.887  12.186 -0.3164  0.2907  2.0053
  104MPD2     N 1626   0.112   4.311  12.060  0.5399 -0.2376  0.1267
  104MPD2    H5 1627   0.158   4.396  12.091 -0.2718  0.5696 -0.9049
  104MPD2    N1 1628   0.330   4.104  12.440 -0.5536  0.1720  0.1356
  104MPD2    H7 1629   0.360   4.020  12.489 -1.0586 -0.0480  0.0674
  105TMC2    C1 1630   2.280   4.230   0.495  0.0397 -0.1090  0.6805
  105TMC2    C2 1631   2.257   4.355   0.447  0.4502 -0.5321 -0.3548
  105TMC2    C3 1632   2.197   4.436   0.542 -0.4974  0.0298  1.2719
  105TMC2    C4 1633   2.240   4.194   0.624 -0.6359  0.0483  0.2351
  105TMC2    C5 1634   2.172   4.274   0.707 -0.3424 -0.5168 -0.3725
  105TMC2    C6 1635   2.154   4.400   0.664 -0.5511 -0.0187 -0.4847
  105TMC2     C 1636   2.379   4.153   0.421 -0.3910  0.4276 -0.1298
  105TMC2     O 1637   2.445   4.067   0.473 -0.0290  0.0685  0.0936
  105TMC2     H 1638   2.306   4.395   0.359  1.3080 -1.0038 -0.0970
  105TMC2    H1 1639   2.252   4.088   0.647 -0.8918 -0.7333 -3.1899
  105TMC2    H2 1640   2.111   4.472   0.733  1.4274  0.5376  0.1578
  105TMC2    C7 1641   2.173   4.242   0.856  0.2095 -0.4763 -0.5394
  105TMC2    C8 1642   2.129   4.551   0.495  0.0708 -0.6947  0.6617
  105TMC2    O1 1643   2.232   4.139   0.881  1.2154  0.5231  0.0503
  105TMC2    O2 1644   2.097   4.642   0.570  0.2978 -0.6863  0.2829
  105TMC2    O5 1645   2.095   4.544   0.364 -0.0280 -0.0197  0.6762
  105TMC2    H5 1646   2.107   4.455   0.323 -1.7998 -0.5495  1.3176
  106MPD2     C 1647   2.570   4.023  17.711 -0.6975  0.7108 -0.7566
  106MPD2    C1 1648   2.518   4.145  17.706  0.0094 -0.2431 -0.1576
  106MPD2    C2 1649   2.447   4.198   0.067 -0.2626  0.3057  0.3036
  106MPD2    C3 1650   2.437   4.126   0.184 -0.1055 -0.3155  0.5409
  106MPD2    C4 1651   2.496   4.004   0.187 -0.1504  0.0800  0.1720
  106MPD2    C5 1652   2.569   3.958   0.085 -0.1862 -0.1169 -0.5989
  106MPD2     H 1653   2.387   4.287   0.056 -0.6003  0.0469  0.0423
  106MPD2    H1 1654   2.482   3.939   0.272  0.8826 -0.1375  0.1725
  106MPD2    H2 1655   2.634   3.986  17.632 -2.5753 -0.2433 -1.8468
  106MPD2    H3 1656   2.604   3.855   0.081  2.0043  0.6019  0.0317
  106MPD2     N 1657   2.358   4.181   0.289  0.1684 -0.1640 -0.2510
  106MPD2    H5 1658   2.290   4.253   0.268 -0.5266 -1.5320 -2.6132
  106MPD2    N1 1659   2.545   4.224  17.589  0.5590 -0.5267  0.5532
  106MPD2    H7 1660   2.606   4.171  17.528 -1.3192 -0.1993 -1.6111
  107TMC2    C1 1661   2.876   3.522  11.525  0.1717  0.5986  0.0413
  107TMC2    C2 1662   2.755   3.519  11.458  0.4147  0.3852 -0.1401
  107TMC2    C3 1663   2.760   3.545  11.319  0.0990 -0.5425  0.1692
  107TMC2    C4 1664   2.999   3.542  11.460  0.4521 -0.3237  0.2251
  107TMC2    C5 1665   2.997   3.552  11.327 -0.5687 -1.3868 -0.5948
  107TMC2    C6 1666   2.881   3.562  11.258  0.4200  0.2495  0.1575
  107TMC2     C 1667   2.867   3.484  11.664  0.1885 -0.3218 -0.2223
  107TMC2     O 1668   2.757   3.460  11.715  0.3026  0.0689 -0.5137
  107TMC2     H 1669   2.663   3.479  11.499 -0.9175 -0.0222 -3.5415
  107TMC2    H1 1670   3.093   3.542  11.513  0.0200  2.2390  0.9928
  107TMC2    H2 1671   2.881   3.555  11.149  1.3968 -2.2026  0.3047
  107TMC2    C7 1672   3.123   3.572  11.261  0.0253 -0.1543 -0.2645
  107TMC2    C8 1673   2.662   3.487  11.238  0.1115 -0.4150  0.2773
  107TMC2    O1 1674   3.221   3.512  11.294 -0.5702 -0.5975 -0.1633
  107TMC2    O2 1675   2.547   3.515  11.266  0.3025  0.1172 -0.2352
  107TMC2    O5 1676   2.700   3.364  11.204 -0.2135 -0.1764 -0.2042
  107TMC2    H5 1677   2.796   3.343  11.200  0.0767  1.1761 -0.6504
  108MPD2     C 1678   3.141   3.395  11.899  0.4124  0.1692 -0.4988
  108MPD2    C1 1679   3.017   3.437  11.863 -0.1645  0.6289 -0.3502
  108MPD2    C2 1680   2.919   3.455  11.963  0.1146  0.3580 -0.1998
  108MPD2    C3 1681   2.948   3.425  12.099  0.0698 -0.1500  0.1031
  108MPD2    C4 1682   3.072   3.380  12.122  0.7179 -0.0659  0.2976
  108MPD2    C5 1683   3.169   3.368  12.029 -0.1188  0.0493 -0.1274
  108MPD2     H 1684   2.824   3.500  11.937 -0.3707 -1.0893 -0.9180
  108MPD2    H1 1685   3.097   3.356  12.225  1.1204  1.3114  0.5220
  108MPD2    H2 1686   3.232   3.402  11.841 -0.6707 -2.3584 -2.4708
  108MPD2    H3 1687   3.270   3.335  12.052 -0.4199  0.3182  1.6018
  108MPD2     N 1688   2.852   3.435  12.206 -0.2649  0.2316 -0.2804
  108MPD2    H5 1689   2.880   3.417  12.302  0.0972  0.9472 -0.2546
  108MPD2    N1 1690   2.986   3.459  11.725 -0.2518  0.0572  0.5204
  108MPD2    H7 1691   3.067   3.467  11.665 -1.6264 -1.4243 -1.5498
  109TMC2    C1 1692   2.626   0.911   0.518  0.3226 -0.4628 -0.0790
  109TMC2    C2 1693   2.632   0.800   0.445  1.1069 -0.0789  0.3958
  109TMC2    C3 1694   2.749   0.774   0.380  0.1672 -0.8953  0.9366
  109TMC2    C4 1695   2.730   0.997   0.534 -1.2428 -0.5133  0.4091
  109TMC2    C5 1696   2.848   0.955   0.478  0.1637  1.1042  0.5211
  109TMC2    C6 1697   2.865   0.841   0.408 -0.8017  0.8915 -0.0086
  109TMC2     C 1698   2.492   0.936   0.571 -0.2334  0.3293  0.5340
  109TMC2     O 1699   2.396   0.899   0.505 -0.2548 -0.2443  0.1135
  109TMC2     H 1700   2.547   0.733   0.431  1.5748 -0.7174  0.6265
  109TMC2    H1 1701   2.722   1.084   0.598  1.7072  1.9078 -2.5706
  109TMC2    H2 1702   2.952   0.801   0.357 -0.0869  1.8287  0.4808
  109TMC2    C7 1703   2.955   1.048   0.498 -0.0227 -0.1437 -0.0385
  109TMC2    C8 1704   2.755   0.681   0.266 -0.9305 -0.1486 -1.4791
  109TMC2    O1 1705   2.957   1.110   0.601  0.5397 -0.2006  0.4286
  109TMC2    O2 1706   2.849   0.632   0.207  0.5624  0.5831 -0.4729
  109TMC2    O5 1707   2.635   0.703   0.206 -0.8989 -0.0130 -0.4138
  109TMC2    H5 1708   2.587   0.771   0.257  0.5241 -0.1839  1.1482
  110MPD2     C 1709   2.192   1.174   0.908 -0.1754  1.2020 -0.3475
  110MPD2    C1 1710   2.319   1.191   0.957  0.2881  0.1296  0.1238
  110MPD2    C2 1711   2.419   1.127   0.882 -0.5321  0.2090 -0.1997
  110MPD2    C3 1712   2.389   1.060   0.763  0.0099  1.0467 -0.2916
  110MPD2    C4 1713   2.259   1.060   0.721 -0.3767  0.4009 -0.0609
  110MPD2    C5 1714   2.156   1.116   0.790  0.4682  0.0928  0.1686
  110MPD2     H 1715   2.525   1.139   0.904 -0.0453 -5.0450  0.4259
  110MPD2    H1 1716   2.237   1.003   0.631  1.4437 -0.4112  0.0128
  110MPD2    H2 1717   2.111   1.221   0.961  0.1856  1.6214 -0.1677
  110MPD2    H3 1718   2.056   1.117   0.748 -0.4680  2.4876  2.4753
  110MPD2     N 1719   2.496   1.006   0.692 -0.4421  0.0316 -0.2844
  110MPD2    H5 1720   2.589   1.017   0.732 -0.7345  0.8799  0.1442
  110MPD2    N1 1721   2.336   1.255   1.081 -0.4531 -0.2856 -0.6737
  110MPD2    H7 1722   2.254   1.272   1.138 -0.2726 -0.9240 -0.2289
  111TMC2    C1 1723   2.644   1.099  11.330 -0.5712  0.0814 -0.5954
  111TMC2    C2 1724   2.757   1.136  11.256 -0.2094 -0.2545  0.9949
  111TMC2    C3 1725   2.880   1.123  11.320 -0.0728 -0.2658  0.6652
  111TMC2    C4 1726   2.655   1.055  11.461 -0.7942 -0.7560  0.2401
  111TMC2    C5 1727   2.777   1.038  11.513  0.0852 -0.2331 -0.8875
  111TMC2    C6 1728   2.892   1.077  11.445  0.8406  0.4414  0.4335
  111TMC2     C 1729   2.511   1.123  11.275 -0.0607 -0.0155 -0.1774
  111TMC2     O 1730   2.504   1.128  11.153 -0.5456 -0.0360 -0.0254
  111TMC2     H 1731   2.742   1.167  11.153  0.7034 -1.2584  0.5528
  111TMC2    H1 1732   2.565   1.035  11.518 -1.0805 -0.3563 -0.0675
  111TMC2    H2 1733   2.985   1.075  11.500  0.4361  3.9610  1.2344
  111TMC2    C7 1734   2.784   0.974  11.644 -0.2707  0.5514  0.2145
  111TMC2    C8 1735   3.004   1.175  11.258  0.4044  0.2761 -0.3514
  111TMC2    O1 1736   2.692   0.895  11.671 -0.7146  0.5567  0.0982
  111TMC2    O2 1737   3.106   1.123  11.293 -0.5534 -0.4789  0.1249
  111TMC2    O5 1738   2.971   1.293  11.206 -0.0923 -0.0253 -0.1667
  111TMC2    H5 1739   2.876   1.312  11.191 -0.0187  0.6283  0.1972
  112MPD2     C 1740   2.033   1.286  11.298 -0.4221  0.4458 -0.8216
  112MPD2    C1 1741   2.110   1.247  11.190 -0.5257  0.0810  0.3932
  112MPD2    C2 1742   2.232   1.199  11.215  0.0743 -0.1310 -0.1368
  112MPD2    C3 1743   2.287   1.191  11.344  0.6014  0.3595 -0.5570
  112MPD2    C4 1744   2.214   1.246  11.448  0.1172  0.2736 -0.1278
  112MPD2    C5 1745   2.085   1.288  11.424 -0.1137  0.2514 -0.1228
  112MPD2     H 1746   2.290   1.160  11.132 -2.6006 -0.3776 -1.8867
  112MPD2    H1 1747   2.252   1.244  11.550 -0.6759 -1.7844  0.1138
  112MPD2    H2 1748   1.927   1.310  11.294  0.2671  3.5723 -0.7917
  112MPD2    H3 1749   2.019   1.314  11.505  0.4017 -0.3708  0.4985
  112MPD2     N 1750   2.419   1.149  11.372 -0.0113 -0.2241  0.6025
  112MPD2    H5 1751   2.453   1.144  11.468 -0.9499 -0.0990  0.9427
  112MPD2    N1 1752   2.071   1.257  11.052  0.2314  0.2440 -0.2076
  112MPD2    H7 1753   2.138   1.245  10.977  1.7642 -1.6605  1.4539
  113TMC2    C1 1754   1.634   3.722   0.608  0.3620  0.4874  0.8244
  113TMC2    C2 1755   1.604   3.833   0.540  0.8329  1.1135  0.2943
  113TMC2    C3 1756   1.521   3.817   0.431  0.0163  0.2291 -0.6625
  113TMC2    C4 1757   1.577   3.605   0.591 -0.1865 -0.1480  1.1632
  113TMC2    C5 1758   1.495   3.586   0.486 -1.0169 -0.1780  0.3798
  113TMC2    C6 1759   1.472   3.691   0.397 -0.1086 -0.5819 -0.4446
  113TMC2     C 1760   1.718   3.736   0.725  0.4548 -0.8747 -0.1334
  113TMC2     O 1761   1.744   3.843   0.770 -0.0836  0.0772  0.4893
  113TMC2     H 1762   1.647   3.929   0.566  1.1305  0.3130  2.7393
  113TMC2    H1 1763   1.606   3.511   0.636  0.1916 -0.6771 -0.1771
  113TMC2    H2 1764   1.413   3.676   0.308 -0.0580 -3.2784 -0.0323
  113TMC2    C7 1765   1.419   3.458   0.479 -0.2790 -0.3183 -0.0442
  113TMC2    C8 1766   1.497   3.937   0.360  0.0866 -0.3546  0.0877
  113TMC2    O1 1767   1.360   3.446   0.371 -0.0709  0.2723 -0.0064
  113TMC2    O2 1768   1.533   4.044   0.401  0.4232  0.2452 -0.0230
  113TMC2    O5 1769   1.366   3.921   0.313 -0.2773  0.3404 -0.2546
  113TMC2    H5 1770   1.334   3.828   0.312 -0.3924  0.3754  0.3071
  114MPD2     C 1771   1.921   3.501   1.130 -0.2839 -0.2897 -0.0571
  114MPD2    C1 1772   1.872   3.629   1.115 -0.5149 -0.8824  0.1336
  114MPD2    C2 1773   1.828   3.668   0.997  0.3418  0.7373 -0.1805
  114MPD2    C3 1774   1.816   3.577   0.891  0.0219  0.1483 -0.2576
  114MPD2    C4 1775   1.845   3.448   0.915 -0.8375  0.0640  0.5329
  114MPD2    C5 1776   1.913   3.408   1.027  0.2302 -0.5123 -0.2562
  114MPD2     H 1777   1.812   3.774   0.986 -1.0623  0.6602  1.0492
  114MPD2    H1 1778   1.821   3.381   0.833 -1.2076  2.9317 -1.7206
  114MPD2    H2 1779   1.958   3.467   1.226 -0.0123 -1.1745 -0.4769
  114MPD2    H3 1780   1.944   3.306   1.043  2.9401  0.0465 -1.8966
  114MPD2     N 1781   1.768   3.618   0.768  0.8646  0.0548  0.1104
  114MPD2    H5 1782   1.774   3.549   0.693  2.0071 -0.4120  0.6374
  114MPD2    N1 1783   1.882   3.732   1.205 -0.3227 -0.0757  0.5674
  114MPD2    H7 1784   1.865   3.829   1.178 -0.9750 -0.4582 -0.4057
  115TMC2    C1 1785   1.854   0.913   0.122 -0.0600 -0.6121 -0.1059
  115TMC2    C2 1786   1.967   0.884   0.059  0.0020  0.2289  0.5175
  115TMC2    C3 1787   2.043   0.992   0.022 -0.2628  0.4742 -1.1173
  115TMC2    C4 1788   1.807   1.038   0.140  0.5513  0.5458  0.2397
  115TMC2    C5 1789   1.877   1.139   0.103  0.6090 -0.1567 -0.0441
  115TMC2    C6 1790   2.000   1.126   0.037 -0.4554  0.0382  0.2161
  115TMC2     C 1791   1.771   0.796   0.135  0.1356  0.3068 -0.8281
  115TMC2     O 1792   1.804   0.695   0.077 -0.4513 -0.6225 -0.1031
  115TMC2     H 1793   2.000   0.781   0.052  0.9473  0.3791  2.8154
  115TMC2    H1 1794   1.715   1.052   0.196  0.8877  2.0752  0.4134
  115TMC2    H2 1795   2.073   1.204   0.018 -0.6934 -0.5247 -2.9812
  115TMC2    C7 1796   1.820   1.264   0.150 -0.5379  0.1875  1.0799
  115TMC2    C8 1797   2.187   0.990   0.027 -0.2460  0.0051  0.0462
  115TMC2    O1 1798   1.766   1.270   0.256 -0.1400  0.1070 -0.3373
  115TMC2    O2 1799   2.253   1.079   0.079 -0.1412  0.3615 -0.2587
  115TMC2    O5 1800   2.234   0.866   0.015 -0.0359 -0.0605  0.5549
  115TMC2    H5 1801   2.176   0.815  17.703  0.9144  1.7078 -1.8386
  116MPD2     C 1802   1.317   0.592   0.257 -0.9580  0.6732  0.1956
  116MPD2    C1 1803   1.403   0.575   0.148  0.1856  0.4284 -0.3325
  116MPD2    C2 1804   1.527   0.636   0.137 -0.6449 -0.1788  0.2724
  116MPD2    C3 1805   1.559   0.729   0.234 -0.0763 -0.3905 -0.0391
  116MPD2    C4 1806   1.472   0.749   0.334  0.1018  0.7454 -0.8847
  116MPD2    C5 1807   1.355   0.682   0.349  0.4340 -0.3522  0.2673
  116MPD2     H 1808   1.579   0.638   0.042 -2.3426  2.4605 -0.5870
  116MPD2    H1 1809   1.499   0.823   0.408 -0.8510 -0.0792  0.2691
  116MPD2    H2 1810   1.229   0.533   0.277  0.6281 -1.6786  0.1582
  116MPD2    H3 1811   1.282   0.702   0.427  0.5216 -0.9529  0.5020
  116MPD2     N 1812   1.666   0.815   0.222  0.1424 -0.0711  0.3038
  116MPD2    H5 1813   1.684   0.891   0.286  1.4482  0.3428 -0.5519
  116MPD2    N1 1814   1.356   0.501   0.038 -0.9414  0.2405  0.0145
  116MPD2    H7 1815   1.256   0.482   0.036 -1.0086  0.5387  0.5118
  117TMC2    C1 1816   4.666   2.405  14.430  0.7951 -0.2117 -0.6327
  117TMC2    C2 1817   4.670   2.359  14.557 -0.0916 -0.2103  0.2539
  117TMC2    C3 1818   0.028   2.413  14.641  0.2883 -0.2053 -0.2252
  117TMC2    C4 1819   0.025   2.490  14.386 -0.1188  0.6346 -1.2925
  117TMC2    C5 1820   0.109   2.552  14.474 -0.4436 -0.7185 -0.7168
  117TMC2    C6 1821   0.103   2.519  14.607  0.3673 -0.7472 -0.1530
  117TMC2     C 1822   4.550   2.387  14.355 -0.0583  0.0143 -0.4195
  117TMC2     O 1823   4.464   2.301  14.382  0.1305  0.7227 -0.1639
  117TMC2     H 1824   4.592   2.293  14.592 -1.1687  1.8560  1.6981
  117TMC2    H1 1825   0.034   2.504  14.279 -0.9961 -0.5492 -1.5221
  117TMC2    H2 1826   0.154   2.579  14.681  1.0391 -0.8220 -0.5504
  117TMC2    C7 1827   0.136   2.693  14.446  0.1689 -0.0478 -0.4852
  117TMC2    C8 1828   0.025   2.365  14.774  0.1773  0.6421  0.7800
  117TMC2    O1 1829   0.051   2.747  14.385  0.2510 -0.0690  0.0870
  117TMC2    O2 1830   0.060   2.423  14.879  0.9026  0.8956  0.7835
  117TMC2    O5 1831   0.014   2.232  14.765 -1.0516  0.3434  0.1282
  117TMC2    H5 1832   0.023   2.192  14.676 -1.6630  2.9594 -1.1049
  118MPD2     C 1833   0.384   2.924  14.590  0.1897 -0.2001 -0.3566
  118MPD2    C1 1834   0.284   2.886  14.505  0.8833 -0.6841 -0.2836
  118MPD2    C2 1835   0.233   2.975  14.419 -0.9844  0.3930 -0.3194
  118MPD2    C3 1836   0.287   3.106  14.413 -0.0087  0.2018  0.1874
  118MPD2    C4 1837   0.385   3.143  14.503 -0.0236 -0.2234  0.7542
  118MPD2    C5 1838   0.434   3.050  14.590  0.4611 -0.2096 -0.3071
  118MPD2     H 1839   0.158   2.945  14.346  1.2822 -0.4901 -2.2689
  118MPD2    H1 1840   0.417   3.246  14.509 -1.7173  0.2331  1.8801
  118MPD2    H2 1841   0.437   2.856  14.655 -1.3837 -1.7578 -0.7243
  118MPD2    H3 1842   0.514   3.071  14.660  1.8743 -1.1747 -1.6423
  118MPD2     N 1843   0.249   3.203  14.318  0.0333 -0.1451 -0.0089
  118MPD2    H5 1844   0.307   3.286  14.315 -0.7615  0.3527 -1.7240
  118MPD2    N1 1845   0.248   2.745  14.504  0.0505  0.5377 -0.5155
  118MPD2    H7 1846   0.314   2.685  14.552 -0.7956 -0.2937 -0.3903
  119TMC2    C1 1847   3.032   3.742  12.989 -0.1544  0.3768  0.6362
  119TMC2    C2 1848   3.123   3.698  12.898 -0.9841 -0.1924  0.1476
  119TMC2    C3 1849   3.175   3.575  12.914  0.1856  0.2061 -0.3427
  119TMC2    C4 1850   2.987   3.665  13.089 -0.3636 -0.3131  0.4610
  119TMC2    C5 1851   3.045   3.538  13.105 -0.3269  0.2716  0.2197
  119TMC2    C6 1852   3.142   3.493  13.019  0.3949 -0.2121  0.4621
  119TMC2     C 1853   3.017   3.890  13.001 -0.3704 -0.0024 -0.4868
  119TMC2     O 1854   2.972   3.935  13.104  0.2158  0.1530 -0.2230
  119TMC2     H 1855   3.148   3.746  12.805 -1.6191  0.7213  0.4574
  119TMC2    H1 1856   2.911   3.713  13.149  0.1989  0.9569  0.1420
  119TMC2    H2 1857   3.180   3.392  13.028 -0.8786 -0.7539 -0.2965
  119TMC2    C7 1858   3.048   3.463  13.236  0.0479  0.0416  0.8207
  119TMC2    C8 1859   3.272   3.521  12.816  0.1290  0.2292 -0.4907
  119TMC2    O1 1860   3.134   3.371  13.240 -0.5411  0.2659  0.1680
  119TMC2    O2 1861   3.296   3.570  12.709 -0.2406 -0.4205  0.0310
  119TMC2    O5 1862   3.348   3.433  12.878 -0.7797 -0.0980 -0.3478
  119TMC2    H5 1863   3.343   3.431  12.976  0.7313  2.1170 -0.2132
  120MPD2     C 1864   3.094   4.376  12.856 -0.3840 -0.0619 -0.1012
  120MPD2    C1 1865   3.062   4.322  12.977  0.2588 -0.1674 -0.4950
  120MPD2    C2 1866   3.057   4.184  12.985  0.5146  0.3173  0.4375
  120MPD2    C3 1867   3.077   4.095  12.880  0.5040 -0.6071  0.0345
  120MPD2    C4 1868   3.108   4.153  12.759  0.0116  0.9091  0.1398
  120MPD2    C5 1869   3.117   4.288  12.749  0.5679  0.3440  0.1612
  120MPD2     H 1870   3.051   4.138  13.083  0.7724 -0.3461  0.1431
  120MPD2    H1 1871   3.143   4.096  12.674  1.2764  1.7356  0.1089
  120MPD2    H2 1872   3.111   4.482  12.842 -1.7471  0.4089  1.8638
  120MPD2    H3 1873   3.136   4.336  12.654 -2.7698  0.1548 -0.5934
  120MPD2     N 1874   3.071   3.957  12.894  0.7734  0.1232  0.2035
  120MPD2    H5 1875   3.104   3.905  12.813 -0.0061  0.0870 -0.1005
  120MPD2    N1 1876   3.077   4.404  13.099 -0.1019  0.1583 -0.4227
  120MPD2    H7 1877   3.109   4.497  13.076  1.9889 -0.2523  0.7608
  121TMC2    C1 1878   0.262   1.001  14.248  0.4927 -0.1815 -0.0778
  121TMC2    C2 1879   0.221   0.923  14.355  0.4060  0.3099  1.2263
  121TMC2    C3 1880   0.097   0.870  14.355 -0.0415  0.4801  0.5025
  121TMC2    C4 1881   0.188   1.009  14.132  0.4844  0.3460  0.0673
  121TMC2    C5 1882   0.064   0.945  14.137  0.5227 -0.2950  0.4724
  121TMC2    C6 1883   0.013   0.880  14.245 -0.3905 -0.3942 -0.0581
  121TMC2     C 1884   0.412   0.987  14.227  0.2185  0.8165  0.1462
  121TMC2     O 1885   0.474   0.937  14.319 -0.2526 -0.4723 -0.3801
  121TMC2     H 1886   0.284   0.905  14.442  2.1505 -0.8514 -0.2860
  121TMC2    H1 1887   0.231   1.051  14.042 -0.1186 -2.6692 -1.6090
  121TMC2    H2 1888   4.662   0.817  14.240  0.7472 -1.7627 -3.1378
  121TMC2    C7 1889   0.004   0.922  14.014  0.2168 -0.2393  0.5558
  121TMC2    C8 1890   0.070   0.761  14.451  0.5740 -0.2945 -0.5036
  121TMC2    O1 1891   0.077   0.899  13.915  0.2794 -0.5670  0.2932
  121TMC2    O2 1892   4.718   0.681  14.428  0.1394 -0.6666  0.4616
  121TMC2    O5 1893   0.105   0.815  14.571 -0.0526  0.2942  0.3387
  121TMC2    H5 1894   0.114   0.913  14.569 -0.1572  0.3052  0.4131
  122MPD2     C 1895   0.698   0.963  14.135 -0.6163 -0.8347  0.6513
  122MPD2    C1 1896   0.599   1.043  14.071 -0.6404 -0.0552  0.1856
  122MPD2    C2 1897   0.627   1.090  13.944  0.3138 -0.6892  0.3283
  122MPD2    C3 1898   0.757   1.078  13.891 -0.4932  0.4515  0.9175
  122MPD2    C4 1899   0.845   0.987  13.946 -0.1061 -0.6133  0.0973
  122MPD2    C5 1900   0.824   0.941  14.075  0.1387  0.2233 -0.1019
  122MPD2     H 1901   0.549   1.148  13.896 -0.0601 -0.7614  0.8427
  122MPD2    H1 1902   0.940   0.966  13.899  0.0625  2.7482 -1.1237
  122MPD2    H2 1903   0.684   0.913  14.231 -1.7064  0.4082  1.1221
  122MPD2    H3 1904   0.895   0.873  14.121 -0.5500 -0.5957 -0.2512
  122MPD2     N 1905   0.796   1.131  13.770 -0.4083 -0.4378 -0.3886
  122MPD2    H5 1906   0.886   1.110  13.728 -0.0575  0.8239 -0.2607
  122MPD2    N1 1907   0.466   1.057  14.122 -0.2742 -0.9238  0.3099
  122MPD2    H7 1908   0.410   1.119  14.065 -0.0541 -1.5837 -0.6239
  123TMC2    C1 1909   2.493   4.460  10.722 -0.9811 -0.9383  0.1604
  123TMC2    C2 1910   2.552   4.587  10.728  0.7757  0.8132  0.4812
  123TMC2    C3 1911   2.606   4.640  10.612  0.2434  0.3757  0.2835
  123TMC2    C4 1912   2.500   4.387  10.611 -0.0780  0.2876  0.3287
  123TMC2    C5 1913   2.571   4.430  10.498 -0.0480 -0.6910  0.0404
  123TMC2    C6 1914   2.625   4.557  10.499  0.2186 -0.3392  0.1005
  123TMC2     C 1915   2.452   4.400  10.852  0.0400  0.5225  0.4993
  123TMC2     O 1916   2.439   4.475  10.949 -0.1136  0.2349 -0.1650
  123TMC2     H 1917   2.557   4.640  10.823 -0.6020  1.0796  0.4108
  123TMC2    H1 1918   2.456   4.289  10.599 -2.2548  1.5769 -2.2115
  123TMC2    H2 1919   2.703   4.576  10.427  2.5615 -0.4555  2.6122
  123TMC2    C7 1920   2.548   4.362  10.374 -0.9468  0.1497  0.1803
  123TMC2    C8 1921   2.677   0.036  10.620 -0.4007  0.3721  0.2430
  123TMC2    O1 1922   2.493   4.254  10.381 -0.7284  0.5650  0.2411
  123TMC2    O2 1923   2.684   0.113  10.714  0.2512  0.0976 -0.5409
  123TMC2    O5 1924   2.726   0.068  10.500  0.0701  0.3285  0.4128
  123TMC2    H5 1925   2.699   0.011  10.425  0.1799  0.2074  0.4671
  124MPD2     C 1926   2.388   3.965  11.138  0.3633 -0.4739  0.7133
  124MPD2    C1 1927   2.388   3.939  11.001 -0.0950  0.2780  0.6117
  124MPD2    C2 1928   2.396   4.047  10.913  1.0319 -0.5199  0.1970
  124MPD2    C3 1929   2.422   4.175  10.956  0.5909 -0.5559  0.0793
  124MPD2    C4 1930   2.429   4.196  11.093  1.0473  0.0437 -0.8594
  124MPD2    C5 1931   2.413   4.095  11.183  0.1362  0.0872  0.0365
  124MPD2     H 1932   2.423   4.030  10.809 -0.0360 -1.2020  0.0263
  124MPD2    H1 1933   2.450   4.295  11.132  0.4141  0.1294 -0.7457
  124MPD2    H2 1934   2.374   3.885  11.210  3.4027  0.2229  2.1099
  124MPD2    H3 1935   2.412   4.118  11.289  3.4743 -0.7934  0.2495
  124MPD2     N 1936   2.439   4.267  10.849  0.2613  0.0797 -0.4431
  124MPD2    H5 1937   2.422   4.223  10.759 -0.1031 -1.7159  0.5018
  124MPD2    N1 1938   2.359   3.806  10.961 -0.2375 -0.3917 -0.2245
  124MPD2    H7 1939   2.347   3.740  11.037  3.6227  0.6916  1.2907
  125TMC2    C1 1940   3.872   0.644   9.535 -0.1811  0.5149  0.2928
  125TMC2    C2 1941   3.855   0.612   9.407  0.2728  0.8485  0.2363
  125TMC2    C3 1942   3.947   0.654   9.314 -0.0305 -0.1559  0.0884
  125TMC2    C4 1943   3.975   0.725   9.575 -0.6244 -0.2666  0.0231
  125TMC2    C5 1944   4.065   0.770   9.481 -0.1908 -0.2426 -1.1486
  125TMC2    C6 1945   4.053   0.738   9.350  0.0725  0.4098  0.9381
  125TMC2     C 1946   3.763   0.641   9.629 -0.4458 -0.2397 -0.0222
  125TMC2     O 1947   3.765   0.716   9.723  0.0499 -0.6102 -0.2590
  125TMC2     H 1948   3.772   0.560   9.360  1.2318 -0.0215 -0.4806
  125TMC2    H1 1949   4.005   0.736   9.678 -0.3040  0.1422 -0.1159
  125TMC2    H2 1950   4.120   0.764   9.269 -0.5998  2.6376  1.1010
  125TMC2    C7 1951   4.168   0.858   9.533  0.3387  0.7330  0.2144
  125TMC2    C8 1952   3.932   0.597   9.178  0.0906  0.0887 -0.4665
  125TMC2    O1 1953   4.166   0.890   9.647  0.1555 -0.1849  0.7424
  125TMC2    O2 1954   3.836   0.525   9.144  0.2008 -0.3086  0.1918
  125TMC2    O5 1955   4.060   0.587   9.130  0.5168  0.3721 -0.1503
  125TMC2    H5 1956   4.139   0.635   9.164  1.4025 -0.8580 -0.4647
  126MPD1     C 1957   3.289   0.501   9.741  0.1300  1.0229 -0.0179
  126MPD1    C1 1958   3.324   0.438   9.628 -0.0310 -0.0508  0.2458
  126MPD1    C2 1959   3.457   0.450   9.587  0.0445 -0.4528 -0.1283
  126MPD1    C3 1960   3.542   0.536   9.650 -0.5013  0.6283  0.7240
  126MPD1    C4 1961   3.509   0.604   9.759  0.2173 -0.6047  0.5502
  126MPD1    C5 1962   3.375   0.593   9.793  0.2484  0.0633  0.4054
  126MPD1     H 1963   3.489   0.403   9.494 -0.5467 -1.1799  0.0392
  126MPD1    H1 1964   3.570   0.675   9.815  0.7808 -0.7452  0.1198
  126MPD1    H2 1965   3.188   0.489   9.778  0.2180  3.3650  1.0088
  126MPD1    H3 1966   3.336   0.658   9.871 -0.6993  1.5554 -1.3108
  126MPD1     N 1967   3.672   0.542   9.593  0.6660 -0.6286  0.2409
  126MPD1    H5 1968   3.699   0.474   9.523 -1.6825 -1.0690 -0.2464
  126MPD1    N1 1969   3.245   0.340   9.566  0.4716  0.4090 -0.5509
  126MPD1    H6 1970   3.146   0.364   9.574  0.2406 -0.6151 -0.2382
  126MPD1    H7 1971   3.268   0.334   9.467 -2.5721 -1.5860 -1.1497
  127TMC2    C1 1972   4.546   4.612  10.089 -0.3434 -0.0860  0.5922
  127TMC2    C2 1973   4.627   4.612  10.195  0.4312  0.3876  0.0169
  127TMC2    C3 1974   4.586   4.546  10.311 -0.4446  0.4979  0.9988
  127TMC2    C4 1975   4.424   4.541  10.091  0.1767  1.1560 -1.0841
  127TMC2    C5 1976   4.389   4.484  10.209  0.2422 -0.0416 -0.0270
  127TMC2    C6 1977   4.463   4.481  10.320  0.0855  0.2473  0.2911
  127TMC2     C 1978   4.612   4.609   9.959 -0.1445 -0.6517  0.9345
  127TMC2     O 1979   4.729   4.643   9.959 -0.9089 -0.8177  0.0311
  127TMC2     H 1980   4.729   4.645  10.183  0.5607  0.0537  0.2268
  127TMC2    H1 1981   4.346   4.549  10.015  0.0992  0.4507 -1.0832
  127TMC2    H2 1982   4.438   4.436  10.416 -1.7754  2.6827  0.9390
  127TMC2    C7 1983   4.253   4.441  10.216 -0.6029  0.8659 -0.9907
  127TMC2    C8 1984   4.684   4.527  10.424  0.6843 -0.2153 -0.2186
  127TMC2    O1 1985   4.178   4.478  10.127 -0.3100  0.4391 -0.2732
  127TMC2    O2 1986   4.655   4.448  10.510 -0.5016  0.3499 -0.3118
  127TMC2    O5 1987   0.050   4.622  10.411 -0.0170 -0.0074  0.2771
  127TMC2    H5 1988   0.044   4.692  10.344 -0.5586 -0.3662 -0.0469
  128MPD2     C 1989   4.488   4.475   9.642  0.2171  0.4790  0.0657
  128MPD2    C1 1990   4.581   4.529   9.729 -0.3480  0.2383 -0.2683
  128MPD2    C2 1991   4.705   4.572   9.679 -0.0836 -0.4334 -0.5504
  128MPD2    C3 1992   4.726   4.566   9.543  0.3374 -0.0892 -0.1951
  128MPD2    C4 1993   4.639   4.509   9.458  0.4026  0.5063  0.0667
  128MPD2    C5 1994   4.528   4.445   9.510 -0.3563 -0.4468  0.7005
  128MPD2     H 1995   0.042   4.625   9.738 -0.9245  0.1939 -0.0583
  128MPD2    H1 1996   4.665   4.489   9.354 -2.0684 -0.8663 -0.2766
  128MPD2    H2 1997   4.393   4.432   9.669 -0.7715  3.6091  1.6156
  128MPD2    H3 1998   4.465   4.389   9.441  0.3687  2.5527 -2.3626
  128MPD2     N 1999   0.102   4.626   9.494 -0.4488  0.3792  0.2089
  128MPD2    H5 2000   0.182   4.636   9.556 -0.0441 -4.0590  0.3978
  128MPD2    N1 2001   4.546   4.541   9.864  0.4627  0.3110 -0.4429
  128MPD2    H7 2002   4.457   4.498   9.889 -0.1772  0.8705 -1.7265
  129TMC2    C1 2003   3.466   1.699   1.322 -0.1497 -0.5143  0.3563
  129TMC2    C2 2004   3.350   1.726   1.390  0.6481  0.0385 -0.7610
  129TMC2    C3 2005   3.310   1.641   1.483  0.0431 -0.3641  0.0541
  129TMC2    C4 2006   3.536   1.584   1.346  0.1486  0.5657 -0.3305
  129TMC2    C5 2007   3.496   1.498   1.447  0.8609 -0.5347  0.2409
  129TMC2    C6 2008   3.382   1.526   1.517 -0.4390  0.6958  0.3008
  129TMC2     C 2009   3.524   1.804   1.243 -0.2118 -0.1757  0.5943
  129TMC2     O 2010   3.468   1.913   1.251 -0.2378  0.0224 -0.0321
  129TMC2     H 2011   3.278   1.805   1.371 -0.5747 -0.6989  0.7234
  129TMC2    H1 2012   3.628   1.562   1.294  0.7712 -3.9119  2.6527
  129TMC2    H2 2013   3.335   1.456   1.585 -2.3021  2.6505  1.0174
  129TMC2    C7 2014   3.549   1.365   1.438 -0.0252 -0.0536 -0.4247
  129TMC2    C8 2015   3.170   1.648   1.517  0.0011 -0.0906  0.2187
  129TMC2    O1 2016   3.592   1.343   1.326  0.4411 -0.2328  0.0991
  129TMC2    O2 2017   3.128   1.718   1.611  0.0753  0.3637 -0.1549
  129TMC2    O5 2018   3.122   1.525   1.488 -0.3349  0.2879  0.1898
  129TMC2    H5 2019   3.158   1.490   1.404  1.0026  2.9171 -0.3506
  130MPD2     C 2020   3.669   1.975   1.068  0.0663  0.1945  0.3451
  130MPD2    C1 2021   3.670   1.842   1.046  0.1253 -1.1324  0.1120
  130MPD2    C2 2022   3.718   1.783   0.929  0.7067 -0.2367 -0.7356
  130MPD2    C3 2023   3.769   1.865   0.829 -0.4008  0.4980  0.0129
  130MPD2    C4 2024   3.768   1.998   0.854 -0.2055 -0.2027 -0.0943
  130MPD2    C5 2025   3.717   2.056   0.970  0.7635  0.8008  0.3882
  130MPD2     H 2026   3.709   1.675   0.918 -1.0271 -0.2430  0.7292
  130MPD2    H1 2027   3.810   2.074   0.789 -1.3066  0.5425  0.0555
  130MPD2    H2 2028   3.654   2.020   1.165 -0.1075  1.2487 -0.1691
  130MPD2    H3 2029   3.714   2.162   0.990 -2.4332  0.1246  3.6813
  130MPD2     N 2030   3.827   1.826   0.706  0.2844 -0.0631 -0.0223
  130MPD2    H5 2031   3.853   1.899   0.640 -0.4418  0.1215 -0.1091
  130MPD2    N1 2032   3.610   1.759   1.148 -0.7700 -0.0685 -0.7061
  130MPD2    H7 2033   3.638   1.662   1.157  1.3279  0.6644  0.8904
  131TMC2    C1 2034   2.149   4.107  10.168  0.5406 -0.0744  0.1270
  131TMC2    C2 2035   2.174   4.128  10.038  0.1900 -0.6612 -0.5657
  131TMC2    C3 2036   2.221   4.252  10.006 -0.6172  0.6487 -0.5130
  131TMC2    C4 2037   2.167   4.208  10.265  0.1965  0.0349  0.0743
  131TMC2    C5 2038   2.208   4.327  10.218 -0.3177  0.2546  0.8017
  131TMC2    C6 2039   2.239   4.354  10.090 -0.2778 -0.0651  0.1692
  131TMC2     C 2040   2.135   3.971  10.223 -0.2234  1.2003  0.9559
  131TMC2     O 2041   2.156   3.960  10.342  0.4452 -0.3503  0.1494
  131TMC2     H 2042   2.165   4.045   9.970 -1.0431  0.5814 -1.9324
  131TMC2    H1 2043   2.150   4.187  10.370 -0.5839  3.0660  0.5412
  131TMC2    H2 2044   2.280   4.447  10.055 -0.3725  0.2523  0.9033
  131TMC2    C7 2045   2.202   4.437  10.309 -0.0068 -0.8851  0.0369
  131TMC2    C8 2046   2.251   4.273   9.863  0.2760 -0.2940 -0.2787
  131TMC2    O1 2047   2.141   4.422  10.415  0.1594  0.0347  0.0028
  131TMC2    O2 2048   2.272   4.178   9.793 -0.7980  0.4962  0.4267
  131TMC2    O5 2049   2.176   4.387   9.823 -1.0379 -0.0491  0.3636
  131TMC2    H5 2050   2.126   4.435   9.892  2.1187  2.0928  1.1524
  132MPD2     C 2051   2.008   3.642  10.104 -0.2156 -0.1468  0.5010
  132MPD2    C1 2052   2.080   3.736  10.171 -0.6502 -0.2815  0.0463
  132MPD2    C2 2053   2.150   3.685  10.279 -0.0855  0.3127 -0.2046
  132MPD2    C3 2054   2.128   3.558  10.333  0.0692  0.3370 -0.3749
  132MPD2    C4 2055   2.037   3.474  10.276  0.0390  0.3172 -1.0425
  132MPD2    C5 2056   1.980   3.519  10.162  0.8942  0.6962 -0.3798
  132MPD2     H 2057   2.235   3.737  10.322 -0.9812  2.1230 -0.6011
  132MPD2    H1 2058   2.012   3.375  10.313 -1.8134  1.3476  0.4644
  132MPD2    H2 2059   1.979   3.666  10.002 -1.6025 -0.3968  0.8440
  132MPD2    H3 2060   1.911   3.452  10.112 -0.6201  0.7010  1.6878
  132MPD2     N 2061   2.194   3.536  10.454 -0.0256 -0.3060 -0.6091
  132MPD2    H5 2062   2.261   3.602  10.491  0.1660 -1.0985  0.4506
  132MPD2    N1 2063   2.100   3.871  10.135 -0.1859 -0.3158 -0.5477
  132MPD2    H7 2064   2.062   3.891  10.043 -0.8361 -1.5681 -0.5403
  133TMC2    C1 2065   1.816   1.070   9.921  0.2171 -0.6953  0.0234
  133TMC2    C2 2066   1.938   1.013   9.926  0.4650  0.3113  0.0299
  133TMC2    C3 2067   2.044   1.095   9.953 -0.1092 -0.1763 -0.0288
  133TMC2    C4 2068   1.795   1.199   9.970  0.1433  0.4928 -0.1104
  133TMC2    C5 2069   1.906   1.275  10.003  0.2300  0.3403 -0.2240
  133TMC2    C6 2070   2.034   1.229   9.992 -0.8194 -0.1521 -0.3582
  133TMC2     C 2071   1.714   0.972   9.899  0.7209  0.2147  0.5319
  133TMC2     O 2072   1.750   0.856   9.911  0.2078  0.0770  0.0387
  133TMC2     H 2073   1.958   0.912   9.891 -0.0889 -0.2521  1.3242
  133TMC2    H1 2074   1.695   1.242   9.973  0.0826  0.2459  1.4969
  133TMC2    H2 2075   2.113   1.286  10.040 -0.2719  0.2069 -1.6742
  133TMC2    C7 2076   1.875   1.400  10.081 -0.3633 -0.4900 -0.1858
  133TMC2    C8 2077   2.162   1.027   9.989 -0.2893 -0.8435 -0.0386
  133TMC2    O1 2078   1.769   1.390  10.143 -0.0678 -0.2202  0.0086
  133TMC2    O2 2079   2.172   0.923  10.054 -0.7255 -0.2546 -0.5871
  133TMC2    O5 2080   2.263   1.112   9.963 -0.0384 -0.4519 -0.5226
  133TMC2    H5 2081   2.237   1.181   9.900  2.6881  0.0287 -1.1022
  134MPD2     C 2082   1.357   1.013   9.799  0.1003 -0.1064 -0.1463
  134MPD2    C1 2083   1.472   0.950   9.838  0.3828  0.2004  0.2971
  134MPD2    C2 2084   1.457   0.811   9.857 -0.4319  0.0982 -0.2280
  134MPD2    C3 2085   1.343   0.736   9.817  0.6542 -0.7286 -0.3525
  134MPD2    C4 2086   1.230   0.808   9.791  0.8154 -0.7656  0.0988
  134MPD2    C5 2087   1.246   0.939   9.763 -0.4853  0.1992  0.2076
  134MPD2     H 2088   1.538   0.760   9.908  0.2235  3.8785  2.4696
  134MPD2    H1 2089   1.135   0.758   9.776  0.9431 -1.0941  0.4134
  134MPD2    H2 2090   1.358   1.121   9.787 -1.3894 -0.4268 -3.0699
  134MPD2    H3 2091   1.161   0.998   9.728 -0.2511  0.3379 -0.1220
  134MPD2     N 2092   1.323   0.592   9.823  0.1813  0.2990 -0.7493
  134MPD2    H5 2093   1.234   0.551   9.795 -0.5114 -0.7518  2.9946
  134MPD2    N1 2094   1.589   1.026   9.854 -0.0161  0.2153 -0.1558
  134MPD2    H7 2095   1.584   1.123   9.826 -2.0312  0.0618 -0.3605
  135TMC2    C1 2096   4.164   1.796  10.469 -0.4988  0.4552 -0.0253
  135TMC2    C2 2097   4.245   1.871  10.548  0.3773  0.4586  0.1639
  135TMC2    C3 2098   4.184   1.920  10.657 -0.0383 -0.1578 -0.4865
  135TMC2    C4 2099   4.026   1.781  10.489  0.3073  0.5791 -0.1467
  135TMC2    C5 2100   3.975   1.824  10.612 -0.8817 -0.4452 -1.2631
  135TMC2    C6 2101   4.054   1.903  10.689  0.3630  0.0880 -0.6764
  135TMC2     C 2102   4.242   1.700  10.388  0.0242  0.3923 -0.7039
  135TMC2     O 2103   4.351   1.737  10.353 -0.2621 -0.6088  0.0229
  135TMC2     H 2104   4.351   1.848  10.550 -0.0037 -1.5260 -2.6965
  135TMC2    H1 2105   3.962   1.732  10.417 -0.2236  1.4319 -0.2631
  135TMC2    H2 2106   4.018   1.957  10.775  1.9925 -2.8781  1.8976
  135TMC2    C7 2107   3.842   1.810  10.657  0.2971  0.0184 -0.4079
  135TMC2    C8 2108   4.271   1.998  10.745 -0.2955  0.3464 -0.7747
  135TMC2    O1 2109   3.790   1.899  10.719  0.2814  0.0429 -0.0271
  135TMC2    O2 2110   4.250   2.025  10.862 -0.2198  0.2752  0.5677
  135TMC2    O5 2111   4.345   2.068  10.656 -0.0455  0.3228  0.3932
  135TMC2    H5 2112   4.326   2.032  10.567  0.6094 -1.1696  0.8739
  136MPD2     C 2113   4.306   1.533  10.152  0.3156 -0.2333 -0.0720
  136MPD2    C1 2114   4.203   1.516  10.235  0.4851  0.3563 -0.0939
  136MPD2    C2 2115   4.108   1.425  10.194  0.5549  1.2325  0.0564
  136MPD2    C3 2116   4.127   1.349  10.083 -0.5297 -0.2828 -0.6086
  136MPD2    C4 2117   4.241   1.360  10.006  0.2711 -0.7580  0.2454
  136MPD2    C5 2118   4.331   1.460  10.038  0.5194 -0.1179  0.4317
  136MPD2     H 2119   4.020   1.400  10.253 -0.2032 -0.8999 -1.9968
  136MPD2    H1 2120   4.253   1.298   9.918  0.2607  0.2347 -0.4583
  136MPD2    H2 2121   4.367   1.623  10.158  0.1366 -0.3615  3.3899
  136MPD2    H3 2122   4.413   1.490   9.974  2.1868  0.0188  2.6783
  136MPD2     N 2123   4.017   1.259  10.042  0.7733 -0.1845 -0.0092
  136MPD2    H5 2124   4.026   1.200   9.960 -0.8366 -0.7121  0.1984
  136MPD2    N1 2125   4.164   1.600  10.342 -0.2319  0.4929 -0.2731
  136MPD2    H7 2126   4.073   1.582  10.384  0.9399  0.5946  2.3292
  137TMC2    C1 2127   3.179   4.715   9.426  0.0621  0.3518 -0.0060
  137TMC2    C2 2128   3.220   4.689   9.294 -0.2534  0.7404 -0.0621
  137TMC2    C3 2129   3.144   4.733   9.186  0.1572  0.6406 -0.0950
  137TMC2    C4 2130   3.063   0.048   9.449  0.4857 -0.3924  0.1325
  137TMC2    C5 2131   3.003   0.107   9.339  0.4388 -0.4458 -0.1474
  137TMC2    C6 2132   3.045   0.096   9.206 -1.0671  0.3917  0.0555
  137TMC2     C 2133   3.290   0.002   9.516 -0.1591 -0.4818  0.6881
  137TMC2     O 2134   3.396   0.041   9.469  0.1093  1.0607  0.3444
  137TMC2     H 2135   3.313   4.634   9.288 -1.6981 -1.2017 -4.3064
  137TMC2    H1 2136   3.034   0.069   9.551  3.2385  1.5364  0.4936
  137TMC2    H2 2137   3.008   0.165   9.131  1.4589 -0.3995 -1.9142
  137TMC2    C7 2138   2.945   0.235   9.360  0.0694 -0.2435 -0.7330
  137TMC2    C8 2139   3.213   0.008   9.059 -0.2195 -0.3121 -0.1529
  137TMC2    O1 2140   2.993   0.319   9.287  0.2121  0.6191  0.4179
  137TMC2    O2 2141   3.326   4.714   9.032  0.0467  0.0775  0.5120
  137TMC2    O5 2142   3.116   0.008   8.964  0.1028 -0.7215  0.0465
  137TMC2    H5 2143   3.030   0.013   9.012 -1.5732  0.3239 -3.1046
  138MPD2     C 2144   3.293   4.672   9.886  0.7777  0.0034 -0.1872
  138MPD2    C1 2145   3.334   4.721   9.760 -1.0728 -0.0270  0.0242
  138MPD2    C2 2146   3.450   0.061   9.760  0.5088  0.0672  0.1733
  138MPD2    C3 2147   3.515   0.101   9.879  0.5027  0.5639  0.0462
  138MPD2    C4 2148   3.466   0.053   9.999 -0.5416 -0.6195  0.0978
  138MPD2    C5 2149   3.355   4.706  10.004  0.0976 -0.2281  0.1613
  138MPD2     H 2150   3.494   0.101   9.669  0.9022  0.4883  0.5496
  138MPD2    H1 2151   3.506   0.069  10.098  1.2798  0.9415 -0.8909
  138MPD2    H2 2152   3.207   4.607   9.896  0.8728 -0.4408 -2.2285
  138MPD2    H3 2153   3.322   4.665  10.098  1.4574  0.1936  0.8308
  138MPD2     N 2154   3.623   0.192   9.868  0.1243 -0.4862 -0.1267
  138MPD2    H5 2155   3.662   0.214   9.777  0.8634  0.5241  0.4371
  138MPD2    N1 2156   3.261   4.693   9.643 -0.0828  0.0690 -0.5910
  138MPD2    H7 2157   3.169   4.653   9.661  0.7297 -0.8119  1.6507
  139TMC2    C1 2158   0.313   3.849  13.620  0.0711  0.5335  0.1677
  139TMC2    C2 2159   0.414   3.887  13.701  0.1179 -0.0653 -0.0642
  139TMC2    C3 2160   0.395   3.996  13.782  0.2085  0.8974  0.1327
  139TMC2    C4 2161   0.200   3.925  13.608  0.3641  0.1480 -0.0300
  139TMC2    C5 2162   0.187   4.030  13.682 -0.0535 -0.2152 -0.8145
  139TMC2    C6 2163   0.280   4.073  13.769 -0.2627 -0.6152  0.3451
  139TMC2     C 2164   0.321   3.713  13.576 -0.2786  0.1827 -0.3709
  139TMC2     O 2165   0.433   3.663  13.555  0.0534  0.1403 -0.2938
  139TMC2     H 2166   0.493   3.820  13.735  0.4824 -0.4445 -1.6724
  139TMC2    H1 2167   0.135   3.906  13.523 -2.4000  2.6198  1.5152
  139TMC2    H2 2168   0.268   4.163  13.829 -1.6334  0.2510 -1.2458
  139TMC2    C7 2169   0.065   4.106  13.666  0.4364  0.6212  0.4205
  139TMC2    C8 2170   0.478   4.006  13.899 -0.0888 -0.3281 -0.1948
  139TMC2    O1 2171   0.061   4.225  13.692 -0.3065 -0.3132 -0.1583
  139TMC2    O2 2172   0.577   3.939  13.920  0.4384  0.1101  0.4069
  139TMC2    O5 2173   0.442   4.109  13.976 -0.2645  0.0660 -0.5234
  139TMC2    H5 2174   0.344   4.110  13.977 -0.2659  0.9757 -1.7442
  140MPD2     C 2175   0.024   3.499  13.510 -0.0926  0.1077 -0.1388
  140MPD2    C1 2176   0.159   3.528  13.510  0.0423 -0.2771  0.7495
  140MPD2    C2 2177   0.250   3.429  13.481 -0.2105 -0.1082 -0.3586
  140MPD2    C3 2178   0.205   3.298  13.460  0.2687 -0.6274 -0.0532
  140MPD2    C4 2179   0.066   3.280  13.442 -0.5399  0.2932  0.0264
  140MPD2    C5 2180   4.710   3.377  13.472 -0.1902 -0.8276 -0.2854
  140MPD2     H 2181   0.357   3.440  13.491 -0.3182  1.5382 -1.0073
  140MPD2    H1 2182   0.025   3.184  13.415  0.3173  0.2058 -0.9625
  140MPD2    H2 2183   4.692   3.579  13.531  0.3695  0.6393 -0.6491
  140MPD2    H3 2184   4.604   3.353  13.467 -0.7353  1.2710  1.3188
  140MPD2     N 2185   0.295   3.192  13.448 -0.3491  0.4062  0.1460
  140MPD2    H5 2186   0.391   3.225  13.446 -0.5350  0.7337 -2.6154
  140MPD2    N1 2187   0.192   3.660  13.559  0.4089 -0.0236  0.5569
  140MPD2    H7 2188   0.113   3.716  13.590  0.3489  1.1093 -1.6617
  141TMC2    C1 2189   0.730   4.653  14.657 -0.0888 -0.0899  0.5342
  141TMC2    C2 2190   0.692   4.557  14.748  0.4074  0.0481 -0.1505
  141TMC2    C3 2191   0.687   4.594  14.880  0.0541 -0.6915  0.0720
  141TMC2    C4 2192   0.777   0.038  14.696 -0.2886  0.1778  0.2414
  141TMC2    C5 2193   0.774   0.064  14.836 -0.1728  0.1823 -0.3275
  141TMC2    C6 2194   0.730   4.711  14.930  0.3419  0.2096 -0.6116
  141TMC2     C 2195   0.721   4.622  14.516 -0.2603  0.1355 -0.5548
  141TMC2     O 2196   0.793   4.681  14.437  0.2221 -0.8830 -0.3168
  141TMC2     H 2197   0.662   4.459  14.714  2.4089 -1.0589  1.3017
  141TMC2    H1 2198   0.824   0.101  14.622  0.3430  1.1215  1.4528
  141TMC2    H2 2199   0.735   4.732  15.036 -0.2485  0.9166 -0.7197
  141TMC2    C7 2200   0.791   0.199  14.874  0.7010  0.2870  0.2895
  141TMC2    C8 2201   0.665   4.489  14.977  0.0148 -0.5322 -1.6612
  141TMC2    O1 2202   0.765   0.216  14.991  0.5012  0.0853 -0.6654
  141TMC2    O2 2203   0.675   4.373  14.935 -0.4910 -0.8890  0.7307
  141TMC2    O5 2204   0.602   4.543  15.079  0.5207 -0.2998  0.2474
  141TMC2    H5 2205   0.573   4.634  15.061 -0.7977 -1.0497 -1.4281
  142TMC2    C1 2206   2.421   3.619   9.935  0.0627 -0.4397  0.5278
  142TMC2    C2 2207   2.397   3.622   9.799 -0.2558 -0.2597 -0.6973
  142TMC2    C3 2208   2.414   3.749   9.741 -0.0207  0.5094 -0.0823
  142TMC2    C4 2209   2.438   3.735  10.019  0.4878 -0.4196  0.2723
  142TMC2    C5 2210   2.443   3.855   9.952 -0.5455  0.3720  0.5337
  142TMC2    C6 2211   2.434   3.859   9.817 -0.6280 -0.4916  0.8699
  142TMC2     C 2212   2.412   3.486  10.010 -0.8011 -0.4039 -0.2747
  142TMC2     O 2213   2.368   3.394   9.945  0.2887 -0.1484  0.1751
  142TMC2     H 2214   2.381   3.531   9.741  1.2530 -2.1482  1.8421
  142TMC2    H1 2215   2.435   3.731  10.127  0.1789  0.2100  0.2864
  142TMC2    H2 2216   2.422   3.953   9.764  0.6102 -0.2701  0.9776
  142TMC2    C7 2217   2.479   3.980  10.019 -0.4790 -0.3775  0.0052
  142TMC2    C8 2218   2.376   3.770   9.609  0.1184 -0.1788  0.1524
  142TMC2    O1 2219   2.465   3.989  10.138 -0.5856  0.2297 -0.1056
  142TMC2    O2 2220   2.407   3.862   9.539 -0.0136 -0.7822 -0.2280
  142TMC2    O5 2221   2.265   3.694   9.592  0.4704  0.1648  0.5180
  142TMC2    H5 2222   2.236   3.647   9.673  0.8692 -1.0405 -0.0201
  143MPD2     C 2223   2.427   3.171  10.415  0.2491  0.5300  0.3639
  143MPD2    C1 2224   2.345   3.172  10.300  0.0118  0.1697 -0.5335
  143MPD2    C2 2225   2.368   3.268  10.196  0.3837  0.6399  0.2578
  143MPD2    C3 2226   2.459   3.365  10.219 -0.0728  0.0429 -0.3709
  143MPD2    C4 2227   2.535   3.368  10.333 -0.7761  0.1668 -0.0918
  143MPD2    C5 2228   2.523   3.266  10.424 -0.0131 -0.6816  0.0970
  143MPD2     H 2229   2.312   3.252  10.104 -0.8678 -0.6220  1.2329
  143MPD2    H1 2230   2.612   3.442  10.352 -0.9153 -0.2108  2.0246
  143MPD2    H2 2231   2.411   3.101  10.497 -1.0175 -0.4225 -0.7083
  143MPD2    H3 2232   2.594   3.277  10.505 -0.5857 -0.7636  0.6106
  143MPD2     N 2233   2.471   3.481  10.135 -0.3337  0.2727  0.3401
  143MPD2    H5 2234   2.537   3.555  10.157 -0.5994  0.5724  0.1220
  143MPD2    N1 2235   2.253   3.066  10.292  0.2857 -0.4684 -0.0883
  143MPD2    H7 2236   2.258   3.003  10.372 -0.4376 -0.9611 -0.4387
  144TMC2    C1 2237   1.691   2.464   0.757 -0.1335 -0.4809 -0.2523
  144TMC2    C2 2238   1.719   2.361   0.673  0.6260 -0.8422  0.5484
  144TMC2    C3 2239   1.804   2.262   0.719 -0.5279  0.1826  0.0540
  144TMC2    C4 2240   1.741   2.475   0.886  0.6706  0.2871 -0.5713
  144TMC2    C5 2241   1.826   2.376   0.932  0.0416 -0.1196 -0.2868
  144TMC2    C6 2242   1.858   2.278   0.847 -0.1994 -0.3712 -0.0353
  144TMC2     C 2243   1.577   2.546   0.716 -0.7356 -0.0804  1.2053
  144TMC2     O 2244   1.561   2.563   0.598  0.1011  0.2592 -0.1267
  144TMC2     H 2245   1.663   2.338   0.582  2.3070 -0.6259 -0.5304
  144TMC2    H1 2246   1.713   2.563   0.942 -1.8083 -1.0769  0.2790
  144TMC2    H2 2247   1.930   2.207   0.887  0.7782 -0.1203 -1.3689
  144TMC2    C7 2248   1.931   2.415   1.026  0.5266 -0.3410  0.0540
  144TMC2    C8 2249   1.842   2.138   0.645  0.0543 -0.3333  0.5107
  144TMC2    O1 2250   1.982   2.325   1.093 -0.3679 -0.3520 -0.3245
  144TMC2    O2 2251   1.898   2.051   0.707  0.2983 -0.7645  0.0532
  144TMC2    O5 2252   1.807   2.156   0.516  0.5880 -0.1791  0.1797
  144TMC2    H5 2253   1.795   2.249   0.487 -0.4496 -0.8315 -1.5051
  145MPD2     C 2254   1.098   2.707   0.850 -0.0826  0.2014  0.3875
  145MPD2    C1 2255   1.161   2.691   0.729  0.0251  1.0821  0.6308
  145MPD2    C2 2256   1.294   2.662   0.717 -0.3540  1.0530  0.0422
  145MPD2    C3 2257   1.369   2.637   0.828 -0.2729  0.2432  0.5226
  145MPD2    C4 2258   1.308   2.657   0.954  0.2254  0.0036  0.1178
  145MPD2    C5 2259   1.176   2.687   0.967 -0.2435  0.6147  0.1935
  145MPD2     H 2260   1.344   2.664   0.621  1.4298 -1.5717  0.9289
  145MPD2    H1 2261   1.359   2.642   1.048  0.4199  1.6470  0.2766
  145MPD2    H2 2262   0.993   2.731   0.858 -0.2636 -0.5654  0.2963
  145MPD2    H3 2263   1.123   2.693   1.061  0.2118  3.1984  0.2792
  145MPD2     N 2264   1.502   2.581   0.821  0.7303  0.1418 -0.8238
  145MPD2    H5 2265   1.540   2.563   0.913  1.5750  0.2271 -1.1525
  145MPD2    N1 2266   1.088   2.727   0.614 -0.0956 -0.1571 -0.5498
  145MPD2    H7 2267   1.140   2.729   0.527  1.0966 -0.0909  0.1637
  146TMC2    C1 2268   2.029   1.564  13.144 -0.6727  0.4611 -0.0059
  146TMC2    C2 2269   1.962   1.680  13.136 -0.2957 -0.7687  0.2983
  146TMC2    C3 2270   1.911   1.709  13.009 -0.2553 -0.4772 -0.1746
  146TMC2    C4 2271   2.053   1.474  13.042 -0.9938  0.3877  0.1524
  146TMC2    C5 2272   1.990   1.504  12.925 -0.0940 -0.4662 -0.3157
  146TMC2    C6 2273   1.934   1.626  12.904 -0.1012 -0.3925  0.4653
  146TMC2     C 2274   2.089   1.533  13.271 -0.0909 -0.7487 -0.1186
  146TMC2     O 2275   2.108   1.625  13.350  0.6657  0.0456 -0.5536
  146TMC2     H 2276   1.965   1.746  13.222  0.9408  0.8089 -0.9489
  146TMC2    H1 2277   2.125   1.393  13.037  0.1549  1.2975  1.9926
  146TMC2    H2 2278   1.907   1.660  12.805 -3.6541 -3.0358  0.5324
  146TMC2    C7 2279   1.965   1.405  12.821  0.4557  0.5857 -0.6483
  146TMC2    C8 2280   1.890   1.851  12.980 -0.9790  0.5783  0.1018
  146TMC2    O1 2281   1.930   1.449  12.712 -0.3197  0.2966  0.0526
  146TMC2    O2 2282   1.924   1.940  13.054 -0.4388  0.4085 -0.1359
  146TMC2    O5 2283   1.845   1.875  12.850  0.1333 -1.4008  0.0045
  146TMC2    H5 2284   1.806   1.795  12.808 -1.9024 -0.0606 -0.6452
  147MPD2     C 2285   2.189   1.033  12.565 -0.5887  0.6042  0.5883
  147MPD2    C1 2286   2.176   0.995  12.697 -0.5726 -0.1645  0.8729
  147MPD2    C2 2287   2.119   1.075  12.789  0.6393 -0.3029  0.2402
  147MPD2    C3 2288   2.070   1.192  12.747 -0.1621  0.9395 -0.1108
  147MPD2    C4 2289   2.089   1.233  12.617  0.3355 -0.1447  0.2412
  147MPD2    C5 2290   2.150   1.158  12.533 -0.5185  0.3873 -0.8685
  147MPD2     H 2291   2.102   1.049  12.893  2.1659 -0.0531  0.5483
  147MPD2    H1 2292   2.049   1.323  12.574 -0.0727  0.2454  1.4323
  147MPD2    H2 2293   2.240   0.979  12.486 -1.1156 -1.4646  1.6886
  147MPD2    H3 2294   2.165   1.192  12.431 -1.5551  2.0454 -0.4614
  147MPD2     N 2295   2.022   1.284  12.846 -0.0393 -0.1482  0.7318
  147MPD2    H5 2296   2.036   1.258  12.943  1.8926  0.7619  0.7146
  147MPD2    N1 2297   2.231   0.867  12.734 -0.8444  0.2657  0.3725
  147MPD2    H7 2298   2.285   0.822  12.661 -0.0473 -0.8576  1.6596
  148TMC2    C1 2299   1.977   4.684  10.875  0.4017 -0.5594  0.7402
  148TMC2    C2 2300   2.082   0.028  10.890  0.1205 -0.0035 -0.5908
  148TMC2    C3 2301   2.192   4.726  10.960 -0.1181 -0.4807  0.1058
  148TMC2    C4 2302   1.997   4.553  10.911  0.0819  0.3384 -0.2570
  148TMC2    C5 2303   2.102   4.517  10.992  0.1980  0.1426  0.1944
  148TMC2    C6 2304   2.201   4.606  11.027 -0.2894 -0.2082 -0.1976
  148TMC2     C 2305   1.854   4.728  10.808 -0.1698  0.3139  0.3144
  148TMC2     O 2306   1.828   0.107  10.835  0.2182  0.2318 -0.7517
  148TMC2     H 2307   2.090   0.130  10.854  0.7649  0.4598  0.8909
  148TMC2    H1 2308   1.914   4.488  10.885  0.9805 -0.9332  0.0697
  148TMC2    H2 2309   2.266   4.588  11.112 -0.7147  0.3201  0.2354
  148TMC2    C7 2310   2.096   4.394  11.069 -0.4495  0.2418 -0.3743
  148TMC2    C8 2311   2.304   0.086  10.950 -0.5456 -0.1546  0.4636
  148TMC2    O1 2312   2.138   4.398  11.183  0.6132 -0.2824 -0.1708
  148TMC2    O2 2313   2.303   0.190  10.882 -0.5221  0.2471 -0.3458
  148TMC2    O5 2314   2.411   0.003  10.978 -0.0913  0.1915 -0.1359
  148TMC2    H5 2315   2.377   4.655  11.013  0.1015 -0.1400 -0.7677
  149MPD2     C 2316   1.599   0.037  10.667 -0.0478  0.0337  0.3994
  149MPD2    C1 2317   1.672   4.655  10.655  0.7112  0.0309  0.1269
  149MPD2    C2 2318   1.619   4.558  10.576  0.1089 -0.0196 -0.0708
  149MPD2    C3 2319   1.497   4.571  10.525 -0.2426 -0.1634 -0.3069
  149MPD2    C4 2320   1.429   4.688  10.535 -0.1664  0.8227 -0.3047
  149MPD2    C5 2321   1.477   0.052  10.606 -0.6993 -0.3872  0.2034
  149MPD2     H 2322   1.673   4.465  10.564 -0.7715 -0.6949  1.2165
  149MPD2    H1 2323   1.340   4.698  10.475 -1.3676 -0.1217  1.3377
  149MPD2    H2 2324   1.619   0.119  10.735  2.3034  0.1826 -0.4872
  149MPD2    H3 2325   1.423   0.146  10.608  0.3079  0.2294 -1.5230
  149MPD2     N 2326   1.446   4.478  10.435  0.5380  1.0025 -0.1453
  149MPD2    H5 2327   1.346   4.492  10.425  0.2009 -0.4396  1.2219
  149MPD2    N1 2328   1.793   4.638  10.729  0.1784 -0.2351  0.4143
  149MPD2    H7 2329   1.831   4.544  10.730 -1.3100 -0.9175 -4.5016
  150TMC2    C1 2330   4.655   4.230  12.624  0.2295 -1.3404  0.1760
  150TMC2    C2 2331   0.049   4.230  12.651  0.2345  0.0531  0.2887
  150TMC2    C3 2332   0.096   4.126  12.726 -0.9197 -1.2249 -0.1132
  150TMC2    C4 2333   4.574   4.130  12.670 -0.4117 -0.2748  0.6872
  150TMC2    C5 2334   4.629   4.014  12.719  0.2295  0.6222  1.1078
  150TMC2    C6 2335   0.019   4.018  12.765 -0.3893 -0.3970  0.0734
  150TMC2     C 2336   4.636   4.263  12.479 -0.3298  0.0979  0.2038
  150TMC2     O 2337   4.682   4.374  12.446 -0.5512 -0.2952  0.0335
  150TMC2     H 2338   0.111   4.296  12.590  0.7323  1.0982  1.9429
  150TMC2    H1 2339   4.471   4.136  12.635 -0.0798 -1.1335 -0.4201
  150TMC2    H2 2340   0.061   3.950  12.838  0.9868  0.5816  0.1742
  150TMC2    C7 2341   4.600   3.909  12.621  0.2639 -1.0046 -0.6905
  150TMC2    C8 2342   0.205   4.150  12.809  0.3025 -0.4387  0.6672
  150TMC2    O1 2343   4.507   3.917  12.543 -0.3276 -0.4679  0.3218
  150TMC2    O2 2344   0.266   4.065  12.862  0.3250 -0.4703 -0.1401
  150TMC2    O5 2345   0.229   4.285  12.806 -0.7303  0.5234  0.1360
  150TMC2    H5 2346   0.177   4.352  12.757 -2.0944 -0.4377  0.2953
  151MPD2     C 2347   4.472   4.207  12.009  0.0960 -0.4378 -0.5233
  151MPD2    C1 2348   4.477   4.083  12.063 -0.3717 -0.2913  0.3279
  151MPD2    C2 2349   4.507   4.079  12.194  0.4826 -0.4796  0.7191
  151MPD2    C3 2350   4.529   4.192  12.271 -0.3007 -0.1605  0.3082
  151MPD2    C4 2351   4.523   4.317  12.216 -0.4054  0.2487 -0.9002
  151MPD2    C5 2352   4.489   4.318  12.087 -0.1231  0.5880 -0.2541
  151MPD2     H 2353   4.496   3.985  12.246 -0.6444 -1.4216 -1.2293
  151MPD2    H1 2354   4.534   4.404  12.279 -0.7198 -0.2903 -0.1034
  151MPD2    H2 2355   4.449   4.230  11.906  1.1756  0.2303 -0.6183
  151MPD2    H3 2356   4.450   4.410  12.044  0.7310  2.5665  3.2727
  151MPD2     N 2357   4.569   4.174  12.408 -0.3751  0.2942  0.4502
  151MPD2    H5 2358   4.546   4.081  12.442 -1.3702 -0.4661 -2.2085
  151MPD2    N1 2359   4.444   3.972  11.977 -0.2535  0.6754 -0.5544
  151MPD2    H7 2360   4.419   3.998  11.882 -1.0039 -0.4016 -0.6549
  152TMC2    C1 2361   4.388   3.573  12.685 -0.5033  0.6448  0.0868
  152TMC2    C2 2362   4.488   3.478  12.698 -0.7412  0.0044 -0.1372
  152TMC2    C3 2363   4.559   3.485  12.818  0.9244  0.0478 -0.1794
  152TMC2    C4 2364   4.360   3.672  12.779 -0.2724  0.4291 -0.2849
  152TMC2    C5 2365   4.436   3.676  12.890  0.0421 -0.0608  0.0464
  152TMC2    C6 2366   4.545   3.589  12.908 -0.1818  0.0286  0.2576
  152TMC2     C 2367   4.288   3.559  12.580 -0.2867 -0.2495 -0.8449
  152TMC2     O 2368   4.238   3.661  12.536 -0.1418  0.1779  0.8784
  152TMC2     H 2369   4.503   3.403  12.622  0.8269 -0.2371  0.4190
  152TMC2    H1 2370   4.273   3.736  12.768 -0.5046  0.2618  0.6091
  152TMC2    H2 2371   4.599   3.589  13.002  0.1766 -1.4845  0.0489
  152TMC2    C7 2372   4.423   3.789  12.991  0.2212 -0.5307 -0.1105
  152TMC2    C8 2373   4.668   3.398  12.841  0.1701 -0.5592 -0.0274
  152TMC2    O1 2374   4.310   3.824  13.021 -0.1871  0.1912 -0.6662
  152TMC2    O2 2375   0.031   3.424  12.907 -0.3167 -0.4792  0.1727
  152TMC2    O5 2376   4.633   3.274  12.814  0.1044  0.0843  0.2221
  152TMC2    H5 2377   4.551   3.249  12.766  0.1851 -1.9579  1.1769
  153MPD2     C 2378   4.113   3.248  12.503 -0.5540 -0.3034  0.5025
  153MPD2    C1 2379   4.144   3.379  12.496  0.0048  0.4751 -0.0984
  153MPD2    C2 2380   4.075   3.458  12.406 -0.6557  0.1232 -0.2844
  153MPD2    C3 2381   3.965   3.415  12.335  0.0355 -0.3021 -0.0055
  153MPD2    C4 2382   3.929   3.282  12.355 -0.1536  0.3567  0.5493
  153MPD2    C5 2383   4.002   3.204  12.440  0.2261 -0.6892  0.2560
  153MPD2     H 2384   4.101   3.562  12.390  1.0416 -0.2516  0.1120
  153MPD2    H1 2385   3.840   3.237  12.312  0.3206 -1.0184  1.0249
  153MPD2    H2 2386   4.157   3.168  12.561  0.1202 -1.0514 -1.0484
  153MPD2    H3 2387   3.978   3.098  12.440 -1.4995 -0.2856  0.7008
  153MPD2     N 2388   3.892   3.507  12.253  0.1146 -0.4031 -0.1867
  153MPD2    H5 2389   3.917   3.604  12.269  0.0436 -1.1059  4.3772
  153MPD2    N1 2390   4.252   3.424  12.578 -0.1919  0.0994  0.7657
  153MPD2    H7 2391   4.312   3.364  12.634 -2.2977 -2.1749  0.5955
  154TMC2    C1 2392   2.152   3.537   0.782  0.8610  0.2861 -0.7968
  154TMC2    C2 2393   2.198   3.548   0.909 -0.2996  0.3803 -0.3754
  154TMC2    C3 2394   2.250   3.436   0.968 -0.4946 -0.7997  0.0590
  154TMC2    C4 2395   2.151   3.421   0.711  0.2561 -1.0465 -0.0886
  154TMC2    C5 2396   2.206   3.315   0.773 -0.8623  0.8043  0.0510
  154TMC2    C6 2397   2.248   3.320   0.903 -0.1163  0.3310 -0.1646
  154TMC2     C 2398   2.112   3.669   0.721 -0.0343 -0.0801 -0.2632
  154TMC2     O 2399   2.076   3.754   0.800 -0.4875  0.0694  0.5368
  154TMC2     H 2400   2.170   3.633   0.970 -3.1010 -0.2616 -0.7797
  154TMC2    H1 2401   2.121   3.420   0.607  0.9488 -0.3860 -0.2940
  154TMC2    H2 2402   2.291   3.231   0.948  3.1155  1.6329 -0.6337
  154TMC2    C7 2403   2.219   3.185   0.705  0.1461  0.0662  0.0006
  154TMC2    C8 2404   2.289   3.440   1.105 -0.6299 -0.1755  0.1325
  154TMC2    O1 2405   2.231   3.086   0.777 -0.4149 -0.3354  0.1573
  154TMC2    O2 2406   2.294   3.335   1.173 -0.5672 -0.5660 -0.1376
  154TMC2    O5 2407   2.368   3.543   1.123 -0.2927 -0.5173  0.0769
  154TMC2    H5 2408   2.393   3.593   1.042  0.0042  1.3067  1.3024
  155MPD2     C 2409   2.147   3.787   0.375 -0.4235  0.0851 -0.0243
  155MPD2    C1 2410   2.105   3.786   0.506 -0.7457 -0.4444 -0.3015
  155MPD2    C2 2411   2.016   3.889   0.543  0.7617 -0.4691  0.4048
  155MPD2    C3 2412   1.996   3.995   0.459 -0.0528 -0.3752 -0.9951
  155MPD2    C4 2413   2.037   3.991   0.328  0.1245  0.2696 -0.0317
  155MPD2    C5 2414   2.110   3.886   0.286  0.6303 -0.2654 -0.0103
  155MPD2     H 2415   1.998   3.901   0.649 -2.1178  1.4238 -0.3006
  155MPD2    H1 2416   2.018   4.066   0.252 -0.5419 -1.6888 -1.7670
  155MPD2    H2 2417   2.195   3.699   0.335  1.2801  0.0306  2.1020
  155MPD2    H3 2418   2.130   3.878   0.180 -1.3932 -1.0733 -0.3304
  155MPD2     N 2419   1.925   4.111   0.514  0.4457  0.4493  0.0658
  155MPD2    H5 2420   1.911   4.103   0.614 -0.0079  2.7927  0.1941
  155MPD2    N1 2421   2.141   3.674   0.588 -0.3613 -0.2416  0.1354
  155MPD2    H7 2422   2.191   3.594   0.552 -2.0139 -1.2476  0.1058
  156TMC2    C1 2423   0.088   0.679  12.349  0.3817  0.7343 -0.5646
  156TMC2    C2 2424   0.201   0.604  12.352  0.1051 -0.0874 -0.3475
  156TMC2    C3 2425   0.243   0.554  12.233  0.1070 -0.0306 -0.6732
  156TMC2    C4 2426   0.020   0.695  12.233  0.3776  0.2392 -0.6469
  156TMC2    C5 2427   0.064   0.642  12.116  0.2591  0.5868  0.5309
  156TMC2    C6 2428   0.180   0.580  12.115  0.0556 -0.3249 -0.6902
  156TMC2     C 2429   0.034   0.751  12.457  0.1342 -0.1278  0.1131
  156TMC2     O 2430   4.653   0.786  12.441  0.2228 -0.1280 -0.9944
  156TMC2     H 2431   0.258   0.591  12.443  0.0557  0.3203 -0.2571
  156TMC2    H1 2432   4.651   0.717  12.233  0.1985 -0.5913 -1.7385
  156TMC2    H2 2433   0.221   0.539  12.023  0.0793 -2.2314  0.1696
  156TMC2    C7 2434   0.004   0.696  11.997 -0.6572 -0.4073  0.8534
  156TMC2    C8 2435   0.379   0.489  12.227 -1.0025  0.4557 -0.6651
  156TMC2    O1 2436   4.656   0.782  12.016  1.0794 -0.4291  0.2462
  156TMC2    O2 2437   0.433   0.473  12.119  0.1115 -0.3266 -0.0674
  156TMC2    O5 2438   0.401   0.425  12.341  0.2016  0.4276  0.0857
  156TMC2    H5 2439   0.348   0.449  12.420 -1.0955  0.7388 -0.8662
  157MPD2     C 2440   0.165   0.863  12.786 -0.9557  0.4816  0.1753
  157MPD2    C1 2441   0.081   0.853  12.673 -0.2642  0.1006  0.3253
  157MPD2    C2 2442   4.705   0.928  12.680  0.4688  0.5286 -1.1768
  157MPD2    C3 2443   4.671   1.012  12.789 -0.0306  0.0729 -0.3069
  157MPD2    C4 2444   0.014   1.021  12.900 -0.4505  0.3791  0.2101
  157MPD2    C5 2445   0.132   0.943  12.896  0.3133 -0.3934 -0.0001
  157MPD2     H 2446   4.618   0.912  12.617  0.7204  0.5436 -1.5264
  157MPD2    H1 2447   0.004   1.090  12.983 -0.3930 -0.1098  0.6235
  157MPD2    H2 2448   0.247   0.792  12.799 -0.7014  0.8585  0.6402
  157MPD2    H3 2449   0.210   0.954  12.971 -0.9133 -1.0886  1.3993
  157MPD2     N 2450   4.550   1.080  12.778  0.6471  0.6598 -0.1655
  157MPD2    H5 2451   4.494   1.051  12.698 -0.6816 -2.4128  1.8733
  157MPD2    N1 2452   0.111   0.759  12.569 -0.2935 -0.4102  0.0038
  157MPD2    H7 2453   0.200   0.711  12.568 -0.4192 -0.6584  0.5733
  158TMC2    C1 2454   0.488   0.565  13.720  0.0366 -0.3080  0.3447
  158TMC2    C2 2455   0.542   0.691  13.712  0.2811 -0.1471 -0.3106
  158TMC2    C3 2456   0.466   0.780  13.649  0.2588  0.2415  0.3048
  158TMC2    C4 2457   0.381   0.525  13.652  0.6106 -0.2543  0.1287
  158TMC2    C5 2458   0.308   0.613  13.579  0.2559  0.3719 -0.7958
  158TMC2    C6 2459   0.349   0.743  13.584 -0.2432 -0.0052  0.4613
  158TMC2     C 2460   0.566   0.468  13.804  0.8207  0.2642  0.0441
  158TMC2     O 2461   0.677   0.503  13.842  0.1865  0.3966  0.4701
  158TMC2     H 2462   0.631   0.717  13.770  1.4107  1.5500 -2.7874
  158TMC2    H1 2463   0.358   0.419  13.650  1.7467 -0.4408 -2.3995
  158TMC2    H2 2464   0.288   0.820  13.538 -0.4558  0.2326  1.1401
  158TMC2    C7 2465   0.177   0.591  13.528  0.2936 -0.4576 -0.4066
  158TMC2    C8 2466   0.506   0.924  13.645 -0.4995 -0.3346  0.1123
  158TMC2    O1 2467   0.132   0.690  13.470 -0.3897  0.3671 -0.4019
  158TMC2    O2 2468   0.426   1.019  13.629  1.3371  0.6306  0.1819
  158TMC2    O5 2469   0.641   0.923  13.623 -0.4432 -0.1200  0.4796
  158TMC2    H5 2470   0.689   0.840  13.645  0.3100 -0.2502 -1.6440
  159MPD2     C 2471   0.629   0.133  14.174  0.2850  0.2170  0.3169
  159MPD2    C1 2472   0.496   0.144  14.147 -0.5178  0.0663  0.6114
  159MPD2    C2 2473   0.457   0.200  14.028 -0.3963  0.8112 -0.2125
  159MPD2    C3 2474   0.548   0.274  13.953  0.2326 -0.2096 -0.4470
  159MPD2    C4 2475   0.681   0.263  13.974 -0.0922  0.2960 -0.6254
  159MPD2    C5 2476   0.719   0.185  14.084  0.1105  0.2560  0.1714
  159MPD2     H 2477   0.355   0.188  13.994 -0.5248 -0.0338  0.4677
  159MPD2    H1 2478   0.757   0.310  13.912  1.0676 -0.7200  0.0396
  159MPD2    H2 2479   0.665   0.073  14.257  1.1566  0.2456 -0.0464
  159MPD2    H3 2480   0.824   0.178  14.109  0.1396 -0.6284 -0.2090
  159MPD2     N 2481   0.493   0.360  13.853 -0.4235  0.2044 -0.1039
  159MPD2    H5 2482   0.396   0.351  13.826 -0.3402  1.0601 -0.7180
  159MPD2    N1 2483   0.406   0.081  14.234  0.3174  0.2453  0.1382
  159MPD2    H7 2484   0.455   0.048  14.317  0.6855  0.7271  0.1114
  160TMC2    C1 2485   0.432   3.415   0.977  0.5283 -0.2542 -0.4937
  160TMC2    C2 2486   0.344   3.311   0.994 -0.0285 -0.4188  0.2428
  160TMC2    C3 2487   0.393   3.182   0.991  0.0097  0.5912  0.0793
  160TMC2    C4 2488   0.569   3.395   0.974  0.6589  0.0211  0.0972
  160TMC2    C5 2489   0.614   3.265   0.966  0.3391 -0.1225  0.2496
  160TMC2    C6 2490   0.525   3.161   0.975  0.3476  0.1370 -0.3799
  160TMC2     C 2491   0.390   3.545   1.022 -0.3410  0.4382  0.0643
  160TMC2     O 2492   0.478   3.618   1.069 -0.1402 -0.2798  0.0552
  160TMC2     H 2493   0.239   3.333   1.005  0.3539  1.1830  0.8471
  160TMC2    H1 2494   0.626   3.482   0.946  1.4577 -0.1314  1.2675
  160TMC2    H2 2495   0.562   3.061   0.958  1.0360  0.2492  0.4374
  160TMC2    C7 2496   0.725   3.234   0.873  0.8697 -0.3179 -0.6232
  160TMC2    C8 2497   0.313   3.078   0.945  1.2374 -0.1369 -0.0107
  160TMC2    O1 2498   0.746   3.123   0.823  0.4316 -0.0786 -0.1259
  160TMC2    O2 2499   0.352   2.990   0.868 -0.0323  0.1369  0.0203
  160TMC2    O5 2500   0.189   3.087   0.998 -0.1398 -0.0530 -0.1526
  160TMC2    H5 2501   0.191   3.147   1.075 -2.3423  3.2927 -2.7087
  161MPD2     C 2502   0.233   3.765   1.131 -0.0858  0.4516 -0.2217
  161MPD2    C1 2503   0.188   3.691   1.030  0.3953 -0.3621 -0.2605
  161MPD2    C2 2504   0.064   3.709   0.973  0.7492 -0.0848  0.3831
  161MPD2    C3 2505   4.732   3.818   1.011 -0.2610 -0.4446  0.0538
  161MPD2    C4 2506   0.047   3.900   1.100  0.2017  0.7488  0.0006
  161MPD2    C5 2507   0.171   3.887   1.156  0.5732  0.0751 -0.6681
  161MPD2     H 2508   0.029   3.636   0.901  0.2233  0.1890  0.3607
  161MPD2    H1 2509   4.725   3.985   1.130 -2.9605 -0.9233 -1.5503
  161MPD2    H2 2510   0.319   3.738   1.191  1.2478  1.0460 -1.8755
  161MPD2    H3 2511   0.211   3.956   1.229  0.7943  1.4997 -2.1172
  161MPD2     N 2512   4.613   3.849   0.958  0.8124  0.3307  0.0820
  161MPD2    H5 2513   4.572   3.935   0.993  0.1680  0.3139 -0.6210
  161MPD2    N1 2514   0.259   3.577   0.990  0.0211 -0.1011  0.0241
  161MPD2    H7 2515   0.203   3.518   0.929 -3.2119  1.3313  1.5962
  162TMC2    C1 2516   2.273   0.748   0.837 -0.0526  0.0377 -0.3552
  162TMC2    C2 2517   2.137   0.772   0.848  0.0487 -0.3696  0.3020
  162TMC2    C3 2518   2.094   0.819   0.964  0.3593  0.0983  0.2305
  162TMC2    C4 2519   2.361   0.785   0.931  0.2246  0.1112 -0.0599
  162TMC2    C5 2520   2.311   0.850   1.046  0.9396 -0.1889  0.1392
  162TMC2    C6 2521   2.175   0.860   1.064 -0.3604 -0.2321  0.0881
  162TMC2     C 2522   2.314   0.663   0.723  0.2080 -0.3984 -0.1208
  162TMC2     O 2523   2.430   0.626   0.727  0.4123  0.1216 -0.4323
  162TMC2     H 2524   2.072   0.749   0.764  0.0947 -2.0803  0.7354
  162TMC2    H1 2525   2.466   0.764   0.913  0.3023  0.8526 -0.5138
  162TMC2    H2 2526   2.138   0.891   1.161  2.2315 -0.4015  1.1523
  162TMC2    C7 2527   2.394   0.914   1.144 -0.0623  0.2282  0.5697
  162TMC2    C8 2528   1.955   0.863   0.983 -0.0776  0.1563 -0.5599
  162TMC2    O1 2529   2.331   0.975   1.232  0.2622 -0.1960 -0.3802
  162TMC2    O2 2530   1.915   0.946   1.063  0.1129 -0.5310 -0.3941
  162TMC2    O5 2531   1.873   0.780   0.919 -0.2295  0.3442  0.3145
  162TMC2    H5 2532   1.933   0.713   0.881  0.3637  0.3445  1.2431
  163MPD2     C 2533   2.292   0.520   0.228  0.3813 -0.9648  0.1397
  163MPD2    C1 2534   2.389   0.496   0.320 -0.2579  0.8010 -0.0279
  163MPD2    C2 2535   2.370   0.542   0.447 -0.1851 -0.3342 -0.3654
  163MPD2    C3 2536   2.255   0.613   0.481 -0.1638 -0.1406 -0.1674
  163MPD2    C4 2537   2.161   0.632   0.384  0.3965  0.1585  0.6359
  163MPD2    C5 2538   2.177   0.578   0.261  0.1443  0.0970  0.6813
  163MPD2     H 2539   2.443   0.521   0.524  1.2219 -0.6562 -1.7788
  163MPD2    H1 2540   2.068   0.681   0.408 -0.4186 -1.1512  0.1431
  163MPD2    H2 2541   2.301   0.498   0.122 -0.5741 -1.9800  0.2713
  163MPD2    H3 2542   2.101   0.599   0.188 -0.0035  1.0869  1.1166
  163MPD2     N 2543   2.230   0.666   0.612 -0.1200  0.0397  0.1519
  163MPD2    H5 2544   2.151   0.729   0.626 -0.1903  0.3512 -1.6356
  163MPD2    N1 2545   2.506   0.428   0.282  0.4188  0.0485 -0.3942
  163MPD2    H7 2546   2.521   0.410   0.183  0.4291 -0.6004 -0.2699
  164TMC2    C1 2547   2.774   4.554  11.148 -0.5879 -0.7655  0.2800
  164TMC2    C2 2548   2.861   4.648  11.093 -0.6220 -0.1423 -0.5630
  164TMC2    C3 2549   2.838   0.040  11.133 -0.2695 -0.6458  0.1462
  164TMC2    C4 2550   2.665   4.586  11.228  0.2968 -0.0015  0.1054
  164TMC2    C5 2551   2.642   4.711  11.257  0.5201  0.4872 -0.7970
  164TMC2    C6 2552   2.720   0.073  11.204 -0.8313 -0.2907  0.2545
  164TMC2     C 2553   2.791   4.416  11.098  0.4317  0.5608  0.5412
  164TMC2     O 2554   2.746   4.332  11.172  0.1633  0.1731  0.4177
  164TMC2     H 2555   2.952   4.621  11.041 -0.3654  0.6514 -0.5310
  164TMC2    H1 2556   2.599   4.503  11.247  0.9484 -0.4102  0.5495
  164TMC2    H2 2557   2.712   0.180  11.221 -0.9693  0.0109 -1.8025
  164TMC2    C7 2558   2.503   4.733  11.300  0.2544 -0.0342 -0.6555
  164TMC2    C8 2559   2.912   0.150  11.072 -0.4933 -0.1169 -0.8871
  164TMC2    O1 2560   2.411   4.651  11.278  0.8345 -0.5342  0.1827
  164TMC2    O2 2561   2.864   0.262  11.052  0.2873 -0.3594  0.3816
  164TMC2    O5 2562   3.044   0.130  11.064  0.2795 -0.5950 -0.2505
  164TMC2    H5 2563   3.068   0.043  11.102  2.1611  0.1395  0.2286
  165TMC2    C1 2564   4.529   3.286   1.089 -0.6304 -0.2199  0.4926
  165TMC2    C2 2565   4.474   3.409   1.074  0.0285  0.8848  0.3606
  165TMC2    C3 2566   4.540   3.511   1.138  0.3715  0.2187 -0.2869
  165TMC2    C4 2567   4.644   3.271   1.155 -0.0072  0.1443  0.0542
  165TMC2    C5 2568   4.705   3.373   1.211 -0.3587  0.9005 -0.0602
  165TMC2    C6 2569   4.664   3.503   1.196  0.1906 -0.3008 -0.6453
  165TMC2     C 2570   4.474   3.184   1.004  0.1562 -0.3480 -0.1813
  165TMC2     O 2571   4.353   3.195   0.976 -0.9562 -0.0048 -0.1494
  165TMC2     H 2572   4.368   3.418   1.054  0.1669  0.5338 -0.5204
  165TMC2    H1 2573   4.674   3.167   1.162 -0.4982  0.0893  1.5093
  165TMC2    H2 2574   4.726   3.588   1.222 -1.8615  1.0722 -0.2425
  165TMC2    C7 2575   0.104   3.342   1.251  0.9017 -0.5939 -0.3569
  165TMC2    C8 2576   4.463   3.633   1.150  0.6107  0.0583 -0.4849
  165TMC2    O1 2577   0.154   3.242   1.197 -0.0663 -0.2868  0.6357
  165TMC2    O2 2578   4.368   3.659   1.080  0.2773  0.4347  1.0788
  165TMC2    O5 2579   4.519   3.722   1.237  0.1853  0.2323 -0.0725
  165TMC2    H5 2580   4.600   3.692   1.283  0.8352 -1.0270 -2.0648
  166MPD2     C 2581   4.484   2.705   0.812 -0.1475 -0.1212 -0.0593
  166MPD2    C1 2582   4.374   2.796   0.823 -0.4566  0.0064 -0.0402
  166MPD2    C2 2583   4.396   2.923   0.876 -0.0480 -0.2917  0.2769
  166MPD2    C3 2584   4.524   2.960   0.923 -0.1019  1.0301  0.1971
  166MPD2    C4 2585   4.624   2.866   0.912  0.2087  0.3695  0.4637
  166MPD2    C5 2586   4.604   2.740   0.866 -0.4871 -0.1340 -0.7559
  166MPD2     H 2587   4.317   2.998   0.875 -1.2141 -1.5121  0.4558
  166MPD2    H1 2588   4.720   2.900   0.950 -1.2177  0.9419  3.5250
  166MPD2    H2 2589   4.466   2.605   0.773 -1.0909  0.1174 -0.2290
  166MPD2    H3 2590   4.682   2.665   0.857  2.6780  2.8693  1.3884
  166MPD2     N 2591   4.563   3.080   0.978 -0.5039  0.0524  0.5364
  166MPD2    H5 2592   4.659   3.106   0.998 -0.7079  0.8895  0.4231
  166MPD2    N1 2593   4.244   2.749   0.775 -0.2477  0.7158  0.0226
  166MPD2    H7 2594   4.240   2.657   0.734 -2.9857  0.8525 -0.0244
  167TMC2    C1 2595   1.600   0.139  13.280 -0.0718  0.2435  0.1682
  167TMC2    C2 2596   1.528   0.174  13.390 -0.1443 -0.1484 -0.1439
  167TMC2    C3 2597   1.531   0.096  13.494  0.0001  0.1719  0.2713
  167TMC2    C4 2598   1.675   0.023  13.270 -0.0282  0.2401 -0.3307
  167TMC2    C5 2599   1.661   4.673  13.375  0.0561 -0.0315 -0.5161
  167TMC2    C6 2600   1.575   4.702  13.482 -0.4603  0.5087  0.0670
  167TMC2     C 2601   1.610   0.234  13.168  0.2627  0.4759  0.5171
  167TMC2     O 2602   1.558   0.340  13.197 -0.5340 -0.5196 -0.4890
  167TMC2     H 2603   1.502   0.278  13.406  1.8969  0.4348 -0.5006
  167TMC2    H1 2604   1.732   4.733  13.183  1.6714  2.7366 -0.0153
  167TMC2    H2 2605   1.570   4.633  13.565  1.1731  0.3482  0.0442
  167TMC2    C7 2606   1.695   4.532  13.355  0.1493 -0.2557  0.0397
  167TMC2    C8 2607   1.448   0.139  13.608 -0.3314 -0.1445  0.5541
  167TMC2    O1 2608   1.625   4.451  13.417 -0.0800 -0.2653 -0.7733
  167TMC2    O2 2609   1.365   0.227  13.593  0.0523  0.0436 -0.0790
  167TMC2    O5 2610   1.427   0.032  13.684 -0.0541 -0.2302 -0.0641
  167TMC2    H5 2611   1.510   4.720  13.702  0.2328  1.1672  2.3905
  168MPD2     C 2612   1.612   0.401  12.923 -0.2038 -0.4388 -0.4777
  168MPD2    C1 2613   1.658   0.272  12.929 -0.6524 -0.2317 -0.2843
  168MPD2    C2 2614   1.709   0.222  12.808 -0.3062 -0.3736 -0.1969
  168MPD2    C3 2615   1.717   0.301  12.693 -0.8894  0.1468 -0.0964
  168MPD2    C4 2616   1.662   0.425  12.698 -0.4091  0.6737  0.1287
  168MPD2    C5 2617   1.612   0.475  12.811  0.3447 -0.1655  0.1811
  168MPD2     H 2618   1.742   0.119  12.801  1.0914  0.0639 -0.0599
  168MPD2    H1 2619   1.659   0.488  12.610 -1.4007 -0.4069 -0.6052
  168MPD2    H2 2620   1.591   0.457  13.013 -2.0127  1.0812 -1.8529
  168MPD2    H3 2621   1.588   0.580  12.821  1.5633  0.1521 -0.2716
  168MPD2     N 2622   1.778   0.252  12.575  0.7667  0.8295  0.0176
  168MPD2    H5 2623   1.755   0.310  12.495 -0.2194  0.1403 -0.2021
  168MPD2    N1 2624   1.659   0.195  13.046  0.1046 -0.5247  0.0986
  168MPD2    H7 2625   1.697   0.102  13.036  1.0586 -0.1357  0.0763
  169MPD1     C 2626   3.558   4.513   9.481 -0.0719  0.4759  0.2726
  169MPD1    C1 2627   3.692   4.515   9.454 -0.8500  0.9855 -0.5722
  169MPD1    C2 2628   3.775   4.439   9.530 -0.3946 -1.1146  0.8980
  169MPD1    C3 2629   3.726   4.376   9.647 -0.3438  0.1383  0.3221
  169MPD1    C4 2630   3.591   4.385   9.681  0.4351 -0.0782  0.1613
  169MPD1    C5 2631   3.514   4.464   9.596  0.1876  0.0053 -0.8848
  169MPD1     H 2632   3.879   4.416   9.508 -0.1982  0.9713 -0.3807
  169MPD1    H1 2633   3.547   4.340   9.769  1.9074 -2.5959 -0.3851
  169MPD1    H2 2634   3.492   4.559   9.408  0.8076  1.7111  0.2451
  169MPD1    H3 2635   3.409   4.478   9.619  0.5329 -1.5030  1.5591
  169MPD1     N 2636   3.820   4.303   9.728  0.0627 -0.2981 -0.1771
  169MPD1    H5 2637   3.914   4.287   9.691  0.6498 -1.7751  1.9407
  169MPD1    N1 2638   3.744   4.570   9.330 -0.4359  0.1480  0.4940
  169MPD1    H6 2639   3.845   4.586   9.326 -1.1947  4.7064  0.3591
  169MPD1    H7 2640   3.700   4.652   9.290  0.2061 -0.4883 -1.5214
  170MPD1     C 2641   2.515   2.143  13.032 -0.7405  1.2230  0.4392
  170MPD1    C1 2642   2.570   2.268  13.046 -0.8810  0.6664 -0.4556
  170MPD1    C2 2643   2.696   2.278  13.113  0.5696 -0.3966 -0.5637
  170MPD1    C3 2644   2.773   2.161  13.141 -0.7262 -0.6949 -0.5284
  170MPD1    C4 2645   2.710   2.036  13.113 -0.7052  0.4325 -0.8715
  170MPD1    C5 2646   2.584   2.033  13.059 -0.4959  0.3392  0.4857
  170MPD1     H 2647   2.740   2.368  13.155 -1.0690  0.0249  0.2634
  170MPD1    H1 2648   2.759   1.941  13.132  1.1422  1.5933  0.2017
  170MPD1    H2 2649   2.427   2.127  12.970 -0.3677  1.6154 -0.1907
  170MPD1    H3 2650   2.540   1.938  13.032 -0.6645  0.1042  1.5765
  170MPD1     N 2651   2.885   2.168  13.236  0.0762  0.7750 -0.0098
  170MPD1    H5 2652   2.889   2.256  13.286  0.2521  0.2152  0.9633
  170MPD1    N1 2653   2.484   2.381  13.035  0.0516  0.2904 -0.2364
  170MPD1    H6 2654   2.533   2.469  13.019 -1.1006  0.7209 -1.5145
  170MPD1    H7 2655   2.406   2.366  12.970  0.4014 -1.5679 -0.2158
  171MPD1     C 2656   2.472   3.598  15.628  0.0820 -0.2449  0.0943
  171MPD1    C1 2657   2.418   3.521  15.527 -0.1709  0.1165  0.0997
  171MPD1    C2 2658   2.351   3.409  15.559  0.0191 -0.2833 -0.3638
  171MPD1    C3 2659   2.363   3.358  15.688 -0.3449 -1.0830 -0.0675
  171MPD1    C4 2660   2.422   3.436  15.783 -0.2413  1.1468 -0.1844
  171MPD1    C5 2661   2.470   3.560  15.755 -0.5827  0.4317 -0.0040
  171MPD1     H 2662   2.291   3.356  15.486  0.6505  0.9910 -1.8035
  171MPD1    H1 2663   2.426   3.395  15.883 -0.1186  0.8712 -0.3027
  171MPD1    H2 2664   2.524   3.691  15.610  0.9113 -0.5342  0.9745
  171MPD1    H3 2665   2.494   3.625  15.838 -0.3429  1.7640 -1.1212
  171MPD1     N 2666   2.302   3.239  15.725 -0.1756 -0.0369  0.1529
  171MPD1    H5 2667   2.302   3.220  15.825 -2.2016  0.6051  0.2766
  171MPD1    N1 2668   2.415   3.566  15.389  0.0934 -0.4159  0.0621
  171MPD1    H6 2669   2.482   3.641  15.370  0.6080 -0.5500  1.3353
  171MPD1    H7 2670   2.433   3.494  15.320 -0.0561  0.8528 -1.3001
  172MPD1     C 2671   1.298   2.490   0.213 -0.6841  0.7222 -0.2501
  172MPD1    C1 2672   1.312   2.562   0.329  0.4274  0.6153 -0.1866
  172MPD1    C2 2673   1.378   2.680   0.327 -0.4331  0.0072 -0.1574
  172MPD1    C3 2674   1.440   2.725   0.213 -0.2102  0.3248 -0.5685
  172MPD1    C4 2675   1.431   2.651   0.105 -0.1974  0.3402 -0.4328
  172MPD1    C5 2676   1.356   2.539   0.095  0.4321 -0.5267 -0.7626
  172MPD1     H 2677   1.375   2.744   0.414  1.4646 -0.9712  0.6085
  172MPD1    H1 2678   1.483   2.685   0.016 -1.3830 -3.4086 -2.5443
  172MPD1    H2 2679   1.240   2.399   0.211  0.6900 -0.2108  2.2860
  172MPD1    H3 2680   1.332   2.486   0.003  1.6554 -0.4410 -1.1320
  172MPD1     N 2681   1.518   2.847   0.216 -0.2380 -0.5001 -0.9338
  172MPD1    H5 2682   1.550   2.872   0.124  0.6736 -1.6104 -0.9216
  172MPD1    N1 2683   1.223   2.529   0.431  0.2319  0.0414  0.0711
  172MPD1    H6 2684   1.255   2.545   0.526  0.2228 -0.8195  0.2181
  172MPD1    H7 2685   1.201   2.430   0.422  1.6454 -0.0808 -2.1128
  173MPD1     C 2686   2.526   2.827  13.774 -0.5692 -0.2259 -0.2892
  173MPD1    C1 2687   2.417   2.780  13.844  0.9080 -0.3158 -0.4052
  173MPD1    C2 2688   2.443   2.711  13.959 -0.1397 -0.6348  0.0655
  173MPD1    C3 2689   2.564   2.710  14.020 -0.4365  0.1884 -0.2628
  173MPD1    C4 2690   2.674   2.771  13.957 -0.2843 -0.0673 -0.7508
  173MPD1    C5 2691   2.651   2.825  13.829 -0.0093 -0.1028  0.3760
  173MPD1     H 2692   2.363   2.649  14.000 -0.1935 -0.9229 -0.4818
  173MPD1    H1 2693   2.776   2.782  13.992  0.0348 -1.0962 -1.3496
  173MPD1    H2 2694   2.505   2.872  13.677 -1.4576 -0.5831 -0.2544
  173MPD1    H3 2695   2.741   2.865  13.783 -2.2243  3.7925 -0.5526
  173MPD1     N 2696   2.576   2.639  14.139 -0.6122  0.4243 -0.0913
  173MPD1    H5 2697   2.490   2.602  14.179 -0.0270 -0.7316  0.0697
  173MPD1    N1 2698   2.293   2.766  13.776  0.7235 -0.4171 -0.7209
  173MPD1    H6 2699   2.272   2.849  13.722 -0.5464 -1.3640 -1.6686
  173MPD1    H7 2700   2.223   2.753  13.849 -0.5387  1.0905 -1.6752
  174MPD1     C 2701   3.184   1.878  14.326  0.5052 -0.6089 -0.6191
  174MPD1    C1 2702   3.065   1.848  14.385 -0.2474  0.4529  0.2961
  174MPD1    C2 2703   2.979   1.953  14.403  0.1141 -0.0176  0.1241
  174MPD1    C3 2704   2.990   2.075  14.344  0.4913  0.4578  0.1896
  174MPD1    C4 2705   3.100   2.099  14.266 -0.2275 -0.4602 -0.0962
  174MPD1    C5 2706   3.194   2.007  14.275  0.6960 -1.0869 -0.3031
  174MPD1     H 2707   2.886   1.936  14.457  2.0958 -2.3184  2.7695
  174MPD1    H1 2708   3.120   2.188  14.208 -2.0413  0.0882  0.1305
  174MPD1    H2 2709   3.265   1.808  14.313  1.2024 -0.1911  1.4430
  174MPD1    H3 2710   3.284   2.025  14.218  2.3082 -1.9177  1.9909
  174MPD1     N 2711   2.905   2.183  14.365 -0.7798  0.6082 -0.2884
  174MPD1    H5 2712   2.923   2.270  14.315 -0.6645  1.2806  0.9047
  174MPD1    N1 2713   3.049   1.727  14.451 -0.0077 -0.1682 -0.1296
  174MPD1    H6 2714   3.085   1.647  14.399 -1.9362 -0.9147 -0.3079
  174MPD1    H7 2715   2.952   1.712  14.479 -0.9085  2.3722 -1.9001
  175MPD1     C 2716   0.639   3.604  15.067 -0.3558 -0.1379  0.2161
  175MPD1    C1 2717   0.575   3.705  15.135  0.8153  0.3455  0.2949
  175MPD1    C2 2718   0.591   3.713  15.274 -0.5855  0.4539 -0.7034
  175MPD1    C3 2719   0.659   3.604  15.336 -0.2868 -0.3508 -0.4286
  175MPD1    C4 2720   0.713   3.499  15.262 -0.2640 -0.1567  0.5631
  175MPD1    C5 2721   0.706   3.502  15.128  0.3897 -0.1439 -0.1355
  175MPD1     H 2722   0.527   3.788  15.319 -0.8854  0.3210 -0.9075
  175MPD1    H1 2723   0.779   3.426  15.308 -0.8170  0.5614  2.5234
  175MPD1    H2 2724   0.650   3.603  14.959 -0.3536  1.1713  0.1980
  175MPD1    H3 2725   0.753   3.424  15.071  2.3073  1.8312 -1.2775
  175MPD1     N 2726   0.693   3.617  15.470  0.3709 -0.6688 -0.4029
  175MPD1    H5 2727   0.751   3.544  15.510 -0.5874 -0.1632  1.8894
  175MPD1    N1 2728   0.508   3.805  15.065 -0.8621 -0.5320 -0.7138
  175MPD1    H6 2729   0.448   3.860  15.125 -1.7235  0.9539 -2.9476
  175MPD1    H7 2730   0.442   3.756  15.004  0.2501  0.3498 -2.6311
  176MPD1     C 2731   2.722   0.160  16.610 -1.1079 -0.7376 -0.4888
  176MPD1    C1 2732   2.775   0.287  16.595  0.5825  0.9257 -0.0386
  176MPD1    C2 2733   2.740   0.389  16.690 -0.0172 -0.1082 -0.4026
  176MPD1    C3 2734   2.672   0.357  16.814 -0.5454  0.2880  0.3833
  176MPD1    C4 2735   2.637   0.226  16.829 -0.2871  0.9956  0.1977
  176MPD1    C5 2736   2.661   0.131  16.729  0.3073  0.5593 -0.1265
  176MPD1     H 2737   2.771   0.491  16.671 -0.3934  0.2983  1.2273
  176MPD1    H1 2738   2.583   0.183  16.913 -0.3266 -1.9494 -1.3395
  176MPD1    H2 2739   2.738   0.081  16.537  0.9030  0.4654 -1.3796
  176MPD1    H3 2740   2.632   0.029  16.748  1.1520  0.3551  0.0245
  176MPD1     N 2741   2.649   0.453  16.913 -0.5972 -0.1105  0.2370
  176MPD1    H5 2742   2.691   0.545  16.904  0.3180 -0.5653 -0.0810
  176MPD1    N1 2743   2.855   0.327  16.482 -0.4170  0.4459 -0.1814
  176MPD1    H6 2744   2.905   0.245  16.448 -1.1623  0.0950 -0.4372
  176MPD1    H7 2745   2.920   0.401  16.506 -0.0611  0.1135 -0.1187
  177MPD1     C 2746   0.675   0.147  10.033 -0.4533  0.3902 -0.2213
  177MPD1    C1 2747   0.549   0.092  10.026 -0.1427 -0.1216 -0.4143
  177MPD1    C2 2748   0.497   0.068   9.901 -0.4674 -0.0896 -0.2503
  177MPD1    C3 2749   0.547   0.126   9.785 -0.0105  0.0412  0.2096
  177MPD1    C4 2750   0.665   0.197   9.799 -0.0074  0.1995  0.0961
  177MPD1    C5 2751   0.726   0.209   9.920  0.7401 -0.4929  0.2800
  177MPD1     H 2752   0.408   0.005   9.901  0.4042 -1.3349  1.0755
  177MPD1    H1 2753   0.708   0.243   9.710 -0.4165 -0.3981 -0.4109
  177MPD1    H2 2754   0.727   0.152  10.128  0.3364 -0.4031 -0.6089
  177MPD1    H3 2755   0.822   0.260   9.930  1.3520 -2.2108  3.1799
  177MPD1     N 2756   0.481   0.120   9.658 -0.6548  0.2337  0.5742
  177MPD1    H5 2757   0.394   0.068   9.669  0.3436 -1.8042 -1.4092
  177MPD1    N1 2758   0.497   0.021  10.139 -0.1262  0.3449 -0.3463
  177MPD1    H6 2759   0.526   0.046  10.234 -1.0708 -4.1249  1.1704
  177MPD1    H7 2760   0.396   0.010  10.142  0.0568 -0.5226  2.7460
  178MPD1     C 2761   3.336   1.635  17.623  0.0836  0.3276  0.5018
  178MPD1    C1 2762   3.279   1.567  17.513 -0.0124 -0.2245 -0.0668
  178MPD1    C2 2763   3.367   1.505  17.428  0.1640  0.9031 -0.3950
  178MPD1    C3 2764   3.504   1.522  17.432  0.1327  1.1009 -0.6290
  178MPD1    C4 2765   3.559   1.596  17.538  0.3755 -0.3788 -0.5479
  178MPD1    C5 2766   3.474   1.644  17.635  0.3975  0.6705  0.5666
  178MPD1     H 2767   3.324   1.442  17.351 -0.5234  0.6106  0.2359
  178MPD1    H1 2768   3.666   1.609  17.550  0.6051 -3.1815  0.2832
  178MPD1    H2 2769   3.268   1.671  17.699  2.3263  1.4794  1.9805
  178MPD1    H3 2770   3.518   1.702  17.715  1.9063  1.5263 -0.8676
  178MPD1     N 2771   3.596   1.472  17.340 -0.0005 -0.4816 -0.2927
  178MPD1    H5 2772   3.693   1.492  17.360 -0.6195  0.1602  2.0843
  178MPD1    N1 2773   3.142   1.558  17.500  0.3130  0.1285  0.2330
  178MPD1    H6 2774   3.113   1.538  17.405  0.9897 -0.8991  0.2413
  178MPD1    H7 2775   3.095   1.638  17.540 -0.9457 -0.3997 -0.1869
  179MPD1     C 2776   3.691   3.645  15.256  0.1883  0.1689 -1.0259
  179MPD1    C1 2777   3.592   3.673  15.165  0.2120 -0.3880  0.5311
  179MPD1    C2 2778   3.458   3.680  15.224  0.1691 -0.1538 -0.4038
  179MPD1    C3 2779   3.431   3.678  15.360 -0.1825  0.2438  0.1973
  179MPD1    C4 2780   3.539   3.657  15.446 -0.3096 -0.0435  0.1707
  179MPD1    C5 2781   3.663   3.644  15.396  0.1739  0.3135 -0.1788
  179MPD1     H 2782   3.377   3.698  15.154  0.2230  0.6268 -0.2605
  179MPD1    H1 2783   3.525   3.647  15.553  1.3725 -0.8129  0.3247
  179MPD1    H2 2784   3.794   3.652  15.224  0.4271 -0.9636 -0.4787
  179MPD1    H3 2785   3.742   3.633  15.470 -0.4354 -2.3565  0.0636
  179MPD1     N 2786   3.301   3.676  15.417  0.1442 -0.1578  0.4401
  179MPD1    H5 2787   3.300   3.667  15.518 -0.5392 -3.8266  0.0867
  179MPD1    N1 2788   3.617   3.675  15.026 -0.2710  0.8693 -0.5471
  179MPD1    H6 2789   3.712   3.707  15.011  0.3632 -1.5709 -1.6906
  179MPD1    H7 2790   3.549   3.737  14.982 -0.4390  0.3696 -0.9972
  180MPD1     C 2791   2.483   0.769  15.645 -0.6272  0.4596 -0.0863
  180MPD1    C1 2792   2.601   0.803  15.588 -0.6048 -0.0247 -0.1279
  180MPD1    C2 2793   2.637   0.742  15.470  0.6853  0.0766 -0.4013
  180MPD1    C3 2794   2.551   0.660  15.396  0.6585 -0.0952  0.6627
  180MPD1    C4 2795   2.433   0.625  15.453  0.1341 -0.2873 -0.4502
  180MPD1    C5 2796   2.403   0.680  15.581  0.1471 -0.2396 -0.3742
  180MPD1     H 2797   2.729   0.771  15.422 -0.5673  1.5383 -1.9312
  180MPD1    H1 2798   2.359   0.552  15.421 -0.2501 -0.4763  0.8647
  180MPD1    H2 2799   2.452   0.818  15.737 -0.8292 -2.0374  1.1900
  180MPD1    H3 2800   2.311   0.661  15.635 -1.7054  2.2738 -2.6496
  180MPD1     N 2801   2.589   0.623  15.263  0.6419 -0.2072  0.7681
  180MPD1    H5 2802   2.665   0.676  15.221  0.6552 -0.6341  0.2640
  180MPD1    N1 2803   2.682   0.905  15.642 -0.1927 -0.0619 -0.1578
  180MPD1    H6 2804   2.709   0.962  15.562  1.3823 -0.8667 -0.1979
  180MPD1    H7 2805   2.635   0.962  15.712  1.3473  0.3851  0.4984
  181MPD1     C 2806   3.452   2.057  11.056  0.2628 -0.0492  0.1602
  181MPD1    C1 2807   3.539   2.140  11.126 -0.4435 -0.2996  0.1013
  181MPD1    C2 2808   3.628   2.210  11.051  0.7795 -0.2003 -0.3040
  181MPD1    C3 2809   3.655   2.195  10.914  0.2603 -0.0539  0.7543
  181MPD1    C4 2810   3.578   2.101  10.854 -0.2841  0.0342  0.2403
  181MPD1    C5 2811   3.473   2.035  10.926 -0.4930  0.9331  0.5943
  181MPD1     H 2812   3.696   2.282  11.097  1.0663  1.0248 -2.6295
  181MPD1    H1 2813   3.581   2.080  10.747  0.0143  1.4641 -0.0344
  181MPD1    H2 2814   3.371   2.007  11.109  0.4070 -1.4691 -0.9621
  181MPD1    H3 2815   3.413   1.961  10.874  0.9707 -0.2843  0.6417
  181MPD1     N 2816   3.753   2.263  10.843 -0.2280 -0.0301 -0.3561
  181MPD1    H5 2817   3.778   2.235  10.748  0.6337 -0.1191 -0.1066
  181MPD1    N1 2818   3.512   2.157  11.261  0.0267 -0.3538  0.5093
  181MPD1    H6 2819   3.588   2.204  11.311 -0.2397  0.5564  0.0530
  181MPD1    H7 2820   3.484   2.068  11.302 -0.9814  1.2080  3.1810
  182MPD1     C 2821   0.981   1.145   1.179  0.0088 -0.1201  0.0560
  182MPD1    C1 2822   0.962   1.269   1.242 -0.5051 -0.0905 -1.0367
  182MPD1    C2 2823   0.942   1.379   1.156  0.4913  0.1042 -0.6104
  182MPD1    C3 2824   0.921   1.361   1.021  0.5571  0.0813  0.2111
  182MPD1    C4 2825   0.921   1.234   0.967  0.3649 -0.5500 -0.2913
  182MPD1    C5 2826   0.967   1.129   1.044  0.3498 -0.1619  0.1729
  182MPD1     H 2827   0.945   1.477   1.202  1.3988 -0.4719  0.5736
  182MPD1    H1 2828   0.900   1.221   0.862  0.2647  2.3003 -0.6269
  182MPD1    H2 2829   1.011   1.053   1.228 -0.8595 -0.8315 -0.7335
  182MPD1    H3 2830   0.973   1.032   0.997 -0.9932 -0.6491  0.9955
  182MPD1     N 2831   0.893   1.465   0.931 -0.5912  0.2919 -0.0365
  182MPD1    H5 2832   0.854   1.444   0.840 -2.8179  0.0231  0.9692
  182MPD1    N1 2833   0.995   1.283   1.375 -0.6901  1.1288 -0.0629
  182MPD1    H6 2834   0.938   1.354   1.420  0.8596  1.7662  0.9226
  182MPD1    H7 2835   0.985   1.197   1.428  0.3395  0.6747 -0.5915
  183MPD1     C 2836   0.519   2.685  10.278 -1.0853 -0.4769  0.1943
  183MPD1    C1 2837   0.428   2.594  10.325 -1.1041  0.1007 -0.5171
  183MPD1    C2 2838   0.357   2.519  10.235  0.3831 -0.0683 -0.4012
  183MPD1    C3 2839   0.379   2.528  10.100  0.0831  0.3512  0.1132
  183MPD1    C4 2840   0.476   2.616  10.052 -0.6772 -0.3459  0.4052
  183MPD1    C5 2841   0.542   2.693  10.140 -0.6523 -0.2954  0.6163
  183MPD1     H 2842   0.275   2.453  10.262  0.5927 -0.1020  0.1483
  183MPD1    H1 2843   0.483   2.620   9.944 -0.7194  0.3062  0.4295
  183MPD1    H2 2844   0.570   2.737  10.358 -0.2785 -1.4309  0.3102
  183MPD1    H3 2845   0.611   2.775  10.119 -0.1073 -1.0478 -0.4986
  183MPD1     N 2846   0.304   2.430  10.025 -0.3097 -0.5616  0.6628
  183MPD1    H5 2847   0.234   2.387  10.085 -0.3601 -2.6352 -0.8546
  183MPD1    N1 2848   0.376   2.603  10.462  0.0634 -0.7370  0.4364
  183MPD1    H6 2849   0.443   2.633  10.532 -2.0434  1.5573  1.4360
  183MPD1    H7 2850   0.331   2.514  10.487 -0.3011 -0.7141 -0.1433
  184MPD1     C 2851   3.818   4.656   9.844  0.1465  0.0510  0.2019
  184MPD1    C1 2852   3.941   4.640   9.909 -0.0283 -0.6236 -0.1048
  184MPD1    C2 2853   4.053   4.690   9.842 -0.3259  0.6694 -0.2727
  184MPD1    C3 2854   4.058   0.013   9.715  0.2105  0.0166 -0.4265
  184MPD1    C4 2855   3.942   0.007   9.647  0.5297  0.4059  0.9391
  184MPD1    C5 2856   3.824   4.709   9.714  0.4238 -0.2059 -0.5181
  184MPD1     H 2857   4.144   4.693   9.901  0.6718 -1.1397 -1.7197
  184MPD1    H1 2858   3.928   0.055   9.550 -1.2097  0.5653  1.2558
  184MPD1    H2 2859   3.722   4.620   9.880 -0.6799  2.4993  0.4788
  184MPD1    H3 2860   3.728   4.722   9.666 -1.2506  0.3888  2.9510
  184MPD1     N 2861   4.178   0.069   9.656  0.6435  0.1259 -0.2957
  184MPD1    H5 2862   4.167   0.109   9.564 -0.7701  1.7505  0.5751
  184MPD1    N1 2863   3.946   4.604  10.041 -0.1996 -0.2115 -0.3729
  184MPD1    H6 2864   3.871   4.538  10.063 -2.0811  2.7020  1.9864
  184MPD1    H7 2865   4.033   4.555  10.063  1.5428  3.1146  0.1165
  185MPD1     C 2866   4.634   0.268   8.807  0.2432 -0.2142  0.2691
  185MPD1    C1 2867   4.521   0.206   8.857  0.0819 -0.0200  0.0900
  185MPD1    C2 2868   4.501   0.173   8.993  0.1933 -0.0535 -0.5864
  185MPD1    C3 2869   4.605   0.199   9.082 -0.3061  0.1930 -0.0837
  185MPD1    C4 2870   4.712   0.268   9.028 -0.1769 -0.8288  0.4068
  185MPD1    C5 2871   4.730   0.304   8.895  0.2471 -0.5972 -0.1184
  185MPD1     H 2872   4.414   0.116   9.022  0.7804  0.0786  1.4806
  185MPD1    H1 2873   0.055   0.288   9.099 -0.9256  0.2093  0.9586
  185MPD1    H2 2874   4.644   0.302   8.705 -4.4488  2.5579  0.7307
  185MPD1    H3 2875   0.079   0.359   8.860  0.4847 -0.2186  1.0435
  185MPD1     N 2876   4.603   0.165   9.217  1.0304 -0.0333 -0.1736
  185MPD1    H5 2877   4.684   0.183   9.276  0.3515 -0.5092  0.9227
  185MPD1    N1 2878   4.445   0.142   8.758 -0.0478  0.2382 -0.3725
  185MPD1    H6 2879   4.429   0.184   8.667  2.0874  0.3977 -0.6727
  185MPD1    H7 2880   4.374   0.082   8.800  1.1980 -1.8952 -1.3157
  186MPD1     C 2881   4.044   3.773  16.011 -0.5812  0.8413 -0.1949
  186MPD1    C1 2882   3.909   3.756  16.047  0.2523 -0.7089  0.6415
  186MPD1    C2 2883   3.834   3.853  16.120 -0.3615 -0.7246  0.4271
  186MPD1    C3 2884   3.903   3.965  16.157 -1.2543 -0.4178  0.1687
  186MPD1    C4 2885   4.034   3.984  16.130  0.2643  0.1165  0.1264
  186MPD1    C5 2886   4.102   3.888  16.053 -0.1452  0.2494 -0.5465
  186MPD1     H 2887   3.729   3.834  16.140 -0.3058 -0.5355  0.8917
  186MPD1    H1 2888   4.081   4.073  16.171 -0.1093  0.3117  0.1317
  186MPD1    H2 2889   4.104   3.698  15.961 -3.0714 -1.7609  0.7074
  186MPD1    H3 2890   4.203   3.918  16.026 -0.5446  2.4401  0.3987
  186MPD1     N 2891   3.839   4.068  16.228  0.2625 -0.1875 -0.2247
  186MPD1    H5 2892   3.911   4.134  16.258 -1.5180  0.7794  1.9059
  186MPD1    N1 2893   3.855   3.627  16.036 -0.3861  0.2898  0.0573
  186MPD1    H6 2894   3.754   3.626  16.028 -0.5095  2.2742  1.4336
  186MPD1    H7 2895   3.891   3.590  15.948 -2.2752  0.2173 -0.6715
  187MPD1     C 2896   2.665   1.306   0.407  0.2993 -0.1582  0.4083
  187MPD1    C1 2897   2.591   1.266   0.297  0.0702 -0.1694 -0.0376
  187MPD1    C2 2898   2.641   1.251   0.176 -0.3236  0.2506 -0.7000
  187MPD1    C3 2899   2.758   1.302   0.142  0.0031 -0.0450 -0.5913
  187MPD1    C4 2900   2.840   1.344   0.251  0.4044  0.2042  0.4268
  187MPD1    C5 2901   2.789   1.355   0.376  0.5807 -0.0089  0.0420
  187MPD1     H 2902   2.575   1.198   0.108 -1.9457  0.9844  0.3140
  187MPD1    H1 2903   2.937   1.386   0.227 -0.4064  1.4287 -0.7192
  187MPD1    H2 2904   2.630   1.297   0.509 -0.7514  2.4560  0.2754
  187MPD1    H3 2905   2.857   1.391   0.452 -2.0622  2.0834  1.3806
  187MPD1     N 2906   2.807   1.316   0.011 -0.5944  0.0578 -0.6620
  187MPD1    H5 2907   2.899   1.355  17.745 -0.8916  0.7436 -0.7126
  187MPD1    N1 2908   2.466   1.207   0.314 -1.0916  0.1432  0.3667
  187MPD1    H6 2909   2.438   1.231   0.409  1.1760 -0.5962  1.2143
  187MPD1    H7 2910   2.401   1.261   0.257  1.3833  0.5516 -2.0936
  188MPD1     C 2911   2.188   1.364  10.431  0.5521 -0.1276  0.6308
  188MPD1    C1 2912   2.251   1.286  10.339 -0.3952 -1.0278  0.3863
  188MPD1    C2 2913   2.201   1.162  10.309  0.4895  0.6469  0.4832
  188MPD1    C3 2914   2.069   1.130  10.354  0.0014 -0.2162 -0.5751
  188MPD1    C4 2915   1.995   1.216  10.433  0.1424  0.4007  0.3558
  188MPD1    C5 2916   2.061   1.329  10.468  0.4943  0.2135 -0.1329
  188MPD1     H 2917   2.254   1.092  10.246  0.6899  1.4967 -0.2876
  188MPD1    H1 2918   1.905   1.186  10.485  0.4945  0.0610  0.7718
  188MPD1    H2 2919   2.237   1.461  10.441 -1.3169  1.1824 -2.6293
  188MPD1    H3 2920   2.010   1.395  10.537  0.2541  1.3798 -1.4377
  188MPD1     N 2921   2.008   1.003  10.315 -0.2278 -0.0685  0.2284
  188MPD1    H5 2922   2.062   0.949  10.248 -1.3448 -1.3036  0.3145
  188MPD1    N1 2923   2.380   1.316  10.310  0.2706 -0.0512 -0.3666
  188MPD1    H6 2924   2.392   1.417  10.320  0.5504  0.1534 -2.8717
  188MPD1    H7 2925   2.405   1.289  10.215  1.8361  2.3997 -0.6729
  189MPD1     C 2926   0.130   2.440   0.163 -0.4121 -0.5651  0.2904
  189MPD1    C1 2927   0.009   2.373   0.141 -0.1315 -0.2015  0.1481
  189MPD1    C2 2928   4.637   2.453   0.124  0.2366 -0.0836 -0.1601
  189MPD1    C3 2929   4.652   2.587   0.104  0.1313  0.1733  0.0418
  189MPD1    C4 2930   0.034   2.648   0.117 -0.0573 -0.2053 -0.6239
  189MPD1    C5 2931   0.147   2.578   0.153 -0.5857 -0.0233 -0.8854
  189MPD1     H 2932   4.538   2.411   0.122  0.8743 -1.5043 -1.4106
  189MPD1    H1 2933   0.043   2.753   0.093  0.2565 -0.3025 -0.9232
  189MPD1    H2 2934   0.218   2.381   0.184  0.2505  0.6589  0.9601
  189MPD1    H3 2935   0.240   2.633   0.156 -0.7071  0.2791 -2.6894
  189MPD1     N 2936   4.528   2.650   0.088  0.1470  0.0229  0.3682
  189MPD1    H5 2937   4.445   2.592   0.098  0.9880 -1.2297  0.0363
  189MPD1    N1 2938   0.000   2.233   0.156  0.4284  0.2441 -0.1613
  189MPD1    H6 2939   4.672   2.181   0.099  1.8941 -1.3108 -0.4192
  189MPD1    H7 2940   0.085   2.177   0.154  0.6375  0.6351 -2.3628
  190MPD1     C 2941   2.952   1.228  15.548  0.0896 -0.3128  0.0663
  190MPD1    C1 2942   2.937   1.144  15.655 -0.0102  0.9074  0.2780
  190MPD1    C2 2943   3.015   1.034  15.663 -0.0710  0.4708  0.5214
  190MPD1    C3 2944   3.103   1.010  15.563  0.4109 -0.5222  0.3907
  190MPD1    C4 2945   3.132   1.102  15.467  0.3114  0.3813 -0.3733
  190MPD1    C5 2946   3.050   1.209  15.457 -0.5982 -0.5561  0.5670
  190MPD1     H 2947   3.011   0.967  15.748  0.9699 -0.0306  0.1658
  190MPD1    H1 2948   3.212   1.095  15.394 -1.3017  0.9916 -2.2357
  190MPD1    H2 2949   2.900   1.323  15.543 -1.5086 -1.2977 -2.1488
  190MPD1    H3 2950   3.054   1.280  15.375  2.0415  0.8688  1.9297
  190MPD1     N 2951   3.163   0.884  15.573  0.5623  0.1816 -0.6739
  190MPD1    H5 2952   3.134   0.825  15.650 -0.8887  1.6532 -0.1086
  190MPD1    N1 2953   2.840   1.169  15.747 -0.1814  0.1237 -0.6266
  190MPD1    H6 2954   2.805   1.265  15.751 -1.2002 -0.1858 -2.3234
  190MPD1    H7 2955   2.860   1.133  15.841 -1.7041 -2.2246 -1.1948
  191MPD1     C 2956   2.546   1.817  11.969  0.0218 -0.3045  0.1838
  191MPD1    C1 2957   2.496   1.847  12.090  1.0023  0.2215 -0.7617
  191MPD1    C2 2958   2.506   1.983  12.135  0.0005  0.8664 -0.1475
  191MPD1    C3 2959   2.578   2.081  12.068 -0.1242 -0.0973  0.5603
  191MPD1    C4 2960   2.642   2.037  11.956 -0.1774  0.6379  1.0216
  191MPD1    C5 2961   2.626   1.909  11.908 -0.2453  0.4382  0.6832
  191MPD1     H 2962   2.451   2.008  12.225 -1.7211 -3.3677 -0.0245
  191MPD1    H1 2963   2.708   2.102  11.898 -0.7707  0.3984  0.0791
  191MPD1    H2 2964   2.540   1.719  11.922  0.7119  0.2159 -0.9780
  191MPD1    H3 2965   2.679   1.886  11.817 -1.9882 -0.3648 -0.1235
  191MPD1     N 2966   2.579   2.220  12.109  0.2047 -0.2535  0.1689
  191MPD1    H5 2967   2.541   2.246  12.200 -2.8536 -1.3990 -0.7725
  191MPD1    N1 2968   2.428   1.747  12.161 -0.2763  0.2319  0.6024
  191MPD1    H6 2969   2.431   1.770  12.260  0.7229  0.5871  0.4903
  191MPD1    H7 2970   2.463   1.652  12.162 -0.2263  0.2429  0.0150
  192MPD1     C 2971   2.207   2.437  12.815 -0.1581  0.3510  0.3120
  192MPD1    C1 2972   2.209   2.563  12.760 -0.8778 -0.6337 -0.1445
  192MPD1    C2 2973   2.280   2.575  12.645  0.0029  0.4751 -0.3341
  192MPD1    C3 2974   2.353   2.472  12.593  0.5068 -0.2667  0.5896
  192MPD1    C4 2975   2.356   2.352  12.660 -0.7818 -0.6154  0.4324
  192MPD1    C5 2976   2.288   2.335  12.773 -0.1273 -1.0001  0.0928
  192MPD1     H 2977   2.262   2.666  12.590  2.0450 -0.0211 -1.8433
  192MPD1    H1 2978   2.411   2.263  12.629  0.6099  0.3497  0.1477
  192MPD1    H2 2979   2.148   2.419  12.904 -3.8097  2.0811 -1.7497
  192MPD1    H3 2980   2.305   2.248  12.835 -0.0162  1.0146  2.9255
  192MPD1     N 2981   2.409   2.463  12.467 -0.6119 -0.0565 -0.0893
  192MPD1    H5 2982   2.458   2.379  12.439  1.1192  1.3036 -1.1130
  192MPD1    N1 2983   2.122   2.658  12.804  1.0971  0.3613  0.0218
  192MPD1    H6 2984   2.113   2.652  12.905 -0.2436 -2.1184 -0.2310
  192MPD1    H7 2985   2.153   2.750  12.774  1.5184 -0.6754 -2.7975
  193MPD1     C 2986   2.009   3.167  16.934  0.3645 -0.3325  0.6244
  193MPD1    C1 2987   2.070   3.174  16.814  0.8163 -0.4110 -0.5135
  193MPD1    C2 2988   2.202   3.210  16.809  0.3784  0.6817  0.6254
  193MPD1    C3 2989   2.267   3.268  16.917  0.5294  0.4845  0.1104
  193MPD1    C4 2990   2.203   3.275  17.030 -0.0186  0.3381  0.2992
  193MPD1    C5 2991   2.075   3.233  17.039  0.1535 -0.3185  0.5039
  193MPD1     H 2992   2.258   3.192  16.718 -1.2618 -1.9121  0.1222
  193MPD1    H1 2993   2.264   3.326  17.103  0.5201  0.6484 -0.3713
  193MPD1    H2 2994   1.911   3.121  16.946  0.6130 -0.8459  0.6705
  193MPD1    H3 2995   2.024   3.231  17.135 -3.7756  1.2026 -1.5230
  193MPD1     N 2996   2.405   3.311  16.921 -0.1045 -0.0929 -0.5861
  193MPD1    H5 2997   2.435   3.336  17.015 -0.7409  0.8021 -0.6174
  193MPD1    N1 2998   2.005   3.114  16.701  0.4022 -0.3062  0.2300
  193MPD1    H6 2999   1.904   3.121  16.699  0.6270  3.0408  0.1733
  193MPD1    H7 3000   2.039   3.163  16.618 -0.1743 -0.6150 -0.1836
  194MPD1     C 3001   0.223   0.905  17.317  0.0680  0.0779  0.3645
  194MPD1    C1 3002   0.358   0.943  17.309  0.5275  0.0996 -1.0801
  194MPD1    C2 3003   0.439   0.851  17.248 -0.0224 -0.2052  0.1188
  194MPD1    C3 3004   0.386   0.725  17.202  0.5112  0.2581  0.1095
  194MPD1    C4 3005   0.256   0.700  17.203  0.5689  0.5933 -0.2932
  194MPD1    C5 3006   0.174   0.786  17.269 -0.3328  0.0245  0.2151
  194MPD1     H 3007   0.545   0.870  17.230  0.1838 -0.4680  1.0826
  194MPD1    H1 3008   0.221   0.607  17.159 -0.7961  0.5003  1.0153
  194MPD1    H2 3009   0.148   0.965  17.366 -0.3446 -0.3722  0.2900
  194MPD1    H3 3010   0.068   0.766  17.263 -0.4053  0.4328  0.1342
  194MPD1     N 3011   0.475   0.630  17.140 -0.7137 -0.6834  0.5318
  194MPD1    H5 3012   0.430   0.553  17.091 -0.6646 -1.5190  1.8076
  194MPD1    N1 3013   0.396   1.082  17.327  0.2231 -0.1830 -0.2819
  194MPD1    H6 3014   0.327   1.133  17.382  0.1307  1.1330 -1.6363
  194MPD1    H7 3015   0.484   1.083  17.377 -0.8429  0.3043  1.5776
  195MPD1     C 3016   2.731   2.299  17.667  0.0342 -0.3353  0.1005
  195MPD1    C1 3017   2.612   2.282  17.740  0.1132 -0.3620  0.2001
  195MPD1    C2 3018   2.549   2.164  17.747 -0.0202  0.3814  0.6823
  195MPD1    C3 3019   2.595   2.050  17.675  0.6064 -0.5371 -0.1037
  195MPD1    C4 3020   2.702   2.066  17.591 -0.0367 -0.2461 -0.1128
  195MPD1    C5 3021   2.767   2.188  17.589  0.4515 -0.3098  0.0358
  195MPD1     H 3022   2.475   2.149   0.076  0.7795 -1.5910  1.0754
  195MPD1    H1 3023   2.729   1.986  17.523 -0.8189 -2.1009  1.7272
  195MPD1    H2 3024   2.799   2.383  17.657 -2.3370  1.6068  0.4228
  195MPD1    H3 3025   2.858   2.194  17.530  0.9686  1.8952  1.0882
  195MPD1     N 3026   2.543   1.913  17.686 -0.7169  0.0113  0.1563
  195MPD1    H5 3027   2.604   1.837  17.656 -1.4376 -0.1109 -0.9871
  195MPD1    N1 3028   2.579   2.370   0.096 -0.2483  0.4521  0.4109
  195MPD1    H6 3029   2.487   2.361   0.139 -0.1810  0.6677  0.6017
  195MPD1    H7 3030   2.601   2.468   0.081 -0.2450  0.8328  2.8345
  196MPD1     C 3031   1.399   1.926  17.576  0.0792  0.5031 -0.4925
  196MPD1    C1 3032   1.500   1.991  17.640 -0.3090 -0.3242  0.1846
  196MPD1    C2 3033   1.507   1.976   0.031 -0.0455  0.1457 -0.0375
  196MPD1    C3 3034   1.410   1.891   0.101  0.2168 -0.2555 -0.0088
  196MPD1    C4 3035   1.317   1.824   0.026 -0.9566  0.3866  0.1646
  196MPD1    C5 3036   1.310   1.849  17.641  0.5210  0.6381 -0.0622
  196MPD1     H 3037   1.589   2.019   0.086 -1.8594  1.0255  1.9757
  196MPD1    H1 3038   1.241   1.756   0.063 -0.7290 -0.2927 -0.5939
  196MPD1    H2 3039   1.384   1.949  17.471 -2.3080 -0.9561 -0.4645
  196MPD1    H3 3040   1.235   1.793  17.587 -0.2770 -0.7496  2.4909
  196MPD1     N 3041   1.401   1.878   0.240  0.3741  0.6142 -0.3231
  196MPD1    H5 3042   1.335   1.810   0.278 -0.7346  1.7648 -0.1816
  196MPD1    N1 3043   1.591   2.067  17.564  0.2444 -0.1169 -0.5134
  196MPD1    H6 3044   1.684   2.057  17.604 -0.5078 -0.5474  1.1564
  196MPD1    H7 3045   1.595   2.034  17.468 -2.7272 -0.8518 -0.3748
  197MPD1     C 3046   0.970   3.218  17.510  0.1711 -0.3634 -0.2388
  197MPD1    C1 3047   1.107   3.201  17.521  0.4743 -0.1370  1.3624
  197MPD1    C2 3048   1.185   3.291  17.457 -0.4190  0.0656  0.0334
  197MPD1    C3 3049   1.132   3.374  17.356 -0.7438  0.6924  0.1440
  197MPD1    C4 3050   0.996   3.371  17.333 -1.1052  0.2743  0.1819
  197MPD1    C5 3051   0.918   3.299  17.414  0.0482  0.7415 -0.2523
  197MPD1     H 3052   1.292   3.293  17.468 -0.4728  0.2367  0.4928
  197MPD1    H1 3053   0.949   3.428  17.254 -2.7263 -0.5794  0.5310
  197MPD1    H2 3054   0.902   3.162  17.573 -0.7323  1.2150  0.1982
  197MPD1    H3 3055   0.811   3.301  17.395  0.0874  0.9012 -0.4660
  197MPD1     N 3056   1.213   3.454  17.274  0.8030 -0.1439  0.8810
  197MPD1    H5 3057   1.171   3.486  17.187  1.8778 -2.1025 -0.3282
  197MPD1    N1 3058   1.153   3.134  17.632  0.2719 -0.6414  0.2425
  197MPD1    H6 3059   1.246   3.095  17.620 -0.5888 -1.9042 -2.3410
  197MPD1    H7 3060   1.084   3.065  17.660 -0.8308  0.4820  0.3351
  198MPD1     C 3061   2.725   2.628  16.007 -0.1905  0.2350  0.0386
  198MPD1    C1 3062   2.828   2.628  15.912 -0.3675 -0.4670  0.0215
  198MPD1    C2 3063   2.925   2.526  15.919 -0.2101 -0.4094  0.1046
  198MPD1    C3 3064   2.911   2.415  15.998  0.6894 -0.7201  0.3686
  198MPD1    C4 3065   2.805   2.410  16.080 -0.0428  0.5378 -0.2675
  198MPD1    C5 3066   2.718   2.519  16.088 -0.2757  0.3307  0.1652
  198MPD1     H 3067   3.008   2.529  15.851  0.0214  0.4856  0.4270
  198MPD1    H1 3068   2.780   2.321  16.136 -0.6505  0.1525 -1.1503
  198MPD1    H2 3069   2.651   2.708  16.003  1.1851  1.4936 -0.0366
  198MPD1    H3 3070   2.635   2.510  16.158  0.0627 -0.4089  0.4779
  198MPD1     N 3071   3.009   2.312  15.990 -0.2525  0.1166  0.0158
  198MPD1    H5 3072   3.081   2.319  15.919  2.1627 -0.9028  2.3988
  198MPD1    N1 3073   2.859   2.740  15.835  0.2368 -0.2087 -0.5319
  198MPD1    H6 3074   2.902   2.721  15.745  1.2789 -1.8283  0.3117
  198MPD1    H7 3075   2.774   2.793  15.818 -0.2890 -1.4207 -1.6482
  199MPD1     C 3076   0.503   3.099  10.529  0.5701  0.6326  0.2369
  199MPD1    C1 3077   0.430   3.196  10.599  1.2265  0.1236 -0.6911
  199MPD1    C2 3078   0.299   3.217  10.558  0.0286 -0.1734  0.0359
  199MPD1    C3 3079   0.249   3.147  10.448 -0.1055 -0.3062  1.0915
  199MPD1    C4 3080   0.324   3.058  10.379  0.0730 -0.2428 -0.5549
  199MPD1    C5 3081   0.451   3.034  10.422  0.0293 -0.6099  0.3801
  199MPD1     H 3082   0.234   3.286  10.611 -0.6761 -1.6572  1.1090
  199MPD1    H1 3083   0.285   3.011  10.290 -1.6276  0.5836 -0.2602
  199MPD1    H2 3084   0.603   3.071  10.558  0.0511 -0.9849  0.4538
  199MPD1    H3 3085   0.510   2.957  10.373  1.1315  0.3144  0.2723
  199MPD1     N 3086   0.115   3.167  10.395 -0.3007  0.7048 -0.3141
  199MPD1    H5 3087   0.101   3.107  10.315 -1.2397  0.8020 -0.2272
  199MPD1    N1 3088   0.477   3.241  10.724  0.5209  0.7159 -0.3099
  199MPD1    H6 3089   0.578   3.249  10.734  0.7256 -1.6280 -0.6455
  199MPD1    H7 3090   0.438   3.334  10.736 -0.8493 -0.3099  3.2151
  200MPD1     C 3091   3.594   2.904  15.129  0.9205 -1.2168 -0.0169
  200MPD1    C1 3092   3.593   2.866  15.002  0.2402 -0.3442  0.2816
  200MPD1    C2 3093   3.712   2.858  14.940 -0.0087 -0.6120  0.1589
  200MPD1    C3 3094   3.826   2.913  14.994  0.1390 -1.0053 -0.1120
  200MPD1    C4 3095   3.830   2.960  15.121  0.2304 -0.1385 -0.1135
  200MPD1    C5 3096   3.710   2.961  15.181 -0.7391  0.4537 -0.5780
  200MPD1     H 3097   3.719   2.814  14.841 -0.2607 -0.1880 -0.0484
  200MPD1    H1 3098   3.915   2.993  15.179 -0.3638  1.1285  0.0310
  200MPD1    H2 3099   3.507   2.911  15.193  1.3432 -0.3671  0.4560
  200MPD1    H3 3100   3.719   2.992  15.284  1.0585 -0.3116 -0.5083
  200MPD1     N 3101   3.946   2.914  14.917 -0.5610 -0.1230  1.0996
  200MPD1    H5 3102   3.943   2.885  14.820 -0.4702 -2.8793  1.9030
  200MPD1    N1 3103   3.485   2.801  14.955  0.2313 -0.0930  0.1917
  200MPD1    H6 3104   3.405   2.858  14.983 -0.0115 -0.5009  0.3290
  200MPD1    H7 3105   3.484   2.791  14.853  0.0116  3.1974 -0.1262
  201MPD1     C 3106   1.282   1.056  14.057 -0.0189  0.5151  0.0380
  201MPD1    C1 3107   1.418   1.026  14.058 -0.4809 -0.4075  0.1544
  201MPD1    C2 3108   1.501   1.101  13.982 -0.3674  0.2823  0.1094
  201MPD1    C3 3109   1.456   1.205  13.904 -0.1659  0.0196 -0.0087
  201MPD1    C4 3110   1.323   1.241  13.916  0.5373 -0.0558  0.5380
  201MPD1    C5 3111   1.239   1.169  13.993  0.4512 -0.1822  0.0203
  201MPD1     H 3112   1.605   1.072  13.976 -1.0551 -1.8251 -1.5212
  201MPD1    H1 3113   1.286   1.334  13.874 -0.0471 -2.1873 -3.6385
  201MPD1    H2 3114   1.207   0.999  14.111  2.3853 -1.3855  1.3883
  201MPD1    H3 3115   1.132   1.183  13.987  0.3943 -0.9950 -1.0491
  201MPD1     N 3116   1.548   1.281  13.824  0.4949 -0.5798  0.1785
  201MPD1    H5 3117   1.643   1.246  13.824  0.9572  0.6580 -0.7081
  201MPD1    N1 3118   1.460   0.914  14.131  0.7715 -0.0842 -0.6047
  201MPD1    H6 3119   1.556   0.887  14.112  0.5066 -0.0513 -1.9926
  201MPD1    H7 3120   1.399   0.834  14.113  2.7001 -1.2229 -2.2331
  202MPD1     C 3121   1.417   2.099   9.505 -0.4973  0.4055  0.1997
  202MPD1    C1 3122   1.464   2.015   9.600  0.5884  0.2353  0.1010
  202MPD1    C2 3123   1.371   1.932   9.655 -0.8890  0.0308 -0.7267
  202MPD1    C3 3124   1.236   1.962   9.658  0.3941  0.1770  0.0869
  202MPD1    C4 3125   1.192   2.051   9.567  0.0121  0.1377  0.1043
  202MPD1    C5 3126   1.281   2.121   9.488  0.0473  0.4845 -0.4800
  202MPD1     H 3127   1.407   1.850   9.716 -1.4201  1.2005  1.1643
  202MPD1    H1 3128   1.084   2.062   9.567  0.0145  0.1446 -0.3554
  202MPD1    H2 3129   1.478   2.154   9.434 -1.3064  0.5567 -0.3831
  202MPD1    H3 3130   1.243   2.197   9.420 -1.2971 -1.8628 -2.3545
  202MPD1     N 3131   1.142   1.893   9.745  0.2373  0.2904  0.0862
  202MPD1    H5 3132   1.045   1.909   9.720  0.1350  0.0080  0.3028
  202MPD1    N1 3133   1.594   1.963   9.598  0.1119 -0.1453  0.2612
  202MPD1    H6 3134   1.622   1.934   9.691 -1.4344  0.5842  0.9550
  202MPD1    H7 3135   1.660   2.036   9.570 -0.7348  1.7107  3.0827
  203MPD1     C 3136   4.241   1.722  12.771 -0.2427 -0.1201  0.1522
  203MPD1    C1 3137   4.337   1.708  12.874 -0.1290 -1.1009  0.1853
  203MPD1    C2 3138   4.448   1.639  12.840 -1.1129  0.2048 -0.9054
  203MPD1    C3 3139   4.470   1.585  12.711  0.0872  0.6349 -0.1755
  203MPD1    C4 3140   4.377   1.611  12.616 -0.4128 -0.2354  0.0885
  203MPD1    C5 3141   4.269   1.684  12.647  1.3598  0.3289  0.8074
  203MPD1     H 3142   4.524   1.625  12.917  0.5481  0.4430 -2.4937
  203MPD1    H1 3143   4.376   1.577  12.513  1.3088  3.4385 -1.1527
  203MPD1    H2 3144   4.156   1.784  12.797  0.6400  0.2140  2.2209
  203MPD1    H3 3145   4.199   1.707  12.567  1.0249 -2.6659  0.2406
  203MPD1     N 3146   4.593   1.503  12.691  0.3349  0.3324 -0.0105
  203MPD1    H5 3147   4.665   1.507  12.761  0.2985 -0.5885  0.0764
  203MPD1    N1 3148   4.308   1.750  13.002 -0.0917  0.4072  0.0034
  203MPD1    H6 3149   4.382   1.715  13.063 -0.9221 -0.9925  0.2259
  203MPD1    H7 3150   4.226   1.704  13.043 -0.1511 -0.5409 -1.1768
  204MPD1     C 3151   4.284   4.025   0.071 -0.0064 -0.4208  0.2187
  204MPD1    C1 3152   4.371   4.102   0.003  0.5498 -0.1903 -0.0994
  204MPD1    C2 3153   4.472   4.039  17.680 -0.4593  0.1419 -0.5841
  204MPD1    C3 3154   4.479   3.898  17.683  0.2081 -0.2652 -0.6049
  204MPD1    C4 3155   4.386   3.828   0.013 -0.0781 -0.3657  0.2670
  204MPD1    C5 3156   4.297   3.897   0.082 -0.2438 -0.0857 -0.4816
  204MPD1     H 3157   4.545   4.099  17.627  2.0013 -1.8371  0.5870
  204MPD1    H1 3158   4.376   3.720   0.015  1.9172 -0.5634 -0.0040
  204MPD1    H2 3159   4.210   4.078   0.131 -2.0159 -1.9020 -0.9588
  204MPD1    H3 3160   4.223   3.843   0.141  0.2242 -1.2594 -0.9596
  204MPD1     N 3161   4.569   3.830  17.596  0.5116  0.3623 -0.2762
  204MPD1    H5 3162   4.618   3.893  17.533 -1.2099  2.1491  0.1838
  204MPD1    N1 3163   4.366   4.241   0.021 -0.0401  0.2011 -0.4035
  204MPD1    H6 3164   4.271   4.275   0.027 -0.4455 -1.0815  0.4895
  204MPD1    H7 3165   4.413   4.287  17.692  0.8816 -2.1135 -1.2232
  205MPD1     C 3166   0.723   3.133  16.475  0.0256  0.5635 -0.6609
  205MPD1    C1 3167   0.791   3.030  16.529  0.4979  0.2631 -0.2381
  205MPD1    C2 3168   0.733   2.949  16.625  0.6389 -0.4921 -0.0042
  205MPD1    C3 3169   0.596   2.964  16.651  0.1149 -0.4051  0.3622
  205MPD1    C4 3170   0.528   3.064  16.576 -0.0299 -0.1561 -0.1175
  205MPD1    C5 3171   0.589   3.148  16.491  0.4823  0.1578  0.2799
  205MPD1     H 3172   0.798   2.889  16.688 -0.5492 -0.3184  1.3996
  205MPD1    H1 3173   0.423   3.084  16.595  0.1146  1.1594 -0.7220
  205MPD1    H2 3174   0.773   3.201  16.407  0.2040 -0.1797 -1.2726
  205MPD1    H3 3175   0.536   3.232  16.448  1.3238  0.4844 -0.1042
  205MPD1     N 3176   0.525   2.893  16.756  0.2410  0.2189 -0.4348
  205MPD1    H5 3177   0.434   2.928  16.784  1.2223  3.6049 -1.5596
  205MPD1    N1 3178   0.929   3.025  16.514 -0.0441 -1.0348 -0.5318
  205MPD1    H6 3179   0.956   2.927  16.514 -0.7621 -1.2340  0.0173
  205MPD1    H7 3180   0.963   3.070  16.430 -1.4154  1.7570  0.4104
  206MPD1     C 3181   0.179   1.051  16.761 -0.1645  0.5529  0.1376
  206MPD1    C1 3182   0.183   0.951  16.852 -0.1064 -0.3257  0.5506
  206MPD1    C2 3183   0.142   0.823  16.806 -0.4297  0.4619  0.0146
  206MPD1    C3 3184   0.103   0.799  16.678  0.2965  0.0718  0.1737
  206MPD1    C4 3185   0.095   0.899  16.597  0.3432  0.3250 -0.2385
  206MPD1    C5 3186   0.132   1.023  16.635 -0.2746 -0.2992  0.4670
  206MPD1     H 3187   0.149   0.745  16.881  2.0349 -0.3908 -1.1255
  206MPD1    H1 3188   0.074   0.885  16.492 -3.1678  3.0589  0.0915
  206MPD1    H2 3189   0.190   1.156  16.788  0.8625  0.7114 -0.9006
  206MPD1    H3 3190   0.115   1.103  16.564 -0.2612 -3.0804 -2.6657
  206MPD1     N 3191   0.069   0.670  16.628 -0.3790 -0.3181 -0.7579
  206MPD1    H5 3192   0.039   0.654  16.532  1.4476 -0.7066 -1.2563
  206MPD1    N1 3193   0.213   0.980  16.983  0.9676 -0.1594  0.2479
  206MPD1    H6 3194   0.260   0.907  17.035  1.6212 -0.2403 -0.4645
  206MPD1    H7 3195   0.284   1.052  16.979  1.0827 -0.4191 -2.0104
  207MPD1     C 3196   1.328   2.682   9.902 -0.1279 -0.6537 -0.4457
  207MPD1    C1 3197   1.421   2.743   9.827 -0.4294  0.0640 -0.5372
  207MPD1    C2 3198   1.547   2.757   9.878 -0.2659  0.1494  0.5758
  207MPD1    C3 3199   1.584   2.708  10.006 -0.2590 -0.2574 -0.3447
  207MPD1    C4 3200   1.487   2.632  10.073 -0.1818 -0.5714 -0.3044
  207MPD1    C5 3201   1.364   2.620  10.016  0.2565  0.2714 -1.1118
  207MPD1     H 3202   1.609   2.831   9.827 -1.4282 -1.2918 -2.9166
  207MPD1    H1 3203   1.511   2.578  10.163 -0.3567  2.2858  1.4430
  207MPD1    H2 3204   1.223   2.679   9.873 -0.4135  0.2552  0.4686
  207MPD1    H3 3205   1.288   2.564  10.069  1.3703 -0.9271 -0.7653
  207MPD1     N 3206   1.710   2.733  10.064  0.2974  0.4095  0.0514
  207MPD1    H5 3207   1.718   2.701  10.160  0.2197  0.8829  0.2151
  207MPD1    N1 3208   1.380   2.823   9.717 -0.2173  0.2515 -0.1386
  207MPD1    H6 3209   1.440   2.794   9.639  0.3546  0.8121  0.0936
  207MPD1    H7 3210   1.285   2.802   9.687 -0.8365  3.5328 -0.5037
  208MPD1     C 3211   1.333   2.436  17.092  0.1261 -0.0707 -0.1161
  208MPD1    C1 3212   1.197   2.459  17.097 -0.5183 -0.2327 -0.0347
  208MPD1    C2 3213   1.122   2.373  17.172  0.2589  0.3392  0.2754
  208MPD1    C3 3214   1.178   2.281  17.251 -0.0001 -0.1955  0.2535
  208MPD1    C4 3215   1.314   2.260  17.256 -0.2506  0.0819  0.1892
  208MPD1    C5 3216   1.391   2.342  17.172  0.0553 -0.5116  0.5457
  208MPD1     H 3217   1.015   2.389  17.170  0.1582 -0.2948  0.6121
  208MPD1    H1 3218   1.360   2.168  17.290  2.4671  1.8150  1.1916
  208MPD1    H2 3219   1.397   2.485  17.019  0.0055 -0.1684 -0.2901
  208MPD1    H3 3220   1.495   2.323  17.150 -0.7667 -2.2450 -1.9859
  208MPD1     N 3221   1.085   2.194  17.310 -1.0305 -0.0023 -0.0645
  208MPD1    H5 3222   0.987   2.202  17.284 -0.9217  0.0223 -0.4612
  208MPD1    N1 3223   1.141   2.535  16.988  0.2910  0.3943 -0.1029
  208MPD1    H6 3224   1.045   2.565  16.999 -0.8646 -3.4688  0.3526
  208MPD1    H7 3225   1.194   2.621  16.982 -0.3365  0.9332  2.2427
  209MPD1     C 3226   2.243   1.622  11.225  0.4982  0.9065 -0.1852
  209MPD1    C1 3227   2.157   1.694  11.147  0.3534  0.3172 -0.5532
  209MPD1    C2 3228   2.179   1.831  11.129  0.5788 -0.2370  0.8974
  209MPD1    C3 3229   2.287   1.896  11.190  0.0288  0.1387 -0.7607
  209MPD1    C4 3230   2.386   1.829  11.256 -0.3051 -0.2936  0.3391
  209MPD1    C5 3231   2.353   1.693  11.272  0.3672  0.1053  0.4392
  209MPD1     H 3232   2.114   1.886  11.063  1.0724 -0.2747  0.3901
  209MPD1    H1 3233   2.473   1.876  11.300  0.8833 -1.2034 -1.0677
  209MPD1    H2 3234   2.242   1.518  11.254 -0.1366  1.3036  1.1939
  209MPD1    H3 3235   2.431   1.626  11.306 -2.0216 -2.7045  0.3636
  209MPD1     N 3236   2.298   2.032  11.167 -0.4645 -0.1753 -0.7858
  209MPD1    H5 3237   2.231   2.062  11.097 -0.7524 -0.1626 -0.5053
  209MPD1    N1 3238   2.060   1.626  11.076  0.3087  0.0194  0.6794
  209MPD1    H6 3239   1.969   1.672  11.071  0.4242  0.6416  4.0922
  209MPD1    H7 3240   2.057   1.536  11.123  1.7946 -1.4871 -2.0981
  210MPD1     C 3241   2.519   2.844  11.701  0.0183 -0.0327 -0.7907
  210MPD1    C1 3242   2.493   2.717  11.733 -0.5123 -0.0588  0.2083
  210MPD1    C2 3243   2.475   2.629  11.624  0.4494 -0.4386 -0.4918
  210MPD1    C3 3244   2.458   2.673  11.498  0.0256  0.0060 -0.3524
  210MPD1    C4 3245   2.474   2.805  11.466 -0.7843  0.2151 -0.1288
  210MPD1    C5 3246   2.502   2.892  11.569  0.7396 -0.3581 -0.9509
  210MPD1     H 3247   2.476   2.522  11.639  0.5974 -0.4395 -0.5085
  210MPD1    H1 3248   2.457   2.847  11.368  0.3863  0.2248 -0.3277
  210MPD1    H2 3249   2.530   2.918  11.780  1.2853 -0.7059 -0.3419
  210MPD1    H3 3250   2.507   2.996  11.542  0.0453 -0.1413 -0.2415
  210MPD1     N 3251   2.427   2.575  11.395 -0.7065 -0.0588  0.4624
  210MPD1    H5 3252   2.436   2.477  11.421 -0.2047 -0.6134 -1.7797
  210MPD1    N1 3253   2.535   2.668  11.859 -0.0391 -0.3317 -1.0670
  210MPD1    H6 3254   2.473   2.589  11.879  0.8013 -0.5173  0.7202
  210MPD1    H7 3255   2.522   2.739  11.930  0.0316 -0.3653 -1.0208
  211MPD1     C 3256   1.322   2.848  16.751  0.4193 -0.4191  0.3719
  211MPD1    C1 3257   1.214   2.803  16.825  0.3577  0.2218  0.3548
  211MPD1    C2 3258   1.094   2.763  16.759 -0.1250  0.9511 -0.0756
  211MPD1    C3 3259   1.092   2.750  16.623 -0.0219  0.7826 -0.4636
  211MPD1    C4 3260   1.207   2.795  16.548 -0.2523 -0.4788 -0.5280
  211MPD1    C5 3261   1.323   2.834  16.614 -0.0461 -0.0388  0.0019
  211MPD1     H 3262   1.009   2.738  16.822  0.5289  0.8362  0.7719
  211MPD1    H1 3263   1.201   2.792  16.440 -0.6959  0.2320 -0.5240
  211MPD1    H2 3264   1.404   2.906  16.793  0.4744  0.4613 -0.9703
  211MPD1    H3 3265   1.400   2.882  16.555 -1.5026  1.2951 -0.7911
  211MPD1     N 3266   0.973   2.712  16.562 -0.1530 -0.4052  0.3550
  211MPD1    H5 3267   0.899   2.680  16.624 -1.9367  0.6453 -1.2573
  211MPD1    N1 3268   1.212   2.823  16.960  0.1168 -0.0462  0.2169
  211MPD1    H6 3269   1.135   2.786  17.015 -0.5389 -0.5361 -1.0563
  211MPD1    H7 3270   1.299   2.791  17.003  0.4633  1.4011  0.5882
  212MPD1     C 3271   4.522   0.891  16.694  0.0040  0.5675  0.2656
  212MPD1    C1 3272   4.462   0.786  16.629  0.2396 -0.0053 -0.5581
  212MPD1    C2 3273   4.403   0.686  16.704 -0.2245 -0.2310 -0.1156
  212MPD1    C3 3274   4.423   0.677  16.838  0.5506  0.2297 -0.0083
  212MPD1    C4 3275   4.495   0.775  16.899 -0.2138  0.4234  0.7745
  212MPD1    C5 3276   4.538   0.888  16.831 -0.2826 -0.1202 -0.3258
  212MPD1     H 3277   4.343   0.611  16.652 -3.3987  1.7296  0.7245
  212MPD1    H1 3278   4.506   0.774  17.007 -2.3956 -0.0229  0.9923
  212MPD1    H2 3279   4.557   0.978  16.641  0.0588  1.1461  1.2608
  212MPD1    H3 3280   4.587   0.973  16.878 -1.0698  0.5136 -0.6717
  212MPD1     N 3281   4.363   0.586  16.931 -0.3230 -0.7393 -0.8712
  212MPD1    H5 3282   4.377   0.611  17.028 -1.4007 -2.5570 -0.2592
  212MPD1    N1 3283   4.432   0.801  16.496 -0.3145  0.6562 -0.1966
  212MPD1    H6 3284   4.434   0.717  16.438 -2.4542  0.4793 -0.0092
  212MPD1    H7 3285   4.495   0.862  16.445  0.3110 -1.1487 -1.5679
  213MPD1     C 3286   2.545   1.294  15.533  0.0236  0.4318 -0.0762
  213MPD1    C1 3287   2.516   1.422  15.483 -0.4102  0.1731  0.4424
  213MPD1    C2 3288   2.424   1.420  15.377 -0.1367 -0.4425 -0.7728
  213MPD1    C3 3289   2.328   1.320  15.354  0.4693 -0.0201  1.0121
  213MPD1    C4 3290   2.342   1.208  15.435 -0.5763  0.4516  0.1994
  213MPD1    C5 3291   2.454   1.193  15.522 -0.3193 -0.4073  0.0052
  213MPD1     H 3292   2.423   1.504  15.308  0.6651  1.1834  1.1835
  213MPD1    H1 3293   2.268   1.129  15.424  0.0838 -0.3645  1.6340
  213MPD1    H2 3294   2.619   1.284  15.611 -0.8421 -3.0463  0.2967
  213MPD1    H3 3295   2.469   1.101  15.577 -0.8088 -0.4271  0.1105
  213MPD1     N 3296   2.241   1.336  15.250  0.0310  0.4091 -0.2647
  213MPD1    H5 3297   2.259   1.413  15.186  1.6812  1.3583  1.3112
  213MPD1    N1 3298   2.616   1.516  15.487 -0.2272  0.1383 -0.3587
  213MPD1    H6 3299   2.663   1.510  15.577 -2.7931 -1.2840  0.8669
  213MPD1    H7 3300   2.586   1.611  15.466 -1.2406 -0.2063 -0.4650
  214MPD1     C 3301   1.607   0.805  14.536 -0.3021  0.1609  0.9197
  214MPD1    C1 3302   1.570   0.823  14.671  0.1397  0.0160 -0.4389
  214MPD1    C2 3303   1.631   0.914  14.747  1.0303  0.0360  0.0434
  214MPD1    C3 3304   1.726   0.999  14.700 -0.1523 -0.1746 -0.4971
  214MPD1    C4 3305   1.753   0.999  14.565  0.4478  0.0515 -0.5717
  214MPD1    C5 3306   1.698   0.899  14.485 -0.6838  0.1405 -0.4081
  214MPD1     H 3307   1.620   0.910  14.854  1.4814 -0.5757  0.0650
  214MPD1    H1 3308   1.836   1.057  14.526  1.0149 -0.0961  0.4113
  214MPD1    H2 3309   1.571   0.732  14.466 -0.5184  0.9253  0.2340
  214MPD1    H3 3310   1.733   0.898  14.383 -2.0147 -2.4930 -0.8284
  214MPD1     N 3311   1.821   1.071  14.785  0.3633 -0.0618 -0.6955
  214MPD1    H5 3312   1.904   1.113  14.746  0.4538 -0.1750 -0.6237
  214MPD1    N1 3313   1.484   0.726  14.727 -0.2400 -0.3212 -0.3336
  214MPD1    H6 3314   1.441   0.685  14.644 -1.1852  1.6927 -0.8484
  214MPD1    H7 3315   1.413   0.774  14.782  1.3601  0.4635  1.0424
  215MPD1     C 3316   1.044   1.620  11.122 -0.0566 -0.2478  0.3515
  215MPD1    C1 3317   1.101   1.700  11.216 -0.3517 -0.3131  0.7432
  215MPD1    C2 3318   1.211   1.774  11.175 -0.3233  0.0793 -0.0192
  215MPD1    C3 3319   1.263   1.772  11.049  0.0037  1.3044  0.1228
  215MPD1    C4 3320   1.207   1.686  10.957  0.5418  0.0395 -0.0682
  215MPD1    C5 3321   1.099   1.607  10.998 -0.7108  0.2263 -0.2891
  215MPD1     H 3322   1.251   1.846  11.245 -0.5953 -0.9634  1.2166
  215MPD1    H1 3323   1.243   1.680  10.854 -1.6824 -2.9185 -0.6946
  215MPD1    H2 3324   0.958   1.558  11.145 -0.4927  1.1857  2.6290
  215MPD1    H3 3325   1.043   1.535  10.940 -1.0347  0.8323 -0.7359
  215MPD1     N 3326   1.376   1.850  11.013  0.0901  0.4808  0.0482
  215MPD1    H5 3327   1.418   1.895  11.094  2.1083 -3.5400  1.2439
  215MPD1    N1 3328   1.024   1.728  11.336  0.1887  0.2632 -0.1091
  215MPD1    H6 3329   1.065   1.766  11.422  1.5453 -1.2849 -0.0596
  215MPD1    H7 3330   0.950   1.659  11.348  0.1710 -0.0320 -1.8868
  216MPD1     C 3331   0.279   0.584  17.719  0.0015  0.1333 -0.4176
  216MPD1    C1 3332   0.255   0.464   0.042  0.3122 -0.1341 -0.0114
  216MPD1    C2 3333   0.252   0.347  17.723  0.3873  0.1422 -0.5475
  216MPD1    C3 3334   0.287   0.349  17.584 -0.0282  1.1069 -0.4646
  216MPD1    C4 3335   0.338   0.465  17.526 -0.2703 -0.0425  0.2787
  216MPD1    C5 3336   0.333   0.583  17.599 -0.3524  1.0169  0.7830
  216MPD1     H 3337   0.215   0.254   0.018  2.1805 -0.1930  0.2866
  216MPD1    H1 3338   0.371   0.468  17.423  3.8796  0.5274  1.6305
  216MPD1    H2 3339   0.270   0.684   0.012 -0.3383 -0.8320  1.8901
  216MPD1    H3 3340   0.339   0.675  17.542 -1.2400  1.5242  1.5152
  216MPD1     N 3341   0.301   0.223  17.523 -0.3593  0.1765  0.5599
  216MPD1    H5 3342   0.264   0.149  17.582 -2.1120  0.3725 -0.2674
  216MPD1    N1 3343   0.202   0.470   0.175 -0.0883 -0.0361  0.4140
  216MPD1    H6 3344   0.232   0.390   0.230 -0.6054 -1.4587 -1.3821
  216MPD1    H7 3345   0.253   0.544   0.223 -1.5482 -0.4105  2.5381
  217MPD1     C 3346   3.097   0.927  10.320  0.5546  1.2572 -0.7614
  217MPD1    C1 3347   3.136   0.846  10.213 -0.4347 -0.2148  0.4970
  217MPD1    C2 3348   3.253   0.880  10.150  0.6311  0.0652  0.0602
  217MPD1    C3 3349   3.331   0.986  10.184  0.1606 -0.0193 -0.4355
  217MPD1    C4 3350   3.297   1.061  10.290  0.8852 -0.7787  0.1025
  217MPD1    C5 3351   3.179   1.031  10.356 -0.0698  0.1826 -0.0798
  217MPD1     H 3352   3.291   0.808  10.078  0.8356 -1.5469  1.7937
  217MPD1    H1 3353   3.365   1.141  10.320  1.2661 -0.8574 -0.5552
  217MPD1    H2 3354   2.999   0.916  10.365  0.5757  0.1331 -0.9973
  217MPD1    H3 3355   3.150   1.107  10.428 -1.9954  0.7361 -1.4305
  217MPD1     N 3356   3.455   1.012  10.124  0.1294 -0.0312 -0.4047
  217MPD1    H5 3357   3.511   1.083  10.171  1.4023 -1.0689 -0.3505
  217MPD1    N1 3358   3.053   0.750  10.162  0.5280  0.4927 -0.2830
  217MPD1    H6 3359   2.981   0.731  10.231  0.6591  0.2222 -0.2206
  217MPD1    H7 3360   3.098   0.665  10.127 -0.6939  1.2870 -3.8263
  218MPD1     C 3361   1.411   2.265  12.968 -0.2791 -0.2017 -0.1693
  218MPD1    C1 3362   1.465   2.137  12.965 -0.0909 -0.3272 -0.6283
  218MPD1    C2 3363   1.589   2.123  12.907  0.2883  0.0573 -0.6842
  218MPD1    C3 3364   1.651   2.223  12.833  0.0014 -0.4835  0.0181
  218MPD1    C4 3365   1.591   2.345  12.827  0.3546 -0.5661  0.1916
  218MPD1    C5 3366   1.476   2.366  12.898  0.2731 -0.3960 -0.4553
  218MPD1     H 3367   1.642   2.030  12.927  2.1357  1.1800 -0.3829
  218MPD1    H1 3368   1.623   2.424  12.760 -0.6210 -0.0930  0.2804
  218MPD1    H2 3369   1.319   2.287  13.022  1.1158  1.2223  1.5869
  218MPD1    H3 3370   1.434   2.466  12.905  3.6281  1.0381 -0.7960
  218MPD1     N 3371   1.769   2.187  12.762 -0.0849 -0.8318  0.4451
  218MPD1    H5 3372   1.807   2.093  12.751  2.8143  0.1214  2.2161
  218MPD1    N1 3373   1.417   2.044  13.057  0.0432 -0.4502  0.3605
  218MPD1    H6 3374   1.321   2.061  13.085  0.4547  0.7797  0.9718
  218MPD1    H7 3375   1.436   1.951  13.019  1.5103 -0.6499  1.5624
  219MPD1     C 3376   2.234   2.639  12.002 -1.0288 -0.6042  0.0805
  219MPD1    C1 3377   2.266   2.500  11.987  0.3657  0.8963 -0.1957
  219MPD1    C2 3378   2.236   2.416  12.096 -0.0526 -0.0534  0.1682
  219MPD1    C3 3379   2.163   2.459  12.199  0.0085  0.1776 -0.1456
  219MPD1    C4 3380   2.127   2.587  12.215  0.0427  0.6560 -0.7177
  219MPD1    C5 3381   2.160   2.672  12.111 -0.2921  0.5823  0.4206
  219MPD1     H 3382   2.246   2.309  12.090 -0.7187 -0.2502  2.7268
  219MPD1    H1 3383   2.056   2.626  12.287  0.5752 -1.3467  0.8944
  219MPD1    H2 3384   2.278   2.709  11.930  0.0315  0.4156  1.7156
  219MPD1    H3 3385   2.132   2.776  12.105  3.0499  1.2803 -3.2551
  219MPD1     N 3386   2.122   2.375  12.301  0.4342 -0.3109 -0.0011
  219MPD1    H5 3387   2.054   2.418  12.363  0.9927  2.5985 -1.4000
  219MPD1    N1 3388   2.334   2.456  11.874 -0.3756  0.2213  0.3767
  219MPD1    H6 3389   2.332   2.517  11.792  0.8418  1.2709  1.1333
  219MPD1    H7 3390   2.298   2.366  11.844  1.5902 -0.2455 -0.5793
  220MPD1     C 3391   1.317   2.645   9.249 -0.3772 -0.4565 -0.3657
  220MPD1    C1 3392   1.415   2.556   9.283 -0.0537  0.2211 -0.1207
  220MPD1    C2 3393   1.406   2.505   9.414 -0.1271 -0.3170  0.7929
  220MPD1    C3 3394   1.290   2.521   9.491  0.3802  0.2174 -0.0725
  220MPD1    C4 3395   1.189   2.603   9.448 -0.3631  0.2686 -0.1781
  220MPD1    C5 3396   1.211   2.672   9.331 -0.7168 -0.1452  0.4832
  220MPD1     H 3397   1.471   2.425   9.450  2.6690  0.3378 -2.8197
  220MPD1    H1 3398   1.118   2.639   9.522  0.2656 -0.7385  0.9133
  220MPD1    H2 3399   1.324   2.717   9.167 -2.8770 -1.0911 -1.1236
  220MPD1    H3 3400   1.137   2.746   9.302  0.1177  1.2273  1.7971
  220MPD1     N 3401   1.288   2.448   9.613  0.0529  0.2199 -0.5118
  220MPD1    H5 3402   1.379   2.408   9.634 -0.7940 -1.9811 -1.1259
  220MPD1    N1 3403   1.535   2.556   9.202 -0.3189 -0.2555  0.5371
  220MPD1    H6 3404   1.496   2.553   9.108  1.1342 -0.6382 -0.0545
  220MPD1    H7 3405   1.592   2.472   9.212  1.2634  0.9247  1.4188
  221MPD1     C 3406   0.540   2.062  15.959 -0.3223 -0.5532 -0.2605
  221MPD1    C1 3407   0.434   1.968  15.945 -0.1835 -0.4381 -0.3679
  221MPD1    C2 3408   0.407   1.881  16.047  0.3253  0.4051  0.2081
  221MPD1    C3 3409   0.465   1.901  16.172 -0.1839 -0.3995  0.3472
  221MPD1    C4 3410   0.567   1.992  16.181  1.1051 -0.1561 -0.5872
  221MPD1    C5 3411   0.612   2.064  16.079  0.0018  0.7611 -0.7602
  221MPD1     H 3412   0.337   1.804  16.020  0.5705  0.8433 -1.7153
  221MPD1    H1 3413   0.633   1.989  16.267  1.3782 -3.6433 -0.9255
  221MPD1    H2 3414   0.582   2.124  15.881  2.5390 -2.6238 -0.3497
  221MPD1    H3 3415   0.697   2.130  16.085  0.3127  0.3040 -0.1329
  221MPD1     N 3416   0.425   1.824  16.280  0.7234  0.1668  0.0139
  221MPD1    H5 3417   0.479   1.836  16.365 -0.1930  1.9870  0.3429
  221MPD1    N1 3418   0.390   1.946  15.814  0.1242  0.6052  0.4104
  221MPD1    H6 3419   0.394   2.035  15.765  1.3975  1.2803  1.7425
  221MPD1    H7 3420   0.298   1.903  15.799 -0.0520  0.8216  0.8691
  222MPD1     C 3421   4.699   0.311  17.341  0.0456 -0.3219 -0.2164
  222MPD1    C1 3422   4.626   0.359  17.239 -0.1752  0.7487  0.5512
  222MPD1    C2 3423   4.569   0.481  17.248  0.0624 -0.4967  0.4991
  222MPD1    C3 3424   4.605   0.571  17.342 -0.4245  0.2562 -0.3498
  222MPD1    C4 3425   4.685   0.528  17.439 -0.1514  0.1807  0.0195
  222MPD1    C5 3426   4.725   0.400  17.439 -0.4170 -0.2534 -0.5523
  222MPD1     H 3427   4.501   0.511  17.169 -0.3382 -0.1850  0.9641
  222MPD1    H1 3428   4.721   0.593  17.518 -0.1506  0.9050 -0.5681
  222MPD1    H2 3429   4.736   0.213  17.366  0.1304  0.2665  1.9024
  222MPD1    H3 3430   0.045   0.364  17.524 -1.4955 -1.6842 -0.4196
  222MPD1     N 3431   4.557   0.709  17.347 -0.7384 -0.3217  0.2665
  222MPD1    H5 3432   4.589   0.770  17.421  0.5563  0.8167 -1.2348
  222MPD1    N1 3433   4.575   0.266  17.152 -0.7848  0.2822  0.0680
  222MPD1    H6 3434   4.626   0.181  17.131  0.1050  0.9116 -0.2988
  222MPD1    H7 3435   4.546   0.313  17.066 -1.2868  2.5344  1.4620
  223MPD1     C 3436   3.637   1.081  17.375 -0.9620 -0.1163  0.2009
  223MPD1    C1 3437   3.682   0.981  17.297  0.5452 -0.7314 -0.3531
  223MPD1    C2 3438   3.820   0.966  17.281  0.1293  0.1925  0.7473
  223MPD1    C3 3439   3.900   1.042  17.361 -0.5893  0.3552  0.1857
  223MPD1    C4 3440   3.851   1.138  17.448  0.4461 -0.3881 -0.3787
  223MPD1    C5 3441   3.716   1.159  17.453  0.0383 -0.2291 -0.3263
  223MPD1     H 3442   3.860   0.897  17.208  1.9619  0.5971  1.3585
  223MPD1    H1 3443   3.916   1.202  17.507 -0.0468  1.0271 -1.3767
  223MPD1    H2 3444   3.530   1.096  17.374 -0.7164  1.4613 -2.1462
  223MPD1    H3 3445   3.672   1.237  17.514 -0.8376 -2.2701  1.6622
  223MPD1     N 3446   4.039   1.030  17.338 -0.3715 -0.0900  0.0975
  223MPD1    H5 3447   4.064   0.973  17.258  2.9140  0.9440  0.4145
  223MPD1    N1 3448   3.594   0.915  17.212  0.4888  0.0053  0.8237
  223MPD1    H6 3449   3.498   0.914  17.243  0.2215  0.7944  0.0457
  223MPD1    H7 3450   3.623   0.825  17.175  0.7443  1.2464 -2.0409
  224MPD1     C 3451   3.406   1.281   9.875 -0.0121 -0.6864 -0.2411
  224MPD1    C1 3452   3.441   1.350   9.993 -0.3260  0.2133 -0.0189
  224MPD1    C2 3453   3.558   1.434   9.996  0.2534 -0.2275  0.6565
  224MPD1    C3 3454   3.643   1.433   9.890 -0.3904 -0.1056  0.0758
  224MPD1    C4 3455   3.610   1.365   9.772  1.0096  0.0584 -0.2729
  224MPD1    C5 3456   3.490   1.289   9.765 -0.0646  0.5900 -0.0832
  224MPD1     H 3457   3.563   1.496  10.085 -0.6957  0.6405  0.1099
  224MPD1    H1 3458   3.682   1.364   9.692  2.3134  0.1535  0.8975
  224MPD1    H2 3459   3.322   1.213   9.868 -0.9992  0.5566 -0.2791
  224MPD1    H3 3460   3.458   1.231   9.679 -0.8034 -2.6895  2.4221
  224MPD1     N 3461   3.769   1.498   9.898  0.4755 -0.1552 -0.3975
  224MPD1    H5 3462   3.828   1.477   9.818 -0.3344  1.6189 -1.4594
  224MPD1    N1 3463   3.364   1.343  10.111  0.3477  0.0904  0.0289
  224MPD1    H6 3464   3.415   1.390  10.185  0.8032  0.4570 -0.5212
  224MPD1    H7 3465   3.337   1.246  10.129  1.3021 -0.3828 -1.0943
  225MPD1     C 3466   2.061   3.259  12.942 -0.4345 -0.0086 -0.7636
  225MPD1    C1 3467   2.066   3.162  12.840 -0.2533 -0.0736 -0.3803
  225MPD1    C2 3468   1.962   3.071  12.816 -0.3420 -0.0770  0.6202
  225MPD1    C3 3469   1.850   3.085  12.893 -0.2733 -0.3378 -0.3494
  225MPD1    C4 3470   1.849   3.169  13.005 -0.3094  0.3945  0.5146
  225MPD1    C5 3471   1.953   3.261  13.025  0.5223  0.8154 -0.1907
  225MPD1     H 3472   1.972   3.000  12.735  0.2090  0.1702  0.4675
  225MPD1    H1 3473   1.763   3.181  13.069 -0.3100  1.5463  0.2962
  225MPD1    H2 3474   2.149   3.313  12.975  0.2613 -1.6185  0.0200
  225MPD1    H3 3475   1.945   3.321  13.115 -3.1324 -1.1154  0.7881
  225MPD1     N 3476   1.737   3.010  12.854  0.0613  0.2585 -0.2558
  225MPD1    H5 3477   1.651   3.025  12.904 -1.2248 -1.8091 -1.8673
  225MPD1    N1 3478   2.179   3.158  12.756 -0.3591 -0.3393  0.6832
  225MPD1    H6 3479   2.155   3.146  12.658  0.5872 -0.6911  0.4960
  225MPD1    H7 3480   2.230   3.247  12.763  1.0246 -1.1745  1.3443
  226MPD1     C 3481   3.155   2.484  10.387 -0.1043  0.1049  0.1310
  226MPD1    C1 3482   3.227   2.386  10.321  0.6570 -0.2263 -0.6455
  226MPD1    C2 3483   3.338   2.413  10.256 -0.3174 -0.3419  0.2764
  226MPD1    C3 3484   3.393   2.540  10.267 -0.1839  0.2366 -0.4485
  226MPD1    C4 3485   3.326   2.640  10.336  0.7896  0.3652 -0.8370
  226MPD1    C5 3486   3.206   2.615  10.392  0.3918 -0.3534 -0.2365
  226MPD1     H 3487   3.392   2.339  10.198  2.6905  1.2067  1.0636
  226MPD1    H1 3488   3.357   2.743  10.324  0.4389  0.5172 -0.4154
  226MPD1    H2 3489   3.053   2.472  10.422 -0.0542  0.8003  0.4971
  226MPD1    H3 3490   3.158   2.691  10.452  0.8749 -0.8045  0.7335
  226MPD1     N 3491   3.517   2.563  10.206 -0.3710  0.1086 -0.5622
  226MPD1    H5 3492   3.553   2.486  10.151  1.1321 -0.4082  1.1465
  226MPD1    N1 3493   3.163   2.262  10.298  0.0153 -0.3397 -0.0802
  226MPD1    H6 3494   3.231   2.188  10.283 -0.6344 -1.3186  1.7060
  226MPD1    H7 3495   3.103   2.232  10.375  0.5003 -0.6054  0.1941
  227MPD1     C 3496   4.372   3.212   9.961  0.1494  0.4923  1.0889
  227MPD1    C1 3497   4.418   3.082   9.953 -0.0961 -0.2288  0.3669
  227MPD1    C2 3498   4.318   2.983   9.970 -0.2467  0.1488 -0.1364
  227MPD1    C3 3499   4.189   3.012  10.006  0.1775  0.1439 -0.2573
  227MPD1    C4 3500   4.153   3.147  10.027  0.3626  0.3877 -0.1694
  227MPD1    C5 3501   4.243   3.242   9.996  0.5722  0.4520 -0.4724
  227MPD1     H 3502   4.349   2.879   9.966  1.7807  0.7837 -0.4399
  227MPD1    H1 3503   4.052   3.170  10.057  0.3365 -1.9859  1.5563
  227MPD1    H2 3504   4.437   3.296   9.943  2.0672 -0.9641  1.1911
  227MPD1    H3 3505   4.218   3.346  10.008 -0.9992  0.1925 -1.4940
  227MPD1     N 3506   4.098   2.902  10.023 -0.5520 -0.0100 -0.6888
  227MPD1    H5 3507   4.139   2.811  10.004 -2.8304 -1.5247  1.6186
  227MPD1    N1 3508   4.549   3.063   9.903 -0.0819  0.1896 -0.1746
  227MPD1    H6 3509   4.596   3.154   9.902 -1.0054  0.6781  0.6787
  227MPD1    H7 3510   4.600   2.989   9.950  3.9304  1.7111 -2.0571
  228MPD1     C 3511   2.975   0.689  12.414 -0.4264  0.1594 -0.8728
  228MPD1    C1 3512   2.874   0.785  12.411 -0.6516 -0.5529  0.8771
  228MPD1    C2 3513   2.770   0.770  12.503 -0.4727 -0.0898  0.5854
  228MPD1    C3 3514   2.740   0.649  12.570  0.1905  0.1779  0.1439
  228MPD1    C4 3515   2.834   0.549  12.557 -0.2733  0.0290 -0.2604
  228MPD1    C5 3516   2.952   0.564  12.483  0.0280 -0.0807  0.2340
  228MPD1     H 3517   2.711   0.857  12.527  0.1976  0.8840 -1.2978
  228MPD1    H1 3518   2.837   0.463  12.623 -1.3671 -0.2702 -0.6020
  228MPD1    H2 3519   3.067   0.703  12.359  0.1652  1.1792  0.3967
  228MPD1    H3 3520   3.033   0.493  12.496  0.5152  0.0256 -2.2567
  228MPD1     N 3521   2.615   0.633  12.646 -0.0811 -0.1522  0.3287
  228MPD1    H5 3522   2.556   0.716  12.652 -0.3607 -0.3782  0.6616
  228MPD1    N1 3523   2.895   0.908  12.345  0.2378 -0.0321 -0.3593
  228MPD1    H6 3524   2.961   0.890  12.269  0.1403  0.4850 -0.5708
  228MPD1    H7 3525   2.812   0.946  12.301 -0.8259 -0.8513  0.9797
  229MPD1     C 3526   3.531   4.517  14.095  0.2849  0.5360 -0.3783
  229MPD1    C1 3527   3.601   4.406  14.075 -0.1835 -0.4848  0.0520
  229MPD1    C2 3528   3.622   4.322  14.178  1.0375  0.7986  0.0601
  229MPD1    C3 3529   3.547   4.334  14.295 -0.1149  0.1616 -0.0585
  229MPD1    C4 3530   3.468   4.446  14.315 -0.4536 -0.1543 -0.8015
  229MPD1    C5 3531   3.475   4.539  14.216 -0.2440 -0.3436  0.1924
  229MPD1     H 3532   3.679   4.235  14.148  1.0727  0.8635 -0.0591
  229MPD1    H1 3533   3.418   4.459  14.410 -2.9786 -1.6332 -1.9127
  229MPD1    H2 3534   3.522   4.598  14.024  0.2097  1.1736  0.3574
  229MPD1    H3 3535   3.424   4.633  14.226  1.8519  0.9019 -0.7070
  229MPD1     N 3536   3.561   4.240  14.400  0.5139 -0.1193  0.2617
  229MPD1    H5 3537   3.505   4.260  14.482  1.5111  2.1573  0.3805
  229MPD1    N1 3538   3.681   4.395  13.962 -0.0010 -0.2257  0.2415
  229MPD1    H6 3539   3.697   4.296  13.946  1.2677 -0.1581  1.0599
  229MPD1    H7 3540   3.636   4.420  13.875  0.2572  1.6269  0.6205
  230MPD1     C 3541   3.224   4.214  15.211  0.7009 -0.4479 -0.4086
  230MPD1    C1 3542   3.232   4.303  15.105  0.2314  0.2189 -0.6219
  230MPD1    C2 3543   3.275   4.261  14.986 -0.2707 -0.3424  0.0301
  230MPD1    C3 3544   3.312   4.128  14.962 -0.3873  0.1019 -0.3335
  230MPD1    C4 3545   3.274   4.037  15.061 -0.8885  0.0508 -0.5147
  230MPD1    C5 3546   3.244   4.083  15.185  0.7884 -0.3939 -0.0476
  230MPD1     H 3547   3.308   4.334  14.912 -0.3424 -1.1529 -0.8115
  230MPD1    H1 3548   3.292   3.930  15.064  0.5073  0.2839 -0.5389
  230MPD1    H2 3549   3.189   4.240  15.310 -0.0324  1.9310 -1.2807
  230MPD1    H3 3550   3.230   4.017  15.270 -1.0763  1.0403  0.7467
  230MPD1     N 3551   3.379   4.093  14.840 -0.3826  0.1193 -0.5569
  230MPD1    H5 3552   3.376   4.162  14.766 -0.3693  0.9761  0.2406
  230MPD1    N1 3553   3.231   4.443  15.132  0.1940 -0.2287 -1.1642
  230MPD1    H6 3554   3.195   4.499  15.055  0.5599  0.8097 -0.5687
  230MPD1    H7 3555   3.158   4.458  15.202  0.1747 -2.9277 -0.5917
  231MPD1     C 3556   1.739   1.223  15.448 -0.1023  0.2250  0.7088
  231MPD1    C1 3557   1.669   1.191  15.336  0.0023  0.3045  0.3849
  231MPD1    C2 3558   1.658   1.289  15.239  0.3152  0.3799  0.4850
  231MPD1    C3 3559   1.733   1.406  15.237  0.4448  0.2651  0.0666
  231MPD1    C4 3560   1.803   1.433  15.357  0.8405 -1.2315  0.6052
  231MPD1    C5 3561   1.797   1.347  15.463 -0.0029 -0.1721 -0.5415
  231MPD1     H 3562   1.609   1.263  15.146  1.1313 -1.2917  0.5207
  231MPD1    H1 3563   1.852   1.528  15.378  1.3496 -1.0491 -1.3076
  231MPD1    H2 3564   1.757   1.155  15.531 -0.6622 -0.2354  0.4532
  231MPD1    H3 3565   1.838   1.379  15.558  0.1150 -1.3643 -0.1801
  231MPD1     N 3566   1.737   1.496  15.129 -0.5533  0.2374  0.4059
  231MPD1    H5 3567   1.674   1.472  15.053  0.3817 -2.6260  0.5110
  231MPD1    N1 3568   1.590   1.076  15.328 -0.2316  0.2563 -0.0723
  231MPD1    H6 3569   1.576   1.051  15.230  0.7846  0.9410 -0.3875
  231MPD1    H7 3570   1.639   0.996  15.367  0.7461 -0.1602 -2.1932
  232MPD1     C 3571   4.113   3.604  17.649  0.6734  0.1345 -0.5730
  232MPD1    C1 3572   4.049   3.487  17.622  0.0421 -0.4858  0.5955
  232MPD1    C2 3573   3.914   3.467  17.666 -0.5075  0.1194  0.3179
  232MPD1    C3 3574   3.853   3.573  17.725 -0.1006  0.0823  0.8246
  232MPD1    C4 3575   3.914   3.693  17.747 -0.3764  0.2145 -0.7155
  232MPD1    C5 3576   4.050   3.702  17.716  0.2053 -0.3174 -0.3162
  232MPD1     H 3577   3.866   3.370  17.662 -1.3286  0.4664  1.5657
  232MPD1    H1 3578   3.867   3.774   0.054 -2.7182 -0.9435 -1.0207
  232MPD1    H2 3579   4.213   3.629  17.616  0.3579  1.9508 -0.1241
  232MPD1    H3 3580   4.091   3.802  17.718 -1.6937  0.4467  0.6323
  232MPD1     N 3581   3.722   3.556   0.016 -0.5824  0.5049  0.4622
  232MPD1    H5 3582   3.686   3.461   0.012  1.9740 -0.3888 -2.1223
  232MPD1    N1 3583   4.115   3.384  17.551 -0.2529  0.2182  0.1248
  232MPD1    H6 3584   4.215   3.399  17.557 -0.2156  0.2344 -0.5821
  232MPD1    H7 3585   4.088   3.289  17.573  0.0788 -0.1334 -0.9981
  233MPD1     C 3586   0.717   2.698  17.140 -0.4248  0.9116 -0.0364
  233MPD1    C1 3587   0.754   2.566  17.106 -0.7020 -0.0150 -0.3243
  233MPD1    C2 3588   0.770   2.476  17.212  0.0522  0.5472 -0.1804
  233MPD1    C3 3589   0.729   2.509  17.343 -0.2200 -0.2267  0.7692
  233MPD1    C4 3590   0.674   2.632  17.369  0.0226  0.2614  0.5648
  233MPD1    C5 3591   0.677   2.727  17.272  0.3184  0.0069  0.0014
  233MPD1     H 3592   0.815   2.380  17.195 -0.6264  0.5824 -2.1055
  233MPD1    H1 3593   0.643   2.659  17.469  0.3880  0.7899  0.5353
  233MPD1    H2 3594   0.721   2.780  17.069  0.7603 -0.4513 -1.5559
  233MPD1    H3 3595   0.651   2.825  17.310 -0.7468  0.5462 -2.0850
  233MPD1     N 3596   0.730   2.422  17.452  0.2559 -0.3418 -0.5254
  233MPD1    H5 3597   0.692   2.453  17.540 -0.0359  0.6051 -0.9857
  233MPD1    N1 3598   0.824   2.552  16.984 -0.1964 -0.3470  0.5016
  233MPD1    H6 3599   0.825   2.456  16.948  1.3036  0.1310 -0.7163
  233MPD1    H7 3600   0.773   2.605  16.914  1.9106 -0.9758 -1.5096
  234MPD1     C 3601   0.060   0.857   8.574  0.7092 -0.0762  0.1144
  234MPD1    C1 3602   0.063   0.990   8.586 -0.1381  0.1895 -0.0404
  234MPD1    C2 3603   4.700   1.044   8.659  0.2396  0.3555 -0.2467
  234MPD1    C3 3604   4.608   0.975   8.739  0.8540 -0.4996  0.7091
  234MPD1    C4 3605   4.626   0.842   8.744 -0.3660 -0.1196 -0.0142
  234MPD1    C5 3606   4.713   0.786   8.652 -0.9223  0.2937  0.3644
  234MPD1     H 3607   4.698   1.152   8.652 -0.3525  0.3809  0.2605
  234MPD1    H1 3608   4.564   0.772   8.799  0.1309 -1.1254 -0.7417
  234MPD1    H2 3609   0.119   0.808   8.496  0.1405 -2.8156  1.4026
  234MPD1    H3 3610   4.719   0.678   8.641 -1.0024  0.3619 -0.2975
  234MPD1     N 3611   4.517   1.055   8.816 -0.1908  0.0567  0.0130
  234MPD1    H5 3612   4.529   1.156   8.818  0.5931 -0.0662  1.8996
  234MPD1    N1 3613   0.133   1.076   8.501  0.3568  0.3654 -0.4521
  234MPD1    H6 3614   0.154   1.172   8.528  0.0848 -0.5245  2.9777
  234MPD1    H7 3615   0.221   1.033   8.474  0.5900  0.6032 -0.0762
  235MPD1     C 3616   2.998   3.215  10.834 -0.5573 -0.6654 -0.4257
  235MPD1    C1 3617   2.972   3.348  10.796 -0.1523  0.1978 -0.3538
  235MPD1    C2 3618   2.847   3.398  10.805 -0.3904  0.6721 -0.8339
  235MPD1    C3 3619   2.742   3.330  10.861  0.2320 -0.2505 -0.4968
  235MPD1    C4 3620   2.763   3.201  10.904 -0.0527 -0.3152 -0.5436
  235MPD1    C5 3621   2.889   3.153  10.897 -0.1973  0.5362  0.3409
  235MPD1     H 3622   2.832   3.496  10.762  2.2130  0.2420 -2.7600
  235MPD1    H1 3623   2.685   3.137  10.942 -2.4165  1.6142 -2.1719
  235MPD1    H2 3624   3.092   3.165  10.815  0.2397  0.7363 -0.1739
  235MPD1    H3 3625   2.897   3.049  10.926 -0.6773  0.6983  1.0601
  235MPD1     N 3626   2.616   3.395  10.867 -0.4365  0.0429 -0.0046
  235MPD1    H5 3627   2.617   3.495  10.849 -0.4293 -0.1394 -1.0449
  235MPD1    N1 3628   3.061   3.422  10.715  0.2595 -0.0323 -0.1506
  235MPD1    H6 3629   3.150   3.385  10.746  1.3518  0.7830 -2.3515
  235MPD1    H7 3630   3.061   3.522  10.735  0.0969  0.5084 -2.8839
  236MPD1     C 3631   0.654   3.997  10.066 -0.7053  0.1957  0.3871
  236MPD1    C1 3632   0.687   4.125  10.097  0.6597  0.3448  0.1509
  236MPD1    C2 3633   0.825   4.144  10.129 -0.5265  0.1054 -0.8056
  236MPD1    C3 3634   0.912   4.044  10.155 -0.0658  0.1092  0.1655
  236MPD1    C4 3635   0.870   3.914  10.149 -0.0284 -0.2119 -0.2487
  236MPD1    C5 3636   0.738   3.897  10.117  0.1337  0.4770  0.0300
  236MPD1     H 3637   0.854   4.247  10.149  2.5457 -1.0832  0.9039
  236MPD1    H1 3638   0.938   3.837  10.184  0.8001  0.8284  0.4393
  236MPD1    H2 3639   0.556   3.974  10.026 -0.7924  1.9046 -0.3887
  236MPD1    H3 3640   0.705   3.794  10.112  0.6072  0.2575  1.3347
  236MPD1     N 3641   1.041   4.070  10.207  0.5562 -0.2319 -0.6228
  236MPD1    H5 3642   1.099   3.988  10.225 -0.2667 -0.6360  0.1642
  236MPD1    N1 3643   0.608   4.230  10.041  0.4272 -0.7850  0.2533
  236MPD1    H6 3644   0.508   4.217  10.053  0.3914 -1.0772 -0.3332
  236MPD1    H7 3645   0.618   4.321  10.084 -2.4549 -1.1557  1.7273
  237MPD1     C 3646   2.012   3.520  15.266 -0.3566  0.2328 -0.1850
  237MPD1    C1 3647   1.878   3.536  15.274  0.7610 -0.4260 -0.2036
  237MPD1    C2 3648   1.797   3.421  15.264  0.1588 -0.2485  0.0435
  237MPD1    C3 3649   1.849   3.302  15.216 -0.8981 -0.7577  0.1847
  237MPD1    C4 3650   1.986   3.285  15.193  0.0223 -0.1796 -0.1742
  237MPD1    C5 3651   2.061   3.399  15.215 -0.5855 -0.2576  0.5886
  237MPD1     H 3652   1.694   3.441  15.289  0.8128  1.3193  1.4999
  237MPD1    H1 3653   2.022   3.193  15.149 -3.2381 -2.4309  1.8515
  237MPD1    H2 3654   2.084   3.594  15.296 -2.3512  0.3725  4.2985
  237MPD1    H3 3655   2.163   3.374  15.191 -0.8467  1.7179 -2.4667
  237MPD1     N 3656   1.765   3.186  15.204 -0.4993  0.0078  0.2511
  237MPD1    H5 3657   1.804   3.092  15.195 -0.3834 -0.0746  1.6543
  237MPD1    N1 3658   1.834   3.660  15.320 -0.4897 -0.0395 -0.2323
  237MPD1    H6 3659   1.876   3.735  15.266 -1.2598  1.0826  0.7276
  237MPD1    H7 3660   1.735   3.676  15.301 -0.2042  0.3245 -1.4038
  238MPD1     C 3661   3.490   1.555  15.339 -0.2460  1.5066  0.0754
  238MPD1    C1 3662   3.394   1.644  15.301  0.1771 -0.2967 -0.2324
  238MPD1    C2 3663   3.296   1.599  15.213  0.4926  0.6072  0.9740
  238MPD1    C3 3664   3.315   1.487  15.133 -0.1764  0.6276  0.6476
  238MPD1    C4 3665   3.424   1.411  15.162  0.2530  0.2093 -0.3911
  238MPD1    C5 3666   3.509   1.445  15.266  0.4413 -0.6801 -0.7660
  238MPD1     H 3667   3.214   1.664  15.181  0.2900 -1.0011 -1.8177
  238MPD1    H1 3668   3.439   1.315  15.114 -0.2499 -0.9093  1.6704
  238MPD1    H2 3669   3.549   1.573  15.428 -0.8541 -0.3944  0.8488
  238MPD1    H3 3670   3.584   1.373  15.297  1.3743 -0.1334 -1.7193
  238MPD1     N 3671   3.226   1.452  15.030  0.1405 -0.0410  0.1159
  238MPD1    H5 3672   3.257   1.379  14.966 -1.1805  1.2327 -1.9453
  238MPD1    N1 3673   3.380   1.759  15.376 -0.2298  0.2612 -1.1207
  238MPD1    H6 3674   3.350   1.828  15.308 -2.2016 -1.3543 -1.8688
  238MPD1    H7 3675   3.472   1.787  15.409 -1.0344  0.8173  0.6415
  239MPD1     C 3676   3.921   2.051  14.988 -0.7042  0.2365  0.8082
  239MPD1    C1 3677   3.877   2.178  15.003  0.6541  0.8862 -0.7448
  239MPD1    C2 3678   3.800   2.241  14.896  0.7484  0.0382 -0.4961
  239MPD1    C3 3679   3.777   2.167  14.784  0.0333 -0.6472 -0.7976
  239MPD1    C4 3680   3.846   2.053  14.767  0.2772 -0.6337 -0.3602
  239MPD1    C5 3681   3.919   1.989  14.869 -0.0946 -0.0696  0.1778
  239MPD1     H 3682   3.748   2.334  14.914  0.3703  0.2618 -2.8038
  239MPD1    H1 3683   3.842   2.004  14.671  2.1228 -0.2005 -0.6467
  239MPD1    H2 3684   3.968   2.000  15.071 -1.8832 -0.5392  1.0050
  239MPD1    H3 3685   3.956   1.888  14.853  1.2423  0.3488  0.6217
  239MPD1     N 3686   3.698   2.223  14.686 -0.4901 -0.2381  0.5658
  239MPD1    H5 3687   3.687   2.170  14.600 -3.3044 -0.1911  0.8842
  239MPD1    N1 3688   3.871   2.231  15.135  0.4233 -0.5842  0.5855
  239MPD1    H6 3689   3.871   2.333  15.138  0.3722 -0.5274 -1.5840
  239MPD1    H7 3690   3.954   2.196  15.182  0.8125  0.4937  0.7053
  240MPD1     C 3691   2.691   2.093  13.522  0.3463 -0.3739  0.3533
  240MPD1    C1 3692   2.660   1.964  13.531 -0.0469 -0.3737 -0.7780
  240MPD1    C2 3693   2.717   1.888  13.627  0.8210  0.0084  1.0572
  240MPD1    C3 3694   2.808   1.946  13.714  0.1720  0.7958 -0.5566
  240MPD1    C4 3695   2.848   2.078  13.701  0.3579 -0.1707 -0.3235
  240MPD1    C5 3696   2.789   2.150  13.601  0.0617 -0.5227 -0.9402
  240MPD1     H 3697   2.686   1.785  13.641  0.3479  0.1736  1.1981
  240MPD1    H1 3698   2.912   2.125  13.775  1.5309  0.3807 -1.6795
  240MPD1    H2 3699   2.631   2.157  13.458  3.4465  2.9233  0.7652
  240MPD1    H3 3700   2.810   2.256  13.599 -1.7930 -0.1989 -2.4619
  240MPD1     N 3701   2.871   1.861  13.811 -0.6943 -0.0386  0.4486
  240MPD1    H5 3702   2.841   1.764  13.812 -0.6203 -0.0567  1.1657
  240MPD1    N1 3703   2.555   1.921  13.447  0.6558  0.5980 -0.2917
  240MPD1    H6 3704   2.568   1.951  13.351 -2.2311  1.7349 -0.3082
  240MPD1    H7 3705   2.554   1.819  13.444 -0.2048  0.5950  0.1738
  241MPD1     C 3706   3.671   1.291  14.297 -0.1559 -0.5047  0.6385
  241MPD1    C1 3707   3.655   1.425  14.301  0.1526 -0.1684  1.3203
  241MPD1    C2 3708   3.547   1.488  14.242  1.1566  0.2489 -0.4615
  241MPD1    C3 3709   3.454   1.409  14.172 -0.2957 -0.5014  0.0586
  241MPD1    C4 3710   3.481   1.272  14.164 -0.4062  0.0577 -0.4704
  241MPD1    C5 3711   3.580   1.215  14.236 -0.1752 -0.6929 -0.0039
  241MPD1     H 3712   3.530   1.594  14.256 -0.2041  0.0880 -0.8090
  241MPD1    H1 3713   3.409   1.208  14.115  0.6723 -1.0877 -0.5935
  241MPD1    H2 3714   3.760   1.245  14.338  0.0493 -0.6287  0.0637
  241MPD1    H3 3715   3.579   1.107  14.237 -0.1190 -0.7022 -0.8975
  241MPD1     N 3716   3.333   1.459  14.110 -0.6640  0.0788 -0.1383
  241MPD1    H5 3717   3.260   1.392  14.089 -0.6691 -0.0980  0.4490
  241MPD1    N1 3718   3.757   1.511  14.350  0.5002 -0.0599  0.7087
  241MPD1    H6 3719   3.822   1.447  14.396  2.0043  0.4494 -0.7029
  241MPD1    H7 3720   3.706   1.578  14.408 -1.0033 -1.0012  0.4479
  242MPD1     C 3721   2.223   4.684  15.988  0.0545 -0.5046  0.4497
  242MPD1    C1 3722   2.354   4.647  16.014 -0.3869  0.5526  0.1107
  242MPD1    C2 3723   2.446   4.668  15.910 -0.2240 -0.2817  0.0669
  242MPD1    C3 3724   2.414   0.004  15.796 -0.2329  0.1276 -1.4295
  242MPD1    C4 3725   2.280   0.050  15.785  0.1005 -0.5562  0.6020
  242MPD1    C5 3726   2.186   0.012  15.877 -0.1968 -0.0755  0.4569
  242MPD1     H 3727   2.548   4.637  15.927 -0.8291 -2.2315  0.2070
  242MPD1    H1 3728   2.253   0.109  15.698  2.3816 -1.3293 -0.6359
  242MPD1    H2 3729   2.142   4.660  16.057 -0.5625 -0.3236 -0.2202
  242MPD1    H3 3730   2.088   0.054  15.859 -0.7381 -1.1589  0.9284
  242MPD1     N 3731   2.503   0.034  15.686 -0.1501 -0.2946 -1.0384
  242MPD1    H5 3732   2.480   0.103  15.616 -1.0998  0.2228 -0.2159
  242MPD1    N1 3733   2.390   4.568  16.127  0.1023 -0.2172  0.5563
  242MPD1    H6 3734   2.489   4.571  16.153  0.1767  0.7866  0.1911
  242MPD1    H7 3735   2.341   4.594  16.213 -2.1122 -0.5885 -0.6009
  243MPD1     C 3736   4.514   3.163  17.601  0.1530  0.1560 -0.1432
  243MPD1    C1 3737   4.570   3.077  17.517  0.1778  0.3516  0.0035
  243MPD1    C2 3738   4.597   3.115  17.388 -1.0343 -0.4600  0.1605
  243MPD1    C3 3739   4.573   3.248  17.354  0.1816 -0.2475  0.1218
  243MPD1    C4 3740   4.522   3.335  17.445 -0.0143 -0.1644 -0.3933
  243MPD1    C5 3741   4.488   3.290  17.567 -0.4405  0.6187 -0.3832
  243MPD1     H 3742   4.654   3.052  17.321  0.6515  1.2896 -0.0401
  243MPD1    H1 3743   4.479   3.433  17.426  2.6959  1.1111 -0.0595
  243MPD1    H2 3744   4.479   3.131  17.699  0.4395 -3.2627 -1.1619
  243MPD1    H3 3745   4.439   3.359  17.635 -2.0819  0.3591 -1.3020
  243MPD1     N 3746   4.614   3.287  17.228  0.4109 -0.2029 -0.0087
  243MPD1    H5 3747   4.647   3.210  17.171  0.5667 -0.6383  0.6658
  243MPD1    N1 3748   4.577   2.937  17.548 -0.1852 -0.0295 -0.0207
  243MPD1    H6 3749   4.659   2.898  17.503  0.9142  3.9015 -1.4032
  243MPD1    H7 3750   4.588   2.929  17.649 -1.5748  0.9284  0.2117
  244MPD1     C 3751   0.160   2.684  16.750  0.3770 -0.2539  0.3045
  244MPD1    C1 3752   0.102   2.709  16.878 -0.2991  0.0719  0.4672
  244MPD1    C2 3753   0.086   2.841  16.917 -0.0995 -0.4730 -0.3923
  244MPD1    C3 3754   0.143   2.945  16.852 -0.0764  0.3363  0.3240
  244MPD1    C4 3755   0.215   2.910  16.736  0.3357 -0.7459 -0.4424
  244MPD1    C5 3756   0.225   2.786  16.690  0.0187 -0.1504 -0.5519
  244MPD1     H 3757   0.043   2.865  17.014 -1.4193 -0.3783 -1.0030
  244MPD1    H1 3758   0.252   2.990  16.672  0.7632  0.5943  1.4838
  244MPD1    H2 3759   0.156   2.586  16.704  1.6513  0.2041 -0.7947
  244MPD1    H3 3760   0.275   2.780  16.594  0.0861 -0.8027 -0.4733
  244MPD1     N 3761   0.115   3.080  16.892 -0.6512 -0.1005  0.5516
  244MPD1    H5 3762   0.050   3.079  16.970  0.8732 -0.3283  1.8338
  244MPD1    N1 3763   0.031   2.603  16.934 -0.0998 -0.2910  0.0391
  244MPD1    H6 3764   0.082   2.516  16.939 -1.1373 -0.8662  0.5652
  244MPD1    H7 3765   4.734   2.634  17.025  1.5349 -0.8072  0.8250
  245MPD1     C 3766   0.877   3.488  13.200  0.2877 -0.1065  0.1041
  245MPD1    C1 3767   0.815   3.615  13.202  0.0967  0.0944 -0.4088
  245MPD1    C2 3768   0.893   3.714  13.247 -0.4174 -0.6009  0.3645
  245MPD1    C3 3769   1.029   3.702  13.271 -1.1357 -0.0381 -0.5007
  245MPD1    C4 3770   1.090   3.577  13.273  0.0349 -0.1915  0.1028
  245MPD1    C5 3771   1.009   3.475  13.235 -0.1860 -0.9688 -0.1989
  245MPD1     H 3772   0.845   3.810  13.260 -2.7429 -1.6272 -0.6244
  245MPD1    H1 3773   1.194   3.556  13.297  0.0401 -0.2427  0.0341
  245MPD1    H2 3774   0.818   3.399  13.183  2.6404 -1.0708 -3.0290
  245MPD1    H3 3775   1.042   3.372  13.228 -1.8686 -1.5579  0.4170
  245MPD1     N 3776   1.101   3.820  13.296  0.2631  0.4497 -0.2750
  245MPD1    H5 3777   1.051   3.908  13.287 -0.3853  0.3046  2.0008
  245MPD1    N1 3778   0.675   3.633  13.188 -0.4794  0.8181  0.3608
  245MPD1    H6 3779   0.633   3.556  13.137 -1.4395  1.9423 -0.5612
  245MPD1    H7 3780   0.643   3.726  13.160 -1.0895  0.1704 -1.0330
  246MPD1     C 3781   1.903   1.872  10.228  0.1865  0.0433  0.4717
  246MPD1    C1 3782   2.021   1.815  10.263 -0.2694  0.2938 -0.2795
  246MPD1    C2 3783   2.048   1.689  10.220  0.7980 -0.4373 -0.4191
  246MPD1    C3 3784   1.950   1.614  10.164 -0.3944  0.0574 -0.3508
  246MPD1    C4 3785   1.827   1.670  10.141  0.7096  0.5649  0.2843
  246MPD1    C5 3786   1.809   1.801  10.166  0.9915 -0.0931 -1.1153
  246MPD1     H 3787   2.149   1.650  10.226  0.9027 -0.3748 -1.7589
  246MPD1    H1 3788   1.746   1.628  10.082  0.5336  1.0026  0.2165
  246MPD1    H2 3789   1.875   1.970  10.265 -0.3693  0.3376 -0.7380
  246MPD1    H3 3790   1.711   1.845  10.154 -0.1024 -2.4013 -0.6390
  246MPD1     N 3791   1.977   1.490  10.108  0.3838  0.4549  0.5940
  246MPD1    H5 3792   2.070   1.454  10.089 -0.6632 -1.9244  0.0317
  246MPD1    N1 3793   2.118   1.898  10.331  0.2809 -0.0474  0.1969
  246MPD1    H6 3794   2.177   1.848  10.397  0.0942  2.3762  2.1850
  246MPD1    H7 3795   2.085   1.978  10.384  0.0839 -0.9060  1.3634
  247MPD1     C 3796   0.294   0.562  14.961 -0.9972  0.3481  0.4181
  247MPD1    C1 3797   0.205   0.562  15.070 -0.7787  0.0680 -0.0855
  247MPD1    C2 3798   0.239   0.479  15.175 -0.3784 -0.1383 -0.5161
  247MPD1    C3 3799   0.341   0.390  15.163  0.9885 -0.3021  0.3249
  247MPD1    C4 3800   0.415   0.389  15.046 -0.6630 -0.9296 -0.2983
  247MPD1    C5 3801   0.386   0.473  14.945  0.1380 -0.4396  0.0012
  247MPD1     H 3802   0.171   0.477  15.259 -2.4003 -0.1493 -2.1534
  247MPD1    H1 3803   0.500   0.323  15.035  0.5804  0.9740 -2.0814
  247MPD1    H2 3804   0.277   0.629  14.878  0.5950 -0.5706 -0.6635
  247MPD1    H3 3805   0.441   0.478  14.851 -0.8201 -2.0249 -0.6448
  247MPD1     N 3806   0.370   0.289  15.266  0.1625  0.5076  0.0781
  247MPD1    H5 3807   0.458   0.240  15.258 -0.3422 -0.5786  1.3176
  247MPD1    N1 3808   0.106   0.662  15.073  0.8880 -0.4196 -0.1982
  247MPD1    H6 3809   0.033   0.640  15.141  0.8252 -0.3029 -0.2284
  247MPD1    H7 3810   0.064   0.680  14.982 -0.3837  1.1856  0.7031
  248MPD1     C 3811   2.275   2.923   0.258  0.2833 -0.6389  0.6423
  248MPD1    C1 3812   2.289   3.057   0.236 -1.1452 -0.5542 -0.1497
  248MPD1    C2 3813   2.280   3.136   0.342 -0.2386  0.0843 -0.6989
  248MPD1    C3 3814   2.243   3.097   0.472  0.2368 -0.2112  0.2806
  248MPD1    C4 3815   2.220   2.963   0.500  0.0719 -0.0061 -0.2946
  248MPD1    C5 3816   2.248   2.878   0.390  0.2546  0.9140  0.3030
  248MPD1     H 3817   2.308   3.241   0.338 -1.4723  0.5541  2.3160
  248MPD1    H1 3818   2.197   2.913   0.593  1.0156  0.5169  0.2194
  248MPD1    H2 3819   2.276   2.852   0.176  0.7222  1.0619 -0.8373
  248MPD1    H3 3820   2.248   2.772   0.411  0.6564  1.0719  1.1034
  248MPD1     N 3821   2.239   3.197   0.569 -0.0031 -0.1305  0.1533
  248MPD1    H5 3822   2.266   3.289   0.534  2.2674  0.5236  3.5913
  248MPD1    N1 3823   2.339   3.100   0.112  0.0494  0.0415  0.1180
  248MPD1    H6 3824   2.318   3.028   0.043 -1.4348  2.8225 -2.3390
  248MPD1    H7 3825   2.278   3.176   0.083  2.7497  2.3988  0.6494
  249MPD1     C 3826   3.052   4.411   9.164  0.0524 -0.0651 -0.7872
  249MPD1    C1 3827   3.163   4.393   9.087  0.3422 -0.3104 -0.8709
  249MPD1    C2 3828   3.266   4.328   9.151 -0.0998  0.0471 -0.7910
  249MPD1    C3 3829   3.269   4.297   9.287  0.1908 -0.3161 -0.1024
  249MPD1    C4 3830   3.165   4.333   9.361 -0.7239  0.8030 -0.6967
  249MPD1    C5 3831   3.057   4.387   9.301 -0.0612  0.7319 -1.4429
  249MPD1     H 3832   3.360   4.300   9.104 -0.6682  1.1126 -2.5513
  249MPD1    H1 3833   3.158   4.338   9.470 -1.2685 -2.5550 -0.5966
  249MPD1    H2 3834   2.967   4.469   9.132 -0.8969 -1.1884 -0.2741
  249MPD1    H3 3835   2.976   4.425   9.363  0.0805 -0.7162 -0.3969
  249MPD1     N 3836   3.383   4.230   9.335 -1.2758  0.1779 -0.2484
  249MPD1    H5 3837   3.455   4.208   9.267 -1.2532 -1.5449  0.3469
  249MPD1    N1 3838   3.160   4.405   8.944  0.8362  0.4251  0.1153
  249MPD1    H6 3839   3.251   4.437   8.910  1.1125  0.2074  0.6398
  249MPD1    H7 3840   3.086   4.464   8.909  0.8236 -0.9066 -2.0958
  250MPD2     C 3841   4.593   2.536  13.260 -0.4690 -0.8020  0.4236
  250MPD2    C1 3842   4.510   2.605  13.178 -0.2243 -0.4935 -0.5443
  250MPD2    C2 3843   4.411   2.531  13.115 -0.0060 -0.3446 -0.1187
  250MPD2    C3 3844   4.391   2.397  13.136 -0.8600  0.4230  0.8221
  250MPD2    C4 3845   4.480   2.328  13.211  0.1756  0.4826  0.3983
  250MPD2    C5 3846   4.590   2.399  13.267 -0.6006  0.2335 -0.8735
  250MPD2     H 3847   4.335   2.582  13.057  0.0905  0.5216  0.5378
  250MPD2    H1 3848   4.479   2.222  13.231 -1.6211  0.8324  2.1166
  250MPD2    H2 3849   4.675   2.580  13.316 -0.7157 -1.7617  1.5394
  250MPD2    H3 3850   4.673   2.349  13.317 -1.3325 -0.2881 -0.1798
  250MPD2     N 3851   4.274   2.325  13.098 -0.1000  0.4089  0.2855
  250MPD2    H5 3852   4.271   2.227  13.126  0.0335  1.0379  2.5097
  250MPD2    N1 3853   4.522   2.745  13.166  0.1298  0.6959  0.6244
  250MPD2    H7 3854   4.596   2.788  13.220 -1.1306  0.7129  2.3350
  251TMC3    C1 3855   4.508   2.955  13.068 -0.4362 -0.0777 -0.0984
  251TMC3    C2 3856   4.417   3.059  13.076 -0.0147  0.0817 -0.2319
  251TMC3    C3 3857   4.467   3.189  13.087  0.5218 -0.6326 -0.3524
  251TMC3    C4 3858   4.636   2.976  13.090 -0.1292  0.0952  0.1785
  251TMC3    C5 3859   4.684   3.102  13.104  0.3681  0.5066 -0.6083
  251TMC3    C6 3860   4.602   3.208  13.108  0.4405  0.5581 -0.4515
  251TMC3     C 3861   4.456   2.821  13.070 -0.9572  0.0014 -0.3402
  251TMC3     O 3862   4.376   2.788  12.982 -0.3602 -0.2066 -0.2052
  251TMC3     H 3863   4.313   3.034  13.064  0.8188 -2.9001 -1.2691
  251TMC3    H1 3864   4.709   2.896  13.090 -0.2388  0.0115  3.2847
  251TMC3    H2 3865   4.641   3.310  13.103  1.4486  0.2707  1.5243
  251TMC3    C7 3866   0.091   3.110  13.129  1.2840 -0.3950  1.1737
  251TMC3    C8 3867   4.381   3.307  13.062 -0.8859 -0.1254  0.2919
  251TMC3    O1 3868   0.143   3.005  13.171 -0.0396 -0.5604 -0.4167
  251TMC3    O2 3869   4.425   3.417  13.089 -0.0277 -0.2372  0.3357
  252TMC3    C1 3870   3.909   4.183   9.904  1.1395 -1.1264 -0.5517
  252TMC3    C2 3871   4.041   4.214   9.882 -0.0060  0.2697 -0.4233
  252TMC3    C3 3872   4.134   4.140   9.941  0.0695 -0.1640 -0.4052
  252TMC3    C4 3873   3.877   4.084   9.990  0.4469 -0.3208  0.1142
  252TMC3    C5 3874   3.976   4.007  10.042  0.3798 -0.4094 -0.1753
  252TMC3    C6 3875   4.107   4.026  10.020 -0.4066 -0.3088  0.4761
  252TMC3     C 3876   3.796   4.257   9.854  0.1616  0.6090 -0.1097
  252TMC3     O 3877   3.707   4.292   9.934 -0.1647  0.2369  0.2415
  252TMC3     H 3878   4.065   4.307   9.832  3.1865 -0.3901 -0.1106
  252TMC3    H1 3879   3.772   4.059   9.997  0.0143  1.2892 -0.4829
  252TMC3    H2 3880   4.182   3.955  10.052  0.3299  0.1208 -0.2961
  252TMC3    C7 3881   3.929   3.908  10.136  0.3015 -0.3321  0.5517
  252TMC3    C8 3882   4.270   4.188   9.935 -0.1508 -0.3300 -0.3841
  252TMC3    O1 3883   3.812   3.911  10.173  0.2904  0.1950 -0.7506
  252TMC3    O2 3884   4.299   4.276   9.859 -0.6262 -0.2892 -0.1891
  253MPD2     C 3885   1.141   3.166  15.144  0.3930  0.1777  0.5036
  253MPD2    C1 3886   1.024   3.098  15.164  0.1881  0.6777 -0.1496
  253MPD2    C2 3887   0.997   3.039  15.287  0.1920  0.0335  0.2960
  253MPD2    C3 3888   1.091   3.045  15.384 -0.5931 -0.5751 -0.1449
  253MPD2    C4 3889   1.197   3.133  15.366  0.4829 -0.0005 -0.0468
  253MPD2    C5 3890   1.224   3.191  15.245  0.0508  0.2500  0.1465
  253MPD2     H 3891   0.901   2.990  15.298  0.5526 -0.1583  2.7610
  253MPD2    H1 3892   1.265   3.143  15.450 -0.2945  0.8701  0.4729
  253MPD2    H2 3893   1.162   3.197  15.043  1.8215  0.0961  0.7812
  253MPD2    H3 3894   1.308   3.254  15.220 -0.1028  1.4330  2.5913
  253MPD2     N 3895   1.072   2.980  15.507  0.3154  0.0296  0.2908
  253MPD2    H5 3896   1.145   2.995  15.576  1.3496  1.6266 -1.1424
  253MPD2    N1 3897   0.928   3.073  15.063  0.7198  0.2312  0.8236
  253MPD2    H7 3898   0.864   3.002  15.095 -0.5323  1.2296  0.5181
  254TMC3    C1 3899   0.973   2.865  15.693  0.2505 -0.1789 -0.2498
  254TMC3    C2 3900   0.980   2.977  15.766  0.5329 -0.3168  0.5938
  254TMC3    C3 3901   0.919   2.964  15.889  0.1223  0.3824  0.5222
  254TMC3    C4 3902   0.925   2.743  15.745 -0.3534  0.2297  0.3636
  254TMC3    C5 3903   0.874   2.735  15.867  0.3668 -0.1573  0.4485
  254TMC3    C6 3904   0.870   2.854  15.943 -0.5104 -0.5363 -0.2596
  254TMC3     C 3905   0.971   2.891  15.545 -0.7465 -0.2210  0.0482
  254TMC3     O 3906   0.892   2.823  15.475  0.4670 -0.0197 -0.8818
  254TMC3     H 3907   0.997   3.074  15.723  3.3456 -0.0861  2.2342
  254TMC3    H1 3908   0.916   2.657  15.679 -0.7030 -0.9138  1.8978
  254TMC3    H2 3909   0.831   2.847  16.044  1.0238 -0.0647  0.3621
  254TMC3    C7 3910   0.920   2.635  15.956  0.0016  0.2151 -0.3038
  254TMC3    C8 3911   0.861   3.077  15.963  0.0212 -0.1615  0.1388
  254TMC3    O1 3912   0.880   2.625  16.073  0.2995 -0.2925  0.1712
  254TMC3    O2 3913   0.896   3.101  16.078  0.2527  0.1456 -0.0521
  255MPD2     C 3914   3.867   1.028  10.385  0.8204  0.6085 -0.4971
  255MPD2    C1 3915   3.762   0.939  10.386 -0.3181 -0.4705 -1.0184
  255MPD2    C2 3916   3.742   0.844  10.287  0.1820  0.2275  0.1852
  255MPD2    C3 3917   3.852   0.813  10.201 -0.1809 -0.2068 -0.4851
  255MPD2    C4 3918   3.962   0.890  10.212  0.2138 -0.7365  0.3732
  255MPD2    C5 3919   3.972   0.998  10.300  1.0113  0.6874 -0.0942
  255MPD2     H 3920   3.655   0.783  10.271 -0.4332  1.5497 -1.5431
  255MPD2    H1 3921   4.050   0.879  10.149  0.1373 -4.8944  0.9703
  255MPD2    H2 3922   3.863   1.116  10.448 -0.0884  0.8660 -0.9207
  255MPD2    H3 3923   4.058   1.063  10.294 -1.2324  3.5748 -1.0414
  255MPD2     N 3924   3.840   0.702  10.116  0.3918 -0.4871 -0.3194
  255MPD2    H5 3925   3.752   0.651  10.113  0.1780 -0.1510  0.3825
  255MPD2    N1 3926   3.663   0.971  10.484  0.8056  0.2350  0.2691
  255MPD2    H7 3927   3.667   1.063  10.527 -1.1956  1.8196 -2.9183
  256TMC3    C1 3928   3.448   0.950  10.583 -0.2055 -0.1701  0.1721
  256TMC3    C2 3929   3.438   1.086  10.583  0.0729 -0.0605  0.2633
  256TMC3    C3 3930   3.338   1.134  10.665  0.3277  0.2878  0.1679
  256TMC3    C4 3931   3.370   0.868  10.663  0.3199  0.2836  0.6132
  256TMC3    C5 3932   3.268   0.917  10.734 -0.2634 -0.5924 -0.3839
  256TMC3    C6 3933   3.246   1.052  10.736 -0.0603 -0.0621 -0.5433
  256TMC3     C 3934   3.557   0.889  10.511 -0.3538 -0.6611 -0.1389
  256TMC3     O 3935   3.547   0.772  10.483  0.1727  0.3265 -0.2160
  256TMC3     H 3936   3.506   1.149  10.526 -3.9415  2.4181 -1.8988
  256TMC3    H1 3937   3.390   0.762  10.653 -0.7934  0.1152  0.1180
  256TMC3    H2 3938   3.183   1.091  10.814 -1.0520 -1.2941 -0.7212
  256TMC3    C7 3939   3.145   0.834  10.741  0.3000 -0.4371  0.0332
  256TMC3    C8 3940   3.356   1.272  10.715 -0.4790 -0.4875 -0.1712
  256TMC3    O1 3941   3.043   0.902  10.731  0.1161 -0.7873 -0.3589
  256TMC3    O2 3942   3.270   1.314  10.785 -0.0553 -0.0361 -0.5477
  257MPD2     C 3943   3.313   2.818  13.497 -0.2461 -0.6049 -0.3327
  257MPD2    C1 3944   3.297   2.758  13.373  0.0819 -0.5496 -0.1879
  257MPD2    C2 3945   3.261   2.624  13.375 -0.6644 -0.1833  0.2596
  257MPD2    C3 3946   3.255   2.556  13.500 -0.1296 -0.1798 -0.3323
  257MPD2    C4 3947   3.272   2.615  13.621 -0.1592  0.7908 -0.0920
  257MPD2    C5 3948   3.299   2.747  13.614  0.8574  1.2400 -0.3319
  257MPD2     H 3949   3.234   2.569  13.285 -2.7105 -0.6921  1.1640
  257MPD2    H1 3950   3.272   2.557  13.713 -1.6144  0.3574 -0.3634
  257MPD2    H2 3951   3.347   2.921  13.498 -2.7239  0.2089  3.6614
  257MPD2    H3 3952   3.331   2.791  13.708 -1.8375  3.4986 -0.4426
  257MPD2     N 3953   3.208   2.427  13.491 -0.1541 -0.3689  0.0975
  257MPD2    H5 3954   3.206   2.385  13.398  1.8261  0.3196 -0.2559
  257MPD2    N1 3955   3.308   2.837  13.256  0.3835 -0.2899 -0.3491
  257MPD2    H7 3956   3.316   2.937  13.270  0.6531 -0.4424  0.5675
  258TMC3    C1 3957   3.145   2.205  13.554  0.1124 -0.0779  0.0533
  258TMC3    C2 3958   3.078   2.193  13.435 -0.0304 -0.8896  0.0187
  258TMC3    C3 3959   3.031   2.072  13.394  0.4221  0.0334  0.2910
  258TMC3    C4 3960   3.167   2.091  13.629  0.8672  0.9599 -1.2079
  258TMC3    C5 3961   3.128   1.971  13.573 -0.0074  0.3580 -0.8444
  258TMC3    C6 3962   3.051   1.955  13.467 -0.2810  0.4429 -0.2253
  258TMC3     C 3963   3.196   2.331  13.601  0.5326  0.2877  0.6011
  258TMC3     O 3964   3.209   2.348  13.719  0.1078 -0.2319 -0.4750
  258TMC3     H 3965   3.070   2.280  13.370  0.1043 -0.6063  0.3796
  258TMC3    H1 3966   3.236   2.092  13.712 -0.5012 -2.4408 -0.0127
  258TMC3    H2 3967   3.028   1.855  13.430 -0.9075  1.4975 -2.6677
  258TMC3    C7 3968   3.175   1.847  13.635 -0.0968  0.4168  0.0527
  258TMC3    C8 3969   2.963   2.060  13.265 -0.3495 -0.4040 -0.9055
  258TMC3    O1 3970   3.116   1.746  13.606 -0.3125 -0.4356 -0.0771
  258TMC3    O2 3971   2.985   1.953  13.210 -0.1147  0.4020 -0.3429
  259MPD2     C 3972   2.409   0.004   0.539 -0.3503 -0.2032  0.8083
  259MPD2    C1 3973   2.458   4.626   0.601  0.1633 -0.2377 -0.0102
  259MPD2    C2 3974   2.521   4.540   0.518  0.0444  0.0827  0.4206
  259MPD2    C3 3975   2.538   4.553   0.381 -1.0129 -0.3674  0.4562
  259MPD2    C4 3976   2.481   4.658   0.319 -0.3019 -0.1098  0.1634
  259MPD2    C5 3977   2.420   0.016   0.397 -0.0751 -0.1816  0.3774
  259MPD2     H 3978   2.557   4.450   0.567  1.4579  0.8918  0.8769
  259MPD2    H1 3979   2.485   4.668   0.211  1.2390 -0.3487  0.1871
  259MPD2    H2 3980   2.368   0.084   0.600 -0.1735 -0.3945  1.1810
  259MPD2    H3 3981   2.389   0.110   0.353 -2.0270 -1.1899 -0.3969
  259MPD2     N 3982   2.608   4.447   0.317  0.2205 -0.7714 -0.4067
  259MPD2    H5 3983   2.634   4.366   0.373 -2.9117 -1.3062  0.2653
  259MPD2    N1 3984   2.438   4.618   0.743  0.3751 -0.6993  0.2547
  259MPD2    H7 3985   2.405   4.699   0.794 -0.2489  0.7582 -2.4669
  260TMC3    C1 3986   2.740   4.324   0.161  0.2908  0.6898  0.0920
  260TMC3    C2 3987   2.792   4.324   0.031  0.1370  0.3186 -0.5320
  260TMC3    C3 3988   2.871   4.216   0.002 -1.2818  0.1284  0.1009
  260TMC3    C4 3989   2.770   4.232   0.256 -0.3384  0.4831  0.3795
  260TMC3    C5 3990   2.843   4.121   0.223  0.2065 -0.4716 -0.3525
  260TMC3    C6 3991   2.901   4.119   0.100  0.1634 -0.0212  0.5662
  260TMC3     C 3992   2.662   4.447   0.193  0.0576 -0.5739  0.9095
  260TMC3     O 3993   2.655   4.537   0.110 -0.0167  0.4388  0.3362
  260TMC3     H 3994   2.762   4.391  17.699 -0.5489  0.9278  0.2204
  260TMC3    H1 3995   2.727   4.239   0.355 -1.7513 -1.1442 -0.1110
  260TMC3    H2 3996   2.972   4.039   0.080 -1.4353 -1.5780  1.1520
  260TMC3    C7 3997   2.849   4.012   0.312  0.5236 -0.3307 -0.2040
  260TMC3    C8 3998   2.894   4.185  17.612 -0.2671 -0.5573  0.3440
  260TMC3    O1 3999   2.814   4.032   0.426 -0.5271  0.0819 -0.2031
  260TMC3    O2 4000   2.812   4.228  17.531 -0.2661 -0.6729 -0.3637
  261MPD2     C 4001   3.600   2.275  12.557  0.2931  0.2223 -0.2130
  261MPD2    C1 4002   3.732   2.325  12.582  0.4485 -0.1728  0.1030
  261MPD2    C2 4003   3.798   2.393  12.479 -0.4440  0.4616 -0.0057
  261MPD2    C3 4004   3.738   2.387  12.348  0.6496 -0.2031 -0.6297
  261MPD2    C4 4005   3.617   2.329  12.316 -0.1545  0.3965  0.7913
  261MPD2    C5 4006   3.552   2.274  12.423 -0.0248 -0.0756 -0.2456
  261MPD2     H 4007   3.898   2.433  12.493  0.2326 -1.6408  1.1765
  261MPD2    H1 4008   3.571   2.322  12.218 -0.1232 -0.9028  0.8620
  261MPD2    H2 4009   3.541   2.246  12.643  2.7439 -0.5116  1.2099
  261MPD2    H3 4010   3.450   2.244  12.403 -0.7341  0.7910  1.9492
  261MPD2     N 4011   3.810   2.447  12.242  0.5822 -0.2924  0.0256
  261MPD2    H5 4012   3.769   2.432  12.150 -0.0391  0.1645  0.2245
  261MPD2    N1 4013   3.808   2.310  12.696 -0.4474  0.6714 -0.1166
  261MPD2    H7 4014   3.905   2.340  12.697 -0.0248 -0.7225  2.4950
  262TMC3    C1 4015   3.970   2.565  12.131 -0.9340 -0.0264  0.2399
  262TMC3    C2 4016   4.030   2.685  12.101  0.0222  0.2189  0.4289
  262TMC3    C3 4017   4.126   2.690  12.013 -0.0403 -0.0254 -0.3268
  262TMC3    C4 4018   4.004   2.451  12.055  0.5611 -0.4183  0.4666
  262TMC3    C5 4019   4.106   2.463  11.960 -0.0362 -0.3575  0.3631
  262TMC3    C6 4020   4.174   2.580  11.940 -0.0804  0.0350  0.3240
  262TMC3     C 4021   3.904   2.547  12.252  0.1237  0.9500 -0.8291
  262TMC3     O 4022   3.968   2.599  12.345 -0.3648  0.1546 -0.2057
  262TMC3     H 4023   3.993   2.777  12.146  0.3542  0.2112  0.7185
  262TMC3    H1 4024   3.969   2.351  12.074 -2.3227  0.4456 -0.2741
  262TMC3    H2 4025   4.240   2.594  11.855 -1.1507  2.6177 -0.0734
  262TMC3    C7 4026   4.141   2.344  11.879  0.2147 -0.4689 -0.4870
  262TMC3    C8 4027   4.197   2.819  12.007  0.0332 -0.2598 -0.0537
  262TMC3    O1 4028   4.066   2.249  11.874 -0.1588 -0.0298 -0.5525
  262TMC3    O2 4029   4.148   2.917  12.061  0.1863  0.0965 -0.0415
  263MPD2     C 4030   0.152   1.566  11.690  0.1851 -0.5585 -0.1831
  263MPD2    C1 4031   0.117   1.501  11.580  0.3581  0.5239 -0.7302
  263MPD2    C2 4032   0.067   1.567  11.471  0.6166 -0.1728  0.6835
  263MPD2    C3 4033   0.051   1.707  11.483 -0.2105  0.4904  0.9038
  263MPD2    C4 4034   0.088   1.775  11.594  0.0283 -0.1227 -0.6199
  263MPD2    C5 4035   0.140   1.705  11.696 -0.0732 -0.4289 -0.2798
  263MPD2     H 4036   0.026   1.513  11.386  2.1822 -0.6484  0.2427
  263MPD2    H1 4037   0.075   1.882  11.604  0.9278 -0.2178  1.6194
  263MPD2    H2 4038   0.171   1.518  11.785 -1.1867  0.3445  0.5624
  263MPD2    H3 4039   0.146   1.750  11.795 -1.6256  1.3832 -1.0152
  263MPD2     N 4040   0.004   1.768  11.367 -0.2847 -0.4673  0.0195
  263MPD2    H5 4041   0.014   1.705  11.289 -0.4628  3.4533 -3.1605
  263MPD2    N1 4042   0.125   1.357  11.596 -0.1577  0.7832 -0.3136
  263MPD2    H7 4043   0.184   1.326  11.673  1.2699  1.2501 -1.2231
  264TMC3    C1 4044   4.653   1.944  11.225 -0.8429  0.0198  0.7649
  264TMC3    C2 4045   4.596   2.069  11.227 -1.0613  0.0086 -0.8531
  264TMC3    C3 4046   4.623   2.158  11.128 -0.6057 -0.4598 -0.5851
  264TMC3    C4 4047   0.003   1.901  11.133  0.2599  0.6115 -0.0538
  264TMC3    C5 4048   0.020   1.993  11.029 -0.0364  0.7291  0.3842
  264TMC3    C6 4049   4.692   2.112  11.022 -0.2867  0.5302  0.5215
  264TMC3     C 4050   4.703   1.903  11.358  0.3021  0.6048 -0.1082
  264TMC3     O 4051   4.710   1.987  11.439  0.2733 -0.6688  0.7055
  264TMC3     H 4052   4.548   2.107  11.316  2.3387 -1.1225  1.4577
  264TMC3    H1 4053   0.077   1.824  11.153 -2.5437 -1.7680  1.1021
  264TMC3    H2 4054   4.711   2.179  10.939  0.0202  0.4435  0.5219
  264TMC3    C7 4055   0.078   1.944  10.903  0.3335 -0.8239  0.5586
  264TMC3    C8 4056   4.680   2.279  11.179 -0.1274  0.2730 -0.0475
  264TMC3    O1 4057   0.101   2.020  10.813  0.0215  0.7217 -0.0054
  264TMC3    O2 4058   0.068   2.282  11.156 -0.5614 -0.2324  0.2873
  265MPD2     C 4059   2.135   2.409  15.592 -0.5417  0.0179  0.1917
  265MPD2    C1 4060   2.188   2.524  15.540  0.7678  0.1802  0.3503
  265MPD2    C2 4061   2.255   2.517  15.413  0.3861 -0.2531 -0.0610
  265MPD2    C3 4062   2.277   2.396  15.352 -0.8271 -0.4917  0.2333
  265MPD2    C4 4063   2.243   2.282  15.421 -0.1489  0.2013  0.2703
  265MPD2    C5 4064   2.171   2.291  15.537 -0.0381 -0.2366  0.2692
  265MPD2     H 4065   2.284   2.609  15.364  1.2880 -0.5549 -0.1043
  265MPD2    H1 4066   2.293   2.192  15.387 -0.9640  0.3498 -1.3521
  265MPD2    H2 4067   2.086   2.407  15.688  0.5623  1.6041  0.7742
  265MPD2    H3 4068   2.143   2.208  15.600 -1.1559  1.1640  1.6256
  265MPD2     N 4069   2.358   2.371  15.241  0.0886  0.4972 -0.1878
  265MPD2    H5 4070   2.397   2.278  15.230  0.0457  0.4166  0.3554
  265MPD2    N1 4071   2.173   2.654  15.599  0.0765  0.0707 -0.3588
  265MPD2    H7 4072   2.207   2.732  15.543 -0.5543  1.4289  1.1415
  266TMC3    C1 4073   2.087   2.826  15.741 -0.5641 -0.8850 -0.3340
  266TMC3    C2 4074   2.032   2.858  15.861 -0.2164  0.2984  0.6708
  266TMC3    C3 4075   2.049   2.984  15.914  0.0365  0.2889  0.4672
  266TMC3    C4 4076   2.151   2.919  15.663  0.4573  0.1896  0.0945
  266TMC3    C5 4077   2.156   3.047  15.711 -0.5954 -0.6978  0.7731
  266TMC3    C6 4078   2.104   3.080  15.830 -0.3106 -0.3695 -0.2827
  266TMC3     C 4079   2.100   2.682  15.710 -0.4291  0.3910  0.4071
  266TMC3     O 4080   2.024   2.606  15.776  0.0156 -0.2036  0.0094
  266TMC3     H 4081   1.977   2.783  15.916 -1.4735  0.7099 -0.0233
  266TMC3    H1 4082   2.196   2.897  15.568 -0.8102 -0.1310 -0.4304
  266TMC3    H2 4083   2.096   3.184  15.860 -2.0532 -0.2263 -1.2434
  266TMC3    C7 4084   2.230   3.153  15.641 -1.4618 -0.5892  0.3497
  266TMC3    C8 4085   1.987   3.012  16.038  0.1317  0.1085 -0.2731
  266TMC3    O1 4086   2.249   3.139  15.517 -0.6771  0.2507  0.2766
  266TMC3    O2 4087   1.933   2.914  16.088  0.3846  0.2514  0.0966
  267MPD2     C 4088   0.944   4.249  16.996 -0.0338 -0.4909  0.5119
  267MPD2    C1 4089   0.947   4.284  17.128 -0.0989  0.0679  0.3996
  267MPD2    C2 4090   0.830   4.350  17.178 -0.7064  0.5434 -1.1008
  267MPD2    C3 4091   0.721   4.388  17.099 -0.2199  1.3854  0.5655
  267MPD2    C4 4092   0.721   4.346  16.972 -0.0967 -0.1002  0.0647
  267MPD2    C5 4093   0.834   4.276  16.921 -0.7040  0.2598  0.0889
  267MPD2     H 4094   0.836   4.386  17.280  0.8461  0.2298 -1.0702
  267MPD2    H1 4095   0.637   4.369  16.908 -0.0502 -0.9505 -0.3062
  267MPD2    H2 4096   1.022   4.189  16.950  0.9474 -0.2898  1.8886
  267MPD2    H3 4097   0.831   4.242  16.818  0.6768  1.0986 -0.2272
  267MPD2     N 4098   0.618   4.468  17.146 -0.2462 -0.1453 -0.0960
  267MPD2    H5 4099   0.536   4.451  17.089  0.6596 -1.9808 -0.8494
  267MPD2    N1 4100   1.058   4.239  17.201 -0.0192 -0.1264  0.1864
  267MPD2    H7 4101   1.140   4.204  17.152 -1.6648 -1.2816 -1.7399
  268TMC3    C1 4102   1.200   4.262  17.379  0.7888  0.4787 -0.3748
  268TMC3    C2 4103   1.264   4.366  17.328  0.1691  0.4878 -0.5879
  268TMC3    C3 4104   1.339   4.440  17.410  0.6756 -0.9300  0.0980
  268TMC3    C4 4105   1.217   4.227  17.512  0.3331  0.4419 -0.0281
  268TMC3    C5 4106   1.303   4.300  17.588 -0.8550  0.7722 -0.5101
  268TMC3    C6 4107   1.365   4.409  17.542 -0.7312  0.1602  0.4051
  268TMC3     C 4108   1.066   4.246  17.340 -0.2040  0.0124 -0.3100
  268TMC3     O 4109   0.970   4.258  17.412 -0.2363 -0.2788 -0.7263
  268TMC3     H 4110   1.265   4.372  17.220 -1.0341 -0.1344 -0.6319
  268TMC3    H1 4111   1.166   4.137  17.544 -1.5338  1.0547 -1.3193
  268TMC3    H2 4112   1.434   4.472  17.596  1.5424 -2.0452  0.0484
  268TMC3    C7 4113   1.292   4.276  17.732 -0.2140 -0.8196 -0.4470
  268TMC3    C8 4114   1.385   4.570  17.356 -0.8324 -0.9096  0.3634
  268TMC3    O1 4115   1.250   4.168   0.019  0.3980  0.2730  0.3827
  268TMC3    O2 4116   1.490   4.615  17.400  0.1406 -0.2011  0.2464
  269MPD2     C 4117   0.292   2.998  15.640  0.0125  0.4143  0.4190
  269MPD2    C1 4118   0.199   3.033  15.736  0.3665 -0.3285 -0.3729
  269MPD2    C2 4119   0.151   3.167  15.750  0.3295 -0.0539  0.6620
  269MPD2    C3 4120   0.197   3.263  15.663 -0.8575 -0.2212  0.4214
  269MPD2    C4 4121   0.286   3.222  15.562  0.0754  0.2785  0.4701
  269MPD2    C5 4122   0.332   3.097  15.558 -0.1768  0.7950 -0.0808
  269MPD2     H 4123   0.085   3.194  15.832  1.4511  1.7805  0.9482
  269MPD2    H1 4124   0.322   3.290  15.486 -0.5109 -1.5629 -1.4690
  269MPD2    H2 4125   0.333   2.898  15.630 -0.1598  0.6548 -2.6007
  269MPD2    H3 4126   0.401   3.078  15.476 -0.1046 -1.8691  0.5970
  269MPD2     N 4127   0.175   3.403  15.682  0.8274  1.0191 -0.1894
  269MPD2    H5 4128   0.101   3.427  15.748  1.3244  0.9734  0.3907
  269MPD2    N1 4129   0.163   2.927  15.821 -0.3463  0.2141 -0.2027
  269MPD2    H7 4130   0.211   2.838  15.806  0.4078  0.5973 -0.0664
  270TMC3    C1 4131   0.071   2.799  15.991 -0.1000 -0.5015  0.3176
  270TMC3    C2 4132   4.701   2.719  15.965  0.2113  0.2006 -0.0446
  270TMC3    C3 4133   4.719   2.582  15.966 -0.2207  0.7747 -0.5469
  270TMC3    C4 4134   0.200   2.749  16.016  0.3349  0.2025  0.5205
  270TMC3    C5 4135   0.211   2.614  16.015  0.7428  0.7461 -0.5387
  270TMC3    C6 4136   0.099   2.529  15.990 -0.2503  0.0704  0.3595
  270TMC3     C 4137   0.074   2.921  15.924  0.5820  0.1585  0.1738
  270TMC3     O 4138   4.718   2.998  15.953 -0.1210 -0.2964 -0.2670
  270TMC3     H 4139   4.614   2.769  15.924  0.8483  0.8559 -0.5850
  270TMC3    H1 4140   0.287   2.811  16.035 -1.2414  2.8229 -0.8517
  270TMC3    H2 4141   0.111   2.423  16.011  0.3229 -0.0363 -0.5060
  270TMC3    C7 4142   0.333   2.560  15.969 -0.2341  0.3996 -0.1293
  270TMC3    C8 4143   4.632   2.501  15.883 -0.1080 -0.2532 -0.3642
  270TMC3    O1 4144   0.440   2.606  16.004  0.0444  0.2569  0.5791
  270TMC3    O2 4145   4.696   2.417  15.822  0.4855 -0.4608  0.4450
  271MPD2     C 4146   3.838   2.562  14.107 -0.4514  0.2207  0.7528
  271MPD2    C1 4147   3.800   2.594  14.242 -0.4223  0.3666  0.0858
  271MPD2    C2 4148   3.697   2.684  14.257 -0.3627 -0.5464 -0.2755
  271MPD2    C3 4149   3.623   2.742  14.148 -0.0252  0.4357 -0.0119
  271MPD2    C4 4150   3.662   2.700  14.021 -0.1982  0.2658  0.7296
  271MPD2    C5 4151   3.763   2.609  14.003 -0.1458 -0.3575 -0.1835
  271MPD2     H 4152   3.678   2.724  14.356  1.6496  4.4834 -1.9094
  271MPD2    H1 4153   3.606   2.734  13.935  0.4590  0.0031  0.1956
  271MPD2    H2 4154   3.914   2.489  14.082 -0.1783  1.4570 -2.0258
  271MPD2    H3 4155   3.784   2.569  13.904  0.1648  1.6638 -0.9356
  271MPD2     N 4156   3.502   2.803  14.157  0.7741 -0.6227 -0.5303
  271MPD2    H5 4157   3.457   2.818  14.067 -0.4035  1.4445  0.3952
  271MPD2    N1 4158   3.856   2.540  14.358  0.2060 -0.4939 -0.1025
  271MPD2    H7 4159   3.828   2.577  14.449 -0.5742  0.4001 -0.7075
  272TMC3    C1 4160   4.016   2.402  14.481  0.4853  0.4772 -0.0411
  272TMC3    C2 4161   4.083   2.291  14.485  0.2153  0.2573 -0.0318
  272TMC3    C3 4162   4.120   2.244  14.610  0.5092  0.2187  0.1933
  272TMC3    C4 4163   4.002   2.488  14.591 -0.7185 -0.5059 -0.6372
  272TMC3    C5 4164   4.045   2.446  14.714  0.7650 -0.0483 -0.2312
  272TMC3    C6 4165   4.095   2.320  14.723  0.3498  0.5543  0.3459
  272TMC3     C 4166   3.948   2.442  14.356  1.1651 -0.1811 -0.3930
  272TMC3     O 4167   3.967   2.364  14.259  0.3275  0.5306  0.5727
  272TMC3     H 4168   4.105   2.238  14.392  1.0706 -0.0490  0.3506
  272TMC3    H1 4169   3.951   2.582  14.575 -1.7608 -0.5295  2.5971
  272TMC3    H2 4170   4.098   2.275  14.822 -0.3562  0.3667  0.2781
  272TMC3    C7 4171   4.002   2.520  14.836  0.4996 -0.8617  0.4886
  272TMC3    C8 4172   4.184   2.110  14.614 -0.6581  0.3226 -0.3032
  272TMC3    O1 4173   3.909   2.596  14.824  0.1473  0.2207 -0.0727
  272TMC3    O2 4174   4.192   2.050  14.506  0.0599  0.3883  0.6887
  273MPD2     C 4175   4.543   0.333  12.024 -0.3590 -0.2177  0.0055
  273MPD2    C1 4176   4.661   0.291  11.967 -0.1000  0.1544  0.2934
  273MPD2    C2 4177   4.672   0.285  11.828 -0.4366 -0.2935 -0.0376
  273MPD2    C3 4178   4.562   0.309  11.749 -0.0166 -0.0955  0.1420
  273MPD2    C4 4179   4.446   0.352  11.809  0.3809 -0.1263 -0.2225
  273MPD2    C5 4180   4.439   0.372  11.942  0.0378 -0.6537  1.0377
  273MPD2     H 4181   0.030   0.249  11.791  0.1548 -0.9498  2.1848
  273MPD2    H1 4182   4.355   0.362  11.751  0.2953  1.6729  0.1982
  273MPD2    H2 4183   4.519   0.336  12.130 -0.5151 -0.5971 -0.0204
  273MPD2    H3 4184   4.347   0.408  11.987  0.3121  0.7225  0.4940
  273MPD2     N 4185   4.556   0.273  11.616  0.1399  0.4120  0.0761
  273MPD2    H5 4186   4.471   0.294  11.563  0.7114 -0.4201 -1.1953
  273MPD2    N1 4187   0.027   0.252  12.058  0.3370 -0.4629 -0.0475
  273MPD2    H7 4188   0.000   0.245  12.156  0.5121  0.5062  0.0753
  274TMC3    C1 4189   4.648   0.249  11.406 -0.1735  0.9628  0.5921
  274TMC3    C2 4190   4.513   0.256  11.362 -0.0502 -0.3951 -0.6448
  274TMC3    C3 4191   4.491   0.301  11.232  0.3653 -0.8813  0.0131
  274TMC3    C4 4192   0.020   0.277  11.324 -0.4039 -0.4971 -0.8335
  274TMC3    C5 4193   4.724   0.322  11.200  0.0533 -0.1838  0.7157
  274TMC3    C6 4194   4.592   0.330  11.155  0.2779  0.2340  0.1200
  274TMC3     C 4195   4.671   0.248  11.541  0.0931 -0.5978  0.2325
  274TMC3     O 4196   0.051   0.236  11.568 -0.2433 -0.0832 -0.2259
  274TMC3     H 4197   4.436   0.200  11.415 -0.7631  1.8508  0.7087
  274TMC3    H1 4198   0.122   0.280  11.358 -0.7272 -3.0037  0.3602
  274TMC3    H2 4199   4.565   0.407  11.084  1.7596 -0.1616 -0.8552
  274TMC3    C7 4200   0.084   0.400  11.129  0.5630 -0.2241  0.1560
  274TMC3    C8 4201   4.362   0.285  11.173 -0.1652 -0.4936  0.2445
  274TMC3    O1 4202   0.045   0.495  11.064 -0.3887  0.1761 -0.0968
  274TMC3    O2 4203   4.259   0.290  11.240  0.2913 -0.2404  0.3908
  275MPD2     C 4204   4.733   3.625  14.242 -0.5223  0.3166  0.0955
  275MPD2    C1 4205   0.054   3.634  14.368 -0.1172  0.6676 -0.0957
  275MPD2    C2 4206   0.038   3.533  14.458 -0.7236  0.0439  0.0944
  275MPD2    C3 4207   4.708   3.413  14.435  0.4045 -0.3150 -0.0703
  275MPD2    C4 4208   4.650   3.410  14.310  0.3600  0.4593  0.3273
  275MPD2    C5 4209   4.669   3.512  14.218 -0.0832 -0.0231  0.1712
  275MPD2     H 4210   0.097   3.538  14.549  0.9948 -4.4508 -0.7562
  275MPD2    H1 4211   4.602   3.317  14.279  3.5242 -0.7123 -1.0876
  275MPD2    H2 4212   4.731   3.702  14.166 -0.4514 -0.9462 -1.1858
  275MPD2    H3 4213   4.622   3.503  14.120  1.0523 -0.2316 -0.3461
  275MPD2     N 4214   4.708   3.305  14.522 -0.2658 -0.2294 -0.0089
  275MPD2    H5 4215   4.678   3.215  14.486  2.7088 -1.2963  0.2340
  275MPD2    N1 4216   0.112   3.748  14.427 -0.2468 -0.0884  0.4213
  275MPD2    H7 4217   0.146   3.748  14.523  1.5956 -0.6233 -0.2161
  276TMC3    C1 4218   0.170   3.973  14.460  0.0673  0.3749 -0.3573
  276TMC3    C2 4219   0.098   3.945  14.573 -0.1253 -0.7709 -0.1506
  276TMC3    C3 4220   0.166   3.976  14.693  0.0345  0.5817  0.3665
  276TMC3    C4 4221   0.302   4.014  14.456  0.0947 -0.3641  0.3958
  276TMC3    C5 4222   0.358   4.050  14.579  0.6549  0.0805 -0.0555
  276TMC3    C6 4223   0.289   4.024  14.693 -0.0876 -0.4847  0.5309
  276TMC3     C 4224   0.128   3.869  14.365 -0.9001 -0.1004  1.1017
  276TMC3     O 4225   0.121   3.892  14.244  0.5750  0.1836 -0.0790
  276TMC3     H 4226   4.732   3.914  14.573 -0.0721 -0.9502  0.7166
  276TMC3    H1 4227   0.351   4.032  14.361  0.4679  3.0748  1.2320
  276TMC3    H2 4228   0.339   4.028  14.789 -1.5607  1.7142  1.2034
  276TMC3    C7 4229   0.500   4.055  14.597 -0.6191 -0.1893 -0.0456
  276TMC3    C8 4230   0.130   3.883  14.798 -0.5235  0.3787  0.3414
  276TMC3    O1 4231   0.546   3.999  14.695 -0.1828 -0.0814 -0.2502
  276TMC3    O2 4232   0.027   3.898  14.861  0.2206 -0.2008  0.3965
  277MPD2     C 4233   2.861   2.741  13.509  0.2755  0.1787  1.2331
  277MPD2    C1 4234   2.726   2.719  13.473 -0.6170 -0.9099 -0.1485
  277MPD2    C2 4235   2.658   2.605  13.522 -0.2340  0.1084  0.1948
  277MPD2    C3 4236   2.718   2.529  13.612  0.7146  0.4532  0.7231
  277MPD2    C4 4237   2.852   2.542  13.642  0.3607 -0.2103 -0.1731
  277MPD2    C5 4238   2.924   2.646  13.583  0.5344 -0.0770  0.1640
  277MPD2     H 4239   2.556   2.576  13.499  0.6492 -1.1494 -2.0747
  277MPD2    H1 4240   2.894   2.480  13.720 -1.7339 -0.3011  0.8827
  277MPD2    H2 4241   2.918   2.828  13.478  1.4247 -0.3650  1.8311
  277MPD2    H3 4242   3.025   2.672  13.612  0.3062  0.1164  0.8125
  277MPD2     N 4243   2.630   2.446  13.688 -0.4849 -0.3796  0.3000
  277MPD2    H5 4244   2.531   2.464  13.676  0.0886  1.0227 -2.4459
  277MPD2    N1 4245   2.663   2.819  13.400  0.1111  0.0032  0.0386
  277MPD2    H7 4246   2.724   2.898  13.385 -1.0622  0.5638 -1.8343
  278TMC3    C1 4247   2.548   2.314  13.858 -0.9256 -0.3698  0.3523
  278TMC3    C2 4248   2.549   2.182  13.878 -0.0161 -0.0229 -0.5215
  278TMC3    C3 4249   2.439   2.113  13.852  0.2291  0.3815  0.3687
  278TMC3    C4 4250   2.433   2.374  13.836  1.1843 -0.3301  0.2902
  278TMC3    C5 4251   2.317   2.304  13.831  0.7470 -0.1255  0.1527
  278TMC3    C6 4252   2.314   2.168  13.846 -0.6941  0.2009 -0.9181
  278TMC3     C 4253   2.664   2.377  13.803 -0.0598  0.5903  0.7977
  278TMC3     O 4254   2.771   2.353  13.855  0.4741  0.2955 -0.0354
  278TMC3     H 4255   2.646   2.134  13.882  0.3718  0.8053  0.0452
  278TMC3    H1 4256   2.417   2.481  13.837 -1.7900 -0.7751  1.7889
  278TMC3    H2 4257   2.220   2.114  13.842 -0.3495 -0.4681  0.0318
  278TMC3    C7 4258   2.193   2.375  13.849  0.5761 -0.1529 -0.0756
  278TMC3    C8 4259   2.462   1.969  13.886  0.7594 -0.6008  0.4373
  278TMC3    O1 4260   2.198   2.477  13.911  0.7277 -0.0410  0.3957
  278TMC3    O2 4261   2.551   1.940  13.964 -0.1007  0.7409  0.2563
  279MPD2     C 4262   1.980   2.593   0.033  0.3465 -0.1877  0.6503
  279MPD2    C1 4263   2.008   2.731   0.010 -0.3757 -0.1888 -0.7453
  279MPD2    C2 4264   2.042   2.776  17.635  0.9899  0.0007 -0.3530
  279MPD2    C3 4265   2.031   2.689  17.524  0.1257 -0.4770 -0.5387
  279MPD2    C4 4266   2.007   2.551  17.543  0.4369  0.7429 -0.2730
  279MPD2    C5 4267   1.969   2.512  17.673  0.0002 -0.1873 -0.9073
  279MPD2     H 4268   2.049   2.881  17.612 -1.9857 -0.0195 -1.4513
  279MPD2    H1 4269   1.997   2.484  17.459 -2.0521 -0.1200  0.7188
  279MPD2    H2 4270   1.945   2.570   0.133  1.0763 -0.4521  0.8425
  279MPD2    H3 4271   1.913   2.419  17.679  0.9598 -0.6183  1.1086
  279MPD2     N 4272   2.065   2.725  17.396  0.0506 -0.1839 -0.8584
  279MPD2    H5 4273   2.038   2.664  17.319  0.3617 -0.7181 -0.5490
  279MPD2    N1 4274   1.965   2.820   0.116  0.8722 -0.0738  0.1283
  279MPD2    H7 4275   1.947   2.774   0.204 -0.3344  0.1049 -0.0322
  280TMC3    C1 4276   1.883   3.021   0.205 -0.0734  0.2101  0.0641
  280TMC3    C2 4277   1.771   2.951   0.237  0.9592 -0.5230 -0.2418
  280TMC3    C3 4278   1.667   3.026   0.288 -0.6919 -0.2549 -0.3822
  280TMC3    C4 4279   1.893   3.157   0.220 -0.1694  0.8357  0.2810
  280TMC3    C5 4280   1.786   3.218   0.286 -0.0323 -0.1570  0.1255
  280TMC3    C6 4281   1.667   3.149   0.307 -0.0571 -0.4492  0.5362
  280TMC3     C 4282   1.968   2.960   0.113  0.0783  0.3136  0.1908
  280TMC3     O 4283   1.992   3.037   0.019 -0.0665 -0.4565 -0.0230
  280TMC3     H 4284   1.761   2.843   0.226 -0.5613 -0.2636 -1.4083
  280TMC3    H1 4285   1.983   3.212   0.195  0.1709  0.2927  0.3042
  280TMC3    H2 4286   1.575   3.196   0.340  2.0645  2.4991  2.2458
  280TMC3    C7 4287   1.773   3.354   0.275  0.0219  0.0634  0.2262
  280TMC3    C8 4288   1.550   2.939   0.321 -0.6994  1.4260 -0.0986
  280TMC3    O1 4289   1.863   3.426   0.314 -0.2335  0.0377 -0.0490
  280TMC3    O2 4290   1.499   2.945   0.427 -0.3721  0.3462 -0.7529
  281TMC3    C1 4291   0.365   2.968  13.412  0.4286 -0.8939 -0.2575
  281TMC3    C2 4292   0.472   3.009  13.341 -0.4658 -0.0876  0.9435
  281TMC3    C3 4293   0.528   2.923  13.246  0.5579  0.0162  0.4344
  281TMC3    C4 4294   0.308   2.841  13.375  0.1536 -0.3691  0.4192
  281TMC3    C5 4295   0.376   2.756  13.287 -0.4308  0.0713  0.0554
  281TMC3    C6 4296   0.490   2.795  13.221 -0.7250 -0.0110  0.1842
  281TMC3     C 4297   0.263   3.061  13.454 -0.1630  0.4682 -0.9317
  281TMC3     O 4298   0.156   3.010  13.478 -0.4401  0.2282 -0.2948
  281TMC3     H 4299   0.519   3.105  13.357 -1.6214  0.1453  2.9918
  281TMC3    H1 4300   0.209   2.806  13.401 -0.3025  0.7474  0.1962
  281TMC3    H2 4301   0.542   2.735  13.147 -1.1917  0.9955 -0.9549
  281TMC3    C7 4302   0.333   2.621  13.262  0.3088  0.1439  0.2045
  281TMC3    C8 4303   0.629   2.977  13.152 -0.5938  0.0280 -1.2373
  281TMC3    O1 4304   0.393   2.563  13.175 -0.0192 -0.6971  0.5283
  281TMC3    O2 4305   0.703   2.889  13.110  0.5068  0.1138 -0.4844
  282MPD2     C 4306   2.345   4.407  15.181  0.7022 -0.3097 -0.4776
  282MPD2    C1 4307   2.220   4.450  15.153  0.1166 -0.2193  0.2870
  282MPD2    C2 4308   2.154   4.407  15.038  0.5733 -0.1331  0.5143
  282MPD2    C3 4309   2.221   4.328  14.939  0.7808  1.1453  0.3839
  282MPD2    C4 4310   2.351   4.282  14.978 -0.8101  0.7104  0.3390
  282MPD2    C5 4311   2.410   4.318  15.102  0.0297 -0.0542  0.0327
  282MPD2     H 4312   2.055   4.447  15.020  1.2947  0.8053 -1.3248
  282MPD2    H1 4313   2.414   4.219  14.916 -1.1389 -2.2930  3.0611
  282MPD2    H2 4314   2.396   4.444  15.269  2.0458  1.0520 -1.8366
  282MPD2    H3 4315   2.512   4.284  15.118  0.3799  2.4923  3.0635
  282MPD2     N 4316   2.161   4.304  14.815  0.1228 -0.3707 -0.5941
  282MPD2    H5 4317   2.081   4.366  14.802  0.0105 -0.2913  0.4544
  282MPD2    N1 4318   2.146   4.527  15.240  0.0721 -0.2646 -0.5790
  282MPD2    H7 4319   2.046   4.537  15.232  0.2358  1.7618 -0.3192
  283TMC3    C1 4320   2.089   4.691  15.403 -0.3196  0.4425 -0.3914
  283TMC3    C2 4321   2.117   0.078  15.442 -0.2476  0.4694 -0.5239
  283TMC3    C3 4322   2.025   0.144  15.520 -0.2254 -0.1270  0.5377
  283TMC3    C4 4323   1.983   4.624  15.453 -1.1716 -0.1398 -0.4631
  283TMC3    C5 4324   1.892   4.697  15.533 -0.4624  0.1781 -0.4090
  283TMC3    C6 4325   1.909   0.093  15.568  0.4166 -0.8046 -0.1694
  283TMC3     C 4326   2.201   4.606  15.338 -0.8157 -0.6458 -0.6083
  283TMC3     O 4327   2.314   4.632  15.366 -0.7426 -0.3486  0.0195
  283TMC3     H 4328   2.211   0.128  15.420  0.0414  0.0523 -0.2355
  283TMC3    H1 4329   1.968   4.519  15.434 -1.7157  0.3282 -2.6342
  283TMC3    H2 4330   1.839   0.152  15.626  0.6814  0.3161 -0.9977
  283TMC3    C7 4331   1.783   4.632  15.595 -0.0772 -0.4615 -0.5826
  283TMC3    C8 4332   2.031   0.288  15.512 -0.0414  0.5003  0.1387
  283TMC3    O1 4333   1.764   4.680  15.704 -0.0060  0.1582 -0.6927
  283TMC3    O2 4334   1.991   0.339  15.611  0.0803  0.4156 -0.2386
  284MPD2     C 4335   0.200   3.625  12.060 -0.0665  0.3156 -0.1425
  284MPD2    C1 4336   0.328   3.635  12.017 -0.4715 -0.1144 -0.3213
  284MPD2    C2 4337   0.428   3.545  12.057 -0.0881  0.5071  0.3951
  284MPD2    C3 4338   0.400   3.448  12.144 -0.4154 -0.3393 -0.1137
  284MPD2    C4 4339   0.270   3.443  12.203 -0.7149 -0.4639  0.3199
  284MPD2    C5 4340   0.174   3.533  12.159 -0.3215  0.1745 -0.1606
  284MPD2     H 4341   0.527   3.545  12.015 -0.9746 -1.6238 -1.6618
  284MPD2    H1 4342   0.246   3.370  12.279 -0.3105 -1.0757 -0.1473
  284MPD2    H2 4343   0.139   3.706  12.022  1.7701  1.6630 -0.2132
  284MPD2    H3 4344   0.072   3.527  12.194  0.1385  1.9045  1.5193
  284MPD2     N 4345   0.506   3.362  12.173  0.2598  0.1653 -0.0108
  284MPD2    H5 4346   0.600   3.381  12.138 -0.0690  0.3566 -0.7694
  284MPD2    N1 4347   0.365   3.713  11.903 -0.5105  0.4099 -0.1358
  284MPD2    H7 4348   0.457   3.710  11.860  0.3625 -2.0016  1.8714
  285TMC3    C1 4349   0.342   3.790  11.692  0.0272 -0.1931 -0.3412
  285TMC3    C2 4350   0.379   3.667  11.651  0.1800  0.0997 -0.6105
  285TMC3    C3 4351   0.496   3.641  11.592  0.2549 -0.7803 -0.2269
  285TMC3    C4 4352   0.422   3.898  11.669 -0.9820  0.2990 -0.1329
  285TMC3    C5 4353   0.542   3.871  11.613  0.1796 -0.4540 -0.5431
  285TMC3    C6 4354   0.579   3.745  11.569 -0.2692  0.2031  0.1165
  285TMC3     C 4355   0.280   3.782  11.818 -0.9203 -0.1113  0.2174
  285TMC3     O 4356   0.165   3.824  11.839 -0.2736  0.4497  0.4223
  285TMC3     H 4357   0.306   3.587  11.655 -0.3971  0.7588  2.1418
  285TMC3    H1 4358   0.397   3.995  11.711 -1.5589 -0.2487  0.7811
  285TMC3    H2 4359   0.677   3.737  11.524 -1.4360 -1.2822 -2.1332
  285TMC3    C7 4360   0.621   3.982  11.590  0.4134  0.8542  0.7500
  285TMC3    C8 4361   0.495   3.527  11.504 -0.1018  0.1679  0.2071
  285TMC3    O1 4362   0.741   3.967  11.574 -0.9773 -0.1825 -0.1462
  285TMC3    O2 4363   0.422   3.433  11.532 -0.3129  0.0906  0.0755
  286MPD2     C 4364   0.708   2.633   0.992 -0.3543  0.0117  0.0020
  286MPD2    C1 4365   0.817   2.649   1.069 -0.0487 -0.7288  0.4856
  286MPD2    C2 4366   0.884   2.537   1.116 -0.5690  0.4487  0.5333
  286MPD2    C3 4367   0.860   2.411   1.062  1.0314  0.2798  0.2782
  286MPD2    C4 4368   0.767   2.406   0.966 -0.5628 -0.0935  0.0231
  286MPD2    C5 4369   0.693   2.516   0.933 -0.0216 -0.1162 -0.4360
  286MPD2     H 4370   0.951   2.555   1.199  0.7345 -2.0819  0.0036
  286MPD2    H1 4371   0.744   2.312   0.918  0.6370 -0.8951  0.9923
  286MPD2    H2 4372   0.655   2.719   0.954 -1.2817 -0.4916  0.1706
  286MPD2    H3 4373   0.616   2.490   0.861 -0.4603 -1.3252  0.4754
  286MPD2     N 4374   0.924   2.290   1.107  0.3097  0.0415  0.6437
  286MPD2    H5 4375   0.909   2.210   1.047  0.9273 -0.5037  1.2228
  286MPD2    N1 4376   0.857   2.775   1.126  0.1628 -0.1442 -0.2814
  286MPD2    H7 4377   0.946   2.784   1.174  0.2625  0.9166 -0.6855
  287TMC3    C1 4378   1.068   2.154   1.232 -0.2143 -0.0324 -0.1946
  287TMC3    C2 4379   1.047   2.056   1.140 -0.3173  0.0516  0.4715
  287TMC3    C3 4380   1.139   1.955   1.144 -0.8203  0.2649  0.1564
  287TMC3    C4 4381   1.176   2.157   1.316  0.0638  0.1893  0.5767
  287TMC3    C5 4382   1.271   2.059   1.309 -0.1384  0.6084  0.2279
  287TMC3    C6 4383   1.246   1.947   1.233 -0.3844  0.3574  0.2772
  287TMC3     C 4384   0.999   2.281   1.222  0.1741 -0.1115  0.0748
  287TMC3     O 4385   1.011   2.361   1.316  0.1209 -0.6762 -0.5482
  287TMC3     H 4386   0.973   2.054   1.061 -1.0096 -1.5346  1.1596
  287TMC3    H1 4387   1.197   2.241   1.381 -1.3025  3.6708 -3.4498
  287TMC3    H2 4388   1.308   1.861   1.213 -0.8725  0.5703 -2.2589
  287TMC3    C7 4389   1.389   2.065   1.399  0.9593  0.0590  0.2418
  287TMC3    C8 4390   1.152   1.878   1.022  0.3507  1.2202 -0.4892
  287TMC3    O1 4391   1.382   2.148   1.489  0.2511 -0.2877  0.4503
  287TMC3    O2 4392   1.215   1.775   1.031  0.0060 -0.1535  0.1169
  288TMC3    C1 4393   2.724   2.317  14.437 -0.7915 -0.3155  0.1410
  288TMC3    C2 4394   2.611   2.319  14.506  0.3107  0.1597 -0.1882
  288TMC3    C3 4395   2.518   2.425  14.486 -0.1585 -0.6570 -0.1591
  288TMC3    C4 4396   2.742   2.402  14.332 -0.3941 -0.3031 -0.0632
  288TMC3    C5 4397   2.647   2.499  14.306 -0.7150  0.0622 -0.2999
  288TMC3    C6 4398   2.534   2.519  14.383 -0.3700 -0.3806 -0.0034
  288TMC3     C 4399   2.804   2.197  14.462 -0.1740 -0.1472 -0.2272
  288TMC3     O 4400   2.781   2.120  14.551  0.2181  0.1469  0.6287
  288TMC3     H 4401   2.598   2.262  14.597 -3.0327 -1.8740 -1.8905
  288TMC3    H1 4402   2.829   2.396  14.268 -1.2897  0.0146 -1.3209
  288TMC3    H2 4403   2.463   2.598  14.363  0.2447  0.7337  2.1778
  288TMC3    C7 4404   2.688   2.593  14.201 -0.1832 -0.1559 -0.2130
  288TMC3    C8 4405   2.415   2.449  14.584  0.2646 -0.7628 -0.2113
  288TMC3    O1 4406   2.806   2.593  14.168 -0.2354 -0.3616  0.7563
  288TMC3    O2 4407   2.413   2.560  14.636  0.7271 -0.1379  0.0669
  289MPD2     C 4408   2.770   1.243  14.368 -1.4725  0.1482  0.5831
  289MPD2    C1 4409   2.733   1.331  14.264 -0.8139  0.9884  0.2511
  289MPD2    C2 4410   2.606   1.330  14.223  0.0307 -0.5507 -0.1895
  289MPD2    C3 4411   2.504   1.245  14.277  0.0402 -0.5592  0.7516
  289MPD2    C4 4412   2.543   1.153  14.373 -0.4793  0.4554 -0.0015
  289MPD2    C5 4413   2.678   1.157  14.421  0.6866  0.5875  0.3630
  289MPD2     H 4414   2.574   1.396  14.143  1.0177 -0.3320 -0.4051
  289MPD2    H1 4415   2.470   1.090  14.423 -2.6573  3.1490  0.1775
  289MPD2    H2 4416   2.862   1.253  14.424 -0.0359  0.0177 -1.7788
  289MPD2    H3 4417   2.711   1.087  14.497  1.7981  2.0576  1.2317
  289MPD2     N 4418   2.369   1.259  14.240  0.0992 -0.1826  0.2197
  289MPD2    H5 4419   2.347   1.343  14.186  0.1066 -0.3438 -0.0344
  289MPD2    N1 4420   2.838   1.413  14.215  0.4424 -1.4154 -0.1487
  289MPD2    H7 4421   2.932   1.414  14.254 -0.2634 -0.0206  1.5337
  290TMC3    C1 4422   2.151   1.203  14.207 -0.2231  0.2893 -0.3299
  290TMC3    C2 4423   2.121   1.342  14.188  0.3208  0.0731  0.7020
  290TMC3    C3 4424   1.999   1.372  14.131 -0.9523 -0.4349  0.5617
  290TMC3    C4 4425   2.069   1.109  14.148 -0.1573  0.2671  0.2408
  290TMC3    C5 4426   1.955   1.149  14.083  0.6379  0.0216 -0.1271
  290TMC3    C6 4427   1.915   1.278  14.076 -0.5444 -0.0039 -0.4673
  290TMC3     C 4428   2.277   1.158  14.248 -0.1168 -0.2701  0.1856
  290TMC3     O 4429   2.282   1.040  14.272 -0.3975 -0.0257 -0.1020
  290TMC3     H 4430   2.190   1.417  14.224  0.2350  0.0568  0.8987
  290TMC3    H1 4431   2.098   1.005  14.143 -0.0575  0.0927  4.5231
  290TMC3    H2 4432   1.826   1.307  14.021 -0.5506 -0.7213 -0.8269
  290TMC3    C7 4433   1.892   1.066  13.985 -0.0687  0.3401 -0.7937
  290TMC3    C8 4434   1.958   1.513  14.093  0.1217  0.8576 -0.5737
  290TMC3    O1 4435   1.838   1.122  13.888  0.0785  0.0378 -0.6911
  290TMC3    O2 4436   1.880   1.522  14.002  0.1533 -0.0809  0.3987
  291MPD2     C 4437   1.885   1.627   0.652 -0.7793 -0.0341  0.2610
  291MPD2    C1 4438   1.925   1.510   0.588 -0.9878 -0.0061  0.8355
  291MPD2    C2 4439   1.982   1.511   0.462  0.4431 -0.1945 -0.3848
  291MPD2    C3 4440   2.033   1.626   0.408  0.9074 -0.0958 -0.2198
  291MPD2    C4 4441   1.992   1.743   0.460  0.8893  0.2822  0.2172
  291MPD2    C5 4442   1.921   1.742   0.584  0.4399 -0.3172 -0.1390
  291MPD2     H 4443   1.999   1.422   0.403  0.8818 -1.2280  1.3107
  291MPD2    H1 4444   2.023   1.837   0.416  0.5154  0.5260  0.4742
  291MPD2    H2 4445   1.839   1.639   0.750  2.2375 -0.0394  1.6879
  291MPD2    H3 4446   1.892   1.837   0.628 -1.3951  0.0813 -2.2111
  291MPD2     N 4447   2.112   1.629   0.289 -1.2435 -0.1281 -0.0297
  291MPD2    H5 4448   2.133   1.725   0.264 -0.3404 -0.7985 -1.8300
  291MPD2    N1 4449   1.900   1.375   0.636 -0.3275  0.1781 -0.0856
  291MPD2    H7 4450   1.909   1.302   0.567 -0.4440  0.0814  0.0015
  292TMC3    C1 4451   1.767   1.222   0.764  0.1717  0.5185 -1.1033
  292TMC3    C2 4452   1.680   1.207   0.872 -0.6361  0.0027 -0.5527
  292TMC3    C3 4453   1.614   1.096   0.884  0.1602 -0.0444 -0.3279
  292TMC3    C4 4454   1.771   1.126   0.665  0.1066 -0.5236  0.1831
  292TMC3    C5 4455   1.701   1.008   0.686  0.5447  0.0059 -0.0281
  292TMC3    C6 4456   1.617   0.989   0.792 -0.4735 -0.1425 -0.6159
  292TMC3     C 4457   1.816   1.360   0.746 -0.3086  0.0118 -0.0049
  292TMC3     O 4458   1.794   1.435   0.839 -0.0993 -0.3750 -0.9540
  292TMC3     H 4459   1.666   1.280   0.950 -3.7028 -1.8840  0.6782
  292TMC3    H1 4460   1.834   1.140   0.578  0.3443  0.7320  0.5669
  292TMC3    H2 4461   1.553   0.901   0.791  0.6935 -0.9843 -0.4295
  292TMC3    C7 4462   1.721   0.897   0.594 -0.6611  0.5070 -0.0285
  292TMC3    C8 4463   1.532   1.073   1.008  0.1993  0.8530  0.5805
  292TMC3    O1 4464   1.741   0.909   0.471  0.0737 -0.7065  0.0872
  292TMC3    O2 4465   1.580   1.109   1.117 -0.0406 -0.1765  0.3493
  293MPD2     C 4466   3.581   2.621  12.572  0.0841 -0.0785  0.2788
  293MPD2    C1 4467   3.457   2.625  12.626 -0.8392  0.0341  0.4012
  293MPD2    C2 4468   3.451   2.616  12.761  0.5154 -0.2038 -0.0655
  293MPD2    C3 4469   3.567   2.623  12.843 -0.3592  0.1840 -0.0430
  293MPD2    C4 4470   3.689   2.640  12.768  0.4270 -0.6235  0.5243
  293MPD2    C5 4471   3.699   2.645  12.631  0.0055  0.6603  0.1798
  293MPD2     H 4472   3.356   2.604  12.813  0.5122  1.2008  0.2581
  293MPD2    H1 4473   3.785   2.653  12.817 -0.9507  0.5634  2.8718
  293MPD2    H2 4474   3.599   2.614  12.465  2.9813 -1.0870  0.8253
  293MPD2    H3 4475   3.797   2.663  12.586  0.6888 -1.5127  0.8226
  293MPD2     N 4476   3.552   2.620  12.982  0.6346  0.3469  0.0361
  293MPD2    H5 4477   3.459   2.625  13.022  0.1407 -1.2375 -0.9104
  293MPD2    N1 4478   3.350   2.616  12.531 -0.5304  0.2945 -0.0260
  293MPD2    H7 4479   3.376   2.631  12.434 -2.2623 -1.1376 -0.6948
  294TMC3    C1 4480   3.141   2.565  12.449  0.3882  0.8640  0.9241
  294TMC3    C2 4481   3.060   2.453  12.462  0.6759 -0.4880  0.5475
  294TMC3    C3 4482   3.042   2.372  12.348  0.0286  0.4756  0.2219
  294TMC3    C4 4483   3.198   2.588  12.323  1.0430 -0.0933  0.2057
  294TMC3    C5 4484   3.169   2.500  12.219 -0.3079 -0.1967  0.2802
  294TMC3    C6 4485   3.095   2.390  12.226 -0.1672 -0.1226 -0.1822
  294TMC3     C 4486   3.217   2.601  12.562  0.5158  0.0309  0.0295
  294TMC3     O 4487   3.163   2.574  12.668  0.2274  0.2587 -0.0756
  294TMC3     H 4488   3.000   2.447  12.552 -0.8587 -1.1398 -0.5325
  294TMC3    H1 4489   3.260   2.675  12.299 -0.2538  1.5085  2.6967
  294TMC3    H2 4490   3.066   2.332  12.139 -0.8368  1.8078 -1.2330
  294TMC3    C7 4491   3.226   2.530  12.095  0.4762 -0.0624  0.0818
  294TMC3    C8 4492   2.947   2.264  12.373 -0.0727 -0.3733  0.0146
  294TMC3    O1 4493   3.252   2.645  12.068  0.3959 -0.2600 -0.1006
  294TMC3    O2 4494   2.857   2.297  12.445  0.0007  0.4424 -0.0626
  295MPD2     C 4495   4.660   1.597   0.601  0.0588 -0.0437 -0.7550
  295MPD2    C1 4496   4.617   1.594   0.470 -0.6667 -0.2339 -0.1300
  295MPD2    C2 4497   4.491   1.568   0.439  0.1680 -0.2390 -0.5484
  295MPD2    C3 4498   4.399   1.541   0.537  0.2403 -0.1630 -0.9340
  295MPD2    C4 4499   4.434   1.545   0.671 -0.2330 -0.2284 -0.3283
  295MPD2    C5 4500   4.566   1.574   0.702 -0.1153 -0.5322 -0.1290
  295MPD2     H 4501   4.462   1.567   0.335  0.9387 -0.0457 -0.7648
  295MPD2    H1 4502   4.358   1.538   0.748 -0.5093  1.5296 -0.4624
  295MPD2    H2 4503   0.027   1.605   0.630 -0.4968 -1.3237  1.6294
  295MPD2    H3 4504   4.595   1.576   0.807  0.6737  1.4463 -0.4049
  295MPD2     N 4505   4.257   1.539   0.510 -0.6484  0.4615 -0.5051
  295MPD2    H5 4506   4.188   1.548   0.584 -2.0515 -1.4832 -1.5864
  295MPD2    N1 4507   4.705   1.627   0.365 -0.2195  0.2375 -0.5441
  295MPD2    H7 4508   4.677   1.598   0.272  0.3707  0.0075 -0.6469
  296TMC3    C1 4509   4.054   1.585   0.378  0.5581 -0.1808 -0.2659
  296TMC3    C2 4510   4.025   1.674   0.278  0.4700 -0.1703  0.7071
  296TMC3    C3 4511   3.931   1.769   0.302  0.2215  0.0597  0.3368
  296TMC3    C4 4512   3.985   1.586   0.494 -0.2012  0.5373  0.2998
  296TMC3    C5 4513   3.893   1.684   0.512 -0.0572  0.1189 -0.5536
  296TMC3    C6 4514   3.868   1.785   0.423  0.2496  0.0038 -0.3983
  296TMC3     C 4515   4.197   1.536   0.384 -0.5846  0.3873  0.2483
  296TMC3     O 4516   4.253   1.522   0.276  0.2585 -0.1042  0.7824
  296TMC3     H 4517   4.085   1.672   0.188  1.9753  0.1357  1.7107
  296TMC3    H1 4518   4.006   1.509   0.567  1.3061 -1.4078 -2.1789
  296TMC3    H2 4519   3.791   1.860   0.439  0.1663 -0.4292  1.2794
  296TMC3    C7 4520   3.851   1.696   0.656  0.1878 -0.5053 -0.5904
  296TMC3    C8 4521   3.933   1.890   0.216 -0.1482  0.6011  1.0097
  296TMC3    O1 4522   3.857   1.596   0.725 -0.6236  0.3549  0.1893
  296TMC3    O2 4523   3.959   1.876   0.098  0.5476  0.1546  0.0117
  297MPD2     C 4524   1.138   3.371  16.015 -0.0822 -0.9534 -0.4969
  297MPD2    C1 4525   1.143   3.507  16.033  0.0807 -0.0327  1.0460
  297MPD2    C2 4526   1.254   3.563  16.091  0.7802 -0.0861 -0.2166
  297MPD2    C3 4527   1.362   3.499  16.144  0.4808  0.0326 -0.1032
  297MPD2    C4 4528   1.350   3.362  16.144  0.3460  0.2219 -0.2190
  297MPD2    C5 4529   1.240   3.302  16.075  0.0535 -0.2419  0.3419
  297MPD2     H 4530   1.256   3.671  16.093 -2.1426 -0.0298 -0.4109
  297MPD2    H1 4531   1.425   3.296  16.187  0.5740  1.3834  1.2143
  297MPD2    H2 4532   1.060   3.308  15.972  0.8551 -0.9741 -2.1348
  297MPD2    H3 4533   1.232   3.194  16.071 -1.2392 -0.1713  0.9470
  297MPD2     N 4534   1.477   3.573  16.186  0.3727 -0.5321  0.5384
  297MPD2    H5 4535   1.488   3.670  16.161 -2.6287 -0.2601  0.2999
  297MPD2    N1 4536   1.050   3.592  15.976  0.3538  0.1742 -0.6706
  297MPD2    H7 4537   1.061   3.693  15.978  2.1204 -0.0330  0.5267
  298TMC3    C1 4538   0.868   3.647  15.850  0.4385  0.3136  0.4856
  298TMC3    C2 4539   0.823   3.649  15.720  0.8763 -0.4793 -0.6658
  298TMC3    C3 4540   0.703   3.716  15.695 -0.2398  0.6025 -0.7859
  298TMC3    C4 4541   0.800   3.704  15.950 -0.0526 -0.1003 -0.6274
  298TMC3    C5 4542   0.691   3.784  15.920 -0.9049 -0.9603 -0.1761
  298TMC3    C6 4543   0.641   3.788  15.791  0.6416  0.1260 -0.1782
  298TMC3     C 4544   0.962   3.547  15.879  0.8301 -0.0936 -0.3404
  298TMC3     O 4545   0.968   3.448  15.812 -0.1525 -0.0430  0.4018
  298TMC3     H 4546   0.870   3.584  15.646 -1.3651 -0.7119 -1.8741
  298TMC3    H1 4547   0.842   3.702  16.050 -1.4690 -2.2144 -0.0835
  298TMC3    H2 4548   0.556   3.850  15.766  0.5682 -1.2617 -3.2792
  298TMC3    C7 4549   0.617   3.839  16.032  0.0148 -0.2239  0.0822
  298TMC3    C8 4550   0.637   3.703  15.561  0.1185  0.4451 -0.7301
  298TMC3    O1 4551   0.646   3.813  16.145 -0.3297  0.0921 -0.1877
  298TMC3    O2 4552   0.536   3.770  15.549  0.6410 -0.9149 -0.4805
  299MPD2     C 4553   1.295   2.170  10.857 -0.0817  0.9144 -0.3474
  299MPD2    C1 4554   1.308   2.223  10.740  0.5682  0.3101 -0.6138
  299MPD2    C2 4555   1.208   2.224  10.649  0.4256 -0.4051  0.4568
  299MPD2    C3 4556   1.084   2.162  10.681  0.6572 -0.3112 -0.3969
  299MPD2    C4 4557   1.074   2.098  10.798 -0.0209 -0.1951 -0.2171
  299MPD2    C5 4558   1.172   2.112  10.893 -0.4515  0.9832  0.1732
  299MPD2     H 4559   1.216   2.280  10.557  0.3729 -0.1427  0.6125
  299MPD2    H1 4560   0.992   2.033  10.826  0.8179 -1.2314 -0.1279
  299MPD2    H2 4561   1.367   2.169  10.938  0.1303 -1.3020 -0.5863
  299MPD2    H3 4562   1.157   2.065  10.990  1.5471 -1.6844 -0.8137
  299MPD2     N 4563   0.981   2.167  10.591  0.1522 -0.0174  0.4724
  299MPD2    H5 4564   0.898   2.120  10.627 -1.1741  1.0238 -1.2529
  299MPD2    N1 4565   1.427   2.286  10.719  0.3328 -0.0657 -0.4401
  299MPD2    H7 4566   1.480   2.303  10.804  0.3499 -1.5709 -0.1538
  300TMC3    C1 4567   0.857   2.207  10.398  0.3177 -0.1790  0.1816
  300TMC3    C2 4568   0.853   2.239  10.266  0.4846 -0.0230 -0.1711
  300TMC3    C3 4569   0.730   2.271  10.210  0.1888  0.9517 -0.1251
  300TMC3    C4 4570   0.748   2.226  10.474 -0.7364  0.4459  0.0110
  300TMC3    C5 4571   0.627   2.261  10.413 -0.3102  0.5121  0.2542
  300TMC3    C6 4572   0.613   2.286  10.281 -0.6181  0.4248  0.2857
  300TMC3     C 4573   0.989   2.207  10.460 -0.3315 -0.0988 -1.0717
  300TMC3     O 4574   1.069   2.284  10.406 -0.2942 -0.2365 -0.3546
  300TMC3     H 4575   0.945   2.235  10.209  1.6608 -0.2641  1.7438
  300TMC3    H1 4576   0.756   2.230  10.582  1.3779 -0.3581 -0.1060
  300TMC3    H2 4577   0.522   2.315  10.230  0.4322  1.6278 -0.9047
  300TMC3    C7 4578   0.509   2.289  10.502  0.2634 -0.0618 -0.1284
  300TMC3    C8 4579   0.747   2.361  10.100  0.0084 -0.6215 -0.6181
  300TMC3    O1 4580   0.402   2.240  10.469 -0.1976  0.1882 -0.2262
  300TMC3    O2 4581   0.664   2.364  10.008  0.0384  0.4289 -0.1206
  301MPD2     C 4582   4.274   4.628   1.066  0.2217  0.4039  0.2061
  301MPD2    C1 4583   4.206   4.588   0.955  0.6666 -0.5352 -0.5158
  301MPD2    C2 4584   4.233   4.460   0.897  0.8065 -0.1362 -0.6693
  301MPD2    C3 4585   4.318   4.366   0.955 -0.1304 -0.2161 -0.1497
  301MPD2    C4 4586   4.394   4.410   1.061  0.2908 -0.2526  0.1153
  301MPD2    C5 4587   4.375   4.539   1.113  0.1848 -0.0227  0.8189
  301MPD2     H 4588   4.175   4.435   0.809 -0.5548 -0.7679  0.4065
  301MPD2    H1 4589   4.461   4.341   1.111 -0.8319 -0.6635  1.0658
  301MPD2    H2 4590   4.248   4.725   1.106 -0.5620  0.1034  0.4334
  301MPD2    H3 4591   4.445   4.566   1.191  0.4410 -0.1175  0.6233
  301MPD2     N 4592   4.331   4.236   0.908 -0.3914  0.1384  0.4561
  301MPD2    H5 4593   4.401   4.177   0.952  2.0311  1.6622 -1.3271
  301MPD2    N1 4594   4.107   4.665   0.877  0.2405 -0.6398  0.0397
  301MPD2    H7 4595   4.079   4.634   0.784 -2.5767  0.5191  0.4900
  302TMC3    C1 4596   4.289   4.055   0.771 -0.4479  0.2722 -0.8265
  302TMC3    C2 4597   4.405   3.995   0.822 -0.2866 -0.3268  0.2449
  302TMC3    C3 4598   4.419   3.859   0.821  0.3968  0.8577 -0.1901
  302TMC3    C4 4599   4.195   3.979   0.705 -0.4776 -0.1640 -0.3856
  302TMC3    C5 4600   4.217   3.842   0.699 -0.0448 -0.0053  0.1524
  302TMC3    C6 4601   4.331   3.782   0.758 -0.1974  0.1402 -0.5292
  302TMC3     C 4602   4.262   4.190   0.800  0.5310  0.1513 -0.0099
  302TMC3     O 4603   4.167   4.232   0.736  0.6011 -0.1825  0.1637
  302TMC3     H 4604   4.486   4.050   0.870 -0.3717  1.4149 -1.6240
  302TMC3    H1 4605   4.103   4.016   0.660 -0.7710 -1.5898 -0.9814
  302TMC3    H2 4606   4.360   3.678   0.752 -2.4772 -0.6174  1.5788
  302TMC3    C7 4607   4.115   3.743   0.663  0.2070 -0.0124  0.0723
  302TMC3    C8 4608   4.539   3.782   0.857 -0.2653  0.5488  0.7197
  302TMC3    O1 4609   4.137   3.622   0.670  0.2006  0.1492  0.6134
  302TMC3    O2 4610   4.562   3.677   0.805  0.5440  0.1324 -0.0771
  303MPD2     C 4611   3.216   1.925  10.439  0.0764 -0.8832  0.3561
  303MPD2    C1 4612   3.172   2.001  10.547 -0.1282 -0.4953  0.0032
  303MPD2    C2 4613   3.244   2.113  10.588  0.1986  0.1780 -0.0754
  303MPD2    C3 4614   3.360   2.141  10.523  1.3043 -1.1681 -0.1631
  303MPD2    C4 4615   3.408   2.058  10.417 -0.2467 -0.4444  0.2931
  303MPD2    C5 4616   3.335   1.948  10.382 -0.5634 -0.1393  0.0748
  303MPD2     H 4617   3.213   2.179  10.667  0.1242  0.6661 -0.5150
  303MPD2    H1 4618   3.502   2.081  10.367 -1.1949  2.0949 -0.3243
  303MPD2    H2 4619   3.161   1.842  10.394  0.7668 -0.8742 -0.5062
  303MPD2    H3 4620   3.372   1.877  10.308  2.6332  1.2616  0.3579
  303MPD2     N 4621   3.448   2.248  10.559 -0.5660  0.0944 -0.5040
  303MPD2    H5 4622   3.526   2.268  10.497  0.9218 -0.6361  1.1141
  303MPD2    N1 4623   3.058   1.955  10.621  0.2086 -0.6025 -0.2221
  303MPD2    H7 4624   3.007   1.875  10.585 -0.0143 -0.2321 -0.7361
  304TMC3    C1 4625   2.885   1.950  10.777  0.3424 -0.1554 -0.1846
  304TMC3    C2 4626   2.873   1.964  10.908 -0.4488  0.4399 -0.4110
  304TMC3    C3 4627   2.753   1.983  10.974 -0.2859 -0.1652 -0.3543
  304TMC3    C4 4628   2.772   1.953  10.696  0.6784 -0.1742 -0.3504
  304TMC3    C5 4629   2.654   1.981  10.757  0.2359  0.1607  0.7218
  304TMC3    C6 4630   2.646   1.993  10.895  0.5388  0.0439 -0.2410
  304TMC3     C 4631   3.005   2.017  10.730 -0.4773  0.2992  0.1339
  304TMC3     O 4632   3.032   2.119  10.796 -0.8097  0.5668 -0.2992
  304TMC3     H 4633   2.964   1.974  10.967  0.3795 -2.1660 -1.2167
  304TMC3    H1 4634   2.792   1.963  10.590 -1.2431 -2.3715 -0.9150
  304TMC3    H2 4635   2.550   2.004  10.943 -0.2461  0.1078 -1.8156
  304TMC3    C7 4636   2.584   2.093  10.695 -0.0218  0.2298  0.1464
  304TMC3    C8 4637   2.763   2.083  11.079  0.4748 -0.4073 -0.1051
  304TMC3    O1 4638   2.542   2.178  10.770  0.3720 -0.2155 -0.0054
  304TMC3    O2 4639   2.854   2.082  11.162  0.0358 -0.2359  0.9945
  305MPD2     C 4640   2.121   4.730  14.034 -1.1584 -0.9256  0.2117
  305MPD2    C1 4641   2.177   4.617  14.049  0.0506 -0.0946  0.1075
  305MPD2    C2 4642   2.180   4.525  13.945 -0.6397 -0.0375  0.8535
  305MPD2    C3 4643   2.118   4.546  13.826 -0.6704  0.7844 -0.2291
  305MPD2    C4 4644   2.066   4.672  13.804  0.3835 -1.4399 -0.1395
  305MPD2    C5 4645   2.062   0.025  13.905 -0.3696 -0.3906  0.3876
  305MPD2     H 4646   2.234   4.431  13.959  1.6689  0.9789 -1.2319
  305MPD2    H1 4647   2.033   4.694  13.703  2.6692  3.1322  0.0949
  305MPD2    H2 4648   2.121   0.078  14.102 -0.1768 -0.6084 -0.1910
  305MPD2    H3 4649   2.040   0.131  13.896 -3.2761 -1.1328 -1.0769
  305MPD2     N 4650   2.111   4.448  13.720  0.2562  0.9009 -0.3221
  305MPD2    H5 4651   2.077   4.497  13.637 -2.9172  1.0758  1.0716
  305MPD2    N1 4652   2.244   4.598  14.175  0.0400 -0.1143  0.4371
  305MPD2    H7 4653   2.254   4.680  14.235 -0.0785  0.0683  0.2051
  306TMC3    C1 4654   2.351   4.484  14.363 -0.9896  0.0140 -0.1152
  306TMC3    C2 4655   2.430   4.381  14.410 -0.5528  0.1235  0.7442
  306TMC3    C3 4656   2.446   4.377  14.547  0.1350  0.2214  0.4531
  306TMC3    C4 4657   2.287   4.576  14.448  0.6524 -0.3682 -0.0701
  306TMC3    C5 4658   2.307   4.561  14.585  0.5917 -0.8636  0.0229
  306TMC3    C6 4659   2.387   4.464  14.635  0.6399  0.3757 -0.2631
  306TMC3     C 4660   2.298   4.475  14.224  0.7272  0.4941  0.4732
  306TMC3     O 4661   2.323   4.373  14.161  0.3040  0.1884  0.7584
  306TMC3     H 4662   2.486   4.319  14.340  0.2219  0.1388  1.3466
  306TMC3    H1 4663   2.214   4.650  14.417  1.4970  0.2772 -0.5374
  306TMC3    H2 4664   2.375   4.439  14.740 -0.3667 -1.7178 -0.8658
  306TMC3    C7 4665   2.252   4.670  14.669 -0.6586 -0.3544 -0.0926
  306TMC3    C8 4666   2.559   4.308  14.596 -0.4413 -0.3913 -0.8098
  306TMC3    O1 4667   2.167   0.013  14.625  0.2064 -0.4975 -0.2853
  306TMC3    O2 4668   2.592   4.204  14.548  0.3383 -0.5109 -0.1650
  307MPD2     C 4669   0.698   2.862  17.662 -0.4646 -0.5418 -0.3259
  307MPD2    C1 4670   0.614   2.959  17.695  0.0833  0.6154  0.2639
  307MPD2    C2 4671   0.559   2.968   0.072  0.8968 -0.2007  0.7734
  307MPD2    C3 4672   0.566   2.857   0.155 -0.2837  0.4644 -0.0519
  307MPD2    C4 4673   0.652   2.752   0.126 -0.1401  0.6412 -1.1216
  307MPD2    C5 4674   0.716   2.759   0.003  0.2956 -0.2167  0.2314
  307MPD2     H 4675   0.496   3.048   0.108  2.1047  0.7364  0.7942
  307MPD2    H1 4676   0.685   2.675   0.195 -0.4330  1.1137 -0.4611
  307MPD2    H2 4677   0.745   2.859  17.565 -0.8684 -1.4824 -0.4976
  307MPD2    H3 4678   0.784   2.679  17.725 -2.0065 -2.0356 -0.2460
  307MPD2     N 4679   0.498   2.866   0.276  0.1666  0.2925 -0.1346
  307MPD2    H5 4680   0.436   2.945   0.291 -0.1114 -0.0441  0.4834
  307MPD2    N1 4681   0.576   3.068  17.614  0.4497 -0.0969  0.1279
  307MPD2    H7 4682   0.513   3.137  17.652 -0.4825 -0.4491 -0.7757
  308TMC3    C1 4683   0.173   2.785   0.556  0.5539 -0.3648  0.6447
  308TMC3    C2 4684   0.166   2.911   0.587  0.1727  1.3557  0.2104
  308TMC3    C3 4685   0.279   2.988   0.567  0.1783  0.2735  1.2395
  308TMC3    C4 4686   0.281   2.728   0.494 -0.1584 -0.2975 -0.3853
  308TMC3    C5 4687   0.394   2.804   0.474 -0.4126  0.1935  0.2378
  308TMC3    C6 4688   0.392   2.936   0.505 -0.9755  0.4514 -0.3642
  308TMC3     C 4689   0.060   2.706   0.560  0.5099 -0.0860 -0.0050
  308TMC3     O 4690   0.080   2.585   0.567  0.6227  0.5772 -0.5239
  308TMC3     H 4691   0.088   2.946   0.653 -0.2666  1.8729 -0.5819
  308TMC3    H1 4692   0.295   2.621   0.482 -0.6536 -0.1076 -2.6300
  308TMC3    H2 4693   0.493   2.976   0.504 -0.8947  0.2775  0.6463
  308TMC3    C7 4694   0.486   2.770   0.369  0.6411  0.1981 -0.0960
  308TMC3    C8 4695   0.261   3.132   0.594  0.3834  0.0313  1.0566
  308TMC3    O1 4696   0.547   2.665   0.374  0.5732  0.5067  0.2355
  308TMC3    O2 4697   0.150   3.161   0.632 -0.6987  0.1094  0.3751
  309MPD2     C 4698   4.318   3.216  17.073  0.0974  0.9778  0.4383
  309MPD2    C1 4699   4.233   3.188  16.965  0.1727  0.0667  0.2337
  309MPD2    C2 4700   4.098   3.174  16.980 -0.6597  0.9239 -0.4337
  309MPD2    C3 4701   4.050   3.183  17.114 -0.0159 -0.6646 -0.0615
  309MPD2    C4 4702   4.135   3.200  17.218  0.6172 -0.4685  0.1158
  309MPD2    C5 4703   4.269   3.214  17.199  0.0070  0.2322 -0.3916
  309MPD2     H 4704   4.031   3.173  16.894  0.1246 -0.1280 -1.0355
  309MPD2    H1 4705   4.095   3.210  17.318 -0.8741 -1.7204 -0.3553
  309MPD2    H2 4706   4.423   3.239  17.068  0.4196 -0.2531  1.6090
  309MPD2    H3 4707   4.334   3.225  17.286  2.0072  0.4757 -1.9194
  309MPD2     N 4708   3.918   3.206  17.153  1.4865 -0.4876 -0.0795
  309MPD2    H5 4709   3.892   3.234  17.247  0.9621 -2.3803  0.3345
  309MPD2    N1 4710   4.286   3.189  16.837  0.4114 -0.0942 -0.3384
  309MPD2    H7 4711   4.219   3.176  16.762 -0.9436  2.8380  0.3748
  310TMC3    C1 4712   4.452   3.233  16.669  0.1772 -0.0370  0.3382
  310TMC3    C2 4713   4.364   3.306  16.595 -0.2711 -0.3655  0.4268
  310TMC3    C3 4714   4.403   3.333  16.463  0.3412 -0.6850  0.2970
  310TMC3    C4 4715   4.579   3.212  16.629 -0.0813  0.1938 -0.2394
  310TMC3    C5 4716   4.613   3.242  16.500  0.3339  0.3097 -0.2383
  310TMC3    C6 4717   4.527   3.300  16.412 -0.7805 -0.2521 -0.3307
  310TMC3     C 4718   4.419   3.209  16.803 -0.2820 -0.2799 -0.3059
  310TMC3     O 4719   4.518   3.196  16.868  0.0201  0.0720  0.0198
  310TMC3     H 4720   4.278   3.356  16.638 -1.7992 -1.9132 -0.8401
  310TMC3    H1 4721   4.650   3.165  16.696 -1.6922 -0.8153  0.7495
  310TMC3    H2 4722   4.544   3.287  16.305  0.6241 -1.4980  0.0500
  310TMC3    C7 4723   0.003   3.187  16.446  0.3067 -0.4675  0.1599
  310TMC3    C8 4724   4.299   3.380  16.376  0.2976 -0.1035  0.0744
  310TMC3    O1 4725   0.065   3.119  16.524  0.0068 -0.0809  0.5003
  310TMC3    O2 4726   4.186   3.344  16.404  0.2264  0.3200  0.4905
  311MPD2     C 4727   1.040   3.957  12.877 -0.0169  0.1174 -0.1589
  311MPD2    C1 4728   1.041   4.073  12.952 -0.2194 -0.1399  0.4227
  311MPD2    C2 4729   0.945   4.102  13.040  0.2689  0.1146  0.6528
  311MPD2    C3 4730   0.831   4.023  13.053  0.2780  0.6758 -0.0261
  311MPD2    C4 4731   0.831   3.906  12.984  0.2014 -0.3917  0.0362
  311MPD2    C5 4732   0.925   3.880  12.889  0.0791  0.8019 -0.4273
  311MPD2     H 4733   0.960   4.182  13.112 -1.5713 -0.7383  1.9832
  311MPD2    H1 4734   0.750   3.834  12.991 -0.4332  0.5532  2.3332
  311MPD2    H2 4735   1.123   3.926  12.815  0.3521 -1.1378  0.9512
  311MPD2    H3 4736   0.919   3.788  12.832 -1.6670  1.2280 -0.9288
  311MPD2     N 4737   0.733   4.057  13.146  0.3113  0.2755  0.4156
  311MPD2    H5 4738   0.752   4.141  13.200 -1.5701  0.9466  0.0378
  311MPD2    N1 4739   1.155   4.164  12.964 -0.2679 -0.4087  0.7458
  311MPD2    H7 4740   1.143   4.253  13.011 -2.1667 -0.6564  0.7170
  312TMC3    C1 4741   0.531   4.059  13.258  0.1240 -0.3962  0.2564
  312TMC3    C2 4742   0.397   4.090  13.232 -0.3834  0.0100 -0.0461
  312TMC3    C3 4743   0.332   4.171  13.319 -0.4154 -0.1362  0.7889
  312TMC3    C4 4744   0.595   4.100  13.373 -0.4862 -0.0282  0.5648
  312TMC3    C5 4745   0.527   4.179  13.462  0.1856 -0.0978 -0.5471
  312TMC3    C6 4746   0.399   4.213  13.436 -0.6943  0.2591  0.2863
  312TMC3     C 4747   0.618   3.991  13.163 -0.9106 -0.4262  0.0046
  312TMC3     O 4748   0.566   3.893  13.106 -0.6405 -0.4846  0.0935
  312TMC3     H 4749   0.340   4.056  13.147 -1.4390 -0.7305  0.9513
  312TMC3    H1 4750   0.692   4.057  13.394 -0.4041  0.9622  2.2271
  312TMC3    H2 4751   0.354   4.278  13.510 -1.1913 -0.9844  1.0609
  312TMC3    C7 4752   0.586   4.205  13.591 -0.6439 -0.5081  0.1785
  312TMC3    C8 4753   0.193   4.200  13.302  0.1035  0.1551  0.0904
  312TMC3    O1 4754   0.540   4.298  13.659  0.2665  0.4402  0.4789
  312TMC3    O2 4755   0.143   4.289  13.370  0.0859 -0.5795  0.0488
  313MPD2     C 4756   4.554   3.041  11.466 -0.4363 -0.3346  0.0998
  313MPD2    C1 4757   4.630   3.135  11.411 -0.6288  0.6152  0.7879
  313MPD2    C2 4758   4.728   3.104  11.317  0.2522 -0.4438 -0.5881
  313MPD2    C3 4759   0.016   2.973  11.282 -0.0239 -0.1899 -0.3806
  313MPD2    C4 4760   4.678   2.875  11.344 -0.0896 -0.7354 -0.8247
  313MPD2    C5 4761   4.574   2.905  11.431  0.2285  0.2414  0.5294
  313MPD2     H 4762   0.043   3.186  11.269  2.0439 -0.8597  0.6414
  313MPD2    H1 4763   4.703   2.772  11.321 -1.2883 -0.9619 -1.0841
  313MPD2    H2 4764   4.477   3.070  11.536  1.2174  0.9479  1.3797
  313MPD2    H3 4765   4.509   2.828  11.472 -0.4039 -0.2237 -1.3544
  313MPD2     N 4766   0.098   2.957  11.169  0.0178  0.1551 -0.0541
  313MPD2    H5 4767   0.148   3.037  11.131  0.9864  0.6598  2.3203
  313MPD2    N1 4768   4.627   3.272  11.438 -0.0984 -0.7254  0.2579
  313MPD2    H7 4769   4.696   3.328  11.388 -1.8506  0.0758 -1.2378
  314TMC3    C1 4770   4.595   3.473  11.532 -0.6603 -1.1411 -1.2757
  314TMC3    C2 4771   4.734   3.494  11.531  0.5177 -0.3039 -0.3876
  314TMC3    C3 4772   0.034   3.626  11.533  0.6736 -0.3634 -0.9789
  314TMC3    C4 4773   4.503   3.574  11.540 -0.1846  0.4029 -0.2020
  314TMC3    C5 4774   4.546   3.700  11.550  0.4697  0.3889 -0.5140
  314TMC3    C6 4775   4.681   3.726  11.569  0.5162 -0.2216  0.1091
  314TMC3     C 4776   4.547   3.341  11.524  0.4998 -0.3066 -0.4121
  314TMC3     O 4777   4.432   3.308  11.563  0.2671 -0.8861 -0.1374
  314TMC3     H 4778   0.068   3.413  11.518  0.4007 -1.0234  3.3905
  314TMC3    H1 4779   4.399   3.558  11.516 -0.3710  0.5379  0.5193
  314TMC3    H2 4780   4.706   3.830  11.590  1.0660 -0.3240 -0.0461
  314TMC3    C7 4781   4.483   3.779  11.447 -0.9298 -0.2397  0.1616
  314TMC3    C8 4782   0.134   3.674  11.440 -0.2950  0.1249 -0.8792
  314TMC3    O1 4783   4.365   3.766  11.428  0.0876  0.4862 -0.4065
  314TMC3    O2 4784   0.144   3.793  11.421 -0.3573  0.2653  0.3780
  315MPD2     C 4785   0.696   3.402   0.210  0.4131 -0.0599 -0.5138
  315MPD2    C1 4786   0.816   3.341   0.184 -0.0464 -0.2213  0.6340
  315MPD2    C2 4787   0.898   3.389   0.083 -0.4809  0.2054 -0.1156
  315MPD2    C3 4788   0.863   3.504   0.011 -0.7859 -0.5376 -0.7833
  315MPD2    C4 4789   0.749   3.565   0.053  0.1372  0.0292 -0.0682
  315MPD2    C5 4790   0.669   3.517   0.146  0.1042 -1.1194 -0.7640
  315MPD2     H 4791   0.994   3.342   0.061  0.4045  0.9850  2.1169
  315MPD2    H1 4792   0.716   3.653  17.747  2.3688  0.6221 -0.4436
  315MPD2    H2 4793   0.644   3.374   0.301 -1.4470  1.9082 -0.9622
  315MPD2    H3 4794   0.576   3.565   0.175  0.2135 -0.2651 -1.8238
  315MPD2     N 4795   0.942   3.549  17.657  0.0033 -0.0233 -0.7280
  315MPD2    H5 4796   1.038   3.518  17.661 -0.6467 -2.0302 -0.5910
  315MPD2    N1 4797   0.856   3.223   0.252  0.5424  0.0487 -0.4663
  315MPD2    H7 4798   0.947   3.187   0.225  0.3304 -0.2068 -0.8365
  316TMC3    C1 4799   1.022   3.705  17.499 -0.4208  0.5886 -0.0064
  316TMC3    C2 4800   1.134   3.714  17.580  0.3319  0.1576  0.5739
  316TMC3    C3 4801   1.240   3.786  17.524  0.3571  0.4259  0.4491
  316TMC3    C4 4802   1.019   3.755  17.374 -0.0320 -0.3086 -0.4833
  316TMC3    C5 4803   1.126   3.828  17.323  0.2445  0.2682  0.3450
  316TMC3    C6 4804   1.241   3.847  17.403  0.5502 -0.0223  0.5119
  316TMC3     C 4805   0.906   3.640  17.559 -0.5629 -0.4070  0.3389
  316TMC3     O 4806   0.797   3.674  17.517 -0.6155 -0.4900  0.7254
  316TMC3     H 4807   1.124   3.707  17.687  0.0375 -1.2332  0.4561
  316TMC3    H1 4808   0.938   3.729  17.307 -1.2045 -0.7641  1.1179
  316TMC3    H2 4809   1.319   3.910  17.361  0.0922  0.2216  0.0214
  316TMC3    C7 4810   1.133   3.850  17.179 -0.0690  0.4803  0.3408
  316TMC3    C8 4811   1.363   3.795  17.599 -0.1681 -0.5501 -0.3346
  316TMC3    O1 4812   1.244   3.860  17.126  1.3393  0.3897 -0.1465
  316TMC3    O2 4813   1.441   3.874  17.547 -0.5762  0.6686 -0.0861
  317MPD2     C 4814   2.299   1.447  13.468  0.2324  0.0447  0.7050
  317MPD2    C1 4815   2.219   1.357  13.391 -1.1473 -0.4487  0.2524
  317MPD2    C2 4816   2.241   1.221  13.403  0.2832 -0.6260  0.5050
  317MPD2    C3 4817   2.333   1.171  13.489 -0.0826 -0.0291  0.5657
  317MPD2    C4 4818   2.421   1.260  13.550 -0.4985  0.1382  0.2022
  317MPD2    C5 4819   2.407   1.396  13.538  0.3309  0.2023  0.1946
  317MPD2     H 4820   2.186   1.146  13.347 -2.1185  0.6667  1.1412
  317MPD2    H1 4821   2.500   1.215  13.609  1.3671  2.2090 -0.7748
  317MPD2    H2 4822   2.298   1.555  13.458  0.8630  0.1001  1.3100
  317MPD2    H3 4823   2.467   1.450  13.610  2.3768 -1.5584 -0.1745
  317MPD2     N 4824   2.351   1.034  13.494 -0.4551 -0.1187  0.2314
  317MPD2    H5 4825   2.273   0.984  13.453  0.0968  0.1894 -1.1904
  317MPD2    N1 4826   2.114   1.400  13.297 -0.0915  0.0938 -0.1223
  317MPD2    H7 4827   2.065   1.325  13.249  0.6215 -1.0476  0.9034
  318TMC3    C1 4828   2.448   0.835  13.585  0.1482 -0.5431 -0.9577
  318TMC3    C2 4829   2.327   0.775  13.571 -0.3452  0.1701  0.2569
  318TMC3    C3 4830   2.326   0.643  13.620 -0.1873  0.2590 -0.4567
  318TMC3    C4 4831   2.560   0.778  13.632 -0.7378 -0.1005 -0.6177
  318TMC3    C5 4832   2.550   0.646  13.680 -0.0936 -0.4577 -0.2532
  318TMC3    C6 4833   2.434   0.581  13.677  0.7746  0.5384 -0.1906
  318TMC3     C 4834   2.461   0.976  13.550 -0.1326 -0.3387  0.1993
  318TMC3     O 4835   2.572   1.022  13.558  0.0152  0.1359  0.2369
  318TMC3     H 4836   2.249   0.818  13.510 -0.8042  0.5731  1.1253
  318TMC3    H1 4837   2.655   0.830  13.622 -0.0381 -0.8392  2.2789
  318TMC3    H2 4838   2.440   0.479  13.715 -2.3370 -0.1577 -1.5891
  318TMC3    C7 4839   2.657   0.584  13.752 -0.6117 -0.9436 -0.3244
  318TMC3    C8 4840   2.212   0.551  13.604 -0.3206  0.3565 -0.4070
  318TMC3    O1 4841   2.627   0.539  13.863 -0.3846  0.7264  0.2631
  318TMC3    O2 4842   2.236   0.431  13.612  0.0080  0.0766 -0.1799
  319MPD2     C 4843   3.355   2.614  16.847 -0.5538  0.2134  0.3747
  319MPD2    C1 4844   3.367   2.483  16.865  0.2760  0.5398  0.3510
  319MPD2    C2 4845   3.255   2.401  16.880 -0.5794 -0.8472 -0.0822
  319MPD2    C3 4846   3.130   2.456  16.872 -0.0835  0.3267  0.1138
  319MPD2    C4 4847   3.122   2.596  16.859 -0.0435  0.4235 -0.5629
  319MPD2    C5 4848   3.232   2.674  16.856 -0.6679  0.4376  0.1665
  319MPD2     H 4849   3.277   2.295  16.884 -1.0926 -0.8322  3.4522
  319MPD2    H1 4850   3.025   2.643  16.848  0.5409  1.7493 -0.0424
  319MPD2    H2 4851   3.435   2.687  16.846 -0.3989  0.0432  0.2688
  319MPD2    H3 4852   3.215   2.776  16.826 -0.8177  0.1553 -0.7223
  319MPD2     N 4853   3.013   2.378  16.861 -0.5321  0.2679  0.4617
  319MPD2    H5 4854   2.931   2.421  16.819 -0.7567 -1.4411 -0.8183
  319MPD2    N1 4855   3.495   2.415  16.869  0.0930 -0.1393 -0.2421
  319MPD2    H7 4856   3.498   2.313  16.865 -3.0331 -0.1904 -1.5106
  320TMC3    C1 4857   2.889   2.188  16.813 -0.3820 -0.4191 -0.4399
  320TMC3    C2 4858   2.782   2.264  16.778  0.0999 -0.2368 -0.2476
  320TMC3    C3 4859   2.694   2.224  16.681 -0.4750  0.1531 -0.1865
  320TMC3    C4 4860   2.892   2.059  16.775 -0.2430  0.3763 -0.0234
  320TMC3    C5 4861   2.804   2.015  16.675  0.1616  0.1538 -0.7430
  320TMC3    C6 4862   2.701   2.093  16.638 -0.9350  0.2713 -0.9138
  320TMC3     C 4863   3.003   2.242  16.878  0.2186 -0.7513  0.0702
  320TMC3     O 4864   3.079   2.169  16.943  0.2318  0.4756 -0.0643
  320TMC3     H 4865   2.759   2.356  16.832  0.3774 -0.5420  0.3882
  320TMC3    H1 4866   2.979   2.007  16.813  1.3755  1.0258 -2.8156
  320TMC3    H2 4867   2.635   2.046  16.565 -1.2753  1.0721 -1.1219
  320TMC3    C7 4868   2.835   1.886  16.607 -0.5708 -0.1104  1.0722
  320TMC3    C8 4869   2.596   2.318  16.633 -1.0455  0.2632  0.0567
  320TMC3    O1 4870   2.767   1.857  16.508  0.3828  0.0978 -0.4119
  320TMC3    O2 4871   2.628   2.435  16.656 -0.1394 -0.1459  0.5001
  321TMC3    C1 4872   3.719   2.385  16.883 -1.0560  0.0010 -0.0600
  321TMC3    C2 4873   3.714   2.262  16.944 -0.5632 -0.8017 -1.1803
  321TMC3    C3 4874   3.824   2.185  16.955  0.8489 -0.3094  0.4710
  321TMC3    C4 4875   3.829   2.420  16.814  0.1187  0.4856 -0.1475
  321TMC3    C5 4876   3.940   2.340  16.822  0.2242  0.4367  0.1345
  321TMC3    C6 4877   3.937   2.218  16.886 -0.3517 -0.2920 -0.2659
  321TMC3     C 4878   3.613   2.477  16.867 -0.3126  0.7791 -0.0486
  321TMC3     O 4879   3.642   2.591  16.844  0.1757  0.0633 -0.2391
  321TMC3     H 4880   3.622   2.227  16.989  0.1177 -0.4524  0.4827
  321TMC3    H1 4881   3.835   2.519  16.769 -1.0008  1.7172  2.3983
  321TMC3    H2 4882   4.024   2.153  16.882 -0.2411 -0.2008  0.6182
  321TMC3    C7 4883   4.071   2.399  16.841 -0.4181 -0.0072  0.1891
  321TMC3    C8 4884   3.847   2.146  17.089 -0.7743  0.1989  0.0185
  321TMC3    O1 4885   4.146   2.330  16.908 -0.0685 -0.3270  0.2065
  321TMC3    O2 4886   3.750   2.153  17.160  0.1236  0.2901 -0.0498
  322MPD2     C 4887   2.057   3.921  13.876  0.5889 -0.6864 -0.7171
  322MPD2    C1 4888   2.191   3.884  13.879  0.2068  0.8119  0.5461
  322MPD2    C2 4889   2.229   3.774  13.799  0.2918 -0.6497 -0.6899
  322MPD2    C3 4890   2.140   3.701  13.723  0.2399  1.0182 -0.3877
  322MPD2    C4 4891   2.010   3.748  13.718 -0.0048  0.7280 -0.3207
  322MPD2    C5 4892   1.971   3.855  13.792 -0.1548 -0.7634  0.5447
  322MPD2     H 4893   2.330   3.734  13.802  0.0331 -1.3049 -0.7715
  322MPD2    H1 4894   1.934   3.696  13.661  0.3115 -3.4284  3.0675
  322MPD2    H2 4895   2.012   4.007  13.924 -0.8438 -2.1488  0.5673
  322MPD2    H3 4896   1.867   3.882  13.783 -0.2495 -1.1540  0.5063
  322MPD2     N 4897   2.178   3.587  13.648 -0.5398  0.0477  0.6078
  322MPD2    H5 4898   2.109   3.520  13.613  0.3993 -0.1363 -0.8872
  322MPD2    N1 4899   2.278   3.954  13.961  0.1986 -0.6048 -0.0849
  322MPD2    H7 4900   2.238   4.025  14.021  0.1181  0.0863 -0.9603
  323TMC3    C1 4901   2.465   4.006  14.081  0.2155 -0.0493 -0.1682
  323TMC3    C2 4902   2.596   4.056  14.074  0.0745 -0.0017  0.3539
  323TMC3    C3 4903   2.671   4.059  14.188  0.6493  0.7356 -0.6728
  323TMC3    C4 4904   2.411   3.968  14.198  0.5390  0.1539 -0.3840
  323TMC3    C5 4905   2.491   3.986  14.313 -0.8595 -0.6100 -0.1340
  323TMC3    C6 4906   2.619   4.030  14.310  0.2882  0.0049 -0.1416
  323TMC3     C 4907   2.412   3.945  13.961 -0.2535 -0.1636 -0.0305
  323TMC3     O 4908   2.490   3.878  13.898  0.6449 -0.3794 -0.1117
  323TMC3     H 4909   2.637   4.073  13.976  0.1796  2.0147  0.7416
  323TMC3    H1 4910   2.320   3.912  14.211  2.7985 -3.2465  0.7242
  323TMC3    H2 4911   2.684   4.014  14.395 -0.0505 -2.3118 -0.3270
  323TMC3    C7 4912   2.471   3.891  14.418 -0.4734  0.4485  0.0957
  323TMC3    C8 4913   2.814   4.089  14.188  0.9966  0.0278  0.0322
  323TMC3    O1 4914   2.429   3.780  14.384  0.2369 -0.0090  0.4490
  323TMC3    O2 4915   2.879   4.040  14.281  0.1292  0.7938 -0.6086
  324MPD2     C 4916   4.226   0.681  14.464 -0.1372 -0.1701 -0.6649
  324MPD2    C1 4917   4.222   0.547  14.432 -0.2193  0.0273 -0.5599
  324MPD2    C2 4918   4.106   0.473  14.468  0.5864  1.2098  0.2779
  324MPD2    C3 4919   3.996   0.534  14.531  0.5379  0.3811 -0.3663
  324MPD2    C4 4920   4.007   0.666  14.563 -0.7448  0.1902  0.1108
  324MPD2    C5 4921   4.124   0.735  14.530 -0.0613 -0.5796  0.3796
  324MPD2     H 4922   4.110   0.370  14.436 -2.2784  1.2122 -0.0938
  324MPD2    H1 4923   3.929   0.731  14.601  2.1684  4.0566 -0.4909
  324MPD2    H2 4924   4.318   0.737  14.453  0.2907 -1.0393 -1.4829
  324MPD2    H3 4925   4.134   0.838  14.561 -1.7764 -0.2530 -0.1203
  324MPD2     N 4926   3.874   0.472  14.564  0.7495  0.6764 -0.1939
  324MPD2    H5 4927   3.800   0.522  14.612  0.0784  0.4573 -1.0037
  324MPD2    N1 4928   4.325   0.488  14.352  0.1866 -0.3886 -0.4577
  324MPD2    H7 4929   4.323   0.387  14.341  1.7131 -0.3575 -0.9876
  325TMC3    C1 4930   3.718   0.298  14.592  0.1935  0.0926 -0.5374
  325TMC3    C2 4931   3.668   0.177  14.555 -0.2499  0.2692  0.4947
  325TMC3    C3 4932   3.573   0.112  14.627 -0.5372 -0.0086 -0.5644
  325TMC3    C4 4933   3.661   0.357  14.707  0.3109 -0.1996 -0.7041
  325TMC3    C5 4934   3.564   0.284  14.772  0.1232 -0.4386 -0.2179
  325TMC3    C6 4935   3.524   0.158  14.752 -0.6092 -0.2862 -0.2044
  325TMC3     C 4936   3.853   0.337  14.553 -1.1217  0.1892 -0.1846
  325TMC3     O 4937   3.926   0.253  14.504  0.2478 -0.1306  0.7559
  325TMC3     H 4938   3.701   0.141  14.458  0.4209  1.0407  0.4380
  325TMC3    H1 4939   3.697   0.436  14.772 -1.7870  0.2851 -0.1221
  325TMC3    H2 4940   3.434   0.117  14.796 -0.4530 -1.7993 -1.2995
  325TMC3    C7 4941   3.462   0.361  14.846 -0.0415  0.6114  0.0350
  325TMC3    C8 4942   3.481   0.027  14.547  0.0318 -0.2508 -0.5081
  325TMC3    O1 4943   3.389   0.307  14.928 -0.1150 -0.2537 -0.1594
  325TMC3    O2 4944   3.477   0.042  14.424  0.2038  0.5701 -0.5238
  326MPD2     C 4945   4.260   0.673  11.151  0.1102  0.6339  0.4488
  326MPD2    C1 4946   4.232   0.726  11.032  0.0773 -0.0518 -1.2055
  326MPD2    C2 4947   4.333   0.742  10.944 -0.2345  0.4941 -0.1259
  326MPD2    C3 4948   4.464   0.705  10.978  0.1142 -1.1944 -0.2663
  326MPD2    C4 4949   4.496   0.672  11.107 -0.0828 -0.5038  0.4537
  326MPD2    C5 4950   4.385   0.646  11.187 -0.7375  0.1027  0.0338
  326MPD2     H 4951   4.302   0.789  10.851  1.4410  2.0248  0.0923
  326MPD2    H1 4952   4.594   0.657  11.150  0.8025  0.7769 -1.1357
  326MPD2    H2 4953   4.189   0.659  11.232 -0.5347  1.2609 -0.0091
  326MPD2    H3 4954   4.402   0.606  11.286  1.5180 -1.8807 -1.1530
  326MPD2     N 4955   4.569   0.730  10.886 -0.0075  0.3932 -0.1093
  326MPD2    H5 4956   4.664   0.714  10.920  0.3776  1.4585 -0.6800
  326MPD2    N1 4957   4.101   0.761  10.996 -0.5318  0.1459  0.4490
  326MPD2    H7 4958   4.078   0.805  10.908  1.1734 -1.3391 -0.7196
  327TMC3    C1 4959   3.871   0.740  10.979 -0.3659  0.3929 -0.0908
  327TMC3    C2 4960   3.885   0.831  10.880 -0.1681 -0.5057  0.0012
  327TMC3    C3 4961   3.865   0.799  10.748 -0.0787 -0.1096 -0.4576
  327TMC3    C4 4962   3.822   0.616  10.942  0.4724 -0.5428 -0.3263
  327TMC3    C5 4963   3.801   0.584  10.809  0.1391  0.5204 -0.0573
  327TMC3    C6 4964   3.814   0.677  10.711 -0.4364 -0.0919 -0.8234
  327TMC3     C 4965   3.985   0.726  11.060 -0.5645 -0.1808  0.6525
  327TMC3     O 4966   3.966   0.660  11.163 -0.2792 -0.9720  0.2427
  327TMC3     H 4967   3.931   0.924  10.912  0.2824 -0.9719  0.7250
  327TMC3    H1 4968   3.803   0.545  11.022  1.6626  0.6076  0.9946
  327TMC3    H2 4969   3.787   0.663  10.607 -0.1548  0.4242 -0.9653
  327TMC3    C7 4970   3.880   0.469  10.769 -0.6811  0.4069  0.5554
  327TMC3    C8 4971   3.965   0.858  10.658 -0.3157 -0.0897  0.4450
  327TMC3    O1 4972   3.910   0.472  10.652  0.0201 -0.3594  0.4557
  327TMC3    O2 4973   4.002   0.968  10.695 -0.1036 -0.0006 -0.5894
  328MPD2     C 4974   2.956   1.043  17.406 -0.6374  0.6110 -0.1979
  328MPD2    C1 4975   2.890   0.988  17.299  0.2275  0.4004 -0.0028
  328MPD2    C2 4976   2.922   1.037  17.176  0.8028  0.2206 -0.2006
  328MPD2    C3 4977   2.983   1.158  17.166 -0.5914  0.8182  0.1930
  328MPD2    C4 4978   3.028   1.222  17.267  0.0321 -0.4156 -0.0451
  328MPD2    C5 4979   3.028   1.155  17.386 -0.6755  0.5173  0.2414
  328MPD2     H 4980   2.880   0.990  17.088  0.1040  4.4916 -2.1453
  328MPD2    H1 4981   3.092   1.304  17.235 -0.9706  0.7386  0.9275
  328MPD2    H2 4982   2.946   1.013  17.510  2.1992  2.8285  0.7103
  328MPD2    H3 4983   3.084   1.202  17.466 -0.9265  0.1914  0.6038
  328MPD2     N 4984   2.983   1.239  17.046 -0.7267 -0.5763 -0.8306
  328MPD2    H5 4985   3.020   1.333  17.045  0.6929 -1.1235  0.8065
  328MPD2    N1 4986   2.813   0.867  17.320  1.0297 -0.8645  0.1138
  328MPD2    H7 4987   2.784   0.838  17.413 -1.6637  1.1013 -0.1272
  329TMC3    C1 4988   2.683   0.685  17.247  0.1621 -0.3454  0.7326
  329TMC3    C2 4989   2.573   0.736  17.306  0.3309  0.3514 -0.0565
  329TMC3    C3 4990   2.448   0.688  17.267 -0.1443  0.0873 -0.4013
  329TMC3    C4 4991   2.673   0.591  17.146 -0.0135 -0.3283  0.6666
  329TMC3    C5 4992   2.547   0.556  17.096  0.6134 -0.0409  0.1535
  329TMC3    C6 4993   2.433   0.603  17.159  0.0051  0.0636 -0.1021
  329TMC3     C 4994   2.793   0.772  17.219  0.9139 -0.5773 -0.6004
  329TMC3     O 4995   2.856   0.758  17.114 -0.2086  0.3184  0.0387
  329TMC3     H 4996   2.587   0.822  17.372  0.6698 -1.4218  2.1784
  329TMC3    H1 4997   2.765   0.553  17.104 -0.7731  0.9078 -2.1207
  329TMC3    H2 4998   2.336   0.576  17.120  0.6608 -0.5794 -1.2922
  329TMC3    C7 4999   2.544   0.446  17.007  0.1189  0.2612  0.2460
  329TMC3    C8 5000   2.335   0.784  17.284  0.2113  1.1550  0.0632
  329TMC3    O1 5001   2.456   0.364  17.013  0.1765  0.1489  0.0640
  329TMC3    O2 5002   2.251   0.785  17.189 -0.0039 -0.6616  0.3645
  330TMC3    C1 5003   0.383   0.118   9.195 -0.3550 -0.6891  0.5508
  330TMC3    C2 5004   0.281   0.026   9.208 -0.2714 -0.8196  0.2560
  330TMC3    C3 5005   0.242   0.003   9.339  0.1753 -0.0363  0.0043
  330TMC3    C4 5006   0.458   0.174   9.298  0.1822  0.6534 -0.1254
  330TMC3    C5 5007   0.425   0.140   9.426  0.4861  0.7376  0.1428
  330TMC3    C6 5008   0.322   0.053   9.443 -0.0256  0.6978  0.0926
  330TMC3     C 5009   0.384   0.185   9.067  0.0094  0.2728 -0.8268
  330TMC3     O 5010   0.391   0.110   8.973 -0.1056  0.3647 -0.3035
  330TMC3     H 5011   0.223   4.727   9.123  0.2346  1.0212 -0.9037
  330TMC3    H1 5012   0.532   0.250   9.275 -0.9424  1.3972 -1.2744
  330TMC3    H2 5013   0.293   0.031   9.545 -0.3811 -0.6493 -0.3028
  330TMC3    C7 5014   0.524   0.162   9.531 -0.0890 -0.0558 -0.9209
  330TMC3    C8 5015   0.128   4.652   9.358  0.0596 -0.6862  0.1372
  330TMC3    O1 5016   0.630   0.224   9.510 -0.2563  0.0503 -0.1233
  330TMC3    O2 5017   0.062   4.634   9.257 -0.5211  0.7934  0.6962
  331MPD2     C 5018   2.915   3.956  12.133 -0.0622  0.5541  0.2687
  331MPD2    C1 5019   3.006   4.024  12.059 -0.1415 -0.2976  0.9423
  331MPD2    C2 5020   3.131   3.964  12.029  0.0978  0.1823  0.1167
  331MPD2    C3 5021   3.160   3.839  12.080  0.5012  0.1238  0.2889
  331MPD2    C4 5022   3.056   3.764  12.142 -0.4488  0.7646  0.0604
  331MPD2    C5 5023   2.932   3.822  12.156 -0.0144 -0.6234  0.3593
  331MPD2     H 5024   3.208   4.013  11.970  1.0681 -2.5337 -0.8533
  331MPD2    H1 5025   3.065   3.659  12.167 -0.0213 -0.0164 -3.3901
  331MPD2    H2 5026   2.825   3.999  12.174  0.7859  1.4786  1.1584
  331MPD2    H3 5027   2.856   3.773  12.216  1.3496 -1.5157  1.3276
  331MPD2     N 5028   3.285   3.787  12.052  0.3167 -0.6258  0.1110
  331MPD2    H5 5029   3.351   3.839  11.995  0.0562 -0.8606 -0.4064
  331MPD2    N1 5030   3.006   4.160  12.026 -0.6082  0.3795  0.7206
  331MPD2    H7 5031   3.099   4.197  12.007 -0.6979  0.6964  0.9009
  332TMC3    C1 5032   3.498   3.690  12.099  0.0765  0.4138 -0.4113
  332TMC3    C2 5033   3.558   3.808  12.068 -0.8608 -0.3808 -1.0104
  332TMC3    C3 5034   3.693   3.822  12.087 -0.6904 -0.4650 -0.2121
  332TMC3    C4 5035   3.575   3.585  12.140 -0.7632  0.8751 -0.0417
  332TMC3    C5 5036   3.710   3.605  12.147 -0.1722 -0.4089 -0.7337
  332TMC3    C6 5037   3.776   3.720  12.121 -0.8787 -0.3311  0.4955
  332TMC3     C 5038   3.349   3.680  12.115  0.4134  0.0094 -0.3957
  332TMC3     O 5039   3.305   3.611  12.208  0.3118  0.0617  0.7663
  332TMC3     H 5040   3.504   3.894  12.031 -0.2446  0.3604 -0.1623
  332TMC3    H1 5041   3.528   3.490  12.165  0.5376  0.3131  0.2454
  332TMC3    H2 5042   3.883   3.713  12.102 -0.8906 -2.4285  1.1161
  332TMC3    C7 5043   3.779   3.484  12.186  1.0371  0.1500  0.1743
  332TMC3    C8 5044   3.750   3.946  12.044  0.1886 -0.1852 -0.1895
  332TMC3    O1 5045   3.723   3.374  12.178  0.0836  0.0250  0.1367
  332TMC3    O2 5046   3.696   4.011  11.957 -0.0373  0.3017 -0.3181
  333MPD2     C 5047   2.938   0.067  11.542  0.4854 -0.1937 -0.1305
  333MPD2    C1 5048   3.046   4.727  11.508  0.8043  0.3600 -0.8363
  333MPD2    C2 5049   3.035   4.590  11.521 -0.6435 -1.1696 -0.3397
  333MPD2    C3 5050   2.918   4.531  11.572 -0.0231 -1.1854 -0.0654
  333MPD2    C4 5051   2.819   4.617  11.630  0.0089  0.1515  0.0142
  333MPD2    C5 5052   2.829   0.016  11.605  0.6905 -0.1655 -0.1884
  333MPD2     H 5053   3.120   4.526  11.500  1.1527  1.0236  0.3396
  333MPD2    H1 5054   2.725   4.578  11.665 -0.8146  0.8843 -1.3798
  333MPD2    H2 5055   2.919   0.171  11.517  0.8325 -0.0797  0.0843
  333MPD2    H3 5056   2.757   0.093  11.632  0.9600  0.2854 -0.7439
  333MPD2     N 5057   2.916   4.390  11.584 -0.5843 -0.4862  0.6994
  333MPD2    H5 5058   2.994   4.337  11.546 -0.4093 -0.0422  0.4357
  333MPD2    N1 5059   3.169   0.045  11.458 -1.3230 -0.1537  0.0392
  333MPD2    H7 5060   3.253   4.724  11.454 -0.7191  0.5821  2.0994
  334TMC3    C1 5061   3.314   0.192  11.353  0.4852 -0.6642 -0.1677
  334TMC3    C2 5062   3.395   0.087  11.330  0.1931 -0.0754  0.3104
  334TMC3    C3 5063   3.517   0.105  11.275 -1.2517 -0.3592 -1.1089
  334TMC3    C4 5064   3.354   0.317  11.325 -0.0064  0.0473 -0.4018
  334TMC3    C5 5065   3.477   0.335  11.272  0.3585  0.3064 -0.2823
  334TMC3    C6 5066   3.560   0.229  11.252  0.1434  0.4466  0.1016
  334TMC3     C 5067   3.186   0.173  11.418 -0.0193 -0.7239  0.2183
  334TMC3     O 5068   3.113   0.269  11.451 -0.1681 -0.7183  0.2637
  334TMC3     H 5069   3.352   4.725  11.340 -2.4590  1.1274  0.7895
  334TMC3    H1 5070   3.288   0.397  11.355  1.1465  0.6832  0.4399
  334TMC3    H2 5071   3.661   0.252  11.218  0.2015 -0.4208 -0.3100
  334TMC3    C7 5072   3.519   0.468  11.226  0.5955  0.6320 -0.5608
  334TMC3    C8 5073   3.606   4.736  11.304 -0.7760  0.3948 -0.4084
  334TMC3    O1 5074   3.639   0.491  11.223 -0.3051 -0.0595 -0.1476
  334TMC3    O2 5075   3.572   4.657  11.388 -0.3596  0.0511  0.1068
  335TMC3    C1 5076   3.684   1.348  17.156  0.4405  0.8670 -0.3834
  335TMC3    C2 5077   3.650   1.241  17.077  0.5645  0.3744  0.1874
  335TMC3    C3 5078   3.734   1.200  16.976 -0.1722 -0.7430  0.2963
  335TMC3    C4 5079   3.798   1.415  17.141  0.9241  0.1087 -0.1836
  335TMC3    C5 5080   3.873   1.386  17.027  0.0646  0.0508  0.7006
  335TMC3    C6 5081   3.841   1.281  16.949 -0.2070  0.8933 -0.6169
  335TMC3     C 5082   3.566   1.399  17.229 -0.0025 -0.1950  0.1759
  335TMC3     O 5083   3.455   1.374  17.183  0.0918  0.6087 -0.6480
  335TMC3     H 5084   3.558   1.192  17.107  0.1408  0.5173 -0.8817
  335TMC3    H1 5085   3.819   1.506  17.196 -0.3052  0.5005 -0.3793
  335TMC3    H2 5086   3.916   1.247  16.879 -0.0865  0.1849 -0.1365
  335TMC3    C7 5087   4.006   1.441  17.016  0.0144  0.2224 -0.2577
  335TMC3    C8 5088   3.712   1.088  16.887  0.2631 -0.9410  0.0832
  335TMC3    O1 5089   4.056   1.423  16.906  0.1828  0.4943  0.0602
  335TMC3    O2 5090   3.798   1.070  16.801  0.4830 -0.3777 -0.1965
  336MPD2     C 5091   3.207   3.625  16.036 -0.1704 -0.0879  0.9096
  336MPD2    C1 5092   3.160   3.513  15.962 -0.1173  0.4145 -0.0124
  336MPD2    C2 5093   3.209   3.387  15.988 -0.3700 -0.3470 -0.3561
  336MPD2    C3 5094   3.296   3.372  16.093 -0.8194  0.0820 -0.2779
  336MPD2    C4 5095   3.329   3.482  16.175 -0.1996 -0.5606 -0.1532
  336MPD2    C5 5096   3.299   3.611  16.140 -0.2865 -0.5051 -0.0829
  336MPD2     H 5097   3.172   3.304  15.927  1.9358 -0.4485 -1.6291
  336MPD2    H1 5098   3.391   3.455  16.259 -1.4984 -0.2250  0.9231
  336MPD2    H2 5099   3.179   3.727  16.012 -0.6651 -0.8049 -1.5102
  336MPD2    H3 5100   3.333   3.695  16.200  1.5133 -0.5232 -1.0812
  336MPD2     N 5101   3.332   3.247  16.138  0.5963 -0.4646  0.8305
  336MPD2    H5 5102   3.390   3.246  16.222  1.5366  2.7751  0.2160
  336MPD2    N1 5103   3.086   3.532  15.844  0.1002 -0.1023  0.1734
  336MPD2    H7 5104   3.087   3.453  15.781 -0.5375 -0.3170  0.4365
  337TMC3    C1 5105   3.003   3.642  15.660 -0.9057  0.3505 -0.5065
  337TMC3    C2 5106   2.882   3.693  15.628 -0.0968  0.5006  0.7436
  337TMC3    C3 5107   2.864   3.734  15.498 -0.4136 -0.3223 -0.0997
  337TMC3    C4 5108   3.101   3.628  15.568  0.2826 -0.5497  0.7830
  337TMC3    C5 5109   3.075   3.668  15.440 -0.0056  0.3285 -0.1543
  337TMC3    C6 5110   2.958   3.715  15.402  0.2555  0.4472 -0.4369
  337TMC3     C 5111   3.032   3.648  15.800  0.6342 -0.5324 -0.4713
  337TMC3     O 5112   2.998   3.745  15.863  0.0040  0.0046  0.2219
  337TMC3     H 5113   2.811   3.717  15.707 -1.8044 -0.4392 -0.5059
  337TMC3    H1 5114   3.195   3.589  15.605  0.5450 -0.9524 -0.3111
  337TMC3    H2 5115   2.940   3.744  15.299  1.4018  0.7027 -0.5739
  337TMC3    C7 5116   3.179   3.702  15.355 -0.0230 -0.1673 -0.0220
  337TMC3    C8 5117   2.779   3.853  15.492  0.3394 -1.1709 -0.2584
  337TMC3    O1 5118   3.150   3.721  15.240  0.4861 -0.3690 -0.0625
  337TMC3    O2 5119   2.773   3.924  15.592  1.2179 -0.2241 -0.3163
  338MPD2     C 5120   4.005   3.412   0.888 -0.5415  0.6919  0.1319
  338MPD2    C1 5121   3.889   3.369   0.818  0.1357 -0.2074  0.6702
  338MPD2    C2 5122   3.762   3.406   0.863  0.1174  0.0427 -0.1221
  338MPD2    C3 5123   3.740   3.485   0.970 -0.1363 -0.0516  0.6427
  338MPD2    C4 5124   3.857   3.536   1.034 -0.9015 -0.2493  0.3534
  338MPD2    C5 5125   3.984   3.494   0.996 -0.5885  0.1661 -0.7499
  338MPD2     H 5126   3.676   3.375   0.804  1.4687 -0.2769 -1.9318
  338MPD2    H1 5127   3.843   3.575   1.134 -0.2131  1.1821 -0.1164
  338MPD2    H2 5128   4.108   3.405   0.855 -0.2670 -0.1180  1.1562
  338MPD2    H3 5129   4.067   3.545   1.044 -1.8966  0.3272  1.3304
  338MPD2     N 5130   3.606   3.525   0.992 -0.5261 -0.3909 -0.4127
  338MPD2    H5 5131   3.538   3.483   0.929  0.0567 -1.3066 -0.4164
  338MPD2    N1 5132   3.895   3.290   0.704  0.3592 -0.0294 -0.1884
  338MPD2    H7 5133   3.805   3.285   0.658 -0.9096  1.4381  2.1471
  339TMC3    C1 5134   3.420   3.610   1.092 -0.3814 -0.1431 -0.1919
  339TMC3    C2 5135   3.362   3.631   1.212  0.2030 -0.5682 -0.5422
  339TMC3    C3 5136   3.230   3.618   1.222  0.5916 -0.4362  0.2839
  339TMC3    C4 5137   3.357   3.583   0.978  0.0422  0.6562 -0.3168
  339TMC3    C5 5138   3.220   3.564   0.994 -0.8169  0.5635 -0.7915
  339TMC3    C6 5139   3.155   3.582   1.114  0.5946 -0.9707  0.6612
  339TMC3     C 5140   3.563   3.607   1.091  0.1550 -0.0943  0.4237
  339TMC3     O 5141   3.624   3.636   1.193 -0.1899 -0.6883 -0.1339
  339TMC3     H 5142   3.421   3.660   1.298  2.1907  0.6149 -2.2965
  339TMC3    H1 5143   3.403   3.556   0.883  0.4555 -1.0212  0.3608
  339TMC3    H2 5144   3.047   3.584   1.114  0.5921 -1.1062  0.7923
  339TMC3    C7 5145   3.148   3.488   0.891  0.1276 -0.1797  0.2054
  339TMC3    C8 5146   3.175   3.646   1.354  0.1996 -0.1614 -0.2775
  339TMC3    O1 5147   3.087   3.401   0.951 -0.2943  0.0088  0.1026
  339TMC3    O2 5148   3.242   3.717   1.427  0.1029 -0.1915  0.4325
  340MPD2     C 5149   2.871   0.410  10.665  0.7169  0.1803  0.3514
  340MPD2    C1 5150   2.856   0.537  10.609  0.2566 -0.7032  0.1970
  340MPD2    C2 5151   2.946   0.629  10.650  0.0817 -0.7072  0.4723
  340MPD2    C3 5152   3.059   0.601  10.729 -0.3323 -0.3425 -0.6964
  340MPD2    C4 5153   3.072   0.468  10.778 -0.1660  0.5280 -0.1079
  340MPD2    C5 5154   2.971   0.376  10.748  0.5739  0.0604 -0.2063
  340MPD2     H 5155   2.941   0.729  10.608 -1.1630 -1.4847 -1.2062
  340MPD2    H1 5156   3.152   0.438  10.845 -1.0835 -0.3534  0.6050
  340MPD2    H2 5157   2.795   0.336  10.641  0.2496  0.7833 -0.0337
  340MPD2    H3 5158   2.977   0.280  10.798  0.8910  0.9818  1.5348
  340MPD2     N 5159   3.161   0.697  10.748  0.2973 -0.0887 -0.1954
  340MPD2    H5 5160   3.250   0.665  10.786 -0.3902 -0.4639  1.1102
  340MPD2    N1 5161   2.747   0.556  10.515  0.3504 -0.6208 -0.1726
  340MPD2    H7 5162   2.690   0.473  10.503 -0.4817 -0.0298 -0.3500
  341TMC3    C1 5163   2.653   0.625  10.325  0.1747 -0.3687 -0.2833
  341TMC3    C2 5164   2.582   0.509  10.334 -0.5379 -0.1601  0.5551
  341TMC3    C3 5165   2.577   0.417  10.229 -0.0398 -0.0713 -0.2775
  341TMC3    C4 5166   2.716   0.652  10.207  0.1203 -0.4128 -0.9187
  341TMC3    C5 5167   2.707   0.563  10.102 -0.0029  0.6566 -0.1072
  341TMC3    C6 5168   2.634   0.453  10.110  0.7935  0.3050  0.3028
  341TMC3     C 5169   2.732   0.665  10.435  0.3895  0.7728  0.1338
  341TMC3     O 5170   2.799   0.765  10.419  0.5590 -0.3785 -0.1552
  341TMC3     H 5171   2.513   0.494  10.417  1.7443  0.1732  2.5079
  341TMC3    H1 5172   2.770   0.746  10.199 -1.0300  0.5062  2.0507
  341TMC3    H2 5173   2.634   0.379  10.030 -1.8389  0.8761 -0.2343
  341TMC3    C7 5174   2.746   0.606   9.970 -0.2491  0.1421  0.1379
  341TMC3    C8 5175   2.509   0.283  10.235 -0.1944 -0.5289 -0.6771
  341TMC3    O1 5176   2.772   0.729   9.964  0.0354 -0.4223  0.3855
  341TMC3    O2 5177   2.517   0.210  10.137  0.1004 -0.3643 -0.0003
  342MPD2     C 5178   1.707   4.248   0.040  0.6106 -0.1300 -0.3036
  342MPD2    C1 5179   1.806   4.294  17.702 -0.6473  0.4584 -0.2261
  342MPD2    C2 5180   1.819   4.432  17.685  0.2489  0.4197 -0.0330
  342MPD2    C3 5181   1.740   4.523   0.014  0.3746  0.0811 -0.5460
  342MPD2    C4 5182   1.655   4.470   0.108 -0.5741  0.2907  0.3537
  342MPD2    C5 5183   1.634   4.330   0.126  0.1179 -0.1746  0.0549
  342MPD2     H 5184   1.899   4.467  17.621  0.7171  0.4787  0.5896
  342MPD2    H1 5185   1.604   4.537   0.177  0.4119  0.5518  0.8157
  342MPD2    H2 5186   1.688   4.143   0.059  2.0398 -0.0236  1.7174
  342MPD2    H3 5187   1.570   4.298   0.207 -0.4553  1.5142  0.2543
  342MPD2     N 5188   1.755   4.660   0.013  0.2230  0.2317 -0.2082
  342MPD2    H5 5189   1.706   4.717   0.082  1.1477 -1.7652  2.0981
  342MPD2    N1 5190   1.899   4.213  17.636 -0.5211 -0.1093  0.4418
  342MPD2    H7 5191   1.969   4.260  17.579  0.3142 -2.6340 -0.6537
  343TMC3    C1 5192   1.951   4.014  17.507  0.1664  0.2452 -0.0242
  343TMC3    C2 5193   2.089   4.039  17.502 -0.5402 -0.4343 -0.0059
  343TMC3    C3 5194   2.164   3.950  17.430  1.0830 -0.0178  0.0875
  343TMC3    C4 5195   1.891   3.912  17.451  0.0542 -0.0952  0.1367
  343TMC3    C5 5196   1.968   3.839  17.364 -0.7381  0.2004  0.0508
  343TMC3    C6 5197   2.106   3.857  17.345  0.6284 -0.5343  0.4526
  343TMC3     C 5198   1.881   4.077  17.623  0.1078 -0.1670 -0.9648
  343TMC3     O 5199   1.810   4.002  17.686  0.0621  0.0434 -0.1086
  343TMC3     H 5200   2.138   4.090  17.583 -0.5341  0.4953 -0.6005
  343TMC3    H1 5201   1.784   3.899  17.463 -0.2297  2.4013  0.3279
  343TMC3    H2 5202   2.161   3.779  17.295  0.1815 -0.3254 -0.3701
  343TMC3    C7 5203   1.887   3.731  17.308  0.1053 -0.4791  0.1294
  343TMC3    C8 5204   2.281   3.901  17.490  0.2792  0.1381  0.1685
  343TMC3    O1 5205   1.782   3.699  17.358 -0.1220 -0.1503 -0.1817
  343TMC3    O2 5206   2.280   3.891  17.610 -0.0406  0.0863  1.2538
  344MPD2     C 5207   1.648   2.957  10.290 -0.2827 -0.3092  0.2754
  344MPD2    C1 5208   1.711   2.959  10.411 -0.6919  0.0635 -0.4917
  344MPD2    C2 5209   1.754   3.082  10.457 -0.3526  0.0754 -0.7577
  344MPD2    C3 5210   1.754   3.196  10.380 -0.2334 -0.2793 -0.2977
  344MPD2    C4 5211   1.706   3.189  10.247 -0.4063  0.2432  0.5453
  344MPD2    C5 5212   1.653   3.065  10.206 -0.1054  0.3805 -0.4808
  344MPD2     H 5213   1.803   3.082  10.553  0.3200  2.3517 -1.1001
  344MPD2    H1 5214   1.699   3.280  10.188 -0.6086 -0.8793 -1.1322
  344MPD2    H2 5215   1.590   2.875  10.251  0.4597 -1.8089  2.3512
  344MPD2    H3 5216   1.599   3.061  10.112 -1.2138 -3.7492  0.3231
  344MPD2     N 5217   1.780   3.325  10.429  0.2447 -0.0036  0.0657
  344MPD2    H5 5218   1.751   3.403  10.370  1.0463 -0.5583 -1.0658
  344MPD2    N1 5219   1.725   2.844  10.490  0.1699 -0.1667 -0.6815
  344MPD2    H7 5220   1.755   2.850  10.587  0.3138  0.1528 -0.7467
  345TMC3    C1 5221   1.844   3.499  10.574 -0.1517 -0.5388  0.7040
  345TMC3    C2 5222   1.868   3.546  10.700  0.2731 -0.2838  0.1922
  345TMC3    C3 5223   1.853   3.679  10.720 -0.0128  0.0969 -0.3953
  345TMC3    C4 5224   1.812   3.578  10.473  1.0446 -0.0951 -0.0946
  345TMC3    C5 5225   1.797   3.709  10.500  0.0404 -0.3215 -0.0423
  345TMC3    C6 5226   1.821   3.765  10.621 -0.5292  0.1622  0.5440
  345TMC3     C 5227   1.822   3.355  10.559 -0.5064 -1.1322 -0.4270
  345TMC3     O 5228   1.842   3.286  10.655  0.1877  0.0171  0.0976
  345TMC3     H 5229   1.906   3.478  10.775  0.0735 -1.2126 -0.5523
  345TMC3    H1 5230   1.797   3.540  10.372  2.8083 -0.2529 -0.2984
  345TMC3    H2 5231   1.793   3.868  10.639 -1.0455  0.0125  0.5916
  345TMC3    C7 5232   1.765   3.807  10.393  0.6351 -0.9643 -0.5351
  345TMC3    C8 5233   1.904   3.726  10.840 -0.2257  0.1760 -0.6130
  345TMC3    O1 5234   1.800   3.926  10.403 -0.2043  0.5325 -0.3887
  345TMC3    O2 5235   1.927   3.647  10.931  0.1836 -0.2133 -0.3249
  346MPD2     C 5236   2.625   4.677  14.408 -0.4876 -0.1370 -0.7077
  346MPD2    C1 5237   2.547   0.059  14.415 -0.1517 -0.7047 -0.1428
  346MPD2    C2 5238   2.532   0.119  14.541  0.1623  0.2451 -1.0105
  346MPD2    C3 5239   2.599   0.075  14.647  0.1542  0.3148  0.2097
  346MPD2    C4 5240   2.669   4.694  14.638  0.5209  0.7668 -0.0802
  346MPD2    C5 5241   2.689   4.632  14.516 -0.0166  0.5780 -0.5268
  346MPD2     H 5242   2.470   0.207  14.550 -0.1341 -0.3378  2.8727
  346MPD2    H1 5243   2.720   4.659  14.727 -1.4516 -0.0119  0.7485
  346MPD2    H2 5244   2.651   4.622  14.319  0.1773 -2.1692  0.7310
  346MPD2    H3 5245   2.759   4.549  14.514 -1.2863 -0.4706 -1.4045
  346MPD2     N 5246   2.603   0.145  14.769  0.7711  0.0998  0.5389
  346MPD2    H5 5247   2.673   0.109  14.834  0.1534  0.1464  1.2281
  346MPD2    N1 5248   2.489   0.119  14.299 -0.4889  0.4643 -0.2239
  346MPD2    H7 5249   2.409   0.182  14.306 -1.6559 -0.8558 -1.8311
  347TMC3    C1 5250   2.603   0.328  14.919 -0.7174 -0.1277  0.3482
  347TMC3    C2 5251   2.735   0.335  14.912  0.4576  0.7247  0.0262
  347TMC3    C3 5252   2.800   0.438  14.974 -0.3326  0.0296  0.5784
  347TMC3    C4 5253   2.526   0.420  14.987  0.2601  0.2855  0.7554
  347TMC3    C5 5254   2.597   0.504  15.068 -0.0654 -0.6350  0.3369
  347TMC3    C6 5255   2.735   0.521  15.063 -0.3732 -0.0842  0.5598
  347TMC3     C 5256   2.538   0.264  14.800  0.3212 -0.0756 -0.5599
  347TMC3     O 5257   2.444   0.321  14.738  0.2921  0.5536  0.6134
  347TMC3     H 5258   2.784   0.278  14.834  0.2015  0.7273 -0.1393
  347TMC3    H1 5259   2.417   0.419  14.983  0.2058 -0.8478  2.3095
  347TMC3    H2 5260   2.786   0.587  15.131  0.1537 -0.9009  0.9577
  347TMC3    C7 5261   2.529   0.524  15.201  1.1425 -0.4529  0.0405
  347TMC3    C8 5262   2.939   0.450  14.938 -0.3852 -0.7487  0.1102
  347TMC3    O1 5263   2.430   0.456  15.227  0.0179  0.3174 -0.4476
  347TMC3    O2 5264   2.997   0.346  14.921  0.4731  0.0252 -0.1107
  348MPD2     C 5265   0.529   4.044  12.066  0.7569  0.7792  1.3657
  348MPD2    C1 5266   0.637   4.125  12.035  0.8264 -0.4268 -0.4550
  348MPD2    C2 5267   0.616   4.224  11.940 -0.1465  0.3541 -0.2502
  348MPD2    C3 5268   0.493   4.254  11.885 -0.9141  0.2272  0.5298
  348MPD2    C4 5269   0.390   4.171  11.916 -0.4703 -0.8160 -0.7924
  348MPD2    C5 5270   0.409   4.070  12.003 -0.3683 -0.4194  0.7736
  348MPD2     H 5271   0.699   4.284  11.905  0.7030 -0.2478  0.7028
  348MPD2    H1 5272   0.289   4.193  11.883 -0.0063 -1.1116 -2.4211
  348MPD2    H2 5273   0.525   3.956  12.129  1.3122  1.0947  1.8441
  348MPD2    H3 5274   0.331   3.998  12.027  0.0481 -1.7717 -1.8818
  348MPD2     N 5275   0.473   4.373  11.808  0.2500  0.0925 -0.0333
  348MPD2    H5 5276   0.551   4.437  11.799  0.2457 -0.2054 -2.1467
  348MPD2    N1 5277   0.770   4.113  12.088 -0.5809  0.5948  0.1172
  348MPD2    H7 5278   0.827   4.197  12.082 -0.0277  0.2365  0.4288
  349TMC3    C1 5279   0.906   4.020  12.264 -0.3273 -0.2145 -0.4483
  349TMC3    C2 5280   0.955   3.906  12.332 -0.1569 -0.2454  0.6107
  349TMC3    C3 5281   1.062   3.925  12.418  0.0436  0.1078 -1.1206
  349TMC3    C4 5282   0.952   4.143  12.290  0.0759 -0.0834 -0.2644
  349TMC3    C5 5283   1.057   4.152  12.377  0.1968  0.1969 -0.5626
  349TMC3    C6 5284   1.126   4.047  12.439 -0.8512 -0.8779 -0.1195
  349TMC3     C 5285   0.808   3.998  12.158  0.5496 -0.1231 -0.6451
  349TMC3     O 5286   0.767   3.881  12.155 -0.3533 -0.2234  0.6345
  349TMC3     H 5287   0.913   3.808  12.312 -0.8472 -0.1823  1.7364
  349TMC3    H1 5288   0.908   4.234  12.249 -1.2131 -0.1460  0.9680
  349TMC3    H2 5289   1.186   4.065  12.528 -1.9243 -1.1184  0.6594
  349TMC3    C7 5290   1.139   4.275  12.366 -0.3238  0.1908  0.0188
  349TMC3    C8 5291   1.098   3.824  12.509 -0.5011 -0.0651 -0.7805
  349TMC3    O1 5292   1.076   4.368  12.315  0.8772 -0.1939  0.4108
  349TMC3    O2 5293   1.218   3.824  12.540 -0.3148 -0.3128  0.5139
  350MPD2     C 5294   4.281   2.959  10.728  0.2566  0.3058  0.7988
  350MPD2    C1 5295   4.341   2.841  10.713  0.5487 -0.1034  0.7929
  350MPD2    C2 5296   4.476   2.835  10.696  0.4952 -0.5681 -0.2659
  350MPD2    C3 5297   4.557   2.949  10.686 -0.7427  0.1595 -0.0111
  350MPD2    C4 5298   4.497   3.070  10.694  0.4533  0.2740  0.4695
  350MPD2    C5 5299   4.359   3.076  10.711 -0.6392 -0.6028 -0.1142
  350MPD2     H 5300   4.532   2.742  10.686  1.4721  0.0489 -0.4788
  350MPD2    H1 5301   4.554   3.162  10.688  1.5359 -0.6718 -3.5525
  350MPD2    H2 5302   4.174   2.975  10.730  0.6057  2.4044  2.9374
  350MPD2    H3 5303   4.311   3.173  10.710  0.2664 -0.1978 -3.8640
  350MPD2     N 5304   4.698   2.923  10.681  0.1276 -0.2082  0.5575
  350MPD2    H5 5305   4.724   2.825  10.672  1.1325  0.0805  0.3427
  350MPD2    N1 5306   4.269   2.723  10.728  0.2130  0.3065  0.2427
  350MPD2    H7 5307   4.321   2.645  10.689  1.5329  2.9384 -3.2992
  351TMC3    C1 5308   4.073   2.579  10.726 -0.5737  0.4735  0.2400
  351TMC3    C2 5309   4.144   2.481  10.650  0.3637  1.0638  0.7292
  351TMC3    C3 5310   4.092   2.353  10.647 -0.2977 -0.4796 -0.2246
  351TMC3    C4 5311   3.962   2.537  10.793  0.6877  0.5621  0.3335
  351TMC3    C5 5312   3.928   2.407  10.801 -0.1119 -0.0778  0.0033
  351TMC3    C6 5313   3.990   2.308  10.729  0.6039 -0.5694  0.2397
  351TMC3     C 5314   4.135   2.713  10.751  0.7051  0.6489 -0.2064
  351TMC3     O 5315   4.055   2.796  10.795 -0.6601  0.5651  0.4678
  351TMC3     H 5316   4.225   2.509  10.584 -1.1659 -0.4742 -1.8229
  351TMC3    H1 5317   3.903   2.618  10.834 -0.2454  0.1709 -0.2418
  351TMC3    H2 5318   3.980   2.201  10.746  0.5766 -0.7891 -1.1421
  351TMC3    C7 5319   3.820   2.366  10.895 -0.1564 -1.2491 -0.2115
  351TMC3    C8 5320   4.137   2.258  10.542 -0.0095 -0.4356  0.4308
  351TMC3    O1 5321   3.791   2.443  10.983  0.2821 -0.3772 -0.2922
  351TMC3    O2 5322   4.070   2.156  10.523 -0.3790  0.1501  0.2046
  352MPD2     C 5323   3.898   0.912   0.920 -0.6379  0.0085  0.3129
  352MPD2    C1 5324   3.808   0.855   0.834  0.0843  0.5285 -0.0355
  352MPD2    C2 5325   3.830   0.722   0.790 -0.5330 -0.1547 -0.0240
  352MPD2    C3 5326   3.942   0.647   0.838  0.2993  1.1888  0.5144
  352MPD2    C4 5327   4.033   0.715   0.922  0.3459  0.4079  0.1916
  352MPD2    C5 5328   4.007   0.844   0.963  0.3018  0.6129 -0.5732
  352MPD2     H 5329   3.763   0.678   0.717 -0.1867 -0.3208 -0.2454
  352MPD2    H1 5330   4.127   0.667   0.947  1.0339  0.8947 -1.4721
  352MPD2    H2 5331   3.880   1.015   0.950 -2.3631 -0.8742  2.3425
  352MPD2    H3 5332   4.080   0.888   1.030  0.7919  1.3640 -1.6041
  352MPD2     N 5333   3.974   0.516   0.789 -0.7513  0.0299 -0.3478
  352MPD2    H5 5334   4.056   0.471   0.829  0.0151  0.9895 -0.8342
  352MPD2    N1 5335   3.689   0.929   0.809 -0.8031  0.0735 -0.1729
  352MPD2    H7 5336   3.668   1.007   0.870  1.7016  0.6942 -0.0836
  353TMC3    C1 5337   3.935   0.298   0.695 -0.8497  0.2732 -1.2382
  353TMC3    C2 5338   3.985   0.247   0.812 -0.4272 -0.0073  0.2513
  353TMC3    C3 5339   3.959   0.110   0.825 -0.6020 -0.3603 -0.7388
  353TMC3    C4 5340   3.869   0.226   0.597 -0.2865  0.0069  0.5838
  353TMC3    C5 5341   3.845   0.095   0.624  0.1890  0.1543 -0.5536
  353TMC3    C6 5342   3.892   0.033   0.736 -0.2054  0.7401 -1.2565
  353TMC3     C 5343   3.898   0.440   0.696  0.5277 -0.0107 -0.1304
  353TMC3     O 5344   3.809   0.481   0.622  0.3405  0.4697  0.0934
  353TMC3     H 5345   4.052   0.297   0.881 -0.6306  0.2742  0.2414
  353TMC3    H1 5346   3.839   0.268   0.502  0.8751 -0.6177 -0.0547
  353TMC3    H2 5347   3.872   4.665   0.749  0.8290  0.7411  0.2899
  353TMC3    C7 5348   3.755   0.016   0.545 -0.6531 -0.5127  0.1149
  353TMC3    C8 5349   4.051   0.048   0.922 -0.2891 -0.9620 -1.0003
  353TMC3    O1 5350   3.684   4.676   0.601  0.0415  0.2003 -0.1166
  353TMC3    O2 5351   4.074   0.108   1.027 -0.0332 -0.5198  0.3052
  354TMC3    C1 5352   0.784   1.252  13.573  0.1786 -0.5759  0.5079
  354TMC3    C2 5353   0.742   1.364  13.498 -0.1016  0.4077 -0.1067
  354TMC3    C3 5354   0.751   1.358  13.366  0.5786  0.7846  0.3700
  354TMC3    C4 5355   0.830   1.146  13.505 -0.0049  0.3990  0.6424
  354TMC3    C5 5356   0.841   1.143  13.368  0.5777  0.0985  0.3701
  354TMC3    C6 5357   0.808   1.254  13.297 -0.1790 -0.5981  0.5841
  354TMC3     C 5358   0.730   1.229  13.708  0.8753  0.4272 -0.1110
  354TMC3     O 5359   0.651   1.310  13.749  0.1789  0.0142 -0.7170
  354TMC3     H 5360   0.694   1.444  13.552 -0.1779 -0.7730  1.5765
  354TMC3    H1 5361   0.831   1.048  13.552 -2.0516 -0.4282 -1.0337
  354TMC3    H2 5362   0.819   1.256  13.189 -0.6756  2.5452  0.5739
  354TMC3    C7 5363   0.890   1.018  13.309  0.3876  0.4880  0.5982
  354TMC3    C8 5364   0.667   1.450  13.293  0.0032  0.1367  0.0411
  354TMC3    O1 5365   0.972   0.956  13.374  0.1730 -0.7270  0.0786
  354TMC3    O2 5366   0.641   1.558  13.346 -0.3464 -0.4185 -0.4752
  355MPD2     C 5367   0.428   1.614  11.964 -0.1183 -0.1465 -1.1434
  355MPD2    C1 5368   0.489   1.683  11.864  0.3831  0.4996  0.1934
  355MPD2    C2 5369   0.548   1.806  11.900 -0.1914  0.0776 -0.4395
  355MPD2    C3 5370   0.565   1.845  12.028 -0.0382 -0.0899  0.4535
  355MPD2    C4 5371   0.504   1.779  12.132  0.0942 -0.0058  0.4197
  355MPD2    C5 5372   0.434   1.663  12.097  0.9079  0.1931 -0.2046
  355MPD2     H 5373   0.601   1.858  11.821 -0.7068  0.8624 -0.2695
  355MPD2    H1 5374   0.512   1.800  12.238  1.2619  0.8881  0.1510
  355MPD2    H2 5375   0.381   1.517  11.958  0.1817 -0.1963 -2.6422
  355MPD2    H3 5376   0.388   1.613  12.182  1.0199  2.0040  0.9251
  355MPD2     N 5377   0.646   1.959  12.063 -0.0881  0.4462 -0.3538
  355MPD2    H5 5378   0.650   1.985  12.161 -1.5200  0.1756 -0.2231
  355MPD2    N1 5379   0.483   1.640  11.729 -0.2439 -0.5671 -0.3316
  355MPD2    H7 5380   0.458   1.543  11.711  0.2715 -0.9098  0.8291
  356TMC3    C1 5381   0.795   2.139  12.040  0.2040 -0.2556 -0.6568
  356TMC3    C2 5382   0.829   2.250  11.965 -0.0795  0.0149  0.0426
  356TMC3    C3 5383   0.893   2.353  12.032 -0.1460 -0.1568  0.4991
  356TMC3    C4 5384   0.842   2.118  12.169 -0.4383  0.1180  0.4188
  356TMC3    C5 5385   0.923   2.216  12.223 -0.0184 -0.4431  0.5054
  356TMC3    C6 5386   0.946   2.333  12.157  0.2674  0.0630 -0.4722
  356TMC3     C 5387   0.721   2.036  11.974 -0.1813 -0.3667  0.2134
  356TMC3     O 5388   0.727   2.027  11.851 -0.1933 -0.4582  0.2773
  356TMC3     H 5389   0.790   2.266  11.865 -2.5432 -1.4609  0.7318
  356TMC3    H1 5390   0.820   2.024  12.217  1.9221 -0.3275  0.6451
  356TMC3    H2 5391   0.986   2.423  12.203  0.2524 -0.3921  0.4242
  356TMC3    C7 5392   0.947   2.200  12.359 -0.3292  0.4796  0.4652
  356TMC3    C8 5393   0.924   2.467  11.946  1.0796  0.0206 -0.1476
  356TMC3    O1 5394   0.904   2.107  12.424  0.1820  0.0319  0.3025
  356TMC3    O2 5395   0.857   2.479  11.844 -0.2473 -0.2461  0.0487
  357MPD2     C 5396   0.891   2.299   0.669  0.0415 -0.3853  0.6787
  357MPD2    C1 5397   0.779   2.230   0.625  0.5854 -0.4932  0.1991
  357MPD2    C2 5398   0.725   2.255   0.497  0.3594  0.1532 -0.7883
  357MPD2    C3 5399   0.794   2.338   0.417  0.5761 -0.0013 -0.3017
  357MPD2    C4 5400   0.901   2.414   0.460 -0.6940 -0.0544 -0.1169
  357MPD2    C5 5401   0.946   2.406   0.590  0.2886  0.3322  0.7760
  357MPD2     H 5402   0.650   2.191   0.453  2.7762 -1.1154 -3.0665
  357MPD2    H1 5403   0.953   2.477   0.388 -0.8072 -1.1568 -1.1659
  357MPD2    H2 5404   0.935   2.273   0.764 -2.1216 -2.4828  1.0916
  357MPD2    H3 5405   1.040   2.453   0.619 -0.4239  1.0763  1.8554
  357MPD2     N 5406   0.751   2.327   0.283 -0.2660  1.0268  0.0313
  357MPD2    H5 5407   0.670   2.269   0.264 -0.2593  0.7377  0.8770
  357MPD2    N1 5408   0.731   2.113   0.690  0.0949  0.0764  0.5533
  357MPD2    H7 5409   0.660   2.067   0.634  1.8062 -0.7894 -0.9146
  358TMC3    C1 5410   0.765   1.903   0.777 -0.0783  0.0898 -1.0375
  358TMC3    C2 5411   0.768   1.862   0.646 -0.4072 -0.2922 -0.5909
  358TMC3    C3 5412   0.806   1.731   0.616  0.0338  0.0840 -0.7133
  358TMC3    C4 5413   0.798   1.816   0.872 -0.0598  0.2557 -0.7139
  358TMC3    C5 5414   0.842   1.685   0.846  0.0842  0.4628 -0.5772
  358TMC3    C6 5415   0.832   1.636   0.715 -0.6811 -0.2472  0.0706
  358TMC3     C 5416   0.776   2.050   0.802 -0.6901 -0.0995  0.2706
  358TMC3     O 5417   0.843   2.094   0.894 -0.4335 -0.1296  0.0736
  358TMC3     H 5418   0.741   1.923   0.561  3.0020  0.6080 -1.0452
  358TMC3    H1 5419   0.815   1.853   0.972  2.4428 -0.8105 -0.7576
  358TMC3    H2 5420   0.893   1.550   0.691 -0.0484 -0.5444  2.6595
  358TMC3    C7 5421   0.895   1.602   0.959 -0.1062  0.4395  0.0995
  358TMC3    C8 5422   0.854   1.710   0.479  0.4042 -0.2689 -0.3863
  358TMC3    O1 5423   0.919   1.664   1.061  0.0791  0.0069  0.0361
  358TMC3    O2 5424   0.892   1.808   0.419 -0.8404 -0.0977  0.6139
  359MPD2     C 5425   4.669   0.105  12.696  0.2148  0.0493  0.6153
  359MPD2    C1 5426   4.661   0.018  12.587  0.5329  0.3089  1.1723
  359MPD2    C2 5427   4.548   4.673  12.572  0.5061 -0.2450  0.1709
  359MPD2    C3 5428   4.442   4.687  12.661 -0.2332 -0.4863 -0.2913
  359MPD2    C4 5429   4.447   0.035  12.763  0.5977 -0.2639  0.5899
  359MPD2    C5 5430   4.559   0.117  12.781  0.2570  0.6267  0.4673
  359MPD2     H 5431   4.534   4.612  12.484 -1.9653  0.3591  0.1411
  359MPD2    H1 5432   4.357   0.060  12.818 -0.1112  0.7317 -1.0416
  359MPD2    H2 5433   0.018   0.169  12.709 -0.5520  1.0811  0.6423
  359MPD2    H3 5434   4.547   0.198  12.853 -2.4460 -0.6610  1.4437
  359MPD2     N 5435   4.319   4.625  12.634 -0.6629 -0.1200  0.0922
  359MPD2    H5 5436   4.235   4.634  12.690 -0.6642  2.3561 -0.3000
  359MPD2    N1 5437   0.019   0.023  12.486 -0.1686 -0.2046 -0.0757
  359MPD2    H7 5438   0.004   4.701  12.404  0.8079  0.2840 -0.6094
  360TMC3    C1 5439   0.216   0.084  12.373 -0.1342  0.6153  0.4691
  360TMC3    C2 5440   0.347   0.067  12.372  0.0157 -0.4196 -0.0050
  360TMC3    C3 5441   0.416   0.085  12.259 -0.6988  0.4480  0.5744
  360TMC3    C4 5442   0.150   0.139  12.264 -0.1048  0.2341  0.3130
  360TMC3    C5 5443   0.224   0.158  12.150 -0.1537  0.6219 -0.8358
  360TMC3    C6 5444   0.358   0.138  12.147  0.3270  0.8878  0.0696
  360TMC3     C 5445   0.146   0.081  12.494 -0.8665 -0.2480 -0.8816
  360TMC3     O 5446   0.206   0.125  12.593 -0.5119  0.2495  0.2496
  360TMC3     H 5447   0.393   4.737  12.444  2.8512  0.5825 -0.8626
  360TMC3    H1 5448   0.046   0.168  12.270 -0.0805  0.4072 -0.1102
  360TMC3    H2 5449   0.410   0.171  12.058  0.4567  0.5619  0.0275
  360TMC3    C7 5450   0.157   0.199  12.029 -0.5800  0.4602  0.7333
  360TMC3    C8 5451   0.557   0.125  12.283  0.2942 -0.3419  0.4118
  360TMC3    O1 5452   0.219   0.203  11.921  0.4715  0.4570  0.2735
  360TMC3    O2 5453   0.595   0.118  12.397 -1.1183  0.0635 -0.1650
  361MPD2     C 5454   2.491   4.444  16.456 -0.1981 -0.1221 -0.2148
  361MPD2    C1 5455   2.474   4.489  16.580  0.3268 -0.2641 -0.0703
  361MPD2    C2 5456   2.564   4.447  16.685 -0.2130  0.5235  0.8304
  361MPD2    C3 5457   2.654   4.345  16.658 -0.3072  0.4709  0.2959
  361MPD2    C4 5458   2.673   4.310  16.529  0.6001  0.2837 -0.1817
  361MPD2    C5 5459   2.593   4.353  16.432 -0.3560  0.0932  0.9266
  361MPD2     H 5460   2.542   4.475  16.787  2.0408  3.3262  0.5475
  361MPD2    H1 5461   2.752   4.241  16.501  0.2309  0.2289 -1.0948
  361MPD2    H2 5462   2.446   4.484  16.366 -1.3216 -2.0161 -0.5007
  361MPD2    H3 5463   2.614   4.318  16.332 -1.6765  0.6507  0.4496
  361MPD2     N 5464   2.730   4.276  16.756 -0.4771 -0.0169 -0.6054
  361MPD2    H5 5465   2.775   4.192  16.721 -0.2204  0.4989 -1.4847
  361MPD2    N1 5466   2.384   4.594  16.605 -0.0461 -0.6253  0.4386
  361MPD2    H7 5467   2.377   4.629  16.700 -0.9010 -0.1461  0.2047
  362TMC3    C1 5468   2.190   4.731  16.579  0.1866  0.1949 -0.1670
  362TMC3    C2 5469   2.156   4.715  16.708  1.1383 -0.2650  1.1028
  362TMC3    C3 5470   2.041   0.044  16.751  0.2637  0.4330  0.6670
  362TMC3    C4 5471   2.124   0.065  16.482 -0.0153 -0.3441 -0.3727
  362TMC3    C5 5472   2.008   0.120  16.533 -0.0764  0.3098  0.4918
  362TMC3    C6 5473   1.963   0.118  16.659  0.2844  0.2164  0.3835
  362TMC3     C 5474   2.289   4.645  16.519  0.1308  0.0369  0.2740
  362TMC3     O 5475   2.278   4.626  16.402 -0.2255  0.7809 -0.2504
  362TMC3     H 5476   2.207   4.648  16.776 -0.3632 -2.9563 -0.4227
  362TMC3    H1 5477   2.142   0.067  16.375 -0.6604 -0.9437 -0.4966
  362TMC3    H2 5478   1.868   0.157  16.695  0.7589  1.9924 -0.2737
  362TMC3    C7 5479   1.940   0.209  16.438  0.7806 -0.5636  0.2920
  362TMC3    C8 5480   1.989   4.726  16.869  0.4478 -0.2857 -0.1182
  362TMC3    O1 5481   1.910   0.323  16.473  0.5272  0.0794 -0.0353
  362TMC3    O2 5482   2.025   4.613  16.893  0.0718  0.3809 -0.3326
  363TMC3    C1 5483   0.205   2.310   9.843  0.2959  0.6836 -0.1042
  363TMC3    C2 5484   0.242   2.210   9.756 -0.4856  0.0917  0.1608
  363TMC3    C3 5485   0.136   2.123   9.714 -0.1242 -0.0438 -0.6851
  363TMC3    C4 5486   0.080   2.330   9.891  0.1763  0.2464 -0.1595
  363TMC3    C5 5487   4.719   2.243   9.847 -0.4569 -0.0795 -0.0848
  363TMC3    C6 5488   0.009   2.144   9.758  0.5328 -0.2219 -0.3822
  363TMC3     C 5489   0.314   2.397   9.893 -0.1109 -0.2992 -0.1530
  363TMC3     O 5490   0.391   2.444   9.811 -0.1280  0.0308 -0.6335
  363TMC3     H 5491   0.343   2.206   9.718 -0.7347 -1.5704 -0.3210
  363TMC3    H1 5492   0.057   2.403   9.968  0.8895 -1.0164  1.2467
  363TMC3    H2 5493   4.673   2.071   9.726 -1.5814  1.7069 -0.0379
  363TMC3    C7 5494   4.580   2.284   9.874 -0.4648 -0.1617  0.4027
  363TMC3    C8 5495   0.180   1.991   9.658 -0.4876 -0.9862  0.5004
  363TMC3    O1 5496   4.565   2.372   9.964  0.0368  0.0038 -0.3115
  363TMC3    O2 5497   0.085   1.921   9.628  0.0252 -0.4531 -0.1066
  364MPD2     C 5498   4.359   0.824  10.321 -0.1487  0.0613 -1.0726
  364MPD2    C1 5499   4.309   0.929  10.393  0.2345 -0.0275 -0.0768
  364MPD2    C2 5500   4.199   0.912  10.487 -0.4990 -0.1308  0.7856
  364MPD2    C3 5501   4.137   0.788  10.495 -0.3818  0.0287  0.2994
  364MPD2    C4 5502   4.180   0.681  10.414 -0.5207 -0.0414  0.1878
  364MPD2    C5 5503   4.297   0.697  10.343  0.3994 -0.2547  0.0192
  364MPD2     H 5504   4.163   0.994  10.548 -2.6072 -1.1425  0.8615
  364MPD2    H1 5505   4.136   0.583  10.426  0.8876 -0.4818  1.8545
  364MPD2    H2 5506   4.432   0.842  10.243 -0.2107 -1.0753 -1.3978
  364MPD2    H3 5507   4.338   0.611  10.292 -1.6284 -1.5095  0.5053
  364MPD2     N 5508   4.020   0.763  10.574 -0.1821  0.3469 -0.2345
  364MPD2    H5 5509   3.989   0.667  10.581  0.9003 -0.0073 -0.3110
  364MPD2    N1 5510   4.367   1.054  10.363  0.4444  0.4424  0.1375
  364MPD2    H7 5511   4.448   1.057  10.303  0.6155  0.4096  0.3649
  365TMC3    C1 5512   4.415   1.285  10.410 -0.0357 -0.4871  0.4213
  365TMC3    C2 5513   4.504   1.290  10.307 -0.4086 -0.8436  0.6231
  365TMC3    C3 5514   4.601   1.386  10.304 -0.4611  0.1158  0.2435
  365TMC3    C4 5515   4.433   1.363  10.522  0.0927 -0.6544 -0.8846
  365TMC3    C5 5516   4.534   1.454  10.520  0.4574  0.1752  0.4186
  365TMC3    C6 5517   4.616   1.476  10.408  0.0663 -0.3569  0.2561
  365TMC3     C 5518   4.332   1.173  10.415 -0.1599 -0.6607 -1.0266
  365TMC3     O 5519   4.245   1.187  10.495 -0.0028  0.2752 -0.5872
  365TMC3     H 5520   4.466   1.249  10.214 -1.1687  0.1729  0.4867
  365TMC3    H1 5521   4.370   1.357  10.610  2.4522 -0.8485  0.7918
  365TMC3    H2 5522   4.695   1.550  10.401  0.2107 -0.5081  0.2828
  365TMC3    C7 5523   4.538   1.558  10.618  0.2587  0.0378 -0.6630
  365TMC3    C8 5524   4.643   1.435  10.173 -0.6115 -0.2720 -0.0544
  365TMC3    O1 5525   4.564   1.674  10.575  0.1582 -0.5709 -0.3365
  365TMC3    O2 5526   4.643   1.557  10.171 -0.2312  0.7208  0.2925
  366MPD2     C 5527   2.485   2.697  15.742  0.3109  0.0422  0.7510
  366MPD2    C1 5528   2.532   2.723  15.617 -0.1126  0.4762  0.0594
  366MPD2    C2 5529   2.581   2.625  15.536 -0.3058 -0.3581  0.0098
  366MPD2    C3 5530   2.587   2.502  15.592  0.9707  0.2634 -0.4597
  366MPD2    C4 5531   2.533   2.471  15.715 -0.1605 -0.2328  0.6809
  366MPD2    C5 5532   2.480   2.571  15.791  0.0722 -0.3065  0.8156
  366MPD2     H 5533   2.629   2.640  15.440  1.0672 -2.5448  0.3489
  366MPD2    H1 5534   2.535   2.368  15.749 -0.7212 -0.1296  1.0291
  366MPD2    H2 5535   2.451   2.779  15.804  0.6508  1.2300 -0.6230
  366MPD2    H3 5536   2.445   2.565  15.893  0.2638  1.6525  1.0033
  366MPD2     N 5537   2.659   2.406  15.521  0.5092 -0.1178 -0.7890
  366MPD2    H5 5538   2.701   2.447  15.437  1.9220  0.9343  0.4248
  366MPD2    N1 5539   2.553   2.850  15.572  0.9390 -0.3030 -0.2689
  366MPD2    H7 5540   2.613   2.854  15.490  0.9733  3.0808 -0.0805
  367TMC3    C1 5541   2.623   3.061  15.574  1.1454  0.1023 -0.5970
  367TMC3    C2 5542   2.720   3.136  15.642  1.0359 -0.0096 -0.0447
  367TMC3    C3 5543   2.758   3.251  15.579  0.0504 -0.4638 -0.4313
  367TMC3    C4 5544   2.569   3.092  15.447  0.2992 -0.1308 -0.4036
  367TMC3    C5 5545   2.619   3.204  15.389  0.0687 -0.1663 -0.3510
  367TMC3    C6 5546   2.717   3.280  15.455 -0.2391  0.1808 -0.1492
  367TMC3     C 5547   2.552   2.967  15.653 -0.5857  0.5188 -0.3384
  367TMC3     O 5548   2.541   2.982  15.775 -0.1986 -0.9584 -0.0737
  367TMC3     H 5549   2.757   3.107  15.739 -0.8939 -1.7369  0.1788
  367TMC3    H1 5550   2.472   3.057  15.414  0.3153  2.3055 -2.9438
  367TMC3    H2 5551   2.761   3.371  15.414  0.5551  0.1696  0.6830
  367TMC3    C7 5552   2.564   3.254  15.265  1.0479  0.4419  0.5602
  367TMC3    C8 5553   2.888   3.295  15.621  0.8261 -0.1033 -0.4703
  367TMC3    O1 5554   2.550   3.375  15.252 -0.4644  0.1376  0.2128
  367TMC3    O2 5555   2.925   3.297  15.737 -0.4616 -0.3265 -0.3465
  368MPD2     C 5556   2.666   3.928  12.850 -0.3398 -0.1514 -0.2923
  368MPD2    C1 5557   2.696   4.052  12.799  0.4250  0.1960  0.9125
  368MPD2    C2 5558   2.785   4.057  12.685  0.4303  0.5630  0.4098
  368MPD2    C3 5559   2.838   3.941  12.633 -0.1885  0.9387 -0.3096
  368MPD2    C4 5560   2.805   3.823  12.688 -0.5386  0.3412 -0.0640
  368MPD2    C5 5561   2.723   3.813  12.796  0.2945 -0.9673  0.1154
  368MPD2     H 5562   2.827   4.147  12.643  2.9587 -1.2428 -0.9408
  368MPD2    H1 5563   2.834   3.731  12.638  0.1600  1.1078 -1.0525
  368MPD2    H2 5564   2.604   3.905  12.936 -2.0130  1.1008 -1.1482
  368MPD2    H3 5565   2.705   3.716  12.839 -0.2470 -0.8631  0.1196
  368MPD2     N 5566   2.938   3.955  12.533  0.4147 -0.4434  0.6349
  368MPD2    H5 5567   2.965   4.051  12.517 -0.3085 -0.2862  0.3297
  368MPD2    N1 5568   2.650   4.157  12.877  0.0463  0.1328 -0.7622
  368MPD2    H7 5569   2.597   4.145  12.963  0.0278  0.1424 -0.7722
  369TMC3    C1 5570   2.635   4.389  12.935 -0.2073  0.1723  0.4764
  369TMC3    C2 5571   2.686   4.508  12.894 -0.3296 -0.3346  0.2807
  369TMC3    C3 5572   2.733   4.592  12.989 -0.6311  0.1312  0.4658
  369TMC3    C4 5573   2.626   4.359  13.073  0.0804  0.0580  0.5579
  369TMC3    C5 5574   2.694   4.441  13.157 -0.3085 -0.5083  0.5541
  369TMC3    C6 5575   2.733   4.562  13.119 -0.5186  0.5228 -0.0112
  369TMC3     C 5576   2.662   4.286  12.830  0.1345  0.1333  0.2053
  369TMC3     O 5577   2.704   4.325  12.723  0.4284  0.5942 -0.1303
  369TMC3     H 5578   2.694   4.533  12.789  0.1440 -0.9860  0.1600
  369TMC3    H1 5579   2.574   4.268  13.100  0.9309 -0.0519  1.8195
  369TMC3    H2 5580   2.778   4.632  13.188  0.1140  1.5734 -1.4920
  369TMC3    C7 5581   2.677   4.426  13.297 -0.2867 -0.2885 -0.3020
  369TMC3    C8 5582   2.822   4.705  12.959  0.4395 -0.0291  0.2983
  369TMC3    O1 5583   2.726   4.511  13.369  0.2143 -0.3682  0.0048
  369TMC3    O2 5584   2.829   0.055  13.045 -0.3894  0.7550 -0.2311
  370TMC3    C1 5585   3.530   0.609  16.147 -0.5627 -0.1548  0.0566
  370TMC3    C2 5586   3.472   0.555  16.261  0.2811 -0.2878 -0.3869
  370TMC3    C3 5587   3.464   0.418  16.266  0.2092 -1.3434  0.0182
  370TMC3    C4 5588   3.565   0.526  16.040  0.0391  0.4788  0.1875
  370TMC3    C5 5589   3.541   0.390  16.055 -0.5416 -0.3965 -0.5036
  370TMC3    C6 5590   3.493   0.332  16.164  0.6199  0.0629  0.0374
  370TMC3     C 5591   3.631   0.709  16.183  0.5714  0.1759  0.4772
  370TMC3     O 5592   3.660   0.707  16.304  0.8374  0.1723 -0.4808
  370TMC3     H 5593   3.449   0.619  16.345  0.2842  1.5891 -1.8167
  370TMC3    H1 5594   3.625   0.571  15.962 -1.0942  1.1411 -0.3022
  370TMC3    H2 5595   3.490   0.225  16.178 -0.4809  0.0727 -0.1988
  370TMC3    C7 5596   3.605   0.305  15.961 -0.5639 -0.2515 -0.1981
  370TMC3    C8 5597   3.487   0.365  16.395  0.0209 -0.4572 -0.3128
  370TMC3    O1 5598   3.632   0.358  15.851  0.1669  0.1711  0.2486
  370TMC3    O2 5599   3.452   0.252  16.425  0.2391  0.5427 -0.1680
  371TMC3    C1 5600   0.221   3.632  15.690 -0.2205  0.1107 -0.1230
  371TMC3    C2 5601   0.175   3.618  15.822 -0.7255 -0.8863  0.4112
  371TMC3    C3 5602   0.162   3.738  15.887  0.0549 -0.4755  0.0962
  371TMC3    C4 5603   0.242   3.747  15.628 -0.2901 -0.7361 -0.2434
  371TMC3    C5 5604   0.225   3.864  15.695 -1.1597  0.4136 -0.4750
  371TMC3    C6 5605   0.176   3.865  15.826 -0.7419  0.5514  0.1210
  371TMC3     C 5606   0.232   3.512  15.614  0.3054 -0.2062 -0.5114
  371TMC3     O 5607   0.292   3.526  15.509  0.1146 -0.2864  0.2097
  371TMC3     H 5608   0.164   3.525  15.876 -1.6834 -0.3456  1.1585
  371TMC3    H1 5609   0.265   3.740  15.523  1.8609 -1.6188  0.2947
  371TMC3    H2 5610   0.147   3.962  15.864 -0.8024  0.2562  0.8284
  371TMC3    C7 5611   0.258   3.995  15.635 -0.4692  0.0414  0.4717
  371TMC3    C8 5612   0.130   3.746  16.024 -0.4982  0.2476 -0.1066
  371TMC3    O1 5613   0.209   4.093  15.691 -0.6378  0.6037 -0.0969
  371TMC3    O2 5614   0.173   3.666  16.103 -0.7554  0.2837  0.1217
  372MPD2     C 5615   4.642   0.520  13.433 -0.9722 -0.2160 -0.4261
  372MPD2    C1 5616   4.719   0.446  13.523  0.3156 -0.2602  0.2361
  372MPD2    C2 5617   4.656   0.330  13.580 -0.5492 -0.4481 -0.0905
  372MPD2    C3 5618   4.524   0.299  13.559  0.2420 -0.0577  0.7509
  372MPD2    C4 5619   4.449   0.377  13.472  0.4437 -0.9024 -0.9245
  372MPD2    C5 5620   4.509   0.482  13.402 -0.0722 -0.1183 -0.3185
  372MPD2     H 5621   4.719   0.258  13.630 -0.4698  0.3773  0.9991
  372MPD2    H1 5622   4.346   0.356  13.449 -0.2154  0.3484  0.8629
  372MPD2    H2 5623   4.682   0.602  13.373 -2.4864 -0.9192 -2.4057
  372MPD2    H3 5624   4.442   0.539  13.339 -1.9270 -0.3314  1.4589
  372MPD2     N 5625   4.469   0.189  13.620  0.1567 -0.3332  0.2290
  372MPD2    H5 5626   4.539   0.123  13.653 -0.1551 -1.3347 -1.1106
  372MPD2    N1 5627   0.115   0.474  13.566  0.2247  0.0279  0.6567
  372MPD2    H7 5628   0.163   0.411  13.629  1.6798 -0.7766 -1.2669
  373TMC3    C1 5629   4.292   0.072  13.727 -0.1953 -0.3446 -0.0690
  373TMC3    C2 5630   4.219   0.061  13.838 -0.4371  0.3440 -0.1085
  373TMC3    C3 5631   4.195   4.680  13.897 -0.2657 -0.3801  0.3740
  373TMC3    C4 5632   4.346   4.695  13.673 -0.0487 -0.4383 -0.5107
  373TMC3    C5 5633   4.319   4.579  13.734 -0.3321  0.5338 -0.3218
  373TMC3    C6 5634   4.249   4.567  13.847  0.4569 -0.6011 -0.0939
  373TMC3     C 5635   4.341   0.198  13.671  0.6049 -0.0911 -0.6816
  373TMC3     O 5636   4.273   0.296  13.707  0.1341  0.8275  0.4848
  373TMC3     H 5637   4.186   0.157  13.876  0.1440  0.2901  0.5194
  373TMC3    H1 5638   4.420   4.703  13.593  0.5957  1.3196  0.2567
  373TMC3    H2 5639   4.257   4.467  13.889 -0.3787 -0.4759  0.3774
  373TMC3    C7 5640   4.389   4.464  13.680  0.1267  0.4993  0.8991
  373TMC3    C8 5641   4.219   4.696  14.040 -0.4824  0.4202  0.2990
  373TMC3    O1 5642   4.504   4.481  13.638  0.1233  0.1922  0.4475
  373TMC3    O2 5643   4.274   0.065  14.072 -0.1660 -0.0336  0.0537
  374TMC3    C1 5644   4.417   0.109   9.634 -0.3175 -0.0483 -0.3745
  374TMC3    C2 5645   4.530   0.152   9.699 -0.6917 -0.2499  0.3923
  374TMC3    C3 5646   4.639   0.182   9.621  0.3474 -0.3236 -0.1535
  374TMC3    C4 5647   4.410   0.072   9.498 -0.5350 -0.0906 -0.0075
  374TMC3    C5 5648   4.520   0.100   9.425  0.1924 -0.5762  0.4026
  374TMC3    C6 5649   4.634   0.150   9.484  0.7417 -0.1857 -0.0940
  374TMC3     C 5650   4.300   0.080   9.722  0.3379  0.6913  0.8025
  374TMC3     O 5651   4.324   0.072   9.842  0.0341 -0.2989 -0.6738
  374TMC3     H 5652   4.527   0.177   9.805  1.4562 -0.0951  0.4140
  374TMC3    H1 5653   4.316   0.041   9.454 -0.5487  0.4588 -0.3689
  374TMC3    H2 5654   4.724   0.163   9.425 -0.4719 -0.0274 -1.8973
  374TMC3    C7 5655   4.497   0.105   9.280 -0.0003 -0.3424  0.2274
  374TMC3    C8 5656   0.032   0.208   9.679  0.1416  0.3231  0.0104
  374TMC3    O1 5657   4.402   0.044   9.240  0.3002 -0.3939 -0.2422
  374TMC3    O2 5658   0.126   0.232   9.604 -0.0166 -0.3439  0.0856
  375MPD2     C 5659   0.646   1.738  16.932  0.2057 -0.1235  0.6884
  375MPD2    C1 5660   0.561   1.628  16.928 -0.0124  0.6413 -0.7611
  375MPD2    C2 5661   0.619   1.503  16.966  0.1208  0.1011 -0.4152
  375MPD2    C3 5662   0.750   1.504  17.009  0.3338 -0.3601 -0.7501
  375MPD2    C4 5663   0.827   1.624  17.024  0.4916  0.8263 -0.3001
  375MPD2    C5 5664   0.774   1.734  16.966 -0.0314 -0.3729  0.2567
  375MPD2     H 5665   0.559   1.413  16.963  0.3173 -0.0442 -0.0547
  375MPD2    H1 5666   0.925   1.618  17.070 -0.0481  1.4837  0.9456
  375MPD2    H2 5667   0.619   1.839  16.907  0.9174 -0.3504 -0.9575
  375MPD2    H3 5668   0.824   1.830  16.968  1.4405 -1.1646  1.1551
  375MPD2     N 5669   0.819   1.386  17.028  0.0076  0.7206  0.5451
  375MPD2    H5 5670   0.919   1.393  17.047 -0.2712 -0.7744  2.5100
  375MPD2    N1 5671   0.426   1.638  16.900  0.4760  0.3804 -0.2842
  375MPD2    H7 5672   0.369   1.555  16.898 -1.4858  1.6962  1.1919
  376TMC3    C1 5673   0.855   1.148  17.046  0.4489  0.0171 -0.8378
  376TMC3    C2 5674   0.986   1.160  17.004 -0.7631 -0.1187  0.5332
  376TMC3    C3 5675   1.044   1.049  16.958  0.1890 -0.5381 -0.5874
  376TMC3    C4 5676   0.790   1.029  17.044 -0.3178  0.5261  0.3110
  376TMC3    C5 5677   0.864   0.923  16.993  0.0472 -0.0323 -0.5431
  376TMC3    C6 5678   0.994   0.927  16.954  0.2652 -0.3002 -0.0555
  376TMC3     C 5679   0.770   1.256  17.007  0.1174  0.1660  0.6441
  376TMC3     O 5680   0.655   1.222  16.973  0.1864 -0.0328 -0.4099
  376TMC3     H 5681   1.029   1.259  16.991 -1.5044 -0.0865 -1.6354
  376TMC3    H1 5682   0.686   1.015  17.070  0.2254 -1.4453  1.4512
  376TMC3    H2 5683   1.046   0.843  16.910 -0.3833 -0.8175  0.1876
  376TMC3    C7 5684   0.777   0.829  16.917 -0.9483 -0.6898 -0.4908
  376TMC3    C8 5685   1.171   1.070  16.886  0.5937  0.1843  0.3217
  376TMC3    O1 5686   0.820   0.720  16.874 -0.5795  0.4562  0.1833
  376TMC3    O2 5687   1.188   1.185  16.844  0.6550  0.3515  0.3766
  377MPD2     C 5688   2.156   0.762  12.342 -0.0996 -0.3276  0.3197
  377MPD2    C1 5689   2.211   0.646  12.400 -0.4951  0.2500  0.2497
  377MPD2    C2 5690   2.160   0.605  12.525 -1.0613  0.2300 -0.3739
  377MPD2    C3 5691   2.047   0.661  12.586  0.0209 -0.3399 -0.1570
  377MPD2    C4 5692   1.982   0.763  12.514 -0.6527  0.7236  0.7242
  377MPD2    C5 5693   2.046   0.817  12.403 -0.2193 -0.0382 -0.0286
  377MPD2     H 5694   2.212   0.527  12.579 -2.1431  0.3038  0.7635
  377MPD2    H1 5695   1.898   0.821  12.553 -2.0523 -0.4972 -0.5018
  377MPD2    H2 5696   2.189   0.817  12.255  0.4867 -0.8332  0.2316
  377MPD2    H3 5697   2.004   0.911  12.368 -1.3021 -0.8678 -0.9521
  377MPD2     N 5698   1.982   0.606  12.704 -0.3985 -0.3041  0.0661
  377MPD2    H5 5699   1.894   0.646  12.735  0.9061  2.8200 -0.3105
  377MPD2    N1 5700   2.323   0.583  12.336  0.0091  0.4595  0.2510
  377MPD2    H7 5701   2.339   0.620  12.243  0.0486 -1.5453 -0.5537
  378TMC3    C1 5702   2.673   0.525  12.152 -0.7819  0.1573  0.1801
  378TMC3    C2 5703   2.542   0.532  12.204 -0.6355  0.3960  0.5785
  378TMC3    C3 5704   2.505   0.441  12.297 -0.5331  0.4064 -0.1899
  378TMC3    C4 5705   2.761   0.421  12.180  0.4415  0.1636 -0.6231
  378TMC3    C5 5706   2.724   0.341  12.282 -0.3052  0.0137 -0.0029
  378TMC3    C6 5707   2.603   0.346  12.340  0.3782  0.2123  0.0917
  378TMC3     C 5708   2.714   0.633  12.062  0.5979 -0.7587  0.5418
  378TMC3     O 5709   2.625   0.698  12.007 -0.0316 -0.3267 -0.1710
  378TMC3     H 5710   2.479   0.613  12.172 -0.7648 -0.7292 -1.9557
  378TMC3    H1 5711   2.855   0.402  12.130  2.0535 -0.6176  2.6535
  378TMC3    H2 5712   2.582   0.277  12.421 -1.6961  1.6224  0.7670
  378TMC3    C7 5713   2.804   0.216  12.307 -0.4187  0.6546 -1.0270
  378TMC3    C8 5714   2.395   0.475  12.383  0.4673  0.1368  0.6292
  378TMC3    O1 5715   2.748   0.123  12.361  0.1360 -0.7416  0.4610
  378TMC3    O2 5716   2.378   0.412  12.483  0.2175  0.0927  0.0582
  379MPD2     C 5717   4.155   3.428  15.879  0.1346  0.0938  1.0568
  379MPD2    C1 5718   4.090   3.381  15.990  0.5180 -0.3602  0.0558
  379MPD2    C2 5719   4.142   3.402  16.117 -0.7294 -0.0979  0.4034
  379MPD2    C3 5720   4.279   3.435  16.135  0.2784  0.4645 -0.1635
  379MPD2    C4 5721   4.342   3.467  16.018 -0.4434 -0.0313 -0.0999
  379MPD2    C5 5722   4.284   3.465  15.894 -0.0972 -0.4900 -0.1517
  379MPD2     H 5723   4.077   3.392  16.204  1.4514  0.2177  2.0658
  379MPD2    H1 5724   4.446   3.497  16.027 -0.9539  1.9692 -0.9380
  379MPD2    H2 5725   4.110   3.422  15.781 -2.6199 -1.1838  2.3924
  379MPD2    H3 5726   4.341   3.492  15.806 -1.8157  2.4302 -0.3454
  379MPD2     N 5727   4.349   3.420  16.255  0.1634 -0.6643 -0.1808
  379MPD2    H5 5728   4.447   3.449  16.253  0.3571 -1.3134 -0.0444
  379MPD2    N1 5729   3.949   3.337  15.979  0.2389 -0.1274  0.4201
  379MPD2    H7 5730   3.903   3.348  15.889  0.9694 -1.2457 -0.0908
  380TMC3    C1 5731   3.756   3.230  16.025 -0.2138 -0.1276  0.5822
  380TMC3    C2 5732   3.750   3.096  16.035  0.3664  0.3322  0.1440
  380TMC3    C3 5733   3.665   3.027  15.956  0.5622  0.3847  0.3469
  380TMC3    C4 5734   3.671   3.303  15.948  0.3771  0.0694  0.1835
  380TMC3    C5 5735   3.586   3.229  15.869  0.3420  0.0978  0.6697
  380TMC3    C6 5736   3.573   3.095  15.886  0.0792  0.9752  0.6708
  380TMC3     C 5737   3.880   3.281  16.080 -1.1586  0.2801  0.1636
  380TMC3     O 5738   3.910   3.227  16.186  0.1466  0.4917  0.5351
  380TMC3     H 5739   3.821   3.053  16.105  0.6950  2.0632  0.8836
  380TMC3    H1 5740   3.679   3.410  15.934 -0.1660  0.4735  2.8478
  380TMC3    H2 5741   3.494   3.045  15.830 -1.7123  1.1048  3.0803
  380TMC3    C7 5742   3.529   3.286  15.747  0.8669  0.0321 -0.1400
  380TMC3    C8 5743   3.733   2.939  15.865 -0.3879 -0.0554  0.2683
  380TMC3    O1 5744   3.600   3.370  15.698 -0.0044  0.0678 -0.2350
  380TMC3    O2 5745   3.692   2.935  15.749  0.3820  0.0452 -0.7589
  381TMC3    C1 5746   3.682   4.186  16.344  0.1528 -0.4491 -1.1476
  381TMC3    C2 5747   3.765   4.293  16.338  0.4950  0.9495  0.3416
  381TMC3    C3 5748   3.729   4.399  16.415 -0.4534  0.2938 -0.3214
  381TMC3    C4 5749   3.561   4.192  16.410 -0.6005 -0.6494  0.0835
  381TMC3    C5 5750   3.523   4.307  16.469 -0.0820  0.8431  0.4759
  381TMC3    C6 5751   3.606   4.408  16.481 -0.7020  0.4921 -0.1266
  381TMC3     C 5752   3.706   4.073  16.259  0.6849 -0.2414 -0.8784
  381TMC3     O 5753   3.607   3.999  16.245 -0.1290  0.2772  0.1207
  381TMC3     H 5754   3.856   4.291  16.281  0.1413 -0.6883 -0.1535
  381TMC3    H1 5755   3.505   4.101  16.426 -1.5849  0.0388  0.6303
  381TMC3    H2 5756   3.590   4.497  16.541  0.5013  1.6464 -1.4919
  381TMC3    C7 5757   3.383   4.340  16.484 -0.0480  0.6301 -1.1720
  381TMC3    C8 5758   3.801   4.520  16.398 -0.5930 -0.3278  0.1109
  381TMC3    O1 5759   3.308   4.248  16.469  1.1260 -0.3513  0.6241
  381TMC3    O2 5760   3.855   4.545  16.289  0.0221 -0.1665 -0.2810
  382MPD2     C 5761   3.187   2.032  17.461 -0.7281 -0.2704 -0.0322
  382MPD2    C1 5762   3.099   2.000  17.564 -0.1309 -0.3063  0.0937
  382MPD2    C2 5763   2.997   1.912  17.547 -0.1109 -0.7280 -0.1947
  382MPD2    C3 5764   2.981   1.863  17.423  0.0303  0.2005 -0.5747
  382MPD2    C4 5765   3.059   1.908  17.317 -0.2889  0.6673  0.2648
  382MPD2    C5 5766   3.169   1.986  17.335  0.4778 -0.4312 -0.3468
  382MPD2     H 5767   2.948   1.876  17.636  1.3078 -1.1346  0.4217
  382MPD2    H1 5768   3.035   1.867  17.219 -0.1409 -3.2704  1.8816
  382MPD2    H2 5769   3.271   2.100  17.471 -2.2539  1.3130  1.9729
  382MPD2    H3 5770   3.239   1.999  17.254  1.5880 -1.5293  0.4335
  382MPD2     N 5771   2.892   1.763  17.401  0.3285 -0.1631  0.0098
  382MPD2    H5 5772   2.888   1.724  17.307  0.7522 -1.9643  0.7375
  382MPD2    N1 5773   3.125   2.037  17.699 -0.3540  0.1324 -0.4367
  382MPD2    H7 5774   3.051   2.016   0.018 -0.1083 -2.2406 -0.9048
  383TMC3    C1 5775   2.790   1.559  17.455 -0.1337  0.1364 -0.2197
  383TMC3    C2 5776   2.740   1.525  17.335  0.2400  0.6929  0.5913
  383TMC3    C3 5777   2.705   1.393  17.316  0.0364  0.0969 -0.0521
  383TMC3    C4 5778   2.798   1.470  17.557 -0.1452  0.5592  0.8120
  383TMC3    C5 5779   2.780   1.337  17.528 -0.3724  0.5263  0.0704
  383TMC3    C6 5780   2.719   1.300  17.410 -0.6357  0.8635  1.0393
  383TMC3     C 5781   2.806   1.702  17.492  0.5542  0.4901 -0.1576
  383TMC3     O 5782   2.774   1.731  17.605 -0.1068 -0.5736 -0.5248
  383TMC3     H 5783   2.711   1.595  17.258  0.3569 -0.5028 -0.5345
  383TMC3    H1 5784   2.835   1.515  17.649 -1.4059  0.7187  1.2434
  383TMC3    H2 5785   2.676   1.201  17.411 -0.3261  0.7212 -0.0796
  383TMC3    C7 5786   2.739   1.273  17.649  0.5521  0.2238  0.3682
  383TMC3    C8 5787   2.610   1.358  17.213 -0.6408 -0.1298 -0.4943
  383TMC3    O1 5788   2.637   1.205  17.636 -0.2408 -0.0095  0.4687
  383TMC3    O2 5789   2.564   1.453  17.150  0.0617 -0.5253  0.2021
  384MPD2     C 5790   4.156   2.239  12.276  0.3893 -0.3575  0.1447
  384MPD2    C1 5791   4.255   2.330  12.268 -0.8538  0.3864  0.1619
  384MPD2    C2 5792   4.377   2.304  12.212  0.3137 -1.1883 -0.1344
  384MPD2    C3 5793   4.396   2.184  12.144 -0.1883  0.3844  0.3006
  384MPD2    C4 5794   4.291   2.096  12.142 -0.7670 -0.0571 -0.7197
  384MPD2    C5 5795   4.173   2.124  12.211 -0.0051 -0.5535 -0.6395
  384MPD2     H 5796   4.460   2.372  12.228 -0.3968  0.0623 -1.7510
  384MPD2    H1 5797   4.304   2.000  12.093  0.1415 -0.5761  0.5430
  384MPD2    H2 5798   4.059   2.261  12.318  0.1945  0.0641 -0.5167
  384MPD2    H3 5799   4.105   2.041  12.223 -1.8954  1.1908  0.6792
  384MPD2     N 5800   4.521   2.138  12.102  0.1111 -0.3349 -0.0298
  384MPD2    H5 5801   4.523   2.039  12.078  0.1832 -0.0242 -1.3119
  384MPD2    N1 5802   4.240   2.456  12.334 -0.1834  0.4199 -0.1959
  384MPD2    H7 5803   4.170   2.465  12.407  0.9059  1.7066  0.6854
  385TMC3    C1 5804   0.023   2.145  12.087 -0.1749  0.1885 -0.1227
  385TMC3    C2 5805   0.014   2.010  12.077 -0.0711  0.4405  0.0341
  385TMC3    C3 5806   0.101   1.943  12.158 -0.4439  0.1927  0.7141
  385TMC3    C4 5807   0.135   2.208  12.139  0.0289  0.9529  0.4711
  385TMC3    C5 5808   0.216   2.139  12.225  0.6479  0.4303  0.1807
  385TMC3    C6 5809   0.195   2.002  12.234  0.2295 -0.5245  0.1383
  385TMC3     C 5810   4.635   2.215  12.097  0.3022 -0.6982  0.4025
  385TMC3     O 5811   4.657   2.333  12.113  0.2036  0.0025 -0.2520
  385TMC3     H 5812   4.678   1.955  12.020  1.4313 -1.8721  0.3252
  385TMC3    H1 5813   0.148   2.316  12.137  0.0706  0.9556  0.8873
  385TMC3    H2 5814   0.262   1.938  12.290 -0.8849 -1.6503  0.1818
  385TMC3    C7 5815   0.218   2.203  12.350  0.0020 -0.2346  0.2850
  385TMC3    C8 5816   0.100   1.797  12.161 -0.1282 -0.1502  0.6982
  385TMC3    O1 5817   0.209   2.325  12.357 -0.0740  0.4602  0.1255
  385TMC3    O2 5818   0.148   1.751  12.261 -0.5346  0.2009 -0.1680
  386TMC3    C1 5819   3.898   0.501  12.185 -0.3870 -0.1352 -0.9841
  386TMC3    C2 5820   3.975   0.579  12.104 -0.4373 -0.2378 -0.3851
  386TMC3    C3 5821   3.925   0.700  12.067 -0.2912  0.0014 -0.0382
  386TMC3    C4 5822   3.773   0.531  12.230 -0.1934 -0.5697 -0.7489
  386TMC3    C5 5823   3.743   0.665  12.206 -0.5043 -0.4302 -0.0979
  386TMC3    C6 5824   3.802   0.750  12.111 -0.1261 -0.5321  0.4659
  386TMC3     C 5825   3.964   0.384  12.244  0.4137 -0.3590  0.2367
  386TMC3     O 5826   3.912   0.347  12.351 -0.2091 -0.6813  0.2705
  386TMC3     H 5827   4.075   0.549  12.077  0.2770  2.1519 -0.4177
  386TMC3    H1 5828   3.729   0.478  12.314  0.6057  1.9819  1.2792
  386TMC3    H2 5829   3.769   0.852  12.094 -0.2583 -1.0270 -2.2470
  386TMC3    C7 5830   3.617   0.715  12.260 -0.5623 -0.4970 -0.0430
  386TMC3    C8 5831   3.978   0.761  11.944 -0.6302  0.7100 -0.0318
  386TMC3    O1 5832   3.563   0.638  12.340 -0.3673  0.4701  0.4141
  386TMC3    O2 5833   3.907   0.847  11.894 -0.2897  0.6135  0.0089
  387MPD2     C 5834   1.356   0.385  10.327 -0.6073  0.0721 -0.5104
  387MPD2    C1 5835   1.476   0.373  10.260  0.0183  0.0972  0.5836
  387MPD2    C2 5836   1.519   0.253  10.208 -0.3363  0.5169  0.9940
  387MPD2    C3 5837   1.442   0.141  10.217  0.6963  0.2103  0.8501
  387MPD2    C4 5838   1.323   0.146  10.282  0.4765  0.1430  0.0761
  387MPD2    C5 5839   1.281   0.269  10.337 -0.5784 -0.5916  0.2472
  387MPD2     H 5840   1.613   0.255  10.155 -0.0055 -2.0652  1.5032
  387MPD2    H1 5841   1.256   0.062  10.297 -1.2257  1.0235 -2.5641
  387MPD2    H2 5842   1.320   0.469  10.386  0.1436 -0.2132  0.3598
  387MPD2    H3 5843   1.195   0.276  10.402 -1.1330  0.6160 -0.6258
  387MPD2     N 5844   1.508   0.028  10.159  0.0145  0.3819  0.4636
  387MPD2    H5 5845   1.601   0.044  10.122  0.0990 -1.3023 -0.0226
  387MPD2    N1 5846   1.574   0.473  10.243  0.3552 -0.8281  0.1220
  387MPD2    H7 5847   1.663   0.430  10.222  1.3444  1.9479 -1.1964
  388TMC3    C1 5848   1.687   0.676  10.225  0.3094 -0.0754 -0.4115
  388TMC3    C2 5849   1.726   0.789  10.298  0.7146 -0.3386 -0.4314
  388TMC3    C3 5850   1.860   0.828  10.289 -0.5896 -0.8026 -0.0590
  388TMC3    C4 5851   1.785   0.591  10.177  0.2578 -0.2923 -0.1679
  388TMC3    C5 5852   1.911   0.634  10.162  0.5487  0.1706  0.0080
  388TMC3    C6 5853   1.953   0.758  10.221 -0.2173 -0.1891  0.7148
  388TMC3     C 5854   1.564   0.606  10.259  0.8058  0.3319  0.3514
  388TMC3     O 5855   1.464   0.668  10.286 -0.1985  0.2675  0.4296
  388TMC3     H 5856   1.642   0.842  10.341 -0.1004 -1.8226 -0.1871
  388TMC3    H1 5857   1.756   0.519  10.101  1.1998 -0.4720 -0.3493
  388TMC3    H2 5858   2.061   0.771  10.221 -0.2831  0.2786  2.2802
  388TMC3    C7 5859   2.010   0.533  10.138  0.1168  0.0897  0.2138
  388TMC3    C8 5860   1.890   0.946  10.357 -0.0315 -0.4565 -0.2101
  388TMC3    O1 5861   2.113   0.567  10.082 -0.1325  0.4770  0.3309
  388TMC3    O2 5862   1.790   0.999  10.400  0.3357 -0.0737  0.1296
  389MPD2     C 5863   1.510   2.865  10.895 -0.4940 -0.2803 -0.1663
  389MPD2    C1 5864   1.427   2.810  10.799  0.5657  0.1538  0.4498
  389MPD2    C2 5865   1.342   2.701  10.817  0.3379  0.2067  0.6363
  389MPD2    C3 5866   1.352   2.634  10.942 -0.6189 -0.5449 -0.2084
  389MPD2    C4 5867   1.442   2.680  11.033  0.2283  0.1163 -0.0113
  389MPD2    C5 5868   1.518   2.794  11.014  0.0488  0.5284 -0.1363
  389MPD2     H 5869   1.266   2.670  10.746  1.5537 -0.2990 -0.4454
  389MPD2    H1 5870   1.450   2.632  11.130 -1.1573  2.5122  1.2784
  389MPD2    H2 5871   1.576   2.950  10.884  0.1293 -0.5081  1.8785
  389MPD2    H3 5872   1.585   2.833  11.090 -0.0832 -0.9246  0.7110
  389MPD2     N 5873   1.274   2.520  10.982  0.2530 -0.2886 -0.8285
  389MPD2    H5 5874   1.302   2.478  11.070  1.3893 -0.9664 -1.5248
  389MPD2    N1 5875   1.418   2.878  10.672  0.2605 -0.3052 -0.1944
  389MPD2    H7 5876   1.466   2.968  10.667  0.3702 -0.2819  1.3789
  390TMC3    C1 5877   1.061   2.475  11.045  0.4865  0.0811 -0.6873
  390TMC3    C2 5878   0.966   2.387  11.055 -0.4779  0.2537 -0.1347
  390TMC3    C3 5879   0.865   2.395  11.150  0.5022  0.1940 -0.0021
  390TMC3    C4 5880   1.061   2.573  11.140 -0.0292  0.0870  0.0685
  390TMC3    C5 5881   0.979   2.573  11.242 -0.2035  1.0534 -0.3597
  390TMC3    C6 5882   0.869   2.487  11.248 -0.2680  0.4793 -0.5412
  390TMC3     C 5883   1.157   2.471  10.935 -0.5113 -0.3196 -0.0828
  390TMC3     O 5884   1.122   2.480  10.820  0.2954 -0.4376  0.1202
  390TMC3     H 5885   0.973   2.309  10.980 -0.1437  1.5120 -1.3992
  390TMC3    H1 5886   1.147   2.640  11.142 -0.0288  0.1029 -0.5089
  390TMC3    H2 5887   0.781   2.489  11.311 -0.0767  0.2109 -0.2674
  390TMC3    C7 5888   0.954   2.712  11.280 -1.0336 -0.2947  0.4566
  390TMC3    C8 5889   0.764   2.292  11.156 -0.0002 -0.1630  0.3748
  390TMC3    O1 5890   1.004   2.799  11.206  0.1294  0.5944 -0.0292
  390TMC3    O2 5891   0.706   2.272  11.262  0.3828  0.3206  0.1099
  391MPD2     C 5892   4.644   4.671  11.242 -0.4678 -0.7647 -0.0602
  391MPD2    C1 5893   0.039   4.705  11.248  0.1665  0.2945 -0.0762
  391MPD2    C2 5894   0.099   0.005  11.129  0.0461 -0.0700  0.0565
  391MPD2    C3 5895   0.023   0.025  11.013 -0.7022  0.1395 -0.2350
  391MPD2    C4 5896   4.626   0.010  11.020 -0.7416  0.1509  0.5770
  391MPD2    C5 5897   4.567   4.702  11.136  0.2668 -0.1743  0.4582
  391MPD2     H 5898   0.206   0.023  11.124 -0.3604  2.3324 -0.1236
  391MPD2    H1 5899   4.564   0.027  10.933  1.3983  0.8987 -0.7992
  391MPD2    H2 5900   4.596   4.616  11.321 -0.4323 -2.7615 -1.4213
  391MPD2    H3 5901   4.462   4.676  11.136  0.2976 -0.3013  0.2584
  391MPD2     N 5902   0.090   0.078  10.898  0.1978  0.7292  0.2051
  391MPD2    H5 5903   0.190   0.091  10.903  0.2781 -0.8862  2.3211
  391MPD2    N1 5904   0.115   4.691  11.365  0.1764 -0.0248 -0.1512
  391MPD2    H7 5905   0.072   4.632  11.435  2.3632 -0.7570  0.5564
  392TMC3    C1 5906   0.138   0.166  10.690  0.1611  0.2867 -0.4537
  392TMC3    C2 5907   0.116   0.162  10.560  0.4481  1.0821 -0.0303
  392TMC3    C3 5908   0.205   0.226  10.476 -0.8010  0.3719 -0.1827
  392TMC3    C4 5909   0.240   0.245  10.740  0.3742 -0.8828 -0.1953
  392TMC3    C5 5910   0.324   0.317  10.653 -0.1961 -0.1236 -0.2218
  392TMC3    C6 5911   0.310   0.309  10.519 -0.0791 -0.0747 -0.0648
  392TMC3     C 5912   0.038   0.107  10.778  0.4963  1.1908  0.3959
  392TMC3     O 5913   4.666   0.085  10.725 -0.4562 -0.0019 -0.0136
  392TMC3     H 5914   0.024   0.116  10.524  0.4179  0.9860  0.1715
  392TMC3    H1 5915   0.238   0.264  10.846 -0.3557 -0.1122 -0.3441
  392TMC3    H2 5916   0.397   0.326  10.457  0.3580  3.1042  1.3898
  392TMC3    C7 5917   0.403   0.425  10.718  0.7913  0.2295  0.0105
  392TMC3    C8 5918   0.182   0.198  10.329  0.3601  0.0474  0.2014
  392TMC3    O1 5919   0.409   0.424  10.841  0.1806  0.4047 -0.0454
  392TMC3    O2 5920   0.085   0.131  10.299  0.4165 -0.0593  0.2281
  393TMC3    C1 5921   4.010   2.827  11.147 -0.2244 -0.5718  0.2282
  393TMC3    C2 5922   3.879   2.795  11.185  0.4930  0.4914  0.2465
  393TMC3    C3 5923   3.861   2.663  11.215  0.0294 -0.1965  0.5142
  393TMC3    C4 5924   4.109   2.731  11.123  0.1160 -0.7824 -0.2295
  393TMC3    C5 5925   4.082   2.601  11.152 -0.5107 -0.1990 -0.2022
  393TMC3    C6 5926   3.964   2.570  11.212  0.7493 -0.4997  0.1640
  393TMC3     C 5927   4.046   2.961  11.101  0.1879  0.8797  0.1924
  393TMC3     O 5928   3.953   3.023  11.060  0.4173  0.1273  0.2990
  393TMC3     H 5929   3.803   2.871  11.195  0.5798  0.7214 -0.7895
  393TMC3    H1 5930   4.200   2.755  11.069  1.5468 -2.1242  1.5740
  393TMC3    H2 5931   3.946   2.466  11.236 -0.3619 -1.1436 -3.4212
  393TMC3    C7 5932   4.168   2.495  11.093  0.4644 -0.7062  0.1993
  393TMC3    C8 5933   3.738   2.607  11.260 -0.3228  0.3296  0.0304
  393TMC3    O1 5934   4.123   2.384  11.065  0.0317 -0.4358 -0.4906
  393TMC3    O2 5935   3.735   2.487  11.300  0.1756 -0.1386 -0.4860
  394TMC3    C1 5936   1.343   2.935  10.453 -0.5028  0.1047 -0.5282
  394TMC3    C2 5937   1.292   2.896  10.334  0.3123  0.7185  1.4530
  394TMC3    C3 5938   1.258   2.987  10.233  1.0421  0.0910 -0.0393
  394TMC3    C4 5939   1.372   3.065  10.469 -0.2613  0.0262  0.0622
  394TMC3    C5 5940   1.332   3.155  10.374  0.2549 -0.0674 -0.0993
  394TMC3    C6 5941   1.285   3.120  10.248  0.0865  0.0683  0.0489
  394TMC3     C 5942   1.359   2.834  10.557  0.4256  0.2996  0.3386
  394TMC3     O 5943   1.331   2.721  10.522 -0.2133  0.0762 -0.0423
  394TMC3     H 5944   1.279   2.790  10.317 -1.4855  1.1514  0.1483
  394TMC3    H1 5945   1.421   3.102  10.558  1.0678 -1.4380 -0.0622
  394TMC3    H2 5946   1.255   3.197  10.178  2.5492 -0.7029 -1.8310
  394TMC3    C7 5947   1.363   3.298  10.391 -0.3670  0.0846 -0.5109
  394TMC3    C8 5948   1.165   2.964  10.126 -0.0582  0.4896  0.1268
  394TMC3    O1 5949   1.374   3.361  10.288  0.5296 -0.1367 -0.6400
  394TMC3    O2 5950   1.130   3.056  10.051  0.6642 -0.3222 -0.3529
  395TMC3    C1 5951   1.214   0.792  14.369 -0.1533 -0.6331  0.3355
  395TMC3    C2 5952   1.085   0.803  14.432 -0.0159 -0.1940 -0.0954
  395TMC3    C3 5953   1.071   0.896  14.530  0.2239  0.0519 -1.1416
  395TMC3    C4 5954   1.301   0.889  14.411 -0.4797 -0.0037 -1.0864
  395TMC3    C5 5955   1.272   0.983  14.513  0.3224 -0.0294  0.2100
  395TMC3    C6 5956   1.152   0.990  14.574  0.4594 -1.0911 -0.4639
  395TMC3     C 5957   1.265   0.662  14.400  0.1837  0.6008 -0.1228
  395TMC3     O 5958   1.349   0.662  14.488 -0.2246 -0.2307  0.4492
  395TMC3     H 5959   1.000   0.749  14.391 -1.1314 -0.1036  2.0949
  395TMC3    H1 5960   1.401   0.875  14.371 -1.4874 -2.1798 -2.8103
  395TMC3    H2 5961   1.137   1.049  14.663 -0.0141  0.8688 -1.8313
  395TMC3    C7 5962   1.376   1.082  14.540  0.6095  0.8167  0.1382
  395TMC3    C8 5963   0.974   0.866  14.637  0.2588 -0.0542  0.2047
  395TMC3    O1 5964   1.358   1.147  14.644  0.0324 -0.0088 -0.3970
  395TMC3    O2 5965   0.930   0.949  14.715 -0.1529 -0.3688 -0.4095
  396MPD2     C 5966   1.242   1.774  17.124 -0.0177  0.0655 -0.2412
  396MPD2    C1 5967   1.353   1.851  17.141  0.2577 -0.6943 -0.6440
  396MPD2    C2 5968   1.366   1.968  17.066  0.0569  0.7692  0.0682
  396MPD2    C3 5969   1.265   2.011  16.986  0.5277 -0.0078 -0.9103
  396MPD2    C4 5970   1.152   1.936  16.978 -0.5834  0.6591 -0.8653
  396MPD2    C5 5971   1.145   1.814  17.037 -0.3759 -0.0085  0.1299
  396MPD2     H 5972   1.460   2.021  17.065 -1.1165  2.8747  0.5894
  396MPD2    H1 5973   1.063   1.977  16.934 -1.5718  1.4385  1.8672
  396MPD2    H2 5974   1.231   1.684  17.182  2.6105  1.1476  1.9190
  396MPD2    H3 5975   1.051   1.760  17.030  0.6357 -1.9888  1.7785
  396MPD2     N 5976   1.286   2.129  16.916  0.3303  0.0327  0.3311
  396MPD2    H5 5977   1.378   2.171  16.920 -0.4237  1.5815  1.4114
  396MPD2    N1 5978   1.448   1.806  17.232  0.3356  0.5599 -0.0592
  396MPD2    H7 5979   1.430   1.720  17.284  2.5561 -0.5318 -1.0995
  397TMC3    C1 5980   1.638   1.774  17.351 -0.1432 -0.1894  0.4952
  397TMC3    C2 5981   1.759   1.733  17.307 -0.4571  0.2912  0.2250
  397TMC3    C3 5982   1.777   1.604  17.276 -0.4044  0.1415 -0.8843
  397TMC3    C4 5983   1.560   1.683  17.406  0.5854 -0.3566  0.3819
  397TMC3    C5 5984   1.602   1.552  17.417 -0.4880  0.0582 -0.1172
  397TMC3    C6 5985   1.709   1.506  17.348 -0.0862 -0.0595 -0.2764
  397TMC3     C 5986   1.570   1.855  17.258 -0.1369  0.1635 -0.2588
  397TMC3     O 5987   1.633   1.951  17.209 -0.7807  0.4874 -0.5584
  397TMC3     H 5988   1.831   1.803  17.265 -1.0054 -0.5771 -2.1246
  397TMC3    H1 5989   1.464   1.714  17.447  0.8166  0.0911  0.5741
  397TMC3    H2 5990   1.734   1.401  17.340  1.2840  0.3523 -1.4082
  397TMC3    C7 5991   1.511   1.461  17.488 -0.3145  1.1036 -0.8063
  397TMC3    C8 5992   1.903   1.549  17.234 -0.3165  0.4118  0.1297
  397TMC3    O1 5993   1.400   1.503  17.520 -0.4564 -0.1800  0.3185
  397TMC3    O2 5994   1.955   1.468  17.312  0.9443  0.1440 -0.6041
  398MPD2     C 5995   4.077   3.354   0.216  0.3789 -0.1281 -0.0405
  398MPD2    C1 5996   4.207   3.328   0.175  0.6845  0.1606  0.6847
  398MPD2    C2 5997   4.299   3.427   0.186 -0.1280 -0.1362  0.1965
  398MPD2    C3 5998   4.286   3.535   0.275  0.1259 -0.3789  0.2214
  398MPD2    C4 5999   4.154   3.561   0.318 -0.3700 -0.0509 -0.8726
  398MPD2    C5 6000   4.061   3.471   0.283 -0.1336 -0.0148 -0.0200
  398MPD2     H 6001   4.401   3.414   0.152 -0.6809 -1.5553 -0.9192
  398MPD2    H1 6002   4.127   3.651   0.372  0.7738  0.3833 -1.0211
  398MPD2    H2 6003   3.994   3.287   0.199 -0.0469 -0.3985  3.0460
  398MPD2    H3 6004   3.958   3.493   0.310 -0.7062  0.1162 -2.3281
  398MPD2     N 6005   4.401   3.626   0.298  0.2172  0.1442  0.1662
  398MPD2    H5 6006   4.495   3.600   0.270  0.0307  0.9328 -1.2034
  398MPD2    N1 6007   4.244   3.210   0.103 -0.6814 -0.0525 -0.0663
  398MPD2    H7 6008   4.342   3.183   0.107 -0.6884 -0.2134 -0.8571
  399TMC3    C1 6009   4.216   2.989   0.022  0.5173  0.8873  0.0476
  399TMC3    C2 6010   4.331   2.950   0.077  0.5614 -0.1644 -0.0553
  399TMC3    C3 6011   4.366   2.816   0.058 -0.3981  0.3309  0.5144
  399TMC3    C4 6012   4.135   2.907  17.698 -0.0083 -0.4833 -0.0035
  399TMC3    C5 6013   4.177   2.772  17.688  0.0657 -0.3263 -0.3344
  399TMC3    C6 6014   4.297   2.728  17.734  0.0977  0.2054 -0.1425
  399TMC3     C 6015   4.152   3.113   0.060  0.5141  0.5376 -0.4719
  399TMC3     O 6016   4.034   3.123   0.059 -0.3937 -0.2980 -0.7244
  399TMC3     H 6017   4.398   3.013   0.135  0.4018 -0.4062  0.3966
  399TMC3    H1 6018   4.043   2.939  17.651 -0.0946  0.0204  0.5085
  399TMC3    H2 6019   4.339   2.633  17.704  1.2500  0.7655 -0.2960
  399TMC3    C7 6020   4.105   2.675  17.618  0.2134 -0.7490  0.3575
  399TMC3    C8 6021   4.508   2.784   0.081 -0.1867  0.6848 -0.4630
  399TMC3    O1 6022   4.070   2.576  17.678 -0.5228 -0.0647 -0.7546
  399TMC3    O2 6023   4.584   2.876   0.086 -0.0941  0.0691 -0.0502
  400TMC3    C1 6024   2.862   1.332  16.857  0.1614 -1.1470 -0.4709
  400TMC3    C2 6025   2.748   1.322  16.783  0.5873 -0.5158  0.2278
  400TMC3    C3 6026   2.669   1.430  16.753  0.0088 -0.4687  0.0290
  400TMC3    C4 6027   2.898   1.455  16.906 -0.0111 -0.3653 -0.3043
  400TMC3    C5 6028   2.812   1.555  16.895  0.2344 -0.3714 -0.0163
  400TMC3    C6 6029   2.693   1.550  16.822 -0.0879  0.7558  0.1760
  400TMC3     C 6030   2.903   1.212  16.935 -0.5773 -0.0172  0.3074
  400TMC3     O 6031   2.846   1.111  16.899  0.2902  0.2630  0.7233
  400TMC3     H 6032   2.728   1.227  16.735  1.5434  0.2571 -1.7071
  400TMC3    H1 6033   2.994   1.477  16.951 -0.9440 -0.1652  1.5980
  400TMC3    H2 6034   2.632   1.639  16.813 -0.3346  0.4445 -1.1659
  400TMC3    C7 6035   2.835   1.668  16.985  0.5222  0.0441 -0.1029
  400TMC3    C8 6036   2.532   1.408  16.709  0.4789  0.1509 -0.8727
  400TMC3    O1 6037   2.953   1.702  16.998  0.7929 -0.1916 -0.0844
  400TMC3    O2 6038   2.456   1.482  16.773  0.0717 -0.5539  0.2638
  401MPD2     C 6039   1.342   0.321   0.474  0.8426 -0.0542 -0.2733
  401MPD2    C1 6040   1.291   0.243   0.571  0.2983 -0.0812  0.7246
  401MPD2    C2 6041   1.364   0.124   0.602 -0.1093 -0.4649 -0.3207
  401MPD2    C3 6042   1.479   0.079   0.535  0.1267  0.0973  0.6633
  401MPD2    C4 6043   1.515   0.155   0.424  0.2486 -0.0161  0.2131
  401MPD2    C5 6044   1.446   0.271   0.400 -0.4504  0.0374 -0.0595
  401MPD2     H 6045   1.326   0.069   0.687  1.5673 -1.6669 -0.3460
  401MPD2    H1 6046   1.608   0.137   0.371 -0.0609  0.5669 -0.5289
  401MPD2    H2 6047   1.293   0.412   0.439  0.3606 -0.1681  0.1052
  401MPD2    H3 6048   1.482   0.323   0.311 -0.0085 -1.5792 -0.8254
  401MPD2     N 6049   1.537   4.690   0.569 -0.1113 -0.1153  0.1687
  401MPD2    H5 6050   1.497   4.631   0.641  1.1044 -2.3688 -0.9878
  401MPD2    N1 6051   1.176   0.276   0.647 -0.0293  0.0068 -0.4615
  401MPD2    H7 6052   1.140   0.197   0.700  0.0896 -1.5002 -2.6053
  402TMC3    C1 6053   1.682   4.501   0.540  0.0992  0.8634  0.4854
  402TMC3    C2 6054   1.642   4.465   0.666 -0.1604  0.3145  0.5328
  402TMC3    C3 6055   1.651   4.332   0.695  0.5647  0.4444 -0.6224
  402TMC3    C4 6056   1.752   4.420   0.456 -0.3492  0.6063  0.0981
  402TMC3    C5 6057   1.769   4.291   0.496 -0.0395 -0.1041  0.0518
  402TMC3    C6 6058   1.720   4.245   0.614 -0.0756 -0.2835  0.6480
  402TMC3     C 6059   1.631   4.628   0.492  0.1482 -0.3837  0.1646
  402TMC3     O 6060   1.671   4.660   0.385 -0.1486 -0.1457 -0.5304
  402TMC3     H 6061   1.610   4.534   0.743 -0.9013  0.8226 -0.2283
  402TMC3    H1 6062   1.802   4.465   0.370 -0.9173  2.5111  0.7616
  402TMC3    H2 6063   1.712   4.139   0.637 -0.8662 -0.4421 -0.3632
  402TMC3    C7 6064   1.878   4.210   0.438  0.1010 -0.3437  0.0716
  402TMC3    C8 6065   1.644   4.287   0.830 -0.0582  0.2315 -0.9829
  402TMC3    O1 6066   1.927   4.258   0.335 -0.2768  0.8782  0.0381
  402TMC3    O2 6067   1.684   4.175   0.851  0.3831 -0.6198 -0.9338
  403MPD2     C 6068   3.869   3.186  13.387 -0.2120  1.0935 -0.5187
  403MPD2    C1 6069   3.879   3.069  13.448 -0.2874 -0.1479  0.5801
  403MPD2    C2 6070   3.980   3.045  13.537 -0.4820 -0.1093  0.8131
  403MPD2    C3 6071   4.078   3.146  13.557 -0.7919  0.1346  0.2338
  403MPD2    C4 6072   4.081   3.259  13.473  0.1149 -0.4369  0.0691
  403MPD2    C5 6073   3.970   3.279  13.388 -0.4244  0.0379  0.4779
  403MPD2     H 6074   3.978   2.953  13.593  1.7237 -1.2684 -1.0181
  403MPD2    H1 6075   4.161   3.331  13.475 -0.3230 -0.0144  2.7486
  403MPD2    H2 6076   3.777   3.215  13.337 -1.5723 -0.1495  1.2843
  403MPD2    H3 6077   3.970   3.368  13.325 -0.7765  1.1773  2.1061
  403MPD2     N 6078   4.171   3.120  13.657 -0.4453  0.1810  0.1228
  403MPD2    H5 6079   4.142   3.043  13.717  0.0107  0.7778  1.1228
  403MPD2    N1 6080   3.784   2.969  13.411  0.5508  0.2210  0.3191
  403MPD2    H7 6081   3.723   2.990  13.333 -0.5420 -0.6478  0.9319
  404TMC3    C1 6082   3.676   2.754  13.403  0.2570  0.0010 -0.2254
  404TMC3    C2 6083   3.638   2.652  13.481  0.6063  0.9566  0.5562
  404TMC3    C3 6084   3.592   2.534  13.419  0.3468  0.3783  0.1784
  404TMC3    C4 6085   3.684   2.743  13.269 -0.2339  0.2064  0.4921
  404TMC3    C5 6086   3.622   2.636  13.210 -0.0548 -0.7229  0.6076
  404TMC3    C6 6087   3.577   2.530  13.283  0.4727 -0.0829 -0.3409
  404TMC3     C 6088   3.773   2.846  13.467 -0.6436  0.1594 -0.4427
  404TMC3     O 6089   3.836   2.794  13.562  0.0009 -0.1357  0.6353
  404TMC3     H 6090   3.652   2.652  13.588 -3.4659  0.6550  1.1058
  404TMC3    H1 6091   3.731   2.820  13.209 -0.2479  0.9083  1.3855
  404TMC3    H2 6092   3.548   2.438  13.233  1.8134 -2.2485  2.8675
  404TMC3    C7 6093   3.662   2.612  13.071 -0.3575  0.7669 -0.2265
  404TMC3    C8 6094   3.580   2.411  13.496  0.1067 -0.1310  0.9082
  404TMC3    O1 6095   3.779   2.622  13.052  0.0246 -0.1615  0.1235
  404TMC3    O2 6096   3.603   2.311  13.433  0.0533  0.2196 -0.1785
  405MPD2     C 6097   4.250   3.532  14.817  0.1078  0.6710  0.2925
  405MPD2    C1 6098   4.270   3.442  14.716  0.0182 -0.7950  0.3300
  405MPD2    C2 6099   4.239   3.485  14.586  0.6109 -0.4636  0.3952
  405MPD2    C3 6100   4.181   3.605  14.566  0.3422 -0.5612 -0.0047
  405MPD2    C4 6101   4.154   3.688  14.670  0.0008  0.0991 -0.5559
  405MPD2    C5 6102   4.193   3.651  14.793 -0.6407 -0.1614 -0.0952
  405MPD2     H 6103   4.260   3.418  14.503 -0.0582  1.9629 -1.7043
  405MPD2    H1 6104   4.086   3.772  14.664  2.0366  1.7552 -0.4796
  405MPD2    H2 6105   4.270   3.503  14.920 -0.9427 -0.3852  0.2032
  405MPD2    H3 6106   4.171   3.719  14.874  2.0493  0.6873 -0.0679
  405MPD2     N 6107   4.154   3.635  14.429  0.3703 -0.0812  0.9927
  405MPD2    H5 6108   4.173   3.557  14.366 -0.7696 -0.2351  0.8539
  405MPD2    N1 6109   4.335   3.321  14.756 -0.2207 -0.0980  0.2598
  405MPD2    H7 6110   4.368   3.313  14.851  1.0056  2.4740  0.0579
  406TMC3    C1 6111   3.836   3.764  14.124  0.7683  0.3748  0.2692
  406TMC3    C2 6112   3.847   3.629  14.084 -0.0144  0.3007 -0.0548
  406TMC3    C3 6113   3.955   3.553  14.122 -0.3293  0.4300 -0.1185
  406TMC3    C4 6114   3.928   3.806  14.212  0.2833 -0.4807  0.3949
  406TMC3    C5 6115   4.033   3.724  14.251  0.1362 -0.2226 -0.2926
  406TMC3    C6 6116   4.056   3.603  14.192 -0.3557 -0.4237 -0.0497
  406TMC3     C 6117   3.710   3.833  14.117  0.3850  0.9968  0.3312
  406TMC3     O 6118   3.690   3.881  14.008 -0.4236 -0.4108 -0.3813
  406TMC3     H 6119   3.771   3.583  14.022  0.5216  0.7567 -1.0495
  406TMC3    H1 6120   3.916   3.903  14.258  2.4779  0.1281 -0.3521
  406TMC3    H2 6121   4.158   3.565  14.184  0.1762  1.3070 -1.3811
  406TMC3    C7 6122   4.095   3.750  14.380  0.2522  0.1176  0.1564
  406TMC3    C8 6123   3.927   3.405  14.115 -0.2811  0.2235 -0.6662
  406TMC3    O1 6124   4.063   3.851  14.443 -0.5604 -0.7791  0.1385
  406TMC3    O2 6125   3.817   3.361  14.082 -0.5031 -0.0322  0.1142
  407MPD2     C 6126   0.944   0.181  10.323  0.3301  0.0463  1.1739
  407MPD2    C1 6127   0.973   0.297  10.257  0.0438  0.0594  0.2669
  407MPD2    C2 6128   0.948   0.416  10.327  0.1238 -0.2910 -0.2278
  407MPD2    C3 6129   0.916   0.407  10.469 -0.3997 -0.1722  0.1144
  407MPD2    C4 6130   0.881   0.288  10.522  0.6173  0.5232 -0.1182
  407MPD2    C5 6131   0.881   0.176  10.448  0.3376 -0.7469 -0.4522
  407MPD2     H 6132   0.966   0.509  10.273  2.2123 -0.0168  0.9264
  407MPD2    H1 6133   0.837   0.276  10.620 -1.8475 -3.3774 -1.6875
  407MPD2    H2 6134   0.966   0.089  10.271  0.6589 -0.5541  2.3883
  407MPD2    H3 6135   0.852   0.089  10.505 -0.9903 -0.1298 -0.1929
  407MPD2     N 6136   0.923   0.524  10.558  0.4796  0.1849  0.7625
  407MPD2    H5 6137   0.934   0.510  10.658  0.1731  2.0044  1.0466
  407MPD2    N1 6138   1.048   0.309  10.131  0.0278 -0.4791  0.1819
  407MPD2    H7 6139   1.072   0.404  10.104 -1.2280 -0.1378  0.2386
  408TMC3    C1 6140   1.205   0.232   9.960  0.6277 -0.1121  0.3719
  408TMC3    C2 6141   1.277   0.125   9.916 -0.3945 -0.9225 -0.2919
  408TMC3    C3 6142   1.395   0.157   9.851 -0.1561 -0.0220  0.2664
  408TMC3    C4 6143   1.248   0.352   9.949  0.0899  0.4759  0.0788
  408TMC3    C5 6144   1.363   0.379   9.882 -0.6275 -1.0891 -0.0767
  408TMC3    C6 6145   1.439   0.283   9.827  0.5931  0.1198 -0.3870
  408TMC3     C 6146   1.091   0.202  10.051  0.0263  0.1513 -0.2865
  408TMC3     O 6147   1.061   0.084  10.059  0.4769  0.5135  0.5685
  408TMC3     H 6148   1.253   0.024   9.950  0.9181  0.0108  3.4120
  408TMC3    H1 6149   1.192   0.437   9.986  0.6904  1.1975 -0.6504
  408TMC3    H2 6150   1.534   0.305   9.779 -0.1697  0.5904 -1.6930
  408TMC3    C7 6151   1.416   0.508   9.869 -0.0016  0.8561 -0.6158
  408TMC3    C8 6152   1.487   0.041   9.831 -0.7280  0.5946 -0.1425
  408TMC3    O1 6153   1.538   0.519   9.869 -0.4120 -0.2469  0.0393
  408TMC3    O2 6154   1.435   4.672   9.802  0.2750 -0.0739  0.5454
  409MPD2     C 6155   1.305   1.039  17.354  0.2248  0.2334 -0.8848
  409MPD2    C1 6156   1.406   0.956  17.306 -0.2017 -0.1993 -0.5175
  409MPD2    C2 6157   1.505   1.013  17.229  0.2393 -0.3720  0.0514
  409MPD2    C3 6158   1.509   1.143  17.195  0.1281 -0.0521 -0.6769
  409MPD2    C4 6159   1.415   1.229  17.252 -0.1394 -0.9692  0.2475
  409MPD2    C5 6160   1.318   1.174  17.328  0.8931 -0.0941  0.3882
  409MPD2     H 6161   1.581   0.952  17.182  1.5866  0.5129  1.0992
  409MPD2    H1 6162   1.419   1.333  17.222  1.4614 -1.1185 -0.0821
  409MPD2    H2 6163   1.223   0.992  17.407 -0.4612  1.0383 -1.2095
  409MPD2    H3 6164   1.232   1.235  17.351 -0.0618 -0.3702 -2.4010
  409MPD2     N 6165   1.597   1.196  17.098 -0.0457 -0.5192  0.4910
  409MPD2    H5 6166   1.580   1.292  17.070 -0.9662 -0.4492  1.2714
  409MPD2    N1 6167   1.413   0.814  17.318 -0.0399  1.1167 -0.1018
  409MPD2    H7 6168   1.490   0.764  17.275 -0.7608  0.8891 -1.1214
  410TMC3    C1 6169   1.792   1.221  16.964  0.0105  0.1504  0.0574
  410TMC3    C2 6170   1.929   1.205  16.957  0.0288 -0.1365  0.5600
  410TMC3    C3 6171   2.008   1.302  16.905 -0.6648  0.6751 -0.2775
  410TMC3    C4 6172   1.727   1.309  16.880 -0.1660 -0.3514  0.1375
  410TMC3    C5 6173   1.814   1.391  16.809  0.2447 -0.4755 -0.1739
  410TMC3    C6 6174   1.952   1.407  16.837 -0.3980 -0.4372  0.7808
  410TMC3     C 6175   1.713   1.139  17.058 -0.2077  0.3731 -0.3653
  410TMC3     O 6176   1.776   1.043  17.097 -0.7050  0.4188  0.5142
  410TMC3     H 6177   1.976   1.130  17.019 -0.5249 -0.0117  1.1275
  410TMC3    H1 6178   1.619   1.313  16.874 -0.2552 -0.5296  1.5978
  410TMC3    H2 6179   2.023   1.466  16.781 -0.7051 -0.5739  0.2423
  410TMC3    C7 6180   1.748   1.472  16.712 -0.4544  0.5234  0.0909
  410TMC3    C8 6181   2.149   1.297  16.932  0.1634 -0.5869 -0.3446
  410TMC3    O1 6182   1.631   1.451  16.691  0.1395 -0.0964 -0.4858
  410TMC3    O2 6183   2.205   1.403  16.948  0.1465 -0.0697 -0.3260
  411MPD2     C 6184   1.672   2.484  14.265 -0.4753 -0.1043  0.0527
  411MPD2    C1 6185   1.583   2.410  14.335 -0.3638 -0.2794 -0.3545
  411MPD2    C2 6186   1.571   2.273  14.315 -0.7681  0.5485  0.2146
  411MPD2    C3 6187   1.630   2.203  14.217 -0.1569 -0.7126  0.1270
  411MPD2    C4 6188   1.718   2.277  14.137 -1.0228 -0.4358  0.8967
  411MPD2    C5 6189   1.749   2.412  14.170  0.0286 -0.1847  0.5759
  411MPD2     H 6190   1.492   2.225  14.372 -0.1376 -2.4287 -1.4439
  411MPD2    H1 6191   1.778   2.232  14.058 -0.4408  1.1632  0.4223
  411MPD2    H2 6192   1.692   2.590  14.279 -2.4404  0.0932  1.3957
  411MPD2    H3 6193   1.809   2.469  14.100 -2.4713  1.9415  0.1605
  411MPD2     N 6194   1.626   2.065  14.193 -0.4921  0.3519 -0.0328
  411MPD2    H5 6195   1.656   2.043  14.098 -1.4143  0.2120 -0.2868
  411MPD2    N1 6196   1.507   2.463  14.437 -0.0455 -0.2833  0.0098
  411MPD2    H7 6197   1.426   2.408  14.464 -2.6843  2.2662 -2.6673
  412TMC3    C1 6198   1.564   1.842  14.204 -0.0745  0.7560 -0.5135
  412TMC3    C2 6199   1.464   1.755  14.237  0.2335 -0.2737  0.2480
  412TMC3    C3 6200   1.463   1.640  14.166 -0.0214  0.0281  0.1758
  412TMC3    C4 6201   1.654   1.824  14.109 -0.0166  0.3889  0.3267
  412TMC3    C5 6202   1.645   1.704  14.032 -0.0849  0.5375  0.5990
  412TMC3    C6 6203   1.555   1.611  14.066  0.2070 -0.5142 -0.1525
  412TMC3     C 6204   1.564   1.966  14.268 -0.1247  0.8117 -0.1802
  412TMC3     O 6205   1.502   1.981  14.372  0.0856  0.1656 -0.2024
  412TMC3     H 6206   1.378   1.800  14.285  0.2401 -0.5095  0.4808
  412TMC3    H1 6207   1.746   1.875  14.083  0.9068 -0.0444  2.8002
  412TMC3    H2 6208   1.553   1.521  14.006 -1.0985 -0.4199 -0.2443
  412TMC3    C7 6209   1.630   1.721  13.887  0.3839 -0.0006 -0.1959
  412TMC3    C8 6210   1.329   1.593  14.129 -0.2647  0.0413 -0.2088
  412TMC3    O1 6211   1.527   1.674  13.837 -0.1407  0.4574 -0.3268
  412TMC3    O2 6212   1.238   1.600  14.211  0.2718  0.3770  0.3186
  413MPD2     C 6213   3.339   0.046  15.552  0.1628 -0.2916  0.7198
  413MPD2    C1 6214   3.248   4.692  15.496  0.0322  0.9372 -0.0094
  413MPD2    C2 6215   3.301   4.587  15.421  0.8735 -0.4836  0.8430
  413MPD2    C3 6216   3.442   4.558  15.417  0.1065  0.1314  0.1566
  413MPD2    C4 6217   3.523   4.646  15.487  0.2101  0.3479  0.8286
  413MPD2    C5 6218   3.472   0.026  15.543 -0.6820  0.2404  0.0620
  413MPD2     H 6219   3.243   4.502  15.386  2.4090 -1.4971  0.7525
  413MPD2    H1 6220   3.632   4.638  15.485  0.2853  1.3975  0.8471
  413MPD2    H2 6221   3.307   0.130  15.613  1.7237  0.0870  1.0145
  413MPD2    H3 6222   3.535   0.095  15.597 -1.2677  1.2690 -0.5678
  413MPD2     N 6223   3.483   4.442  15.346  0.0948  0.4514  0.2935
  413MPD2    H5 6224   3.420   4.407  15.275  1.8061  0.8083 -1.3991
  413MPD2    N1 6225   3.110   4.716  15.508  0.2081  0.2322 -0.2030
  413MPD2    H7 6226   3.083   0.058  15.566 -2.3231 -0.7867 -0.0183
  414TMC3    C1 6227   3.610   4.257  15.291 -0.9276  0.7043  0.3163
  414TMC3    C2 6228   3.685   4.156  15.343  0.3262  0.4740 -0.1416
  414TMC3    C3 6229   3.706   4.046  15.263 -0.1268 -0.2179  0.4518
  414TMC3    C4 6230   3.575   4.268  15.156 -0.6387  0.2209 -0.1219
  414TMC3    C5 6231   3.614   4.165  15.080 -0.1854 -0.4915  0.1889
  414TMC3    C6 6232   3.669   4.047  15.134 -0.4064  0.3044 -0.1723
  414TMC3     C 6233   3.597   4.375  15.375  0.2101  0.0482 -0.4801
  414TMC3     O 6234   3.670   4.392  15.469  0.6257  0.4038  0.0745
  414TMC3     H 6235   3.739   4.171  15.435 -1.6351 -1.6902  1.3751
  414TMC3    H1 6236   3.523   4.351  15.109  0.3156  0.1818 -1.2358
  414TMC3    H2 6237   3.687   3.965  15.067 -0.4062  0.5583 -0.4831
  414TMC3    C7 6238   3.701   4.201  14.968  0.8390 -0.5743  0.3572
  414TMC3    C8 6239   3.806   3.943  15.304 -0.1614 -0.9404 -0.1715
  414TMC3    O1 6240   3.663   4.302  14.912 -0.3732 -0.2187 -0.1097
  414TMC3    O2 6241   3.870   3.910  15.204  0.6055  0.1695  1.3526
  415TMC3    C1 6242   3.510   2.462  10.658  0.6120 -0.0496 -0.1830
  415TMC3    C2 6243   3.624   2.455  10.579  0.8824 -0.1806  0.1311
  415TMC3    C3 6244   3.684   2.569  10.533  0.0722 -0.3461 -0.1299
  415TMC3    C4 6245   3.458   2.586  10.675  0.1081  0.6420  0.4177
  415TMC3    C5 6246   3.514   2.693  10.616  0.0756 -0.6198 -0.1531
  415TMC3    C6 6247   3.630   2.691  10.547 -0.2175 -0.2239 -0.2072
  415TMC3     C 6248   3.418   2.345  10.658  0.6645 -0.2798 -0.0800
  415TMC3     O 6249   3.325   2.352  10.735  0.3713 -0.0732 -0.1532
  415TMC3     H 6250   3.677   2.362  10.560  0.8278 -0.4211  1.1629
  415TMC3    H1 6251   3.384   2.587  10.754 -1.1113 -0.4572 -0.7005
  415TMC3    H2 6252   3.689   2.779  10.524  0.7976 -1.4374 -2.2182
  415TMC3    C7 6253   3.442   2.818  10.602 -0.1457 -0.2604  0.1014
  415TMC3    C8 6254   3.805   2.550  10.460 -0.1339  0.5874 -0.4411
  415TMC3    O1 6255   3.499   2.911  10.546 -0.3907 -0.0535 -0.2154
  415TMC3    O2 6256   3.830   2.436  10.419 -0.4087 -0.2561  0.9302
  416MPD2     C 6257   0.488   0.569  11.374  0.0368  0.0562  0.8266
  416MPD2    C1 6258   0.368   0.631  11.348  0.4781 -0.0587 -0.6134
  416MPD2    C2 6259   0.274   0.574  11.266  0.4173 -0.5751 -0.2914
  416MPD2    C3 6260   0.310   0.452  11.211 -0.2718  0.5248  0.3295
  416MPD2    C4 6261   0.433   0.390  11.232 -0.3946 -0.5959  0.2687
  416MPD2    C5 6262   0.516   0.452  11.320 -0.5738  0.6656 -0.4570
  416MPD2     H 6263   0.177   0.619  11.246  0.6789 -0.7921 -2.0137
  416MPD2    H1 6264   0.460   0.290  11.201 -0.0904  0.3818 -2.6871
  416MPD2    H2 6265   0.559   0.603  11.448 -0.7654  1.0735  1.1199
  416MPD2    H3 6266   0.614   0.412  11.342 -1.1676 -0.7410 -0.3513
  416MPD2     N 6267   0.210   0.365  11.160  0.2279  0.1289  0.1856
  416MPD2    H5 6268   0.232   0.266  11.162 -1.0314 -0.2174 -2.6644
  416MPD2    N1 6269   0.347   0.754  11.409  0.1451  0.1161  0.2934
  416MPD2    H7 6270   0.413   0.766  11.485  1.7918 -0.3977 -1.0476
  417TMC3    C1 6271   0.228   0.943  11.492  0.3641  0.1281  0.0988
  417TMC3    C2 6272   0.242   0.906  11.624 -0.2253 -0.0917 -0.0250
  417TMC3    C3 6273   0.181   0.990  11.714  0.1245 -0.2271  0.5351
  417TMC3    C4 6274   0.167   1.055  11.453  0.9452 -0.6479 -0.2079
  417TMC3    C5 6275   0.111   1.135  11.547  0.5691 -0.7841  0.2824
  417TMC3    C6 6276   0.117   1.104  11.679  0.3499  0.1389 -0.5146
  417TMC3     C 6277   0.249   0.844  11.386 -0.3037 -0.1910  0.2488
  417TMC3     O 6278   0.172   0.857  11.292 -0.1809  0.7626 -0.1792
  417TMC3     H 6279   0.309   0.826  11.655  0.4534 -0.4217 -2.3280
  417TMC3    H1 6280   0.186   1.081  11.350 -1.6896  0.9175 -0.2684
  417TMC3    H2 6281   0.066   1.172  11.746 -1.7540 -3.4159  1.4630
  417TMC3    C7 6282   0.099   1.268  11.498  0.0524  0.3217  0.0832
  417TMC3    C8 6283   0.192   0.979  11.864  0.8122  0.1445 -0.1472
  417TMC3    O1 6284   0.057   1.289  11.383  0.0127  0.1937  0.1999
  417TMC3    O2 6285   0.098   1.027  11.930  0.2656 -0.6469  0.4585
  418TMC3    C1 6286   4.712   3.881   0.291  0.5984 -0.3018  0.3156
  418TMC3    C2 6287   4.575   3.881   0.298 -0.4326 -0.0853  0.0568
  418TMC3    C3 6288   4.525   3.793   0.387 -0.3098  0.5729  0.2029
  418TMC3    C4 6289   0.056   3.807   0.372 -0.5095 -0.4621  0.1060
  418TMC3    C5 6290   4.735   3.733   0.469  0.2124 -0.0808 -0.0029
  418TMC3    C6 6291   4.598   3.726   0.474  0.4162 -0.0657  0.4298
  418TMC3     C 6292   0.022   3.928   0.167  0.0393  0.3330 -0.2698
  418TMC3     O 6293   4.712   4.035   0.127  0.6673 -0.1095  0.1137
  418TMC3     H 6294   4.517   3.943   0.230 -1.2845 -1.2565 -0.2777
  418TMC3    H1 6295   0.163   3.805   0.353 -0.1178  1.8412  2.1340
  418TMC3    H2 6296   4.546   3.673   0.553 -0.2380 -3.0145 -1.9744
  418TMC3    C7 6297   0.070   3.629   0.531  0.1519  0.4413 -0.3023
  418TMC3    C8 6298   4.387   3.745   0.364  0.0607  0.1004 -0.5462
  418TMC3    O1 6299   0.008   3.527   0.556 -0.8204 -0.0750 -0.1636
  418TMC3    O2 6300   4.292   3.816   0.391 -0.2465  0.2829 -0.9848
  419MPD2     C 6301   2.573   1.037  12.124 -0.6486  0.3870 -0.1280
  419MPD2    C1 6302   2.645   1.136  12.177 -0.2069  0.1817 -0.0489
  419MPD2    C2 6303   2.628   1.159  12.311  0.4277 -0.5532 -0.2909
  419MPD2    C3 6304   2.559   1.077  12.393 -0.0151 -0.0916  0.2783
  419MPD2    C4 6305   2.493   0.970  12.339 -1.2052  0.7264  0.2540
  419MPD2    C5 6306   2.506   0.945  12.204 -0.1498  0.1749 -0.2763
  419MPD2     H 6307   2.667   1.251  12.354  1.0215 -0.6512 -0.6137
  419MPD2    H1 6308   2.436   0.896  12.394  0.2969 -1.0192 -0.5461
  419MPD2    H2 6309   2.578   1.015  12.017  1.7559  1.3406 -0.2139
  419MPD2    H3 6310   2.460   0.856  12.163 -1.6867  2.2414 -2.9968
  419MPD2     N 6311   2.557   1.119  12.522 -0.0402  0.1784  0.8772
  419MPD2    H5 6312   2.571   1.217  12.542  1.0796  0.4747 -1.3648
  419MPD2    N1 6313   2.706   1.240  12.103 -0.6014  0.2149  1.1425
  419MPD2    H7 6314   2.749   1.317  12.153  1.1871 -0.2660  0.3413
  420TMC3    C1 6315   2.508   1.112  12.746  0.2382  0.8127 -0.1448
  420TMC3    C2 6316   2.444   1.232  12.746  0.3754 -0.4817  0.3064
  420TMC3    C3 6317   2.411   1.297  12.860  0.1136  0.1700  0.2258
  420TMC3    C4 6318   2.532   1.049  12.869  0.0424  0.0417  0.2608
  420TMC3    C5 6319   2.489   1.112  12.979  0.0950  0.1436  0.2535
  420TMC3    C6 6320   2.439   1.239  12.979  0.0077  0.4497 -0.2812
  420TMC3     C 6321   2.532   1.037  12.622 -0.0170 -0.6253  0.0148
  420TMC3     O 6322   2.495   0.919  12.615  0.0559 -0.2269 -0.0669
  420TMC3     H 6323   2.434   1.289  12.654 -0.0317  0.8360  1.1606
  420TMC3    H1 6324   2.569   0.947  12.870  2.2622  0.8065 -2.8060
  420TMC3    H2 6325   2.414   1.296  13.068  0.2344  0.1496 -0.0272
  420TMC3    C7 6326   2.569   1.103  13.097  0.3065  0.7203 -0.5199
  420TMC3    C8 6327   2.384   1.435  12.846 -0.5671  0.3671 -0.2545
  420TMC3    O1 6328   2.519   1.052  13.197  0.0757  0.0384 -0.4957
  420TMC3    O2 6329   2.349   1.475  12.738 -0.1673  0.5281  0.0231
  421TMC3    C1 6330   4.289   3.200  13.841 -0.3776  0.0461 -0.5512
  421TMC3    C2 6331   4.308   3.310  13.913 -0.1447  0.4311  0.6718
  421TMC3    C3 6332   4.354   3.301  14.040  0.2126 -0.2927  0.0127
  421TMC3    C4 6333   4.312   3.076  13.899  0.0597  0.1553  0.0530
  421TMC3    C5 6334   4.344   3.074  14.032  0.4678 -0.4846  0.3747
  421TMC3    C6 6335   4.366   3.185  14.111 -0.0844 -0.2766  0.0312
  421TMC3     C 6336   4.254   3.219  13.704 -0.2984  0.3537  0.6123
  421TMC3     O 6337   4.296   3.321  13.646  0.0100  0.0141  0.1800
  421TMC3     H 6338   4.285   3.398  13.855  1.1285  0.6321  0.4718
  421TMC3    H1 6339   4.294   2.983  13.848  0.7778 -0.4980  0.9739
  421TMC3    H2 6340   4.396   3.179  14.215  2.1851 -1.0846 -0.6861
  421TMC3    C7 6341   4.399   2.950  14.077  0.3435 -1.0368 -0.0101
  421TMC3    C8 6342   4.358   3.421  14.112  0.1006 -0.2933  0.4993
  421TMC3    O1 6343   4.493   2.963  14.157  0.1566  0.6139 -0.3295
  421TMC3    O2 6344   4.341   3.416  14.233  0.1747  0.5521 -0.2788
  422TMC3    C1 6345   1.595   4.307  12.990  0.0136 -0.9938  0.1253
  422TMC3    C2 6346   1.552   4.430  13.034  0.0270  0.7123  0.2689
  422TMC3    C3 6347   1.420   4.457  13.026 -0.6732  0.3159 -0.4552
  422TMC3    C4 6348   1.504   4.207  12.955 -0.6885  0.4305 -0.1385
  422TMC3    C5 6349   1.369   4.242  12.944 -0.0644  0.0405  0.1041
  422TMC3    C6 6350   1.324   4.368  12.974  0.1043  0.2331  0.5576
  422TMC3     C 6351   1.708   4.319  12.893 -0.1164 -1.3767 -0.4026
  422TMC3     O 6352   1.740   4.434  12.894 -0.2103 -0.1797  0.0100
  422TMC3     H 6353   1.626   4.500  13.073  0.3936  0.4277  0.0861
  422TMC3    H1 6354   1.526   4.108  12.918  0.4520 -0.5032  3.0357
  422TMC3    H2 6355   1.218   4.385  12.986 -0.4287 -1.3014 -1.9784
  422TMC3    C7 6356   1.278   4.135  12.918  0.1344 -0.2439  0.2180
  422TMC3    C8 6357   1.387   4.598  13.047 -0.4021  0.2565 -0.4717
  422TMC3    O1 6358   1.328   4.038  12.863  0.1761  0.1019 -0.5147
  422TMC3    O2 6359   1.482   4.673  13.073  0.4812  0.0669 -0.6868
  423MPD2     C 6360   3.015   0.561   0.542 -0.0576 -0.5704 -0.2758
  423MPD2    C1 6361   3.119   0.639   0.491  0.3229  0.3634  0.4405
  423MPD2    C2 6362   3.167   0.605   0.367  0.1425 -0.0923  0.0362
  423MPD2    C3 6363   3.126   0.488   0.305 -0.0062  0.3686  0.1048
  423MPD2    C4 6364   3.033   0.407   0.362  0.3551  0.6256  0.5108
  423MPD2    C5 6365   2.974   0.442   0.480  0.4780 -0.5902 -0.4021
  423MPD2     H 6366   3.243   0.667   0.320  0.7987 -0.9442 -0.0442
  423MPD2    H1 6367   3.000   0.317   0.310  0.4294  1.1740 -0.4734
  423MPD2    H2 6368   2.981   0.584   0.643 -0.4883  2.0067 -0.9919
  423MPD2    H3 6369   2.901   0.375   0.523 -1.6202  2.3261  0.6181
  423MPD2     N 6370   3.184   0.425   0.189  0.0618  0.3293 -0.0814
  423MPD2    H5 6371   3.146   0.333   0.170 -2.1433  1.3810 -0.6495
  423MPD2    N1 6372   3.170   0.748   0.563 -0.3130 -0.8134 -0.1681
  423MPD2    H7 6373   3.249   0.789   0.515  0.2653 -1.4637  0.2326
  424TMC3    C1 6374   3.226   0.899   0.737 -1.1708 -0.6633  0.2643
  424TMC3    C2 6375   3.354   0.913   0.691 -0.1473  0.1774  0.7499
  424TMC3    C3 6376   3.454   0.933   0.779 -0.3244  0.2827 -0.5567
  424TMC3    C4 6377   3.192   0.938   0.867  0.2063 -0.4620  0.4854
  424TMC3    C5 6378   3.292   0.969   0.950 -0.0002  0.2571  0.3211
  424TMC3    C6 6379   3.427   0.951   0.912 -0.0340 -1.1697  0.4799
  424TMC3     C 6380   3.144   0.792   0.689  0.2001 -0.0394  0.6977
  424TMC3     O 6381   3.047   0.765   0.759  0.6190 -0.0634 -0.1502
  424TMC3     H 6382   3.380   0.900   0.587  0.5064 -0.6316  1.0101
  424TMC3    H1 6383   3.091   0.933   0.907  0.5427 -0.5081  1.3253
  424TMC3    H2 6384   3.507   0.967   0.984 -0.4925  1.7659  0.3405
  424TMC3    C7 6385   3.273   1.021   1.089  0.2074  0.2538 -0.1647
  424TMC3    C8 6386   3.584   0.880   0.733  0.2378  0.1063 -0.5846
  424TMC3    O1 6387   3.376   1.016   1.157 -0.3943  0.3145  0.0783
  424TMC3    O2 6388   3.586   0.803   0.635 -0.7206  0.6071 -0.0062
  425MPD2     C 6389   2.554   0.289  17.434 -0.1267  0.0447  0.2716
  425MPD2    C1 6390   2.472   0.176  17.421  0.0919 -0.3152 -0.3012
  425MPD2    C2 6391   2.341   0.184  17.457 -0.7139  1.0841  0.0223
  425MPD2    C3 6392   2.293   0.293  17.519  0.1465 -0.3004  0.2626
  425MPD2    C4 6393   2.370   0.408  17.527 -0.4341 -0.1468  0.0665
  425MPD2    C5 6394   2.500   0.408  17.488  0.3677 -0.2544  0.4891
  425MPD2     H 6395   2.286   0.090  17.451  1.4314 -0.1976  0.4168
  425MPD2    H1 6396   2.337   0.499  17.576 -1.6856 -2.2131  3.0600
  425MPD2    H2 6397   2.657   0.284  17.403  0.1094  0.3773  1.0054
  425MPD2    H3 6398   2.563   0.497  17.485 -0.5189  0.3557 -0.3053
  425MPD2     N 6399   2.156   0.280  17.569 -0.0959  0.0216 -0.4554
  425MPD2    H5 6400   2.103   0.197  17.543  0.8407 -0.4818 -0.7610
  425MPD2    N1 6401   2.534   0.060  17.379 -0.4442  0.2539 -0.0756
  425MPD2    H7 6402   2.632   0.043  17.402 -0.3407  0.9581  0.0208
  426TMC3    C1 6403   2.528   4.582  17.294  0.5067  0.3635  0.1176
  426TMC3    C2 6404   2.491   4.504  17.186 -0.1310  0.2034 -0.0873
  426TMC3    C3 6405   2.497   4.365  17.200 -0.0323  1.2559 -0.2848
  426TMC3    C4 6406   2.550   4.525  17.416  0.5703 -0.0916  0.2950
  426TMC3    C5 6407   2.532   4.391  17.431 -0.3122  0.5555 -0.4972
  426TMC3    C6 6408   2.520   4.302  17.325  0.1873  0.2352 -0.4415
  426TMC3     C 6409   2.470   4.710  17.299  0.3883 -0.0011 -0.4426
  426TMC3     O 6410   2.368   4.720  17.232  0.3244  0.2031  0.0917
  426TMC3     H 6411   2.454   4.551  17.095 -0.9382  2.0064  1.1676
  426TMC3    H1 6412   2.560   4.589  17.503  1.4207  1.5911 -1.0439
  426TMC3    H2 6413   2.510   4.195  17.340  0.3586  0.4064  0.8385
  426TMC3    C7 6414   2.492   4.341  17.559 -0.4319  0.0108 -0.5104
  426TMC3    C8 6415   2.465   4.277  17.095  0.0213  0.6285 -0.8890
  426TMC3    O1 6416   2.426   4.419  17.628 -0.4685 -0.1849 -0.0559
  426TMC3    O2 6417   2.515   4.164  17.098  0.2560  0.8356 -0.6759
  427MPD2     C 6418   0.510   1.348  14.682 -0.2036 -0.1080  0.3603
  427MPD2    C1 6419   0.561   1.389  14.804  0.0505 -0.2546  0.1538
  427MPD2    C2 6420   0.479   1.455  14.895 -0.3561 -0.7648 -0.0422
  427MPD2    C3 6421   0.347   1.470  14.868  0.7070  0.5325  0.0173
  427MPD2    C4 6422   0.302   1.431  14.742  0.5000  0.0863 -0.0781
  427MPD2    C5 6423   0.379   1.369  14.648 -0.3426 -0.7247  1.2149
  427MPD2     H 6424   0.513   1.489  14.992 -0.4731  0.4510 -0.4205
  427MPD2    H1 6425   0.206   1.462  14.703  1.1709  1.8785 -0.3531
  427MPD2    H2 6426   0.571   1.289  14.614 -0.9397 -0.4917  0.0401
  427MPD2    H3 6427   0.354   1.343  14.546 -0.1825 -1.3746  1.3402
  427MPD2     N 6428   0.251   1.534  14.953 -0.0952 -0.1014 -0.0515
  427MPD2    H5 6429   0.161   1.555  14.911  0.1265  2.3687  0.7307
  427MPD2    N1 6430   0.690   1.351  14.844  0.1934  0.3422 -0.2655
  427MPD2    H7 6431   0.723   1.383  14.934  1.0845  2.4967 -1.3585
  428TMC3    C1 6432   0.903   1.265  14.833 -0.1411 -0.1968  1.2497
  428TMC3    C2 6433   0.891   1.190  14.950 -0.3173  0.1808 -0.2168
  428TMC3    C3 6434   1.006   1.135  14.999 -0.1033 -0.0573  0.2773
  428TMC3    C4 6435   1.025   1.282  14.770  0.3036  0.9447  0.1195
  428TMC3    C5 6436   1.137   1.236  14.843 -0.2106  0.0214  0.2173
  428TMC3    C6 6437   1.125   1.160  14.952 -0.4810 -0.5578  0.9252
  428TMC3     C 6438   0.790   1.308  14.762  0.0122  0.3418 -0.0175
  428TMC3     O 6439   0.794   1.287  14.641  0.0442 -0.0562 -0.5699
  428TMC3     H 6440   0.794   1.145  14.970 -0.1540  0.2298  0.6653
  428TMC3    H1 6441   1.031   1.342  14.679 -0.3852 -0.7592 -1.0497
  428TMC3    H2 6442   1.211   1.131  15.011  0.0221 -0.4311  0.2566
  428TMC3    C7 6443   1.241   1.328  14.873 -0.9396  0.1843  0.1207
  428TMC3    C8 6444   1.005   1.006  15.060  0.0992 -0.9128  0.3524
  428TMC3    O1 6445   1.298   1.329  14.982  0.2459 -0.5873  0.2589
  428TMC3    O2 6446   1.111   0.941  15.060 -0.3769 -0.0007 -0.3266
  429MPD2     C 6447   1.760   1.561   0.155 -0.2150 -0.4872  0.0618
  429MPD2    C1 6448   1.842   1.502   0.066 -0.0638  0.1562  0.1303
  429MPD2    C2 6449   1.906   1.582  17.719 -0.7326 -0.3324  0.6278
  429MPD2    C3 6450   1.891   1.720  17.722  0.1383  0.0274  0.5653
  429MPD2    C4 6451   1.791   1.771   0.054 -0.0801 -0.2352 -1.1753
  429MPD2    C5 6452   1.720   1.691   0.140  0.5101 -0.4577 -0.3881
  429MPD2     H 6453   1.970   1.531  17.647  0.6731 -0.5718  2.0447
  429MPD2    H1 6454   1.763   1.875   0.054  1.0839  0.0787  1.2425
  429MPD2    H2 6455   1.715   1.494   0.227  0.1468 -2.1247 -1.2510
  429MPD2    H3 6456   1.645   1.731   0.207  0.0547 -0.0520 -1.1281
  429MPD2     N 6457   1.970   1.811  17.632 -0.4863 -0.0727 -0.3658
  429MPD2    H5 6458   2.036   1.769  17.568  0.7893  0.8219  0.3629
  429MPD2    N1 6459   1.861   1.364   0.063 -0.1363  0.6075  0.1060
  429MPD2    H7 6460   1.912   1.332  17.729 -1.1377 -0.6002 -0.0361
  430TMC3    C1 6461   2.046   2.011  17.521  0.4414 -0.4476 -0.3771
  430TMC3    C2 6462   2.018   2.129  17.458 -0.0874 -0.5629  0.5018
  430TMC3    C3 6463   2.105   2.186  17.375  0.1344  0.2561  0.2636
  430TMC3    C4 6464   2.171   1.952  17.495  0.1386 -0.4870  0.6448
  430TMC3    C5 6465   2.262   2.018  17.417  0.3125  0.5015  0.1503
  430TMC3    C6 6466   2.231   2.133  17.355  0.2701  0.3232  0.8670
  430TMC3     C 6467   1.943   1.949  17.606  1.1394  0.5017 -0.6581
  430TMC3     O 6468   1.863   2.029  17.657  0.2829  0.3860 -0.2005
  430TMC3     H 6469   1.920   2.175  17.463  0.1609  0.0340 -0.1725
  430TMC3    H1 6470   2.192   1.852  17.531 -1.4866 -0.9930  0.1870
  430TMC3    H2 6471   2.301   2.166  17.280 -0.5073  2.4645  1.0894
  430TMC3    C7 6472   2.376   1.937  17.375 -0.0812  0.1189  0.4402
  430TMC3    C8 6473   2.066   2.273  17.266 -0.3469  0.1453  0.3252
  430TMC3    O1 6474   2.364   1.816  17.388  0.2014 -0.5381 -0.3467
  430TMC3    O2 6475   1.955   2.265  17.216  0.0177 -0.2924 -0.4778
  431MPD2     C 6476   2.798   2.021  12.407 -0.1963  0.4268 -0.3263
  431MPD2    C1 6477   2.883   2.036  12.306 -0.2869  0.1105  0.0804
  431MPD2    C2 6478   2.890   1.933  12.208  0.7897  0.2079  0.4593
  431MPD2    C3 6479   2.814   1.813  12.217 -0.3814  0.0798 -0.1960
  431MPD2    C4 6480   2.723   1.802  12.320  0.4274  0.2132  0.8451
  431MPD2    C5 6481   2.715   1.910  12.408  0.1664 -0.0885  0.3999
  431MPD2     H 6482   2.948   1.961  12.121  0.7716  0.5700  0.5620
  431MPD2    H1 6483   2.661   1.713  12.324 -2.6897  2.2985 -1.4160
  431MPD2    H2 6484   2.785   2.089  12.491 -0.2713  0.2053 -0.1573
  431MPD2    H3 6485   2.646   1.896  12.491  0.9678  1.5482  1.3304
  431MPD2     N 6486   2.817   1.711  12.115  0.8528  0.7067 -0.0747
  431MPD2    H5 6487   2.757   1.629  12.122  1.0599  0.5663  0.0609
  431MPD2    N1 6488   2.964   2.152  12.300  0.3207 -0.4370  0.0590
  431MPD2    H7 6489   3.037   2.143  12.230 -0.0677 -3.7803  0.0849
  432TMC3    C1 6490   2.841   1.591  11.920  0.0370 -0.0025 -0.3471
  432TMC3    C2 6491   2.851   1.605  11.783  0.2271  0.4827 -0.2033
  432TMC3    C3 6492   2.840   1.489  11.715  0.2451 -0.5305  0.3373
  432TMC3    C4 6493   2.806   1.473  11.985  0.2515  0.3922 -0.1471
  432TMC3    C5 6494   2.784   1.366  11.909  0.5584  0.1509  0.3386
  432TMC3    C6 6495   2.807   1.368  11.776  1.1548  0.7451  0.0419
  432TMC3     C 6496   2.891   1.699  12.000  0.9697  0.0009  0.7444
  432TMC3     O 6497   2.973   1.769  11.947  0.1167  0.0697  0.0014
  432TMC3     H 6498   2.883   1.702  11.746 -3.4180  0.6679 -2.8708
  432TMC3    H1 6499   2.788   1.466  12.091 -1.6116 -0.0187 -0.4883
  432TMC3    H2 6500   2.795   1.278  11.717 -0.0193 -1.7695  4.0694
  432TMC3    C7 6501   2.712   1.253  11.964  0.5225 -0.3011  0.1231
  432TMC3    C8 6502   2.933   1.480  11.600 -0.0316  1.5042 -0.1046
  432TMC3    O1 6503   2.677   1.175  11.874  0.1353 -0.3063 -0.0202
  432TMC3    O2 6504   2.922   1.381  11.522 -0.4211 -0.1668  0.1630
  433MPD2     C 6505   1.022   0.145  10.852  0.1629  0.6549  0.2120
  433MPD2    C1 6506   1.119   0.076  10.921  0.0562  0.0085  0.7189
  433MPD2    C2 6507   1.156   0.127  11.051  0.4363  0.6302  0.4883
  433MPD2    C3 6508   1.091   0.241  11.103  0.5651  0.5299  0.2658
  433MPD2    C4 6509   0.979   0.291  11.031  0.5679 -0.1255  0.7287
  433MPD2    C5 6510   0.951   0.241  10.911  0.8665  0.7830 -0.9137
  433MPD2     H 6511   1.235   0.084  11.111  0.0698  0.2490  0.7045
  433MPD2    H1 6512   0.908   0.365  11.068  0.1792 -0.3029  0.3454
  433MPD2    H2 6513   1.000   0.128  10.748 -0.7165 -0.6265  0.6115
  433MPD2    H3 6514   0.868   0.283  10.855  0.5772 -0.4826 -1.4350
  433MPD2     N 6515   1.128   0.288  11.230  0.6647  0.6806 -0.0455
  433MPD2    H5 6516   1.217   0.251  11.263  1.1246  0.9417 -0.9897
  433MPD2    N1 6517   1.177   4.700  10.861 -0.3853  0.3575 -0.3354
  433MPD2    H7 6518   1.147   4.666  10.770  1.8272 -0.1369 -0.8924
  434TMC3    C1 6519   1.341   4.517  10.844  0.6383 -0.1055  0.4311
  434TMC3    C2 6520   1.469   4.495  10.881  0.0838  0.2142  0.5433
  434TMC3    C3 6521   1.514   4.365  10.864 -0.3707 -0.2094 -0.2720
  434TMC3    C4 6522   1.256   4.423  10.783  0.7028  0.0602  0.4495
  434TMC3    C5 6523   1.319   4.305  10.772 -0.3093 -0.5383  0.8905
  434TMC3    C6 6524   1.441   4.265  10.813 -0.2590  0.5100 -0.1304
  434TMC3     C 6525   1.280   4.627  10.925  0.4112 -0.0805 -0.3560
  434TMC3     O 6526   1.319   4.634  11.038 -0.4211 -0.3956  0.1123
  434TMC3     H 6527   1.533   4.566  10.932  0.9540 -1.4956  1.8705
  434TMC3    H1 6528   1.164   4.464  10.743  0.4464 -0.4526  0.5035
  434TMC3    H2 6529   1.487   4.168  10.802  1.4090  1.1072  1.5199
  434TMC3    C7 6530   1.230   4.218  10.697 -0.0927  0.1541  0.2156
  434TMC3    C8 6531   1.622   4.329  10.961 -0.0757  0.0498  0.4733
  434TMC3    O1 6532   1.167   4.292  10.620  0.4934 -0.0067 -0.4825
  434TMC3    O2 6533   1.706   4.417  10.971  0.0237 -0.1527 -0.0566
  435MPD2     C 6534   3.904   0.429  15.444  0.2026 -0.4708 -0.1157
  435MPD2    C1 6535   3.832   0.414  15.561  0.2598  0.2336  0.4683
  435MPD2    C2 6536   3.905   0.372  15.664 -0.3454 -0.3191  0.8477
  435MPD2    C3 6537   4.040   0.344  15.661  0.6237  0.4461 -0.6106
  435MPD2    C4 6538   4.108   0.350  15.539  0.0370 -0.4455 -0.4567
  435MPD2    C5 6539   4.033   0.391  15.433 -0.6716 -0.7336  0.5141
  435MPD2     H 6540   3.847   0.351  15.753  0.5286  2.2056  2.0002
  435MPD2    H1 6541   4.214   0.332  15.530  0.1158 -0.5869  0.7813
  435MPD2    H2 6542   3.864   0.471  15.352  0.2103  0.1613  0.1735
  435MPD2    H3 6543   4.080   0.411  15.337  1.1699  1.0836  1.7804
  435MPD2     N 6544   4.109   0.297  15.778  0.4791  0.0198 -0.6250
  435MPD2    H5 6545   4.058   0.301  15.866 -0.9167 -2.8858 -1.2959
  435MPD2    N1 6546   3.694   0.442  15.573 -0.2040  0.8456 -0.1548
  435MPD2    H7 6547   3.660   0.425  15.668 -1.9257 -0.8335 -1.0714
  436TMC3    C1 6548   3.303   0.489  15.647  0.2667  0.0141 -0.4029
  436TMC3    C2 6549   3.419   0.455  15.601 -0.7619 -0.9437  0.4324
  436TMC3    C3 6550   3.483   0.546  15.527  0.3381  0.4055  0.1150
  436TMC3    C4 6551   3.244   0.611  15.622 -0.2497  0.4743 -0.1007
  436TMC3    C5 6552   3.316   0.702  15.544  0.1650 -0.7657  0.5725
  436TMC3    C6 6553   3.439   0.664  15.488 -0.4678  0.5504 -0.2667
  436TMC3     C 6554   3.256   0.416  15.775 -0.2236  0.5620  0.1075
  436TMC3     O 6555   3.289   0.300  15.789  0.5787  0.1128  0.3659
  436TMC3     H 6556   3.460   0.365  15.646  3.3523  1.7427  1.9548
  436TMC3    H1 6557   3.142   0.633  15.653 -0.0323 -0.6473  1.4225
  436TMC3    H2 6558   3.493   0.738  15.430 -2.2046  0.8027 -1.5644
  436TMC3    C7 6559   3.264   0.833  15.496 -0.2171 -0.7691  0.0045
  436TMC3    C8 6560   3.617   0.513  15.482 -0.2724 -0.1888 -0.2111
  436TMC3    O1 6561   3.317   0.884  15.398 -0.6550 -0.0157 -0.0127
  436TMC3    O2 6562   3.654   0.561  15.373 -0.2730  0.7274 -0.3054
  437TMC3    C1 6563   2.629   2.452  12.122  0.3803  0.2934 -0.4799
  437TMC3    C2 6564   2.536   2.461  12.223 -0.6047  0.1530  0.2013
  437TMC3    C3 6565   2.538   2.571  12.311  0.4947  0.1410  0.7380
  437TMC3    C4 6566   2.718   2.553  12.096 -0.2924 -0.8788 -0.7810
  437TMC3    C5 6567   2.719   2.659  12.183 -0.2245  0.9987  0.3593
  437TMC3    C6 6568   2.627   2.670  12.287 -0.1409  0.4282  0.6877
  437TMC3     C 6569   2.637   2.327  12.043  0.4823 -0.1757 -0.1888
  437TMC3     O 6570   2.708   2.320  11.943  0.0274 -0.1925 -0.3104
  437TMC3     H 6571   2.453   2.392  12.222  1.1839 -1.9397 -1.7286
  437TMC3    H1 6572   2.785   2.550  12.010  1.1217 -2.2336  0.3590
  437TMC3    H2 6573   2.622   2.767  12.334  0.4556  2.1494 -2.7706
  437TMC3    C7 6574   2.841   2.735  12.175  1.1310 -0.3435  0.6717
  437TMC3    C8 6575   2.444   2.583  12.414 -0.3664 -0.5749  0.1173
  437TMC3    O1 6576   2.893   2.744  12.067  0.5906 -0.8803 -0.1484
  437TMC3    O2 6577   2.440   2.699  12.454 -0.3917 -0.5875 -0.0690
  438MPD2     C 6578   0.219   3.802  16.684  0.6360 -0.3495 -0.5242
  438MPD2    C1 6579   0.318   3.731  16.759 -1.2139 -0.0176  0.7150
  438MPD2    C2 6580   0.290   3.708  16.892 -0.3287 -0.2493 -0.4445
  438MPD2    C3 6581   0.175   3.763  16.953  0.4117  0.0707  0.2054
  438MPD2    C4 6582   0.081   3.823  16.875 -0.0881 -0.1805 -0.2052
  438MPD2    C5 6583   0.112   3.853  16.741  0.6375 -0.1661 -0.3484
  438MPD2     H 6584   0.355   3.646  16.952 -1.5108 -2.4099 -1.4164
  438MPD2    H1 6585   4.726   3.864  16.915 -0.1920 -1.2680  0.6433
  438MPD2    H2 6586   0.224   3.827  16.579 -3.0015 -1.5443 -0.9747
  438MPD2    H3 6587   0.040   3.909  16.682  1.3049 -0.0662 -1.0606
  438MPD2     N 6588   0.158   3.733  17.095  0.3204 -0.1673  0.2209
  438MPD2    H5 6589   0.249   3.711  17.133 -0.0368  1.7671  2.1559
  438MPD2    N1 6590   0.444   3.685  16.704 -0.5386 -0.3868  0.5995
  438MPD2    H7 6591   0.485   3.600  16.742 -2.0172 -1.4926 -0.2428
  439TMC3    C1 6592   0.620   3.653  16.563  0.1847 -0.6325 -0.1079
  439TMC3    C2 6593   0.654   3.627  16.434 -0.1059  0.1000  0.4971
  439TMC3    C3 6594   0.768   3.558  16.419 -0.0603  1.0365 -0.7467
  439TMC3    C4 6595   0.668   3.585  16.671 -0.6693 -0.4811 -0.4268
  439TMC3    C5 6596   0.782   3.512  16.648 -0.6605  0.9086 -0.0012
  439TMC3    C6 6597   0.833   3.494  16.522  0.0065  0.0208  0.1211
  439TMC3     C 6598   0.494   3.725  16.587 -0.4755  0.0665  0.1054
  439TMC3     O 6599   0.447   3.803  16.511 -0.2594 -0.9720  0.3701
  439TMC3     H 6600   0.599   3.681  16.358 -0.7378  1.6334  2.0340
  439TMC3    H1 6601   0.636   3.604  16.773 -0.0407 -0.1766 -0.2880
  439TMC3    H2 6602   0.915   3.427  16.497  0.2269 -0.1366  1.2866
  439TMC3    C7 6603   0.846   3.444  16.754 -0.5214  0.5083 -0.8737
  439TMC3    C8 6604   0.768   3.485  16.292 -1.0753 -0.6410  0.3320
  439TMC3    O1 6605   0.967   3.429  16.740 -0.6592  0.3211  0.5691
  439TMC3    O2 6606   0.873   3.418  16.281  0.1151  0.2709 -0.5783
  440MPD2     C 6607   3.817   3.412  14.641 -0.5660  0.2764  0.6777
  440MPD2    C1 6608   3.827   3.510  14.736 -0.3792  0.0763  0.0675
  440MPD2    C2 6609   3.875   3.471  14.859  0.3287 -0.2317 -0.6533
  440MPD2    C3 6610   3.892   3.341  14.897  0.4876 -0.8588 -0.5923
  440MPD2    C4 6611   3.860   3.238  14.803 -0.4256  0.2306  0.3510
  440MPD2    C5 6612   3.822   3.279  14.685  0.0386  0.0913 -0.2033
  440MPD2     H 6613   3.890   3.548  14.933 -0.6799  1.7077 -2.4614
  440MPD2    H1 6614   3.859   3.132  14.827 -3.8790 -0.0058 -0.7386
  440MPD2    H2 6615   3.804   3.433  14.536 -3.0768  0.0991  0.9369
  440MPD2    H3 6616   3.796   3.203  14.612  1.6970 -0.4545 -0.2443
  440MPD2     N 6617   3.949   3.303  15.020 -0.1533 -0.0118 -0.1225
  440MPD2    H5 6618   3.984   3.208  15.029  0.2142  0.3858  2.4445
  440MPD2    N1 6619   3.800   3.652  14.710  0.3737  0.0716 -0.5705
  440MPD2    H7 6620   3.833   3.723  14.775  2.3561 -1.3209 -0.0328
  441TMC3    C1 6621   4.091   3.321  15.205 -0.6703  0.4696 -0.1130
  441TMC3    C2 6622   4.191   3.403  15.244  0.2664 -0.2218  0.7053
  441TMC3    C3 6623   4.249   3.393  15.363  1.0911  0.6834 -0.1144
  441TMC3    C4 6624   4.037   3.234  15.287  0.0225 -0.8243  0.8141
  441TMC3    C5 6625   4.108   3.217  15.405 -1.1715 -0.5186 -1.0124
  441TMC3    C6 6626   4.212   3.294  15.447  0.4147  0.6704 -0.0853
  441TMC3     C 6627   3.993   3.388  15.124  0.1115  0.0616  0.5255
  441TMC3     O 6628   3.982   3.510  15.138  0.1493 -0.1147  0.1077
  441TMC3     H 6629   4.221   3.472  15.166 -0.4526 -0.1351  0.5028
  441TMC3    H1 6630   3.942   3.186  15.272 -0.4567 -0.2592  2.0219
  441TMC3    H2 6631   4.245   3.275  15.549 -0.0764 -0.0861 -0.0608
  441TMC3    C7 6632   4.058   3.115  15.486 -0.1440 -0.2852  0.0806
  441TMC3    C8 6633   4.288   3.515  15.427 -0.8296  0.0291 -0.0057
  441TMC3    O1 6634   3.935   3.097  15.481 -0.0983  0.1457 -0.4535
  441TMC3    O2 6635   4.346   3.505  15.536 -0.5080  0.4587 -0.5928
  442MPD2     C 6636   1.923   4.435  16.286 -0.0593 -0.3018  0.0912
  442MPD2    C1 6637   1.862   4.364  16.382  0.7525 -0.0191  0.6745
  442MPD2    C2 6638   1.843   4.234  16.358  0.1201  0.0310  0.3321
  442MPD2    C3 6639   1.873   4.164  16.243 -0.2314  0.1653  0.2669
  442MPD2    C4 6640   1.947   4.231  16.152 -0.0857 -0.0796 -0.5060
  442MPD2    C5 6641   1.971   4.369  16.172  0.4589  0.2637 -0.6218
  442MPD2     H 6642   1.796   4.178  16.438  1.5299  0.3351  1.3845
  442MPD2    H1 6643   1.982   4.179  16.064 -1.4939 -0.3268 -0.9263
  442MPD2    H2 6644   1.948   4.539  16.307 -0.4067 -0.0560 -0.6820
  442MPD2    H3 6645   2.042   4.418  16.107  1.5445  0.4118  0.6691
  442MPD2     N 6646   1.865   4.028  16.228 -0.2209 -0.4856  0.3272
  442MPD2    H5 6647   1.904   3.992  16.142 -0.1196 -0.2467  0.2725
  442MPD2    N1 6648   1.820   4.419  16.501  0.0917 -0.0354  0.1988
  442MPD2    H7 6649   1.784   4.356  16.571 -1.1319  0.4048 -0.0426
  443TMC3    C1 6650   1.760   4.575  16.653 -0.4381  0.0357 -0.5800
  443TMC3    C2 6651   1.685   4.683  16.667  0.2209 -0.0819  0.4943
  443TMC3    C3 6652   1.619   4.698  16.789  0.1663 -0.0735 -0.8908
  443TMC3    C4 6653   1.782   4.478  16.750  0.1716 -0.1592 -0.6101
  443TMC3    C5 6654   1.714   4.489  16.868 -0.2605 -0.1973 -0.1049
  443TMC3    C6 6655   1.622   4.598  16.884  0.3824  0.1292 -0.4123
  443TMC3     C 6656   1.799   4.551  16.522  0.6268  0.0795 -0.5791
  443TMC3     O 6657   1.812   4.649  16.453 -0.1912 -0.2387 -0.2782
  443TMC3     H 6658   1.663   0.021  16.592  1.1298  0.2371  0.5409
  443TMC3    H1 6659   1.848   4.394  16.733  1.1167  0.3772  0.3712
  443TMC3    H2 6660   1.567   4.608  16.977 -1.2142 -1.9645 -1.1624
  443TMC3    C7 6661   1.717   4.375  16.955 -0.9246  0.6713  0.2381
  443TMC3    C8 6662   1.525   0.070  16.810 -0.0695 -0.5645 -0.8258
  443TMC3    O1 6663   1.776   4.277  16.907  0.1324  0.0948 -0.4544
  443TMC3    O2 6664   1.581   0.179  16.830 -0.2155  0.1016  0.6055
  444MPD2     C 6665   2.523   3.722  17.517 -0.4884  0.5944 -0.3968
  444MPD2    C1 6666   2.480   3.775  17.398  0.4371  0.3240  0.1667
  444MPD2    C2 6667   2.548   3.733  17.286  0.5584  0.3407 -0.0256
  444MPD2    C3 6668   2.653   3.646  17.281 -0.2446  0.2935 -0.2220
  444MPD2    C4 6669   2.697   3.600  17.405 -0.5842  0.2297  0.3394
  444MPD2    C5 6670   2.632   3.638  17.518  0.0352  0.2597 -0.2169
  444MPD2     H 6671   2.501   3.768  17.195  2.3632 -0.4234 -1.2543
  444MPD2    H1 6672   2.788   3.541  17.410 -1.7174 -1.5858 -0.4420
  444MPD2    H2 6673   2.477   3.754  17.610  2.0219 -0.8802  1.3455
  444MPD2    H3 6674   2.672   3.610  17.615 -1.6366 -0.4370  0.2777
  444MPD2     N 6675   2.700   3.600  17.154 -0.2261  0.1596 -0.3687
  444MPD2    H5 6676   2.672   3.642  17.066  0.4483  0.3084 -0.5120
  444MPD2    N1 6677   2.368   3.860  17.390  0.2674  0.1646  0.7988
  444MPD2    H7 6678   2.343   3.881  17.294  0.4291 -1.3254  0.4276
  445TMC3    C1 6679   2.768   3.436  17.011  0.2332  0.7313  0.3145
  445TMC3    C2 6680   2.642   3.435  16.955  0.5858 -0.0910 -0.9469
  445TMC3    C3 6681   2.623   3.355  16.853 -0.0798 -0.7011  0.1782
  445TMC3    C4 6682   2.880   3.367  16.960  0.2117 -0.3682  0.2566
  445TMC3    C5 6683   2.855   3.283  16.855 -0.7013  0.7029 -0.2176
  445TMC3    C6 6684   2.728   3.288  16.795  0.6556 -0.4231  0.6515
  445TMC3     C 6685   2.789   3.500  17.142  0.0469 -0.2255  0.0343
  445TMC3     O 6686   2.894   3.492  17.207 -0.7181  0.5184  0.2286
  445TMC3     H 6687   2.556   3.484  16.998  0.0170 -0.3694 -1.7754
  445TMC3    H1 6688   2.974   3.366  17.012  1.0675 -0.8996 -1.2990
  445TMC3    H2 6689   2.709   3.216  16.716  1.9075 -1.9901  1.7690
  445TMC3    C7 6690   2.949   3.208  16.785 -0.3984 -0.1338 -0.0565
  445TMC3    C8 6691   2.490   3.324  16.813  0.2219  0.5591 -0.1785
  445TMC3    O1 6692   2.929   3.179  16.667 -0.7792 -0.3525 -0.0554
  445TMC3    O2 6693   2.483   3.292  16.692  0.6483  0.4357  0.4606
  446MPD2     C 6694   1.241   4.222  11.421  0.1243 -0.4380  0.1837
  446MPD2    C1 6695   1.183   4.302  11.321 -0.2651 -0.3968 -0.0268
  446MPD2    C2 6696   1.267   4.402  11.259 -0.3186  0.1989 -0.0304
  446MPD2    C3 6697   1.395   4.430  11.321  0.3065  0.1087  0.2112
  446MPD2    C4 6698   1.446   4.357  11.425  0.5104  0.3165  0.1795
  446MPD2    C5 6699   1.371   4.249  11.466  0.0640 -0.0786  0.5903
  446MPD2     H 6700   1.230   4.457  11.173  1.4274  2.9602  1.0001
  446MPD2    H1 6701   1.548   4.368  11.460  0.7312 -0.1967 -0.3078
  446MPD2    H2 6702   1.192   4.139  11.470 -1.1561  1.2970  1.8627
  446MPD2    H3 6703   1.404   4.185  11.547 -1.3223 -2.5622 -0.7761
  446MPD2     N 6704   1.476   4.525  11.255  0.7875 -0.0632  0.2205
  446MPD2    H5 6705   1.446   4.566  11.166  0.6234 -1.7561 -0.5107
  446MPD2    N1 6706   1.050   4.269  11.263  0.3385  0.0646 -0.3554
  446MPD2    H7 6707   1.013   4.345  11.206 -0.0165  0.9203  1.0070
  447TMC3    C1 6708   1.640   4.679  11.206  0.1976 -0.1321  0.0495
  447TMC3    C2 6709   1.565   0.045  11.159 -0.2729 -0.2567  0.6121
  447TMC3    C3 6710   1.620   0.163  11.131 -0.2097  0.1858  0.5961
  447TMC3    C4 6711   1.769   4.699  11.228  0.3503 -1.1388 -0.1870
  447TMC3    C5 6712   1.827   0.078  11.188  0.2260  1.1256 -0.0781
  447TMC3    C6 6713   1.754   0.187  11.152 -0.5179 -0.1685  0.1692
  447TMC3     C 6714   1.586   4.591  11.306  0.1438 -0.8706  0.1902
  447TMC3     O 6715   1.623   4.586  11.421  0.0273  0.4876  0.1627
  447TMC3     H 6716   1.457   0.047  11.152 -0.2162  0.2624 -0.1698
  447TMC3    H1 6717   1.830   4.626  11.280  0.8703  1.0595  2.3092
  447TMC3    H2 6718   1.781   0.288  11.123  0.2653 -0.2754  0.5215
  447TMC3    C7 6719   1.968   0.087  11.220 -0.8535  0.7135  0.0520
  447TMC3    C8 6720   1.530   0.257  11.058 -0.3974  0.8089 -0.4343
  447TMC3    O1 6721   2.022   4.716  11.251  0.3951  0.0866  0.3842
  447TMC3    O2 6722   1.415   0.289  11.095  0.3503  0.6088  0.3858
  448TMC3    C1 6723   0.672   0.504  17.089 -0.4399 -0.0325 -0.1222
  448TMC3    C2 6724   0.598   0.382  17.091 -0.5323  0.5847  0.1945
  448TMC3    C3 6725   0.652   0.274  17.030 -0.5011  0.3793 -0.3706
  448TMC3    C4 6726   0.805   0.498  17.063 -0.2718  0.1629  0.1297
  448TMC3    C5 6727   0.865   0.387  17.011  0.4326  0.2420  0.2080
  448TMC3    C6 6728   0.789   0.276  16.992  1.0458 -0.2215  0.0734
  448TMC3     C 6729   0.615   0.624  17.145  0.4175  0.3364  0.1228
  448TMC3     O 6730   0.689   0.709  17.193  0.0914 -0.0984  0.1941
  448TMC3     H 6731   0.502   0.374  17.141 -1.1506 -0.1768 -1.1210
  448TMC3    H1 6732   0.874   0.576  17.096 -3.1028  2.3914  0.7541
  448TMC3    H2 6733   0.824   0.189  16.937  2.5878 -0.0058  0.7285
  448TMC3    C7 6734   1.008   0.364  17.021  0.1414  0.5719  0.1819
  448TMC3    C8 6735   0.570   0.160  17.004  0.4763 -0.3186  0.4157
  448TMC3    O1 6736   1.079   0.458  16.998  0.4297 -0.1703  0.0640
  448TMC3    O2 6737   0.625   0.059  16.959 -0.2730 -0.1967 -0.2121
  449MPD2     C 6738   1.156   2.962  13.465  0.5106 -0.4593 -0.0029
  449MPD2    C1 6739   1.179   3.057  13.567 -0.1334 -0.2864 -0.0320
  449MPD2    C2 6740   1.088   3.160  13.582  0.0778 -0.2871  1.0422
  449MPD2    C3 6741   0.992   3.180  13.485 -0.3264  0.3457 -0.7695
  449MPD2    C4 6742   0.970   3.092  13.378 -0.1223 -0.6117 -0.1218
  449MPD2    C5 6743   1.056   2.981  13.376 -0.3008 -0.4383  0.2764
  449MPD2     H 6744   1.098   3.234  13.660 -0.2728  0.7919  0.0595
  449MPD2    H1 6745   0.897   3.105  13.299  0.3059 -0.8264 -0.5503
  449MPD2    H2 6746   1.223   2.881  13.439  0.5505 -0.1529 -0.8427
  449MPD2    H3 6747   1.044   2.908  13.297  0.1995 -0.4511  0.2119
  449MPD2     N 6748   0.913   3.295  13.508 -0.0003  0.1455  0.6437
  449MPD2    H5 6749   0.947   3.352  13.585  1.4233  2.0344 -1.3749
  449MPD2    N1 6750   1.292   3.047  13.658 -0.2441  0.2225  0.6468
  449MPD2    H7 6751   1.291   3.117  13.732 -2.4834  0.4663  0.3984
  450TMC3    C1 6752   1.490   2.999  13.761 -0.0766  0.1707 -0.6091
  450TMC3    C2 6753   1.592   3.074  13.707 -0.5017  1.0025 -0.6982
  450TMC3    C3 6754   1.640   3.174  13.797 -0.0905  0.0055 -0.3602
  450TMC3    C4 6755   1.434   3.030  13.879 -0.6016 -0.7302 -0.3809
  450TMC3    C5 6756   1.459   3.146  13.939  0.9665  0.1241 -0.0299
  450TMC3    C6 6757   1.578   3.216  13.913 -0.1269 -0.7650 -0.1045
  450TMC3     C 6758   1.393   2.961  13.662  0.1145 -0.7507  0.2558
  450TMC3     O 6759   1.415   2.867  13.590 -0.3537  0.3808  0.1363
  450TMC3     H 6760   1.622   3.055  13.604  2.4218  0.4585  0.2667
  450TMC3    H1 6761   1.346   2.981  13.919 -0.6016 -2.0703 -2.0343
  450TMC3    H2 6762   1.621   3.293  13.975  1.6975 -0.6971 -1.4420
  450TMC3    C7 6763   1.344   3.235  13.948  0.0004  0.3183  0.2222
  450TMC3    C8 6764   1.725   3.282  13.749 -0.1330  0.3888 -0.2682
  450TMC3    O1 6765   1.257   3.224  13.861  0.2107  0.2669  0.5351
  450TMC3    O2 6766   1.698   3.399  13.779 -0.3110 -0.0813  0.7065
  451MPD2     C 6767   3.064   2.139   1.278  0.3849  0.0616 -0.6525
  451MPD2    C1 6768   3.048   2.001   1.274 -0.0589  0.1121  0.3975
  451MPD2    C2 6769   3.122   1.925   1.192 -0.7748 -0.0910 -0.4636
  451MPD2    C3 6770   3.200   1.981   1.088 -0.2391  0.5217  0.1211
  451MPD2    C4 6771   3.214   2.118   1.093 -0.3556 -0.2092 -0.4839
  451MPD2    C5 6772   3.150   2.193   1.190  0.5294  0.0609 -0.6068
  451MPD2     H 6773   3.125   1.817   1.203  2.1984 -0.0786 -1.1082
  451MPD2    H1 6774   3.270   2.167   1.015  0.6165 -0.2761  0.1675
  451MPD2    H2 6775   3.006   2.196   1.350 -0.8219 -1.9834 -0.0269
  451MPD2    H3 6776   3.173   2.298   1.204 -0.1866  0.4133 -2.0444
  451MPD2     N 6777   3.271   1.908   0.990 -0.3036  0.3202 -0.0014
  451MPD2    H5 6778   3.317   1.966   0.921 -1.0972  1.6309  0.5678
  451MPD2    N1 6779   2.951   1.952   1.361  0.3424 -0.2972  0.1264
  451MPD2    H7 6780   2.891   2.022   1.403 -0.9680 -1.3448  0.0064
  452TMC3    C1 6781   3.354   1.716   0.873  0.7066 -0.9091 -0.1025
  452TMC3    C2 6782   3.314   1.594   0.828 -0.2085  0.5005  0.4397
  452TMC3    C3 6783   3.362   1.547   0.711  0.9718  0.2938  0.1382
  452TMC3    C4 6784   3.432   1.795   0.795  0.4935 -0.0005  0.1864
  452TMC3    C5 6785   3.476   1.749   0.675  0.3609  0.5008 -0.3495
  452TMC3    C6 6786   3.457   1.619   0.633 -0.0211 -0.8516  0.2985
  452TMC3     C 6787   3.283   1.771   0.990 -0.0078 -0.5109  1.0522
  452TMC3     O 6788   3.241   1.682   1.066  0.2619 -0.9294  0.3239
  452TMC3     H 6789   3.240   1.535   0.881 -0.2287 -0.0095 -0.1497
  452TMC3    H1 6790   3.466   1.889   0.835  2.7444  0.2409 -2.2429
  452TMC3    H2 6791   3.500   1.579   0.541  1.0587  1.3928 -0.1562
  452TMC3    C7 6792   3.516   1.839   0.573 -0.4661  0.1576 -0.1210
  452TMC3    C8 6793   3.300   1.424   0.662 -0.2067 -0.0514  0.5370
  452TMC3    O1 6794   3.543   1.786   0.466 -0.4124  0.8840  0.1179
  452TMC3    O2 6795   3.197   1.391   0.720 -0.1871 -1.2204 -0.2694
  453TMC3    C1 6796   4.438   3.751  11.909  0.4655  0.6747 -0.3653
  453TMC3    C2 6797   4.503   3.631  11.919 -0.2002 -0.8282 -0.8051
  453TMC3    C3 6798   4.444   3.521  11.865 -0.0971 -1.0766  0.3126
  453TMC3    C4 6799   4.316   3.757  11.842 -0.3739  0.0581  0.9684
  453TMC3    C5 6800   4.248   3.639  11.818 -0.0236  0.0278 -0.7018
  453TMC3    C6 6801   4.315   3.518  11.819 -0.6406  0.2960  0.3703
  453TMC3     C 6802   4.455   3.839  12.017  0.8091  0.1191  0.7808
  453TMC3     O 6803   4.514   3.789  12.110  0.1372  0.1344  0.0863
  453TMC3     H 6804   4.596   3.612  11.972 -0.8684 -2.6240 -0.2786
  453TMC3    H1 6805   4.256   3.846  11.855 -0.8223 -0.0616 -0.3046
  453TMC3    H2 6806   4.285   3.426  11.771  0.8857 -0.4794  0.8814
  453TMC3    C7 6807   4.120   3.648  11.755 -0.3890  0.9380 -0.6021
  453TMC3    C8 6808   4.507   3.396  11.874  0.0003  0.0077  0.0495
  453TMC3    O1 6809   4.097   3.748  11.688  0.4380 -0.1528  0.0960
  453TMC3    O2 6810   4.629   3.400  11.862 -0.4786  0.2734 -0.5419
  454MPD2     C 6811   2.950   3.304  16.260 -0.0458 -0.2614  0.0093
  454MPD2    C1 6812   2.849   3.226  16.306 -0.4618  0.3051  0.8194
  454MPD2    C2 6813   2.762   3.269  16.405 -0.4153  0.0777  0.3873
  454MPD2    C3 6814   2.775   3.397  16.443  0.4556  0.0735 -0.6633
  454MPD2    C4 6815   2.886   3.475  16.405 -0.6510 -0.2058 -0.7278
  454MPD2    C5 6816   2.977   3.420  16.321  0.3856  0.2328 -0.9393
  454MPD2     H 6817   2.671   3.212  16.421  0.0719 -0.3577  1.6059
  454MPD2    H1 6818   2.901   3.571  16.452  0.7382 -0.5995 -0.3527
  454MPD2    H2 6819   3.026   3.272  16.190  1.4836  1.6234  0.7896
  454MPD2    H3 6820   3.064   3.473  16.285  1.3901  0.3618  1.6629
  454MPD2     N 6821   2.664   3.448  16.515 -0.3900  0.0048  0.0241
  454MPD2    H5 6822   2.589   3.384  16.539  1.0853 -2.2864 -1.4239
  454MPD2    N1 6823   2.823   3.107  16.232  0.1105 -0.1378 -0.0140
  454MPD2    H7 6824   2.871   3.090  16.144  0.9753  0.1695  0.3936
  455TMC3    C1 6825   2.510   3.615  16.577 -0.0211  0.1861 -0.1571
  455TMC3    C2 6826   2.495   3.733  16.643  0.0190 -0.1990  0.8193
  455TMC3    C3 6827   2.373   3.788  16.643  0.1204 -0.3609  0.0467
  455TMC3    C4 6828   2.407   3.539  16.525 -0.8422 -0.0085  0.0069
  455TMC3    C5 6829   2.284   3.596  16.534  0.4177 -0.5212  0.3281
  455TMC3    C6 6830   2.259   3.722  16.593  0.3563  0.3641  0.1237
  455TMC3     C 6831   2.644   3.582  16.544 -0.4771 -0.3148 -0.4146
  455TMC3     O 6832   2.722   3.679  16.532  0.4388  0.3314  0.2741
  455TMC3     H 6833   2.583   3.791  16.668  0.0053 -0.0175  0.4460
  455TMC3    H1 6834   2.427   3.440  16.485  2.5288  0.8197 -0.3339
  455TMC3    H2 6835   2.166   3.776  16.577 -1.0779 -1.4934  2.2514
  455TMC3    C7 6836   2.162   3.517  16.526  0.1671  0.0079 -0.3466
  455TMC3    C8 6837   2.366   3.907  16.724  0.0032 -0.3208  0.7911
  455TMC3    O1 6838   2.057   3.555  16.584  0.2090  0.2677 -0.4724
  455TMC3    O2 6839   2.421   3.889  16.833  0.5005 -0.0636  0.2496
  456MPD2     C 6840   0.349   4.083  16.002 -0.1024  0.6659  0.1272
  456MPD2    C1 6841   0.434   3.998  16.068 -0.6520 -0.0231  0.2992
  456MPD2    C2 6842   0.437   4.003  16.206 -0.4704 -0.3097 -0.0641
  456MPD2    C3 6843   0.347   4.075  16.279  0.0905 -0.4670 -0.0798
  456MPD2    C4 6844   0.258   4.153  16.210 -0.3257  0.0462 -0.8307
  456MPD2    C5 6845   0.259   4.154  16.079 -0.7837 -0.1612 -0.6532
  456MPD2     H 6846   0.514   3.948  16.259 -1.5668 -0.5974  1.2314
  456MPD2    H1 6847   0.193   4.226  16.259  0.8153 -0.6786  1.7668
  456MPD2    H2 6848   0.337   4.090  15.895  1.1711 -0.1033 -0.0643
  456MPD2    H3 6849   0.194   4.222  16.025 -0.1885  0.8937 -0.0479
  456MPD2     N 6850   0.357   4.077  16.420  0.2644 -0.0368 -0.0790
  456MPD2    H5 6851   0.424   4.010  16.456 -2.9710 -2.3497  1.5937
  456MPD2    N1 6852   0.525   3.931  15.991  0.2868 -0.0432  0.1304
  456MPD2    H7 6853   0.525   3.948  15.891 -0.6821  0.5802  0.2344
  457TMC3    C1 6854   0.319   4.155  16.643  0.1865  0.3493 -0.0301
  457TMC3    C2 6855   0.261   4.251  16.729  0.2499 -0.7938 -0.2259
  457TMC3    C3 6856   0.300   4.268  16.860 -0.8125  0.3507 -0.3786
  457TMC3    C4 6857   0.422   4.078  16.693  0.1408  0.0906 -0.9441
  457TMC3    C5 6858   0.457   4.099  16.823  0.6189 -0.8734  0.3664
  457TMC3    C6 6859   0.390   4.175  16.911  0.1865 -0.6267 -0.1774
  457TMC3     C 6860   0.273   4.151  16.505 -0.3536  0.5216  0.2578
  457TMC3     O 6861   0.195   4.242  16.477  0.0867 -0.1458 -0.2034
  457TMC3     H 6862   0.175   4.303  16.688  0.8300  0.7009  0.4603
  457TMC3    H1 6863   0.475   4.007  16.630  0.6034 -0.3352 -0.0700
  457TMC3    H2 6864   0.428   4.182  17.012 -1.2735  3.5949  0.0766
  457TMC3    C7 6865   0.560   4.018  16.888 -0.0792 -0.6837  0.4732
  457TMC3    C8 6866   0.319   4.398  16.914 -0.5979  0.2543 -0.9371
  457TMC3    O1 6867   0.554   3.981  17.003 -0.0023  0.0770 -0.5847
  457TMC3    O2 6868   0.419   4.417  16.981 -0.1354 -0.3826 -0.3994
  458MPD2     C 6869   3.241   2.987  12.352 -0.5700 -0.8124 -0.7673
  458MPD2    C1 6870   3.171   2.939  12.460  0.6083 -0.7828 -0.1303
  458MPD2    C2 6871   3.048   2.883  12.438 -0.4834  0.2319 -0.1125
  458MPD2    C3 6872   3.011   2.855  12.309  0.2737  0.1074  0.2208
  458MPD2    C4 6873   3.076   2.912  12.199  0.0292  0.1674  0.4761
  458MPD2    C5 6874   3.194   2.978  12.228 -0.0166  0.4716 -0.0654
  458MPD2     H 6875   2.989   2.850  12.523 -0.3215 -0.3596 -0.2321
  458MPD2    H1 6876   3.046   2.891  12.097  0.5893  0.7242  0.2001
  458MPD2    H2 6877   3.322   3.058  12.369  0.1182 -1.6757 -0.4534
  458MPD2    H3 6878   3.239   3.033  12.146  0.6954  0.2780  0.1985
  458MPD2     N 6879   2.894   2.780  12.298 -0.0133 -0.5160 -0.0441
  458MPD2    H5 6880   2.855   2.742  12.384 -1.5023  0.3905 -0.3237
  458MPD2    N1 6881   3.216   2.956  12.592 -0.6247 -0.3995  0.1297
  458MPD2    H7 6882   3.298   3.013  12.607 -2.1474  1.5271  1.2449
  459TMC3    C1 6883   3.256   2.950  12.807 -0.2220  0.1679 -0.4675
  459TMC3    C2 6884   3.383   3.002  12.787  0.6566 -0.1265  0.2125
  459TMC3    C3 6885   3.474   2.997  12.890  0.8625 -0.0011 -0.0461
  459TMC3    C4 6886   3.217   2.909  12.931  0.6012 -0.2511 -0.0933
  459TMC3    C5 6887   3.304   2.909  13.032 -0.4292  0.2278  0.3347
  459TMC3    C6 6888   3.435   2.952  13.013 -0.2932 -0.0447 -0.3161
  459TMC3     C 6889   3.161   2.922  12.709 -0.5657  0.3647  0.2358
  459TMC3     O 6890   3.054   2.872  12.739 -0.3582  0.1486 -0.9059
  459TMC3     H 6891   3.410   3.060  12.701 -1.2276 -0.0726 -0.3526
  459TMC3    H1 6892   3.113   2.893  12.956  1.0443  1.0294  2.5373
  459TMC3    H2 6893   3.502   2.938  13.096 -0.2218 -3.0333 -0.8996
  459TMC3    C7 6894   3.288   2.799  13.125  0.1280  0.3550 -0.5117
  459TMC3    C8 6895   3.613   2.995  12.848 -0.6558  0.0205  0.1415
  459TMC3    O1 6896   3.281   2.682  13.075  0.1734 -0.2426  0.1700
  459TMC3    O2 6897   3.646   2.961  12.735 -0.4573  0.3189 -0.2387
  460MPD2     C 6898   1.647   0.427  10.752 -0.7516 -0.4283  0.3883
  460MPD2    C1 6899   1.559   0.404  10.859  0.4035  0.3851 -0.5181
  460MPD2    C2 6900   1.444   0.485  10.878  0.5067  0.6812  0.0555
  460MPD2    C3 6901   1.421   0.585  10.784 -0.1385 -0.2700  0.4027
  460MPD2    C4 6902   1.526   0.617  10.692 -0.5934  0.7765  0.0058
  460MPD2    C5 6903   1.626   0.524  10.672  0.4631  0.5493  0.4005
  460MPD2     H 6904   1.363   0.465  10.947 -0.6244 -0.6186 -1.6376
  460MPD2    H1 6905   1.535   0.700  10.623 -2.4020  0.7928 -0.1942
  460MPD2    H2 6906   1.731   0.360  10.740 -0.8646 -0.9063  2.1793
  460MPD2    H3 6907   1.698   0.548  10.595  0.2680 -2.7406 -0.8002
  460MPD2     N 6908   1.303   0.660  10.792  0.3663  0.2896 -0.7115
  460MPD2    H5 6909   1.230   0.637  10.860  0.3190  1.3141 -0.4082
  460MPD2    N1 6910   1.599   0.297  10.945 -0.0428 -0.0611 -0.0078
  460MPD2    H7 6911   1.683   0.247  10.919  0.5285  0.8238  0.1699
  461TMC3    C1 6912   1.126   0.817  10.751  0.0127  0.2469 -0.1601
  461TMC3    C2 6913   1.040   0.720  10.704 -0.1511  0.0130  0.3144
  461TMC3    C3 6914   0.950   0.753  10.611  0.5080 -0.9933 -0.0393
  461TMC3    C4 6915   1.110   0.944  10.714  0.2498  0.0350 -0.0249
  461TMC3    C5 6916   1.007   0.976  10.629  0.5460  0.3815  0.2174
  461TMC3    C6 6917   0.927   0.880  10.583 -0.5590  0.1118  0.3200
  461TMC3     C 6918   1.268   0.774  10.721  0.4387 -0.0971  0.4160
  461TMC3     O 6919   1.342   0.848  10.663  0.3301 -0.2030 -0.4192
  461TMC3     H 6920   1.058   0.616  10.727  1.3254  0.3229  0.5517
  461TMC3    H1 6921   1.195   1.008  10.730  1.7522 -2.1616  0.7294
  461TMC3    H2 6922   0.852   0.898  10.507 -0.7631  1.2303  0.7899
  461TMC3    C7 6923   0.999   1.103  10.555  0.0766  0.1217 -0.7672
  461TMC3    C8 6924   0.913   0.655  10.517 -0.1833 -0.0260 -0.1404
  461TMC3    O1 6925   0.941   1.114  10.450  0.4124  0.1946 -0.0185
  461TMC3    O2 6926   0.868   0.697  10.415 -0.8971 -0.5132 -0.8604
  462TMC3    C1 6927   2.417   1.732   0.028 -0.4243  0.1078  0.5563
  462TMC3    C2 6928   2.450   1.641  17.683 -0.0138 -0.9606 -0.5237
  462TMC3    C3 6929   2.409   1.514  17.697 -0.5385 -0.5472  0.6562
  462TMC3    C4 6930   2.323   1.701   0.123 -0.1768  0.1921  1.0249
  462TMC3    C5 6931   2.272   1.575   0.127  0.7488  0.6549  0.0656
  462TMC3    C6 6932   2.318   1.477   0.048 -0.9089 -0.6234 -0.1435
  462TMC3     C 6933   2.423   1.873   0.001  0.1261 -0.5852 -0.7186
  462TMC3     O 6934   2.328   1.948   0.028 -0.3614  0.5381  0.2684
  462TMC3     H 6935   2.511   1.667  17.597 -0.6944 -0.3601 -0.8257
  462TMC3    H1 6936   2.297   1.776   0.198  2.4248  0.6281  1.4981
  462TMC3    H2 6937   2.270   1.380   0.036 -1.8150 -0.0993 -0.7599
  462TMC3    C7 6938   2.176   1.525   0.221  0.3837  0.1709  0.0044
  462TMC3    C8 6939   2.377   1.455  17.568 -0.6224  0.2972  0.2855
  462TMC3    O1 6940   2.176   1.403   0.238 -0.2061 -0.0006 -0.3270
  462TMC3    O2 6941   2.366   1.529  17.473 -0.4071 -0.2100  0.2679
  463MPD2     C 6942   3.578   0.865   1.577  0.7363 -0.0779 -0.2023
  463MPD2    C1 6943   3.545   0.925   1.456 -0.4678 -0.4847 -0.0368
  463MPD2    C2 6944   3.538   1.063   1.454 -0.0282  0.0375  0.2409
  463MPD2    C3 6945   3.560   1.147   1.562 -0.5063  0.0754 -0.3910
  463MPD2    C4 6946   3.586   1.083   1.684  0.2006  0.0720  0.1021
  463MPD2    C5 6947   3.597   0.944   1.682  0.3329  0.1039  0.4919
  463MPD2     H 6948   3.502   1.112   1.363  1.2458  0.8675  0.1837
  463MPD2    H1 6949   3.613   1.147   1.768  2.1712 -0.8437  0.1632
  463MPD2    H2 6950   3.600   0.760   1.587  1.0673  0.1400  1.3836
  463MPD2    H3 6951   3.610   0.891   1.776 -0.5790 -1.0275 -0.0209
  463MPD2     N 6952   3.547   1.291   1.559 -0.2931 -1.0659 -0.6296
  463MPD2    H5 6953   3.530   1.334   1.650  0.6728  0.4040 -1.1482
  463MPD2    N1 6954   3.496   0.852   1.344 -0.1144  0.8805 -0.2628
  463MPD2    H7 6955   3.459   0.908   1.267 -0.6692  0.8680 -0.0065
  464TMC3    C1 6956   3.392   0.672   1.236 -0.7883 -0.3719 -0.1433
  464TMC3    C2 6957   3.267   0.729   1.236 -1.0603  0.8545  0.1934
  464TMC3    C3 6958   3.166   0.674   1.168  0.8242  0.4003 -0.4403
  464TMC3    C4 6959   3.406   0.548   1.185 -0.4567 -0.1677  0.0411
  464TMC3    C5 6960   3.298   0.485   1.131 -0.0397  0.3837 -0.0188
  464TMC3    C6 6961   3.177   0.548   1.110 -0.3376  0.0505 -0.0698
  464TMC3     C 6962   3.483   0.713   1.335  0.0154 -0.1922 -0.0029
  464TMC3     O 6963   3.534   0.622   1.408  0.3805 -0.1431 -0.1972
  464TMC3     H 6964   3.246   0.818   1.294  0.8187  0.2236  1.8183
  464TMC3    H1 6965   3.507   0.510   1.177 -0.2296  0.4668 -0.1141
  464TMC3    H2 6966   3.093   0.495   1.066 -2.7467  3.0969  0.8582
  464TMC3    C7 6967   3.306   0.338   1.128  0.2576  0.1813  0.7292
  464TMC3    C8 6968   3.032   0.728   1.161  0.4616  0.3284  0.1957
  464TMC3    O1 6969   3.415   0.289   1.122 -0.7499  0.5214 -0.0485
  464TMC3    O2 6970   2.964   0.678   1.072  0.2717  0.1000  0.0622
  465MPD2     C 6971   4.465   3.695  16.489  0.2391 -0.3459  0.2163
  465MPD2    C1 6972   4.425   3.656  16.619  0.3989  1.1651  0.2604
  465MPD2    C2 6973   4.299   3.692  16.668  0.0338  0.1779 -0.8291
  465MPD2    C3 6974   4.211   3.751  16.580 -0.6572  1.0848  0.2936
  465MPD2    C4 6975   4.246   3.774  16.450 -0.3891  0.4721 -0.2517
  465MPD2    C5 6976   4.373   3.747  16.405  1.0517 -0.6532  0.1640
  465MPD2     H 6977   4.268   3.662  16.767  2.7371  1.4601  0.4140
  465MPD2    H1 6978   4.169   3.812  16.384 -1.5912 -0.7203  0.4669
  465MPD2    H2 6979   4.568   3.679  16.458  0.0268  1.5904 -1.5219
  465MPD2    H3 6980   4.403   3.779  16.306 -0.8141  0.7253  0.0299
  465MPD2     N 6981   4.075   3.767  16.624 -0.7940  0.0341 -0.2699
  465MPD2    H5 6982   4.066   3.737  16.721  0.1817  0.5394 -0.0215
  465MPD2    N1 6983   4.516   3.595  16.715 -0.0108  0.2704  0.2591
  465MPD2    H7 6984   4.483   3.585  16.810  0.1024  0.3048  0.3029
  466TMC3    C1 6985   3.714   3.733  16.818  0.6045 -0.8383 -0.0993
  466TMC3    C2 6986   3.643   3.849  16.824  0.2462 -0.2279  0.3296
  466TMC3    C3 6987   3.669   3.945  16.736  0.0959 -0.8252  0.9214
  466TMC3    C4 6988   3.822   3.728  16.732 -0.6447 -0.4636  0.1387
  466TMC3    C5 6989   3.851   3.829  16.646  0.6075  0.5261 -0.3209
  466TMC3    C6 6990   3.775   3.939  16.647 -0.6254 -0.3107  0.6239
  466TMC3     C 6991   3.728   3.670  16.948 -0.2548  0.3167 -0.0387
  466TMC3     O 6992   3.843   3.623  16.967 -0.3723  0.3057  0.0460
  466TMC3     H 6993   3.571   3.878  16.900 -1.7957  2.0880 -2.4906
  466TMC3    H1 6994   3.880   3.636  16.732  0.5545  0.2842  0.8890
  466TMC3    H2 6995   3.783   4.016  16.570  0.0970 -1.3056 -0.2920
  466TMC3    C7 6996   3.967   3.825  16.562 -0.5518  0.3523 -0.1631
  466TMC3    C8 6997   3.593   4.066  16.746  0.3118 -0.2033  1.1514
  466TMC3    O1 6998   3.964   3.905  16.472 -0.4483 -0.0879 -0.0253
  466TMC3    O2 6999   3.653   4.171  16.745 -0.1052  0.2620 -0.1816
  467TMC3    C1 7000   0.388   1.976  13.965 -0.2987 -0.2021 -0.0071
  467TMC3    C2 7001   0.338   2.093  13.907 -0.9889  0.3743 -0.3819
  467TMC3    C3 7002   0.224   2.086  13.836  0.1514  0.1074  0.8938
  467TMC3    C4 7003   0.320   1.860  13.957  0.1251 -0.6651 -0.8055
  467TMC3    C5 7004   0.198   1.862  13.891  0.5438 -0.0477 -0.1451
  467TMC3    C6 7005   0.155   1.968  13.819 -0.7840  0.2446  0.0485
  467TMC3     C 7006   0.523   1.974  14.010 -0.7219 -0.1793 -0.2242
  467TMC3     O 7007   0.590   2.069  13.974 -0.3608  0.1131 -0.4651
  467TMC3     H 7008   0.389   2.187  13.925 -0.4787 -0.7028  3.7977
  467TMC3    H1 7009   0.351   1.773  14.013  0.2370  0.8468  1.5018
  467TMC3    H2 7010   0.062   1.960  13.764  0.1237 -2.5027 -1.0588
  467TMC3    C7 7011   0.123   1.737  13.897 -0.7611 -0.5986  0.3140
  467TMC3    C8 7012   0.217   2.188  13.741 -0.4311 -0.0769  0.2227
  467TMC3    O1 7013   0.194   1.637  13.913 -0.4571 -0.9229  0.3337
  467TMC3    O2 7014   0.264   2.293  13.769  0.3938  0.5490 -0.0325
  468MPD2     C 7015   3.396   0.967  11.119  0.2385  0.5360 -0.3493
  468MPD2    C1 7016   3.506   0.916  11.177  0.7036  0.6956  0.8216
  468MPD2    C2 7017   3.509   0.780  11.196  0.0978 -0.1998  0.0849
  468MPD2    C3 7018   3.408   0.693  11.156 -0.1826  0.0490  0.1630
  468MPD2    C4 7019   3.293   0.746  11.108  0.2187 -0.1281 -0.1471
  468MPD2    C5 7020   3.290   0.880  11.092  0.0423 -0.0304  0.0282
  468MPD2     H 7021   3.604   0.753  11.240 -0.6341 -1.4193  0.9128
  468MPD2    H1 7022   3.207   0.682  11.091 -0.3118 -0.1826  2.7457
  468MPD2    H2 7023   3.389   1.074  11.100 -1.1180  0.2332 -1.4657
  468MPD2    H3 7024   3.195   0.920  11.059  0.1052 -0.5799 -0.7973
  468MPD2     N 7025   3.409   0.552  11.190  0.5288  0.1208  0.5730
  468MPD2    H5 7026   3.317   0.514  11.167  0.6869  0.6315 -0.9283
  468MPD2    N1 7027   3.611   0.986  11.240  0.8096  0.0541  0.0069
  468MPD2    H7 7028   3.684   0.928  11.281  0.0532 -1.0331 -0.1828
  469TMC3    C1 7029   3.712   1.161  11.354 -0.2574  0.4207  0.2211
  469TMC3    C2 7030   3.836   1.108  11.338 -0.2994  0.2013  0.1150
  469TMC3    C3 7031   3.929   1.124  11.432  0.2561  0.5172 -0.2694
  469TMC3    C4 7032   3.678   1.227  11.466 -0.3168  0.1189 -0.4639
  469TMC3    C5 7033   3.771   1.245  11.561  0.2819  0.0974  0.5876
  469TMC3    C6 7034   3.900   1.199  11.541 -0.2024 -0.2513  0.0528
  469TMC3     C 7035   3.604   1.121  11.265 -0.4457  0.2208 -0.6579
  469TMC3     O 7036   3.506   1.193  11.249 -0.2432  0.1273  0.0780
  469TMC3     H 7037   3.855   1.072  11.238 -0.3066 -1.2576  0.6423
  469TMC3    H1 7038   3.572   1.251  11.475 -0.1121  1.0070 -0.3882
  469TMC3    H2 7039   3.980   1.204  11.613  0.6101 -0.4216 -0.8295
  469TMC3    C7 7040   3.710   1.251  11.691  0.2363 -0.4330 -0.3863
  469TMC3    C8 7041   4.042   1.041  11.421  0.7521 -0.3343  0.3522
  469TMC3    O1 7042   3.590   1.282  11.700  0.0867  0.6625  0.2016
  469TMC3    O2 7043   4.041   0.967  11.321 -0.3145 -0.0118  0.0538
  470TMC3    C1 7044   1.499   1.890   0.457 -0.1591  0.6176 -0.4344
  470TMC3    C2 7045   1.522   1.974   0.561 -0.7368 -0.6017  0.5335
  470TMC3    C3 7046   1.572   1.925   0.678  0.0108  0.0171 -0.1363
  470TMC3    C4 7047   1.526   1.756   0.478 -0.2469  0.0966 -0.6195
  470TMC3    C5 7048   1.566   1.710   0.598 -0.2385  0.2836  0.2374
  470TMC3    C6 7049   1.595   1.796   0.703  0.6032 -0.1006  0.5592
  470TMC3     C 7050   1.490   1.941   0.321 -0.1766 -0.5805  0.5356
  470TMC3     O 7051   1.541   2.050   0.297 -0.1503  0.8476 -0.2845
  470TMC3     H 7052   1.524   2.080   0.537  1.5117 -0.3731  1.8061
  470TMC3    H1 7053   1.503   1.679   0.404 -2.7815 -1.0058  1.3119
  470TMC3    H2 7054   1.647   1.765   0.793  2.3723 -0.8110 -0.7082
  470TMC3    C7 7055   1.527   1.579   0.639  0.6456 -0.6830  0.1184
  470TMC3    C8 7056   1.545   2.007   0.795  0.2228  0.6335 -0.5997
  470TMC3    O1 7057   1.524   1.483   0.560  0.1547  0.6384 -0.2970
  470TMC3    O2 7058   1.587   1.963   0.901 -0.2178  0.5978  0.3530
  471MPD2     C 7059   2.280   2.538  16.885 -0.1061  0.5622  0.0705
  471MPD2    C1 7060   2.171   2.446  16.886  0.0574 -0.8347 -0.8796
  471MPD2    C2 7061   2.133   2.380  17.001 -0.5634  0.5746  0.8641
  471MPD2    C3 7062   2.202   2.416  17.118 -0.0238  0.3844 -0.3572
  471MPD2    C4 7063   2.310   2.504  17.124  0.3237 -0.9861  0.1407
  471MPD2    C5 7064   2.352   2.549  17.003 -0.1491  0.2025 -0.0896
  471MPD2     H 7065   2.064   2.296  16.996  0.1352 -0.0975  2.7274
  471MPD2    H1 7066   2.376   2.504  17.210 -0.6849 -0.3250  0.9132
  471MPD2    H2 7067   2.335   2.562  16.795  0.2227  0.1795  0.1695
  471MPD2    H3 7068   2.449   2.595  16.985  1.4576 -2.8729  0.6831
  471MPD2     N 7069   2.171   2.365  17.248  0.3219  0.6053  0.1252
  471MPD2    H5 7070   2.232   2.382  17.328 -0.4617  1.7423  0.4734
  471MPD2    N1 7071   2.129   2.383  16.766  0.4259  0.1781 -0.1576
  471MPD2    H7 7072   2.060   2.308  16.770  0.3473  0.3479  1.9835
  472TMC3    C1 7073   2.094   2.357  16.534 -0.0399 -0.0199  0.3710
  472TMC3    C2 7074   2.030   2.415  16.425 -0.3207  0.5010  0.1971
  472TMC3    C3 7075   1.990   2.328  16.326  0.2597  0.1685  0.1334
  472TMC3    C4 7076   2.124   2.225  16.541 -0.6559  0.4568 -0.2322
  472TMC3    C5 7077   2.082   2.147  16.438  0.4160  0.1424  0.0913
  472TMC3    C6 7078   2.026   2.196  16.322  0.4095 -0.2532 -0.0626
  472TMC3     C 7079   2.137   2.446  16.644 -0.0093 -0.1245 -0.2504
  472TMC3     O 7080   2.168   2.559  16.618 -0.3136 -0.1629 -0.3357
  472TMC3     H 7081   1.973   2.506  16.438  0.6561  0.7361  2.9202
  472TMC3    H1 7082   2.184   2.190  16.625 -2.2912  1.3587  1.3148
  472TMC3    H2 7083   1.985   2.137  16.241  0.2616  1.6749 -1.3798
  472TMC3    C7 7084   2.039   2.016  16.486  0.5034 -0.3730 -0.3452
  472TMC3    C8 7085   1.850   2.348  16.287 -0.3448  0.4351 -0.0365
  472TMC3    O1 7086   2.097   1.964  16.579  0.3860  0.0321  0.0516
  472TMC3    O2 7087   1.787   2.396  16.378  0.0950 -0.7473 -0.2226
  473MPD2     C 7088   1.730   4.149  13.817  1.0287  0.0159 -0.3505
  473MPD2    C1 7089   1.663   4.245  13.737  0.4108 -0.3476 -0.7208
  473MPD2    C2 7090   1.689   4.380  13.771 -0.5482 -0.2893 -0.4988
  473MPD2    C3 7091   1.767   4.418  13.876  0.1321  0.2629 -0.3232
  473MPD2    C4 7092   1.822   4.325  13.956  0.8382  0.8408 -0.4562
  473MPD2    C5 7093   1.809   4.193  13.923  0.7285  0.3091  0.0686
  473MPD2     H 7094   1.637   4.459  13.717  0.0161  0.2621 -0.2390
  473MPD2    H1 7095   1.876   4.357  14.044 -2.3497  1.5984  1.2250
  473MPD2    H2 7096   1.715   4.042  13.808 -2.4750  0.3034  2.0213
  473MPD2    H3 7097   1.864   4.124  13.985  0.1271  1.9520  2.4471
  473MPD2     N 7098   1.769   4.548  13.927  0.2307  0.0208  0.2366
  473MPD2    H5 7099   1.831   4.560  14.006  0.8398 -0.1969 -0.2135
  473MPD2    N1 7100   1.572   4.215  13.638  0.0888  0.6953 -0.3315
  473MPD2    H7 7101   1.542   4.300  13.592 -2.7401 -1.0684 -1.7369
  474TMC3    C1 7102   1.687   0.022  13.981  0.3419 -0.7258 -0.2426
  474TMC3    C2 7103   1.660   0.146  13.938 -0.2532  0.3300 -0.2524
  474TMC3    C3 7104   1.670   0.261  14.016  0.2712 -0.1360 -0.2640
  474TMC3    C4 7105   1.741   0.005  14.108 -0.3168 -0.3578  0.8897
  474TMC3    C5 7106   1.754   0.118  14.180  0.7305 -0.0012  0.4718
  474TMC3    C6 7107   1.713   0.240  14.142 -0.1905  0.2966  0.3417
  474TMC3     C 7108   1.698   4.655  13.885 -0.3282  0.1312  0.1906
  474TMC3     O 7109   1.643   4.683  13.776  0.0023  0.2346  0.1254
  474TMC3     H 7110   1.635   0.154  13.832  0.0310  1.2042 -0.2505
  474TMC3    H1 7111   1.786   4.649  14.138 -0.4093 -1.3109 -1.9314
  474TMC3    H2 7112   1.713   0.324  14.212 -0.0678  0.3311  0.2998
  474TMC3    C7 7113   1.816   0.106  14.302 -0.3060 -0.0233  0.5524
  474TMC3    C8 7114   1.613   0.385  13.969 -0.0858 -0.1613 -0.2456
  474TMC3    O1 7115   1.840   4.727  14.343 -0.2359  0.1168 -0.4962
  474TMC3    O2 7116   1.549   0.373  13.865 -0.3945  0.4072  0.5664
  475MPD2     C 7117   4.595   2.405  10.804 -0.6030  0.2130 -0.4497
  475MPD2    C1 7118   4.615   2.521  10.882 -0.2338  0.7562  0.1950
  475MPD2    C2 7119   4.512   2.554  10.972  0.0639  0.8079  0.8107
  475MPD2    C3 7120   4.393   2.480  10.980 -0.1573  0.3168  0.3892
  475MPD2    C4 7121   4.370   2.374  10.901  0.2168 -0.2862  0.8893
  475MPD2    C5 7122   4.477   2.337  10.822  0.1813  0.9182 -0.1872
  475MPD2     H 7123   4.510   2.639  11.039 -1.6361  1.9723 -0.7510
  475MPD2    H1 7124   4.278   2.317  10.898  0.3926 -0.5095 -0.6317
  475MPD2    H2 7125   4.666   2.359  10.737  0.0875 -0.2350  0.5956
  475MPD2    H3 7126   4.457   2.253  10.756 -1.0585  0.0170  1.3312
  475MPD2     N 7127   4.297   2.538  11.067 -0.0636 -0.4609 -0.6197
  475MPD2    H5 7128   4.322   2.634  11.088 -0.2385  0.1176 -3.0019
  475MPD2    N1 7129   4.721   2.609  10.861 -0.0162  0.1615  0.6690
  475MPD2    H7 7130   0.006   2.671  10.938 -1.7325  1.7658 -0.1327
  476TMC3    C1 7131   0.173   2.702  10.783 -0.1238 -0.0308  0.2805
  476TMC3    C2 7132   0.176   2.814  10.705 -0.3857 -0.4936 -0.2426
  476TMC3    C3 7133   0.171   2.939  10.764  0.2069 -0.3556 -0.4556
  476TMC3    C4 7134   0.200   2.713  10.916 -0.4059  0.0930 -0.3801
  476TMC3    C5 7135   0.187   2.836  10.975  0.4689 -0.4485 -0.1600
  476TMC3    C6 7136   0.179   2.951  10.900  0.0933  0.0291  0.1817
  476TMC3     C 7137   0.065   2.616  10.752  0.0520 -0.2998 -0.1973
  476TMC3     O 7138   0.041   2.580  10.636 -0.2681  0.0744  0.5951
  476TMC3     H 7139   0.151   2.798  10.601 -0.3033  0.6298 -0.4307
  476TMC3    H1 7140   0.198   2.626  10.981  2.3445  1.6296  1.7598
  476TMC3    H2 7141   0.167   3.047  10.949 -0.6332  1.1496 -2.2078
  476TMC3    C7 7142   0.107   2.840  11.097 -0.2958 -0.6220  0.1312
  476TMC3    C8 7143   0.057   3.017  10.716  0.3332 -0.1596 -0.1866
  476TMC3    O1 7144   0.048   2.732  11.112 -0.0284 -0.2566  0.4098
  476TMC3    O2 7145   0.042   3.132  10.760  0.3613  0.1802 -0.3392
  477MPD2     C 7146   2.333   0.015  12.124 -0.0591 -0.6556  0.1821
  477MPD2    C1 7147   2.296   4.632  12.082 -0.7860 -0.2444  0.4223
  477MPD2    C2 7148   2.278   4.532  12.181 -0.2412  0.2920 -0.4846
  477MPD2    C3 7149   2.302   4.555  12.320  0.3763 -0.4317 -0.0130
  477MPD2    C4 7150   2.342   4.679  12.361 -0.3116 -0.1383 -0.0565
  477MPD2    C5 7151   2.370   0.036  12.260  0.1434  0.8999  0.3430
  477MPD2     H 7152   2.233   4.436  12.161 -0.5089  0.3085  0.0647
  477MPD2    H1 7153   2.365   4.704  12.464  0.6155 -0.5066 -0.1758
  477MPD2    H2 7154   2.341   0.098  12.055  2.9746 -0.2368  1.0255
  477MPD2    H3 7155   2.403   0.135  12.288  0.5107  0.7701  0.3656
  477MPD2     N 7156   2.275   4.449  12.410  0.2388 -0.2692 -0.5124
  477MPD2    H5 7157   2.248   4.358  12.375 -1.2509 -0.4730  1.1590
  477MPD2    N1 7158   2.254   4.611  11.949  0.1003  0.1722  0.0601
  477MPD2    H7 7159   2.261   4.692  11.887  0.3507 -0.0630 -0.2165
  478TMC3    C1 7160   2.170   4.526  11.753 -0.4761 -0.6815 -0.2379
  478TMC3    C2 7161   2.164   4.651  11.705 -0.4955 -0.1355  0.5557
  478TMC3    C3 7162   2.077   4.673  11.602 -0.3501  0.1583 -0.1373
  478TMC3    C4 7163   2.113   4.419  11.692  0.2787  0.3163  0.9189
  478TMC3    C5 7164   2.032   4.447  11.585  0.4240  0.4220 -0.4644
  478TMC3    C6 7165   2.005   4.574  11.536  0.1406  0.0034  1.3732
  478TMC3     C 7166   2.201   4.504  11.889 -0.7910  0.1642 -0.5945
  478TMC3     O 7167   2.171   4.398  11.946  0.1884  1.0793 -0.2271
  478TMC3     H 7168   2.226   4.730  11.746  1.0439 -1.0048 -0.0877
  478TMC3    H1 7169   2.118   4.319  11.733  1.5293  0.1683  0.4025
  478TMC3    H2 7170   1.936   4.603  11.458 -0.1667 -1.7792  0.9784
  478TMC3    C7 7171   1.954   4.333  11.533  0.4186  0.2700  0.2913
  478TMC3    C8 7172   2.040   0.072  11.591 -0.0818 -0.5305 -0.0342
  478TMC3    O1 7173   1.943   4.236  11.609  0.6752  0.1192 -0.8520
  478TMC3    O2 7174   2.133   0.145  11.602 -0.0261 -0.1419 -0.6493
  479MPD2     C 7175   1.352   1.607  14.667 -0.2823  0.3494 -0.3283
  479MPD2    C1 7176   1.325   1.539  14.781 -0.5109  0.5737  1.0665
  479MPD2    C2 7177   1.358   1.595  14.902 -0.4627 -0.2297 -0.0336
  479MPD2    C3 7178   1.426   1.714  14.913 -0.6784  0.1977  0.0167
  479MPD2    C4 7179   1.453   1.789  14.802  0.6456 -0.6844  0.5283
  479MPD2    C5 7180   1.410   1.731  14.681  1.1011 -0.6859  0.6760
  479MPD2     H 7181   1.322   1.557  14.997 -1.6291  2.7383  0.7150
  479MPD2    H1 7182   1.505   1.884  14.803 -1.2729  0.3530  0.6381
  479MPD2    H2 7183   1.336   1.569  14.567  1.1596 -1.6370  0.1814
  479MPD2    H3 7184   1.440   1.772  14.585  0.2531 -2.6324 -0.4149
  479MPD2     N 7185   1.464   1.773  15.035  0.1161  0.1039 -0.1178
  479MPD2    H5 7186   1.505   1.866  15.031 -0.3578  0.2952 -0.5570
  479MPD2    N1 7187   1.263   1.414  14.768 -0.3420 -0.2194 -0.5089
  479MPD2    H7 7188   1.219   1.387  14.681 -0.5331 -2.6779  0.3498
  480TMC3    C1 7189   1.469   1.790  15.485  0.9566 -0.4969 -0.6105
  480TMC3    C2 7190   1.393   1.906  15.484  0.3477 -0.0090 -0.3097
  480TMC3    C3 7191   1.392   1.980  15.367  0.0861 -1.0584  0.4582
  480TMC3    C4 7192   1.526   1.735  15.380 -0.2232 -0.2242 -0.1190
  480TMC3    C5 7193   1.503   1.807  15.266  0.2409  0.4886  0.5308
  480TMC3    C6 7194   1.438   1.928  15.248 -0.9254 -0.9782 -0.2603
  480TMC3     C 7195   1.482   1.714  15.609 -0.3881 -0.5262 -0.2331
  480TMC3     O 7196   1.577   1.639  15.602  0.2795  0.2659 -0.2571
  480TMC3     H 7197   1.342   1.949  15.569  0.7053  0.1759 -0.1922
  480TMC3    H1 7198   1.572   1.637  15.373 -0.4974 -0.2002 -2.2951
  480TMC3    H2 7199   1.400   1.975  15.158  0.2447  0.2079 -0.1429
  480TMC3    C7 7200   1.462   1.715  15.154 -0.4752  0.5052 -0.2443
  480TMC3    C8 7201   1.267   2.047  15.348  0.0173  0.4078 -0.2110
  480TMC3    O1 7202   1.433   1.595  15.176 -0.0194 -0.3664  0.5938
  480TMC3    O2 7203   1.163   2.016  15.403  0.1151 -0.6098  0.0484
  481MPD2     C 7204   3.284   0.943  14.346  0.2124 -0.0692  0.8739
  481MPD2    C1 7205   3.188   1.026  14.297  0.9517 -0.4118 -0.1014
  481MPD2    C2 7206   3.158   1.139  14.376 -0.1851 -0.0684 -0.8028
  481MPD2    C3 7207   3.216   1.163  14.499 -0.0989  0.0813  0.0491
  481MPD2    C4 7208   3.307   1.073  14.548  0.6717 -0.1615  0.4862
  481MPD2    C5 7209   3.338   0.962  14.469  0.0717 -0.0751 -0.5211
  481MPD2     H 7210   3.082   1.204  14.334  0.8047  1.0181 -0.9144
  481MPD2    H1 7211   3.356   1.089  14.644 -0.3866 -0.0961  1.0217
  481MPD2    H2 7212   3.305   0.851  14.293 -1.5547  0.1620 -0.2524
  481MPD2    H3 7213   3.420   0.897  14.496  0.0745  0.8221  1.6831
  481MPD2     N 7214   3.187   1.272  14.581 -0.1704  0.1557 -0.1078
  481MPD2    H5 7215   3.233   1.280  14.671 -0.0341 -0.1672 -0.1492
  481MPD2    N1 7216   3.115   0.997  14.182 -0.0374 -0.4435 -0.0194
  481MPD2    H7 7217   3.107   0.900  14.155 -0.7861 -0.3207 -0.2421
  482TMC3    C1 7218   2.998   1.069  13.993  0.3130  0.2088  0.2015
  482TMC3    C2 7219   2.888   0.994  14.025 -0.3890 -0.1918  0.7584
  482TMC3    C3 7220   2.781   1.004  13.941 -0.4110 -0.1486 -0.4166
  482TMC3    C4 7221   2.990   1.147  13.877  0.3126  0.2815 -0.5357
  482TMC3    C5 7222   2.880   1.147  13.794  0.0769  0.0479 -0.1943
  482TMC3    C6 7223   2.773   1.069  13.821  0.0510  0.5078  0.1387
  482TMC3     C 7224   3.092   1.100  14.095 -0.3787  0.0700 -0.1099
  482TMC3     O 7225   3.139   1.216  14.100 -0.0265 -0.3530  0.4152
  482TMC3     H 7226   2.877   0.961  14.128 -1.5163  2.0661  1.3669
  482TMC3    H1 7227   3.079   1.202  13.848  0.4148  0.8734  0.8775
  482TMC3    H2 7228   2.686   1.076  13.756  0.9649  1.9785 -0.9229
  482TMC3    C7 7229   2.885   1.233  13.676  0.0671  0.4101 -0.0551
  482TMC3    C8 7230   2.658   0.940  14.006  0.0549  0.1733  0.0099
  482TMC3    O1 7231   2.964   1.323  13.676 -0.4996 -0.2142  0.2577
  482TMC3    O2 7232   2.690   0.847  14.074  0.4949  0.2975  0.5079
  483TMC3    C1 7233   1.007   0.403   0.745 -0.1352  0.0700  0.5165
  483TMC3    C2 7234   0.952   0.519   0.768 -0.8281 -0.2261 -0.2782
  483TMC3    C3 7235   0.943   0.567   0.895  0.2087  0.6673  0.7310
  483TMC3    C4 7236   1.020   0.311   0.844  0.6599 -0.0184  0.8423
  483TMC3    C5 7237   0.986   0.352   0.971 -0.8097  0.7106 -0.0014
  483TMC3    C6 7238   0.944   0.481   0.999 -0.4042  0.4202 -0.2528
  483TMC3     C 7239   1.107   0.392   0.640  0.0990 -0.6959  0.6856
  483TMC3     O 7240   1.126   0.497   0.576 -0.3911  0.1588  0.4920
  483TMC3     H 7241   0.957   0.591   0.687  0.1336 -0.1165 -0.1271
  483TMC3    H1 7242   1.062   0.211   0.843  2.1284  0.5940  1.8875
  483TMC3    H2 7243   0.951   0.522   1.099 -0.6478  0.3292 -0.1988
  483TMC3    C7 7244   1.046   0.280   1.077  0.0883 -0.0273  0.0806
  483TMC3    C8 7245   1.008   0.700   0.917 -0.4839 -0.5138  0.0877
  483TMC3    O1 7246   1.155   0.232   1.048 -0.1663  0.4817  0.2339
  483TMC3    O2 7247   1.074   0.736   0.818 -0.1378 -0.3750  0.0927
  484MPD2     C 7248   3.875   3.023  13.084  0.8511 -0.4135  0.1083
  484MPD2    C1 7249   3.821   2.976  12.975 -0.5287 -0.3169 -0.0277
  484MPD2    C2 7250   3.899   2.895  12.893 -0.3400  0.2391 -0.2106
  484MPD2    C3 7251   4.023   2.854  12.929  0.9980 -0.1185 -0.2318
  484MPD2    C4 7252   4.071   2.898  13.052  0.2810  1.5795 -0.1736
  484MPD2    C5 7253   4.006   2.998  13.117 -0.1767  0.0618  0.2830
  484MPD2     H 7254   3.872   2.874  12.790 -1.8936  2.7099 -0.3274
  484MPD2    H1 7255   4.168   2.869  13.091 -1.1543 -1.1654  1.4139
  484MPD2    H2 7256   3.814   3.085  13.148 -0.9321 -0.2082 -1.8124
  484MPD2    H3 7257   4.060   3.042  13.201  0.4062 -0.9662  0.4521
  484MPD2     N 7258   4.113   2.774  12.851  0.0699  0.2621 -0.5902
  484MPD2    H5 7259   4.205   2.763  12.894 -0.3378  1.2435  0.5073
  484MPD2    N1 7260   3.691   3.017  12.955  0.5114  0.1224  0.2036
  484MPD2    H7 7261   3.647   3.057  13.038 -0.7414 -0.5847 -0.1198
  485TMC3    C1 7262   4.222   2.687  12.645  0.3312  0.0895 -0.3515
  485TMC3    C2 7263   4.327   2.623  12.708 -0.2765 -0.1533  1.3037
  485TMC3    C3 7264   4.418   2.547  12.640 -0.3219 -0.4111 -0.1031
  485TMC3    C4 7265   4.231   2.696  12.509  0.2232  0.0382 -0.5262
  485TMC3    C5 7266   4.332   2.634  12.441 -0.9792  0.1006 -0.5863
  485TMC3    C6 7267   4.420   2.560  12.505 -0.3357 -0.2762  0.3204
  485TMC3     C 7268   4.108   2.764  12.710  0.4702  0.1173 -0.3104
  485TMC3     O 7269   4.018   2.798  12.632 -0.1047 -0.3893 -0.1080
  485TMC3     H 7270   4.324   2.605  12.815 -1.5166 -1.2153  1.0915
  485TMC3    H1 7271   4.149   2.741  12.454  0.1954  0.2504 -0.3091
  485TMC3    H2 7272   4.486   2.496  12.447  0.3097  0.9575 -0.2994
  485TMC3    C7 7273   4.319   2.568  12.316 -0.3349 -0.2208  0.4368
  485TMC3    C8 7274   4.463   2.422  12.693  0.5893  0.5267  0.4800
  485TMC3    O1 7275   4.419   2.584  12.250 -0.3605 -0.1668 -0.1034
  485TMC3    O2 7276   4.379   2.355  12.751  0.2654  0.6536 -0.6348
  486MPD2     C 7277   0.449   1.342  12.347 -0.0295 -0.5856 -0.2256
  486MPD2    C1 7278   0.579   1.381  12.385  0.2990 -0.9314 -0.0192
  486MPD2    C2 7279   0.598   1.499  12.459 -0.0336  0.4277 -0.0074
  486MPD2    C3 7280   0.496   1.583  12.492 -0.7092  0.0505  0.2186
  486MPD2    C4 7281   0.369   1.540  12.461 -0.4060 -0.0567  0.2686
  486MPD2    C5 7282   0.349   1.429  12.381  0.8124 -0.0509 -0.0300
  486MPD2     H 7283   0.698   1.533  12.486 -0.0169  0.4534 -0.1015
  486MPD2    H1 7284   0.286   1.600  12.496 -1.2052 -1.7519  1.2664
  486MPD2    H2 7285   0.427   1.247  12.299 -0.9871  0.3462 -1.6222
  486MPD2    H3 7286   0.246   1.394  12.392  0.4027  0.5424 -1.9826
  486MPD2     N 7287   0.522   1.708  12.555 -0.6420 -0.6576 -0.1080
  486MPD2    H5 7288   0.621   1.721  12.575 -0.3169 -1.0821 -1.3758
  486MPD2    N1 7289   0.687   1.282  12.372  0.5489 -0.6288 -0.2815
  486MPD2    H7 7290   0.663   1.198  12.321  1.1147 -1.3694  0.6476
  487TMC3    C1 7291   0.881   1.164  12.407  0.0587  0.3701 -0.0351
  487TMC3    C2 7292   0.813   1.052  12.452  0.3108  0.1116 -0.2980
  487TMC3    C3 7293   0.870   0.960  12.527 -0.1092 -0.5089 -0.3598
  487TMC3    C4 7294   1.018   1.177  12.417  0.7161  0.6894  0.0114
  487TMC3    C5 7295   1.080   1.080  12.489  0.0844  0.0461 -0.2214
  487TMC3    C6 7296   1.009   0.973  12.542  0.0496  0.2812 -0.0943
  487TMC3     C 7297   0.814   1.295  12.415  0.5897  0.3035 -0.1121
  487TMC3     O 7298   0.877   1.395  12.449 -0.5527  0.2818  0.3088
  487TMC3     H 7299   0.704   1.052  12.452  0.3139  1.9291 -2.2204
  487TMC3    H1 7300   1.079   1.260  12.384  0.3725  1.9223  2.5309
  487TMC3    H2 7301   1.059   0.885  12.581  0.9266  0.7167 -0.2546
  487TMC3    C7 7302   1.174   1.134  12.588  0.7445  0.0074 -0.0082
  487TMC3    C8 7303   0.812   0.939  12.660 -0.3920 -0.0873 -0.0057
  487TMC3    O1 7304   1.217   1.247  12.574 -0.4508 -0.2262  0.1519
  487TMC3    O2 7305   0.714   1.011  12.693 -0.2282 -0.0290 -0.0554
  488MPD2     C 7306   1.204   3.778  16.361  0.3120 -0.0895 -0.1127
  488MPD2    C1 7307   1.326   3.839  16.404 -0.3989 -0.2966  0.1897
  488MPD2    C2 7308   1.383   3.794  16.521 -0.4768  1.5246 -0.4062
  488MPD2    C3 7309   1.316   3.706  16.602  0.4213  0.6023  0.0005
  488MPD2    C4 7310   1.194   3.647  16.561  0.8213 -0.4233 -0.0382
  488MPD2    C5 7311   1.147   3.681  16.440  0.2514  0.6814  0.3101
  488MPD2     H 7312   1.482   3.830  16.548  0.9105 -2.3536 -0.3010
  488MPD2    H1 7313   1.143   3.575  16.624  3.2294 -0.2138  2.1626
  488MPD2    H2 7314   1.149   3.807  16.273  4.6993  0.3170 -2.7132
  488MPD2    H3 7315   1.058   3.632  16.402  0.8327 -0.1265 -0.0081
  488MPD2     N 7316   1.378   3.674  16.723  0.5291  0.4993  0.5481
  488MPD2    H5 7317   1.451   3.741  16.745 -1.4362  3.4363 -1.8735
  488MPD2    N1 7318   1.391   3.939  16.331 -0.2127 -0.6484  0.0859
  488MPD2    H7 7319   1.475   3.981  16.370 -0.7298 -0.1788  0.6898
  489TMC3    C1 7320   1.403   3.599  16.951 -0.0060 -0.4911  0.3440
  489TMC3    C2 7321   1.501   3.691  16.974  0.9658  0.1239  0.3063
  489TMC3    C3 7322   1.529   3.735  17.104  0.4692  0.4022  0.7572
  489TMC3    C4 7323   1.357   3.543  17.065 -0.2967 -0.2340 -0.1993
  489TMC3    C5 7324   1.398   3.581  17.196  0.2899  0.0569 -0.4325
  489TMC3    C6 7325   1.488   3.677  17.221 -0.0578  0.0640 -0.1264
  489TMC3     C 7326   1.329   3.599  16.821 -0.5073  0.3261 -0.6062
  489TMC3     O 7327   1.224   3.538  16.828  0.1493 -0.5016 -0.3471
  489TMC3     H 7328   1.535   3.750  16.889 -1.9093 -0.4409 -1.2241
  489TMC3    H1 7329   1.285   3.463  17.049 -2.1097  0.9605  2.0865
  489TMC3    H2 7330   1.505   3.709  17.323  3.2627 -0.0296 -0.6623
  489TMC3    C7 7331   1.327   3.512  17.314  0.0529 -0.2190 -0.0265
  489TMC3    C8 7332   1.600   3.865  17.110  0.3160  0.4940 -0.2654
  489TMC3    O1 7333   1.375   3.523  17.429 -0.2909 -0.0660 -0.4375
  489TMC3    O2 7334   1.656   3.900  17.011  0.1549 -0.7084  0.1564
  490MPD2     C 7335   2.701   2.933  16.952  0.3513 -0.1322  0.9213
  490MPD2    C1 7336   2.624   3.001  17.045  0.3013 -0.9553  0.4470
  490MPD2    C2 7337   2.691   3.061  17.152  0.3005  0.7674  0.2595
  490MPD2    C3 7338   2.832   3.054  17.166 -0.2293 -0.8477 -0.6105
  490MPD2    C4 7339   2.901   2.973  17.078 -0.6947 -0.1608  1.1608
  490MPD2    C5 7340   2.838   2.914  16.973  0.6338  0.6456  0.2432
  490MPD2     H 7341   2.634   3.120  17.221  2.4688  3.4970 -0.2936
  490MPD2    H1 7342   3.009   2.969  17.071 -0.5308  2.5746  2.1874
  490MPD2    H2 7343   2.665   2.885  16.862  0.1415 -1.7876  1.8803
  490MPD2    H3 7344   2.903   2.878  16.894  0.0465  1.3683 -0.5604
  490MPD2     N 7345   2.914   3.102  17.275 -0.0732  0.1993  0.2499
  490MPD2    H5 7346   3.012   3.077  17.270 -0.2654 -0.9415  2.3250
  490MPD2    N1 7347   2.482   3.006  17.046 -0.1657 -0.0097  0.1566
  490MPD2    H7 7348   2.442   3.043  17.131 -0.4841 -0.2566  0.1140
  491TMC3    C1 7349   2.280   2.883  17.032  0.3380  0.0102 -0.1505
  491TMC3    C2 7350   2.264   2.881  17.168  0.7116 -0.2573  1.0701
  491TMC3    C3 7351   2.140   2.855  17.215  0.6078  0.0455 -0.5801
  491TMC3    C4 7352   2.172   2.865  16.947 -0.4344  0.2583  0.3747
  491TMC3    C5 7353   2.047   2.843  16.998 -0.3758 -0.1098 -0.2942
  491TMC3    C6 7354   2.033   2.834  17.135 -0.8875  0.3525  0.9458
  491TMC3     C 7355   2.406   2.920  16.968 -0.1047 -0.3482  0.1723
  491TMC3     O 7356   2.418   2.881  16.853 -0.3272  0.2733 -0.6878
  491TMC3     H 7357   2.348   2.879  17.237  1.8662  1.3317 -0.2868
  491TMC3    H1 7358   2.189   2.856  16.840  0.2229  0.8369  0.4348
  491TMC3    H2 7359   1.936   2.822  17.183 -2.4879  0.9978 -2.1305
  491TMC3    C7 7360   1.944   2.778  16.911  0.7571  0.3509 -0.1653
  491TMC3    C8 7361   2.132   2.839  17.355 -0.1541 -0.3261 -0.8688
  491TMC3    O1 7362   1.852   2.727  16.976 -0.4043 -0.1589  0.0857
  491TMC3    O2 7363   2.180   2.920  17.427 -0.4542  0.7954 -0.5524
  492MPD2     C 7364   1.871   2.854  11.079  0.1721 -0.6248  0.6626
  492MPD2    C1 7365   1.828   2.722  11.063  0.4457  0.0923 -0.0568
  492MPD2    C2 7366   1.773   2.661  11.172 -0.6262  0.0858 -0.4479
  492MPD2    C3 7367   1.766   2.721  11.298 -0.1891 -0.4009  0.0059
  492MPD2    C4 7368   1.818   2.852  11.313 -0.3914 -0.5413  0.1088
  492MPD2    C5 7369   1.861   2.916  11.201 -0.4787 -0.2453 -0.3353
  492MPD2     H 7370   1.729   2.563  11.160  0.8575 -0.6018 -0.2925
  492MPD2    H1 7371   1.810   2.910  11.404 -2.4625  3.7544 -2.7941
  492MPD2    H2 7372   1.904   2.917  10.997 -2.9473  0.2162  0.0516
  492MPD2    H3 7373   1.899   3.017  11.210  1.9586 -1.1134 -0.7363
  492MPD2     N 7374   1.705   2.655  11.413  0.0021 -0.5353  0.6512
  492MPD2    H5 7375   1.715   2.695  11.506 -0.1849 -1.2043  0.9605
  492MPD2    N1 7376   1.827   2.670  10.932 -0.8280  0.0870 -0.0181
  492MPD2    H7 7377   1.852   2.734  10.857 -0.3743  1.5662  1.3764
  493TMC3    C1 7378   1.750   2.532  10.755  0.1586 -0.8184  0.3548
  493TMC3    C2 7379   1.762   2.633  10.661 -0.5315  0.6118 -0.7283
  493TMC3    C3 7380   1.687   2.620  10.546 -0.2665  0.7941 -0.4083
  493TMC3    C4 7381   1.654   2.429  10.734  0.7170 -0.0291  0.3688
  493TMC3    C5 7382   1.587   2.421  10.614  0.3898 -0.9672  0.0438
  493TMC3    C6 7383   1.604   2.512  10.516 -0.7280  0.1517 -0.2144
  493TMC3     C 7384   1.793   2.542  10.897 -0.4927 -0.2490 -0.9223
  493TMC3     O 7385   1.767   2.449  10.975  0.8541 -0.3848 -0.3510
  493TMC3     H 7386   1.844   2.705  10.662 -0.3972  0.4670 -1.7263
  493TMC3    H1 7387   1.642   2.357  10.814  1.4373 -1.2183 -0.5879
  493TMC3    H2 7388   1.553   2.502  10.422  1.5651 -1.5027 -1.3012
  493TMC3    C7 7389   1.468   2.339  10.597 -0.7239 -0.4730  0.4485
  493TMC3    C8 7390   1.702   2.715  10.442  0.6729  0.3609 -0.1524
  493TMC3    O1 7391   1.415   2.334  10.489 -0.2843 -0.7226  0.2927
  493TMC3    O2 7392   1.678   2.681  10.328  0.4861 -0.1289  0.2314
  494TMC3    C1 7393   2.689   0.294   0.297 -1.0746 -0.4180 -0.3577
  494TMC3    C2 7394   2.737   0.176   0.353  0.2185  0.2406  0.5264
  494TMC3    C3 7395   2.814   0.105   0.268 -0.1729 -0.4302 -0.1782
  494TMC3    C4 7396   2.717   0.338   0.173 -0.3095 -0.2248  0.1845
  494TMC3    C5 7397   2.807   0.268   0.098 -0.5154  0.1690  0.3946
  494TMC3    C6 7398   2.848   0.145   0.139 -0.5983 -0.3433 -0.2093
  494TMC3     C 7399   2.585   0.357   0.366  0.3935  0.0982 -0.7049
  494TMC3     O 7400   2.574   0.335   0.487  0.6174 -0.0479  0.3375
  494TMC3     H 7401   2.702   0.136   0.448 -0.6553 -0.5679 -0.1359
  494TMC3    H1 7402   2.701   0.441   0.146  0.8834 -0.0151  0.2456
  494TMC3    H2 7403   2.926   0.092   0.084  0.1379  1.1437 -0.5961
  494TMC3    C7 7404   2.863   0.327  17.721 -0.5260 -0.3351  0.5159
  494TMC3    C8 7405   2.860   4.708   0.306 -1.0139  0.1766 -0.1886
  494TMC3    O1 7406   2.915   0.245  17.645 -0.2007  0.4433 -0.6072
  494TMC3    O2 7407   2.918   4.652   0.213  0.2734 -0.1449  0.1224
  495TMC3    C1 7408   1.411   2.627  14.547  0.3351  0.4195  0.9806
  495TMC3    C2 7409   1.303   2.612  14.466  0.1780 -0.0578  0.0682
  495TMC3    C3 7410   1.187   2.564  14.510 -0.9492  0.3569  0.4311
  495TMC3    C4 7411   1.399   2.598  14.677  0.1489  0.8060  1.0295
  495TMC3    C5 7412   1.277   2.557  14.723 -0.8593 -0.3218 -0.4893
  495TMC3    C6 7413   1.167   2.533  14.642 -0.6276  0.1478 -0.6748
  495TMC3     C 7414   1.529   2.585  14.488  0.0436  0.7168  0.0955
  495TMC3     O 7415   1.629   2.656  14.500  0.2439 -0.1051  0.4037
  495TMC3     H 7416   1.321   2.643  14.364 -1.3077  1.3738  0.2398
  495TMC3    H1 7417   1.489   2.591  14.737 -0.1985  1.6007  1.6552
  495TMC3    H2 7418   1.067   2.506  14.672 -0.7200  0.4652 -0.6978
  495TMC3    C7 7419   1.282   2.485  14.848  0.5039  0.5900 -0.4688
  495TMC3    C8 7420   1.082   2.541  14.413  0.7139 -0.4241 -0.2811
  495TMC3    O1 7421   1.389   2.468  14.906 -0.0575 -0.1769  0.1810
  495TMC3    O2 7422   1.068   2.634  14.332 -0.1849  0.0499 -0.0818
  496MPD2     C 7423   3.889   2.149  15.580 -0.5954 -0.6591 -0.3575
  496MPD2    C1 7424   3.776   2.085  15.540  0.5544  0.0536  0.8071
  496MPD2    C2 7425   3.657   2.096  15.609  0.0387  0.6200  0.4171
  496MPD2    C3 7426   3.657   2.160  15.727 -0.3612  0.1160  0.3256
  496MPD2    C4 7427   3.771   2.221  15.761 -0.6107  0.3093  0.4045
  496MPD2    C5 7428   3.883   2.219  15.689  0.1271 -0.0871 -0.1126
  496MPD2     H 7429   3.566   2.051  15.572  0.7969  0.9180 -1.7993
  496MPD2    H1 7430   3.771   2.265  15.860 -0.1530 -0.3985  0.7204
  496MPD2    H2 7431   3.981   2.142  15.524 -0.7505 -0.8002 -0.5913
  496MPD2    H3 7432   3.963   2.281  15.730  1.9689 -1.4956 -1.5719
  496MPD2     N 7433   3.558   2.164  15.826  0.1248 -0.0238 -0.3555
  496MPD2    H5 7434   3.578   2.224  15.905  1.1799 -1.2362  0.3045
  496MPD2    N1 7435   3.797   2.007  15.418  0.9923  0.0416  0.0694
  496MPD2    H7 7436   3.889   1.996  15.377  1.7265  1.3992  1.3819
  497TMC3    C1 7437   3.357   2.127  15.942 -0.6230  1.1357  0.3114
  497TMC3    C2 7438   3.225   2.161  15.943 -0.2043 -0.1244 -0.0526
  497TMC3    C3 7439   3.170   2.162  16.064  0.2059  0.1203 -0.0741
  497TMC3    C4 7440   3.438   2.094  16.053  0.2515 -0.2168 -0.4760
  497TMC3    C5 7441   3.373   2.102  16.172  0.3224 -0.5892  0.1613
  497TMC3    C6 7442   3.238   2.135  16.180 -0.2960 -1.4780  0.3063
  497TMC3     C 7443   3.427   2.124  15.817  1.1489  0.0737 -0.1215
  497TMC3     O 7444   3.365   2.085  15.721 -0.3470  0.1218  0.2641
  497TMC3     H 7445   3.175   2.187  15.850 -1.3335  0.4848  0.7197
  497TMC3    H1 7446   3.546   2.089  16.042  0.2910  0.0400 -0.1904
  497TMC3    H2 7447   3.205   2.167  16.278  4.0845 -2.0790  1.9634
  497TMC3    C7 7448   3.436   2.072  16.297 -0.1056 -0.7891  0.2810
  497TMC3    C8 7449   3.037   2.215  16.079  0.5964  0.3735  0.0649
  497TMC3    O1 7450   3.371   2.042  16.392  0.6085 -0.0595  0.5094
  497TMC3    O2 7451   2.981   2.192  16.183  0.5433  0.4075 -0.1211
  498MPD2     C 7452   4.281   2.684  10.314 -0.4457  0.2903 -0.4235
  498MPD2    C1 7453   4.227   2.800  10.369 -0.2081  0.3403 -0.0247
  498MPD2    C2 7454   4.096   2.794  10.412  0.6171  0.2420  0.2124
  498MPD2    C3 7455   4.015   2.674  10.392 -0.1260  0.2700 -0.2420
  498MPD2    C4 7456   4.073   2.570  10.324 -0.2356  0.5293  0.4302
  498MPD2    C5 7457   4.201   2.578  10.288 -0.5644 -0.4444  0.5243
  498MPD2     H 7458   4.046   2.883  10.447  0.3587  0.4660 -0.7004
  498MPD2    H1 7459   4.017   2.479  10.306 -0.4112  0.7211  0.0093
  498MPD2    H2 7460   4.385   2.672  10.285 -0.2048  0.3905  0.4210
  498MPD2    H3 7461   4.247   2.496  10.234 -1.4657  0.9432 -2.3325
  498MPD2     N 7462   3.884   2.669  10.455 -0.2956  0.1532 -0.1612
  498MPD2    H5 7463   3.853   2.752  10.504 -0.2770 -0.9953  1.7825
  498MPD2    N1 7464   4.298   2.922  10.383 -0.3354  0.1643  0.0942
  498MPD2    H7 7465   4.252   3.001  10.429 -2.8598 -0.9206 -0.5739
  499TMC3    C1 7466   4.465   3.079  10.341 -0.1682  0.0650  0.3458
  499TMC3    C2 7467   4.599   3.094  10.354  0.3884  0.3571 -0.6468
  499TMC3    C3 7468   4.635   3.228  10.365 -0.6591  0.1366 -0.0297
  499TMC3    C4 7469   4.375   3.179  10.319  0.1146  0.2279  0.2869
  499TMC3    C5 7470   4.424   3.305  10.319  0.2973  0.0475  0.4021
  499TMC3    C6 7471   4.553   3.333  10.339  0.2908  0.1088 -0.0765
  499TMC3     C 7472   4.432   2.941  10.354 -1.0886 -0.7279 -0.0766
  499TMC3     O 7473   4.517   2.857  10.350 -0.7087  0.1808  0.2067
  499TMC3     H 7474   4.670   3.013  10.362 -2.6451 -2.4139 -2.1061
  499TMC3    H1 7475   4.271   3.159  10.297  0.0914  1.7557 -1.0201
  499TMC3    H2 7476   4.590   3.434  10.350  1.7975 -0.1865 -2.3367
  499TMC3    C7 7477   4.338   3.419  10.303 -0.2266  0.0792 -0.6078
  499TMC3    C8 7478   0.022   3.259  10.434 -0.4169  0.7141 -0.1240
  499TMC3    O1 7479   4.392   3.525  10.266  0.0489 -0.0463 -0.1836
  499TMC3    O2 7480   0.035   3.354  10.511  0.4463  0.7283  0.1208
  500MPD2     C 7481   0.863   4.158  10.846  0.1806  0.2200  0.5829
  500MPD2    C1 7482   0.799   4.039  10.851 -0.2968 -0.7137 -0.5249
  500MPD2    C2 7483   0.678   4.025  10.793  0.1324 -0.0993 -0.3444
  500MPD2    C3 7484   0.624   4.127  10.719 -0.1495  0.5640  1.1015
  500MPD2    C4 7485   0.704   4.229  10.688  0.2148 -0.2572 -0.5144
  500MPD2    C5 7486   0.823   4.245  10.749 -0.2618 -0.1446 -0.2154
  500MPD2     H 7487   0.624   3.932  10.801  0.3913 -0.4703 -3.0890
  500MPD2    H1 7488   0.686   4.314  10.624  2.1676  0.7944  0.3226
  500MPD2    H2 7489   0.954   4.174  10.903 -0.2859  1.1067  1.0798
  500MPD2    H3 7490   0.888   4.325  10.715 -0.0441  0.1949  0.9949
  500MPD2     N 7491   0.491   4.136  10.682 -0.0372  0.7398 -0.8936
  500MPD2    H5 7492   0.459   4.216  10.630  1.2483  2.2827  0.6808
  500MPD2    N1 7493   0.855   3.927  10.925 -0.1336  0.1164 -0.2619
  500MPD2    H7 7494   0.802   3.840  10.917 -0.7047  0.4507 -0.1060
  501TMC3    C1 7495   1.008   3.787  11.028 -0.3848  0.1371 -0.5736
  501TMC3    C2 7496   0.989   3.698  10.922 -0.4903 -0.1765  0.2958
  501TMC3    C3 7497   1.099   3.625  10.887 -0.1743 -0.3934 -0.8828
  501TMC3    C4 7498   1.121   3.778  11.112  0.0690  0.0256  0.6865
  501TMC3    C5 7499   1.223   3.695  11.075  0.7066  0.3485  0.2901
  501TMC3    C6 7500   1.212   3.618  10.959 -0.5167  0.0928  0.2643
  501TMC3     C 7501   0.978   3.921  10.983  0.2599 -0.4222  0.0760
  501TMC3     O 7502   1.059   4.013  11.010 -0.2435 -0.0746 -0.2937
  501TMC3     H 7503   0.909   3.703  10.849 -0.3080 -0.6152  0.0634
  501TMC3    H1 7504   1.120   3.846  11.196  1.3298  0.1798  0.5714
  501TMC3    H2 7505   1.290   3.545  10.936  1.5470  2.4035 -0.0881
  501TMC3    C7 7506   1.340   3.683  11.163  0.1164 -0.9412  0.4959
  501TMC3    C8 7507   1.093   3.549  10.764 -0.1306  0.4316 -0.1031
  501TMC3    O1 7508   1.432   3.613  11.120  0.1247  0.2185  0.5243
  501TMC3    O2 7509   1.113   3.430  10.773 -0.2980 -0.0611 -0.1545
  502TMC3    C1 7510   0.784   3.126  14.887  0.6329  0.0302 -0.6412
  502TMC3    C2 7511   0.711   3.243  14.868  0.5631  0.1238 -0.3809
  502TMC3    C3 7512   0.591   3.231  14.924 -0.9485  0.3876  0.6833
  502TMC3    C4 7513   0.730   3.005  14.932 -0.0919 -0.0202  0.1452
  502TMC3    C5 7514   0.609   3.013  14.995  0.1010 -0.3469  0.5246
  502TMC3    C6 7515   0.536   3.126  14.993 -0.3883  0.0070 -0.2257
  502TMC3     C 7516   0.908   3.153  14.951  0.9070 -0.1575  0.1295
  502TMC3     O 7517   0.975   3.245  14.909  0.5268 -0.0138 -0.0207
  502TMC3     H 7518   0.763   3.335  14.845 -1.6176  0.8684 -2.2880
  502TMC3    H1 7519   0.785   2.913  14.920  0.5359  0.2068  1.2780
  502TMC3    H2 7520   0.433   3.122  15.027 -1.0295  2.0265 -1.8701
  502TMC3    C7 7521   0.602   2.925  15.114 -0.3521 -0.3375  0.3567
  502TMC3    C8 7522   0.501   3.333  14.886  0.1618  0.1879 -0.2543
  502TMC3    O1 7523   0.708   2.870  15.145 -0.3832  0.3284 -0.2850
  502TMC3    O2 7524   0.506   3.379  14.773  0.0195 -0.0329 -0.0204
  503MPD2     C 7525   3.010   3.667  16.777  0.5357 -0.3139  0.3467
  503MPD2    C1 7526   3.019   3.679  16.915 -0.3481 -0.0546  0.0609
  503MPD2    C2 7527   3.110   3.600  16.984 -0.1182  0.2740  0.0235
  503MPD2    C3 7528   3.191   3.509  16.921  0.5810  0.0992  0.3004
  503MPD2    C4 7529   3.182   3.496  16.787 -0.5796 -0.3989  0.1835
  503MPD2    C5 7530   3.093   3.575  16.713  0.1960 -0.4525 -0.9652
  503MPD2     H 7531   3.147   3.632  17.081  0.5067  1.0925 -0.4844
  503MPD2    H1 7532   3.241   3.422  16.735 -0.9144  0.3057 -1.1916
  503MPD2    H2 7533   2.941   3.723  16.715 -0.8774 -0.4594  1.7655
  503MPD2    H3 7534   3.084   3.567  16.606 -1.2734 -2.2159 -0.7234
  503MPD2     N 7535   3.282   3.433  17.002  0.8475  0.2401  0.2677
  503MPD2    H5 7536   3.272   3.440  17.102 -1.0017 -0.7568  0.1436
  503MPD2    N1 7537   2.962   3.782  16.981 -0.3061 -0.5983  0.0293
  503MPD2    H7 7538   2.997   3.796  17.075  0.4292 -1.3210 -0.1419
  504TMC3    C1 7539   3.474   3.295  17.041  0.1851  0.4151  0.2352
  504TMC3    C2 7540   3.436   3.286  17.166 -0.7117  0.1208  0.6737
  504TMC3    C3 7541   3.521   3.269  17.270 -0.0142 -0.4036  0.7828
  504TMC3    C4 7542   3.605   3.291  17.008  0.6127 -0.1715 -0.0112
  504TMC3    C5 7543   3.691   3.271  17.114  0.1122 -0.5577 -0.3181
  504TMC3    C6 7544   3.650   3.245  17.244 -0.1110 -0.3605 -0.1762
  504TMC3     C 7545   3.391   3.369  16.948  0.9248  0.3745  0.2296
  504TMC3     O 7546   3.443   3.387  16.841  0.2102  0.0823 -0.3203
  504TMC3     H 7547   3.332   3.266  17.191 -0.3991  1.1619  2.8000
  504TMC3    H1 7548   3.647   3.320  16.912 -0.1959 -2.2524 -0.9763
  504TMC3    H2 7549   3.718   3.212  17.321  1.7378  0.1119 -1.6113
  504TMC3    C7 7550   3.823   3.231  17.064 -0.5523  0.4510  0.1105
  504TMC3    C8 7551   3.473   3.181  17.382 -0.3317 -0.4449  0.5082
  504TMC3    O1 7552   3.824   3.205  16.946 -0.0627 -0.7238 -0.5717
  504TMC3    O2 7553   3.395   3.097  17.337 -0.0406  0.7164 -0.2561
  505MPD2     C 7554   2.719   2.591  11.126 -0.2058 -0.8808 -0.2241
  505MPD2    C1 7555   2.665   2.561  11.002 -0.3035 -0.3770  0.1268
  505MPD2    C2 7556   2.659   2.427  10.965  0.4911  0.1904 -0.4426
  505MPD2    C3 7557   2.705   2.325  11.050 -0.5959 -0.2708  1.1619
  505MPD2    C4 7558   2.758   2.365  11.170  0.3111 -0.2334 -0.2278
  505MPD2    C5 7559   2.768   2.496  11.210 -0.3504 -0.1102  0.0880
  505MPD2     H 7560   2.620   2.400  10.868 -0.3781 -1.1269  0.2743
  505MPD2    H1 7561   2.796   2.291  11.240  0.6847 -1.8091 -2.1146
  505MPD2    H2 7562   2.723   2.696  11.156  0.2374 -0.5764 -1.3460
  505MPD2    H3 7563   2.807   2.526  11.307 -0.4659  2.2393 -0.5715
  505MPD2     N 7564   2.701   2.192  11.014 -0.1381  0.4266  0.0820
  505MPD2    H5 7565   2.651   2.177  10.927  0.6839  0.2320 -0.3572
  505MPD2    N1 7566   2.606   2.667  10.917  0.2266  0.3475  0.2950
  505MPD2    H7 7567   2.611   2.763  10.950  0.8383  0.1686  0.7369
  506TMC3    C1 7568   2.498   2.760  10.733  0.0536  0.1568 -0.4471
  506TMC3    C2 7569   2.599   2.849  10.726 -0.0695 -0.2915  0.0708
  506TMC3    C3 7570   2.626   2.898  10.599  0.2516 -0.1539  0.2461
  506TMC3    C4 7571   2.415   2.732  10.629 -0.2280  0.1750  0.4352
  506TMC3    C5 7572   2.446   2.777  10.505  0.0180  0.1600  0.0811
  506TMC3    C6 7573   2.559   2.857  10.488  0.5231  0.3379  0.1969
  506TMC3     C 7574   2.532   2.638  10.803  0.2395  0.4259 -0.3657
  506TMC3     O 7575   2.475   2.540  10.765  0.1761 -0.7504  0.2316
  506TMC3     H 7576   2.647   2.891  10.814  0.1554 -1.9681  0.7382
  506TMC3    H1 7577   2.330   2.669  10.650  0.6176 -1.4671 -1.0692
  506TMC3    H2 7578   2.597   2.872  10.388 -1.1203  0.8436 -0.3546
  506TMC3    C7 7579   2.453   2.677  10.404  0.1619  0.4684  0.5710
  506TMC3    C8 7580   2.744   2.970  10.574 -1.0877 -0.7593 -0.4165
  506TMC3    O1 7581   2.473   2.702  10.286 -0.4076  0.6417  0.9752
  506TMC3    O2 7582   2.736   3.041  10.476  0.2726  0.3247 -0.0619
  507TMC3    C1 7583   4.176   2.957  14.860 -0.2197 -0.1012 -0.1830
  507TMC3    C2 7584   4.169   2.869  14.759  0.4372  0.2061 -0.0657
  507TMC3    C3 7585   4.242   2.891  14.641  0.0359 -0.3555  0.2589
  507TMC3    C4 7586   4.262   3.067  14.853  0.1579 -0.8037 -0.0608
  507TMC3    C5 7587   4.345   3.085  14.747  0.2802  0.2445 -0.5508
  507TMC3    C6 7588   4.342   2.988  14.644 -0.3961 -0.1225 -0.6357
  507TMC3     C 7589   4.063   2.977  14.948 -0.9823  0.2286  0.3705
  507TMC3     O 7590   4.081   3.050  15.044 -1.6892  0.3916 -0.1932
  507TMC3     H 7591   4.100   2.786  14.767  0.5078  0.0910 -0.6721
  507TMC3    H1 7592   4.262   3.143  14.930  2.5206 -1.0956  0.2306
  507TMC3    H2 7593   4.401   3.008  14.556  2.6037 -1.0581  1.1863
  507TMC3    C7 7594   4.324   3.213  14.676  0.5304  0.4194 -0.0920
  507TMC3    C8 7595   4.163   2.879  14.516  0.2000 -0.3756  0.2991
  507TMC3    O1 7596   4.297   3.205  14.558 -0.4330  0.8128 -0.7118
  507TMC3    O2 7597   4.077   2.794  14.518 -0.1112 -0.0240 -0.6406
  508MPD2     C 7598   0.575   0.743  16.715  0.3359 -0.0448 -0.3170
  508MPD2    C1 7599   0.608   0.877  16.745  0.9601 -0.6619  0.6446
  508MPD2    C2 7600   0.551   0.984  16.670 -0.3488  0.4537 -0.1739
  508MPD2    C3 7601   0.472   0.956  16.556  0.0059  0.7303  0.3558
  508MPD2    C4 7602   0.431   0.827  16.534 -0.4184  0.1253  0.5594
  508MPD2    C5 7603   0.481   0.715  16.612 -0.2222 -0.0963 -0.0284
  508MPD2     H 7604   0.581   1.087  16.691  0.5336 -0.3633  2.5841
  508MPD2    H1 7605   0.375   0.805  16.444 -0.7672 -0.1185  0.8369
  508MPD2    H2 7606   0.608   0.660  16.776 -0.7291  0.2811  0.6998
  508MPD2    H3 7607   0.440   0.616  16.599 -0.4500  0.1546 -1.1776
  508MPD2     N 7608   0.445   1.067  16.472 -0.0256  0.1798  0.0315
  508MPD2    H5 7609   0.485   1.156  16.502  0.0298 -0.3866  1.6285
  508MPD2    N1 7610   0.690   0.916  16.850  0.5104  0.0150  0.1422
  508MPD2    H7 7611   0.701   1.016  16.866 -2.8740  0.1653  1.3633
  509TMC3    C1 7612   0.344   1.332  16.090  0.2004 -0.6251 -0.3768
  509TMC3    C2 7613   0.462   1.402  16.098 -0.1580  0.1679 -0.9105
  509TMC3    C3 7614   0.555   1.364  16.191 -0.7110 -0.0897  0.9075
  509TMC3    C4 7615   0.322   1.219  16.168  0.2632 -0.8238 -0.5133
  509TMC3    C5 7616   0.405   1.199  16.268 -0.3309 -0.8746 -1.0503
  509TMC3    C6 7617   0.528   1.260  16.280 -0.1422 -0.3171  0.6712
  509TMC3     C 7618   0.235   1.413  16.068  0.1625  0.6770 -0.0806
  509TMC3     O 7619   0.144   1.416  16.148  0.0706 -0.5038  0.4310
  509TMC3     H 7620   0.470   1.500  16.053  0.7233  0.9374  0.9372
  509TMC3    H1 7621   0.228   1.165  16.167 -0.3897  0.3821 -2.2011
  509TMC3    H2 7622   0.598   1.221  16.352  2.2184 -0.8395 -1.8939
  509TMC3    C7 7623   0.380   1.074  16.356 -0.0179  0.4376 -0.0587
  509TMC3    C8 7624   0.671   1.444  16.223  0.2195 -0.2504 -0.2763
  509TMC3    O1 7625   0.317   0.989  16.300 -0.2170 -0.1437 -0.3738
  509TMC3    O2 7626   0.733   1.399  16.317 -0.0137  0.0427  0.2004
  510MPD2     C 7627   2.808   2.666  14.629  0.5581  0.5163  0.0320
  510MPD2    C1 7628   2.853   2.556  14.694 -0.0521 -0.1022 -0.2764
  510MPD2    C2 7629   2.965   2.490  14.646  0.5744 -0.1793 -0.2183
  510MPD2    C3 7630   3.040   2.548  14.547  0.1935 -0.4676  0.2916
  510MPD2    C4 7631   2.991   2.660  14.481 -0.1076  0.3244  0.5612
  510MPD2    C5 7632   2.880   2.726  14.527  0.0790  0.1210  0.5259
  510MPD2     H 7633   3.001   2.401  14.696 -1.4931  0.3472  2.1785
  510MPD2    H1 7634   3.044   2.673  14.388 -1.4944  2.5429  0.0814
  510MPD2    H2 7635   2.720   2.722  14.661  0.7606 -0.2274  1.9258
  510MPD2    H3 7636   2.837   2.808  14.470 -0.6876 -0.5945  0.0903
  510MPD2     N 7637   3.167   2.484  14.524 -0.4810 -0.0283 -0.0549
  510MPD2    H5 7638   3.195   2.407  14.584 -0.9219  0.5023  0.8341
  510MPD2    N1 7639   2.774   2.510  14.808 -0.1827  0.2428  0.1392
  510MPD2    H7 7640   2.688   2.552  14.840 -1.6610 -2.5502 -0.1343
  511TMC3    C1 7641   2.674   2.345  14.938 -0.4638 -0.5026 -0.0790
  511TMC3    C2 7642   2.587   2.435  14.996  0.1906  0.3344  0.6147
  511TMC3    C3 7643   2.467   2.384  15.035  0.1794  0.0766 -0.2947
  511TMC3    C4 7644   2.653   2.213  14.929 -1.0139  0.3800  0.5184
  511TMC3    C5 7645   2.527   2.167  14.967 -0.2321 -0.0450 -0.0667
  511TMC3    C6 7646   2.434   2.253  15.021  0.0196 -0.2988  0.1320
  511TMC3     C 7647   2.793   2.389  14.872 -0.5348  0.2028  0.3942
  511TMC3     O 7648   2.878   2.304  14.869 -0.6381  0.2455  0.5636
  511TMC3     H 7649   2.618   2.537  15.015 -0.8925  0.6318  0.8144
  511TMC3    H1 7650   2.707   2.154  14.856 -0.2444  1.1243  0.4865
  511TMC3    H2 7651   2.333   2.217  15.040  0.4328  0.3415  3.5360
  511TMC3    C7 7652   2.475   2.084  14.857  0.9294  0.0944 -0.0928
  511TMC3    C8 7653   2.407   2.460  15.150  0.5624  0.2674  0.6457
  511TMC3    O1 7654   2.512   2.107  14.744  0.6713  0.4472  0.0854
  511TMC3    O2 7655   2.390   2.579  15.131  0.2178  0.1629  0.2526
  512TMC3    C1 7656   1.634   1.416  13.664 -0.4108  0.1599  0.6309
  512TMC3    C2 7657   1.746   1.417  13.738  0.6142  0.1224 -0.2410
  512TMC3    C3 7658   1.860   1.456  13.677 -0.1550  0.7787  0.2617
  512TMC3    C4 7659   1.631   1.450  13.532 -0.4876  0.1937 -0.1348
  512TMC3    C5 7660   1.748   1.474  13.472 -0.6256 -0.4918  0.9100
  512TMC3    C6 7661   1.863   1.487  13.538 -0.8367 -0.4286 -0.2482
  512TMC3     C 7662   1.511   1.370  13.724  0.5480  0.2284 -0.1116
  512TMC3     O 7663   1.401   1.396  13.674  0.0268  0.6154 -0.2853
  512TMC3     H 7664   1.764   1.392  13.842  0.6688 -2.8981 -0.9642
  512TMC3    H1 7665   1.540   1.438  13.474  0.6374  2.8529 -2.4307
  512TMC3    H2 7666   1.951   1.474  13.476 -0.9765  1.0048 -0.7497
  512TMC3    C7 7667   1.753   1.375  13.358 -0.6219 -0.4654  0.7867
  512TMC3    C8 7668   1.994   1.435  13.737  0.4512  0.0771 -0.2941
  512TMC3    O1 7669   1.815   1.272  13.375  0.3728 -0.7188 -0.6550
  512TMC3    O2 7670   2.013   1.331  13.797  0.2146 -0.2767  0.4025
  513MPD2     C 7671   2.627   1.935  12.744 -0.7645 -0.5066  0.0852
  513MPD2    C1 7672   2.757   1.895  12.756 -0.2428  0.8477 -0.2067
  513MPD2    C2 7673   2.865   1.985  12.777  0.0231 -0.0839 -0.1223
  513MPD2    C3 7674   2.837   2.117  12.801  0.1478 -0.5375  0.4285
  513MPD2    C4 7675   2.709   2.160  12.764  0.4437 -0.2910 -0.6433
  513MPD2    C5 7676   2.606   2.073  12.742  0.2803 -0.6713  0.1832
  513MPD2     H 7677   2.963   1.945  12.798 -0.3348 -2.1701 -2.3588
  513MPD2    H1 7678   2.690   2.266  12.758 -0.2475 -0.4904 -1.9198
  513MPD2    H2 7679   2.549   1.864  12.720  1.0774 -2.1762 -0.9638
  513MPD2    H3 7680   2.513   2.114  12.704 -0.1771 -1.5317  0.3911
  513MPD2     N 7681   2.956   2.189  12.828 -0.2518 -0.2544  0.5835
  513MPD2    H5 7682   3.039   2.136  12.853  0.3534  0.2725 -0.2643
  513MPD2    N1 7683   2.800   1.766  12.737  0.3925 -0.3975  0.1666
  513MPD2    H7 7684   2.897   1.740  12.754  1.6700  2.9642 -2.1472
  514TMC3    C1 7685   2.800   1.547  12.662  0.2928  0.6202 -0.5021
  514TMC3    C2 7686   2.823   1.518  12.533  0.1271 -0.3041  0.2681
  514TMC3    C3 7687   2.952   1.495  12.499  0.2784  0.2205  0.4307
  514TMC3    C4 7688   2.899   1.546  12.763 -0.4446  0.2790 -0.3602
  514TMC3    C5 7689   3.030   1.514  12.726  0.2976 -0.0880 -0.3788
  514TMC3    C6 7690   3.054   1.489  12.590  0.0631  0.7450 -0.0730
  514TMC3     C 7691   2.726   1.670  12.669 -0.3362  0.3526  0.3758
  514TMC3     O 7692   2.622   1.678  12.608 -0.0331  0.5675 -0.3044
  514TMC3     H 7693   2.755   1.536  12.451 -1.2684  0.4805  1.6288
  514TMC3    H1 7694   2.886   1.557  12.870  0.2015  1.4822 -0.4048
  514TMC3    H2 7695   3.155   1.461  12.563  0.4847  1.4745  0.7329
  514TMC3    C7 7696   3.127   1.605  12.784  0.0009  0.3544 -0.7806
  514TMC3    C8 7697   2.985   1.448  12.363 -0.3202  0.4953 -0.7294
  514TMC3    O1 7698   3.079   1.711  12.821 -0.1511  0.1807  0.2377
  514TMC3    O2 7699   2.901   1.384  12.303 -0.3219 -0.3241 -0.2710
  515MPD2     C 7700   1.394   3.929  14.818  0.6073 -0.5210  0.1984
  515MPD2    C1 7701   1.454   3.822  14.750 -0.6001 -0.3635  0.5794
  515MPD2    C2 7702   1.578   3.784  14.784  0.1880 -0.6137  0.2087
  515MPD2    C3 7703   1.645   3.853  14.887  0.8918  0.1723 -0.2829
  515MPD2    C4 7704   1.591   3.958  14.950 -0.0673 -0.1402 -0.1419
  515MPD2    C5 7705   1.465   3.999  14.914  0.7051 -0.2317 -0.2803
  515MPD2     H 7706   1.621   3.695  14.739 -0.6011 -1.6505  1.5258
  515MPD2    H1 7707   1.645   4.010  15.028  0.6153 -1.0048 -0.0457
  515MPD2    H2 7708   1.297   3.970  14.793  0.0787 -0.6668  1.9973
  515MPD2    H3 7709   1.409   4.080  14.959  0.1883 -1.6094  1.5631
  515MPD2     N 7710   1.782   3.831  14.916  0.0503 -1.2766  0.2867
  515MPD2    H5 7711   1.821   3.882  14.995 -1.0838 -0.9003  0.6069
  515MPD2    N1 7712   1.385   3.742  14.649  0.4682  0.5266  0.0250
  515MPD2    H7 7713   1.441   3.670  14.605  3.0477  0.8211  2.8464
  516TMC3    C1 7714   1.215   3.653  14.518 -0.5125 -0.0696  0.6256
  516TMC3    C2 7715   1.085   3.664  14.469 -0.0002 -0.0519  0.4694
  516TMC3    C3 7716   1.033   3.558  14.401  0.9131 -0.1993 -0.5875
  516TMC3    C4 7717   1.284   3.532  14.507  0.0816 -0.5750 -0.4212
  516TMC3    C5 7718   1.226   3.423  14.447  0.0771 -0.1567 -0.0282
  516TMC3    C6 7719   1.098   3.436  14.393 -0.0508  0.3502  0.5705
  516TMC3     C 7720   1.255   3.757  14.618  0.2569 -0.1594 -0.4872
  516TMC3     O 7721   1.169   3.839  14.645 -0.1659  0.0987 -0.3098
  516TMC3     H 7722   1.033   3.756  14.491  1.3514  0.6316  0.8300
  516TMC3    H1 7723   1.386   3.527  14.543  0.4906  0.3333 -1.4603
  516TMC3    H2 7724   1.049   3.355  14.339  0.5576 -0.1403  0.7604
  516TMC3    C7 7725   1.263   3.301  14.518  0.3442 -0.2276 -0.2754
  516TMC3    C8 7726   0.913   3.563  14.335 -0.4804 -0.2053 -0.0592
  516TMC3    O1 7727   1.352   3.310  14.603 -0.4196  1.0281  0.4828
  516TMC3    O2 7728   0.880   3.463  14.276 -0.5859  0.2771 -0.3999
  517MPD2     C 7729   1.741   0.382   0.545  0.7356  0.0590 -0.1429
  517MPD2    C1 7730   1.750   0.480   0.443  0.5470 -0.5269  0.1376
  517MPD2    C2 7731   1.731   0.613   0.478  0.5571 -0.5705  0.2266
  517MPD2    C3 7732   1.696   0.644   0.607  0.6840 -0.1525 -0.0412
  517MPD2    C4 7733   1.667   0.540   0.694 -0.0489 -0.3710 -0.3739
  517MPD2    C5 7734   1.697   0.412   0.669  0.1661  0.2374 -0.3791
  517MPD2     H 7735   1.748   0.697   0.412  0.9068  0.8774  2.1611
  517MPD2    H1 7736   1.638   0.550   0.798  0.3100  1.5711 -0.4561
  517MPD2    H2 7737   1.744   0.275   0.528 -0.6629 -0.1273  0.8284
  517MPD2    H3 7738   1.687   0.326   0.735  0.4162  1.5206  1.3218
  517MPD2     N 7739   1.701   0.778   0.665  0.3784 -0.0284  0.4885
  517MPD2    H5 7740   1.677   0.794   0.762  2.8778  0.9919  0.9465
  517MPD2    N1 7741   1.771   0.444   0.310  0.1101 -0.2349 -0.1462
  517MPD2    H7 7742   1.771   0.512   0.235 -1.6563 -0.1807 -0.1127
  518TMC3    C1 7743   1.823   0.306   0.128 -0.0979 -0.1338  0.1048
  518TMC3    C2 7744   1.783   0.183   0.085 -0.6720 -0.2759 -0.2872
  518TMC3    C3 7745   1.828   0.140  17.708  0.1540  0.0006 -0.1074
  518TMC3    C4 7746   1.906   0.380   0.050  0.0770 -0.2901  0.5028
  518TMC3    C5 7747   1.945   0.340  17.678  0.0504 -0.1745 -0.3689
  518TMC3    C6 7748   1.909   0.218  17.628  0.4924  0.2088  0.1800
  518TMC3     C 7749   1.827   0.326   0.269 -0.4817  0.1392  0.2191
  518TMC3     O 7750   1.875   0.227   0.323 -0.0564  0.1946  0.3566
  518TMC3     H 7751   1.715   0.131   0.151 -0.7859 -0.2185 -0.3606
  518TMC3    H1 7752   1.955   0.467   0.092  2.0157 -0.6099 -1.1137
  518TMC3    H2 7753   1.927   0.171  17.532 -0.2922 -1.5222  0.8809
  518TMC3    C7 7754   2.086   0.369  17.642 -0.3097 -0.4132 -0.0171
  518TMC3    C8 7755   1.834   4.734  17.675 -0.5198 -0.0490 -0.7286
  518TMC3    O1 7756   2.127   0.483  17.667  0.4331  0.2799 -0.5867
  518TMC3    O2 7757   1.894   4.693  17.577 -0.1881 -0.1072 -0.1451
  519MPD2     C 7758   2.882   3.452  14.563  0.1471  0.4786  0.6325
  519MPD2    C1 7759   2.837   3.410  14.438 -0.3024 -0.5471  0.2733
  519MPD2    C2 7760   2.872   3.279  14.403 -0.4707  0.0462  0.1786
  519MPD2    C3 7761   2.968   3.203  14.478  0.3697 -0.0613  0.2784
  519MPD2    C4 7762   3.012   3.253  14.598  0.3522 -0.2737 -0.8777
  519MPD2    C5 7763   2.964   3.371  14.639  0.5539 -0.9871 -0.4572
  519MPD2     H 7764   2.836   3.253  14.304  0.7535  0.3142 -0.3328
  519MPD2    H1 7765   3.080   3.195  14.659 -1.1179 -0.9511  0.1124
  519MPD2    H2 7766   2.847   3.548  14.600  0.3591  0.2500  1.4291
  519MPD2    H3 7767   2.995   3.406  14.737 -2.8391  1.1465 -0.1342
  519MPD2     N 7768   3.032   3.086  14.435  0.6525  1.4960 -0.3042
  519MPD2    H5 7769   3.117   3.063  14.486  1.2751  0.4537 -1.8038
  519MPD2    N1 7770   2.760   3.488  14.351  0.2803 -0.1052 -0.0783
  519MPD2    H7 7771   2.718   3.437  14.275 -0.3627 -0.7688  0.7209
  520TMC3    C1 7772   3.087   2.932  14.262 -0.4722  0.8251  0.3082
  520TMC3    C2 7773   3.071   2.937  14.124  0.2595 -0.2739 -0.0323
  520TMC3    C3 7774   3.176   2.954  14.045 -0.9988  0.2406  0.6355
  520TMC3    C4 7775   3.212   2.929  14.322 -0.1581 -0.4815 -0.3748
  520TMC3    C5 7776   3.312   2.918  14.229  0.3176  1.0027 -0.0847
  520TMC3    C6 7777   3.300   2.941  14.098  0.1730  0.4017  0.2658
  520TMC3     C 7778   2.984   3.014  14.328  0.2367 -0.3110  0.1315
  520TMC3     O 7779   2.870   2.998  14.292  0.3291 -0.3400 -0.5647
  520TMC3     H 7780   2.969   2.960  14.097 -0.1606 -0.8716  1.0101
  520TMC3    H1 7781   3.233   2.915  14.427 -2.5888  3.2690  0.6357
  520TMC3    H2 7782   3.380   2.952  14.025  0.4933 -0.9314  0.4223
  520TMC3    C7 7783   3.441   2.862  14.264  0.3046 -0.1752  0.1598
  520TMC3    C8 7784   3.172   2.973  13.900 -0.3444 -0.1904 -0.6877
  520TMC3    O1 7785   3.471   2.857  14.384  0.8397 -1.0080 -0.4213
  520TMC3    O2 7786   3.271   3.008  13.837  0.2766 -0.5415 -0.2584
  521MPD2     C 7787   4.234   1.513  17.305 -0.1222  0.6157 -0.6780
  521MPD2    C1 7788   4.200   1.497  17.173 -0.5939  0.4111 -0.0688
  521MPD2    C2 7789   4.295   1.528  17.073  0.1528 -0.1524  0.6441
  521MPD2    C3 7790   4.416   1.571  17.108  0.1861  0.2410  0.5905
  521MPD2    C4 7791   4.446   1.594  17.245  0.2649  0.4728  0.2740
  521MPD2    C5 7792   4.352   1.566  17.339 -0.3476  0.1659 -0.5064
  521MPD2     H 7793   4.262   1.519  16.970 -2.2923  1.6060  1.2382
  521MPD2    H1 7794   4.541   1.627  17.285  0.4564 -0.1476  0.3350
  521MPD2    H2 7795   4.157   1.507  17.381  0.2934 -1.5108 -0.4214
  521MPD2    H3 7796   4.383   1.573  17.443 -0.7370  1.3225 -0.4743
  521MPD2     N 7797   4.521   1.585  17.009 -0.4359 -0.3296  0.7719
  521MPD2    H5 7798   4.491   1.561  16.915  0.2549 -0.2154  0.5224
  521MPD2    N1 7799   4.062   1.473  17.141  0.3213  0.1482  0.8898
  521MPD2    H7 7800   3.999   1.460  17.219 -0.8737 -0.6893 -0.2177
  522TMC3    C1 7801   0.001   1.642  16.915 -0.9024  0.2598  0.3508
  522TMC3    C2 7802   0.136   1.658  16.940  0.6188  0.1997 -0.1622
  522TMC3    C3 7803   0.214   1.726  16.850 -0.1759  0.6226  0.0219
  522TMC3    C4 7804   4.688   1.696  16.802 -0.1114 -0.3987  0.3008
  522TMC3    C5 7805   0.030   1.764  16.711  0.2832  0.0238 -0.0298
  522TMC3    C6 7806   0.162   1.777  16.733 -0.1729  0.3823  0.1410
  522TMC3     C 7807   4.657   1.603  17.034 -0.3749  0.3956 -0.1088
  522TMC3     O 7808   4.707   1.656  17.133  0.4685  0.6395  0.2941
  522TMC3     H 7809   0.182   1.622  17.031 -0.7945 -3.0756 -0.7162
  522TMC3    H1 7810   4.581   1.706  16.790 -0.1836 -2.0607 -0.4540
  522TMC3    H2 7811   0.228   1.827  16.663 -1.4992  0.9495 -0.7037
  522TMC3    C7 7812   4.730   1.774  16.571 -0.4326  0.1641 -0.5335
  522TMC3    C8 7813   0.352   1.750  16.866  0.4207  0.8204  0.0726
  522TMC3    O1 7814   0.053   1.851  16.495 -0.0455  0.0739  0.5096
  522TMC3    O2 7815   0.396   1.852  16.821  0.0590 -0.3123 -0.5627
  523MPD2     C 7816   1.194   1.408  10.632  0.1017 -0.4014  0.1254
  523MPD2    C1 7817   1.111   1.327  10.559  0.0983 -0.0966  0.2076
  523MPD2    C2 7818   1.082   1.358  10.424 -0.5268  0.3136 -0.5826
  523MPD2    C3 7819   1.129   1.473  10.364  0.4901  0.1580  0.5184
  523MPD2    C4 7820   1.200   1.561  10.446  0.3129  0.4167  0.0444
  523MPD2    C5 7821   1.238   1.527  10.580  0.7565  0.0218  0.8683
  523MPD2     H 7822   1.036   1.286  10.357 -0.6239 -0.0751 -0.1025
  523MPD2    H1 7823   1.229   1.658  10.409 -0.7261  1.0378  0.8511
  523MPD2    H2 7824   1.209   1.379  10.735 -2.5381 -1.3032  0.2552
  523MPD2    H3 7825   1.301   1.593  10.639  0.6915 -0.3679  1.3658
  523MPD2     N 7826   1.121   1.505  10.226 -0.1018 -0.0820 -0.1660
  523MPD2    H5 7827   1.182   1.576  10.188  1.3965 -0.3144  1.8115
  523MPD2    N1 7828   1.078   1.201  10.617  0.0355 -0.8416  0.1985
  523MPD2    H7 7829   1.117   1.188  10.709  1.6156  3.0147  0.0506
  524TMC3    C1 7830   1.018   1.528  10.015  0.9078  0.4980  0.8818
  524TMC3    C2 7831   1.101   1.640   9.993  0.1345  0.9613 -0.2331
  524TMC3    C3 7832   1.063   1.720   9.886  0.3456 -0.1540 -0.0346
  524TMC3    C4 7833   0.904   1.507   9.943 -0.0194  0.2423  0.0634
  524TMC3    C5 7834   0.889   1.588   9.830 -0.2537 -0.3464  0.0250
  524TMC3    C6 7835   0.965   1.691   9.796 -0.1725  0.0047  0.3840
  524TMC3     C 7836   1.036   1.448  10.136 -0.8104 -0.2880  0.0535
  524TMC3     O 7837   0.962   1.354  10.150 -0.1402  0.0041 -0.0649
  524TMC3     H 7838   1.158   1.689  10.071 -0.5096  0.4554  0.5533
  524TMC3    H1 7839   0.836   1.424   9.959 -1.1582  1.0260 -0.6332
  524TMC3    H2 7840   0.936   1.737   9.703  0.5845  0.1540  0.2206
  524TMC3    C7 7841   0.769   1.573   9.753 -0.0989 -0.1320  0.2833
  524TMC3    C8 7842   1.178   1.800   9.838  0.1455  0.0448 -0.1140
  524TMC3    O1 7843   0.716   1.461   9.752 -0.5283  0.4564  0.3488
  524TMC3    O2 7844   1.289   1.785   9.888 -0.0793 -0.0955 -0.0501
  525MPD2     C 7845   4.397   2.483  14.705  0.0169  0.0384 -0.1563
  525MPD2    C1 7846   4.477   2.514  14.813 -0.5522 -0.4828  0.3341
  525MPD2    C2 7847   4.548   2.632  14.800 -0.2291 -0.1467 -0.3748
  525MPD2    C3 7848   4.555   2.704  14.681 -0.3176 -0.7378  0.7021
  525MPD2    C4 7849   4.472   2.671  14.581  0.1328  0.1562 -0.5337
  525MPD2    C5 7850   4.392   2.565  14.595 -1.0049  0.3284 -0.3331
  525MPD2     H 7851   4.589   2.670  14.892  4.0406 -0.9849 -1.9094
  525MPD2    H1 7852   4.465   2.730  14.490  2.5054  0.4820 -0.5016
  525MPD2    H2 7853   4.335   2.394  14.707  0.7103 -0.4549 -0.3024
  525MPD2    H3 7854   4.345   2.543  14.500 -1.8277 -1.6818  0.5410
  525MPD2     N 7855   4.634   2.819  14.672  0.2277  0.4907 -0.7073
  525MPD2    H5 7856   4.610   2.890  14.603  3.9289  2.0741 -0.3305
  525MPD2    N1 7857   4.474   2.439  14.936  0.6623 -0.2129 -0.5299
  525MPD2    H7 7858   4.535   2.478  15.007 -1.4868  2.0681  0.0775
  526TMC3    C1 7859   4.425   2.277  15.105  0.1410  0.7109 -0.4934
  526TMC3    C2 7860   4.316   2.230  15.173 -0.2168 -0.1137  0.6007
  526TMC3    C3 7861   4.347   2.179  15.290 -0.0926 -0.3177  0.5019
  526TMC3    C4 7862   4.558   2.245  15.132 -0.0868  0.2538  0.7339
  526TMC3    C5 7863   4.579   2.170  15.238  0.6689 -0.7866  0.1922
  526TMC3    C6 7864   4.474   2.141  15.325  0.3660  0.0126  0.7594
  526TMC3     C 7865   4.398   2.336  14.971  0.2265  0.7057  0.0809
  526TMC3     O 7866   4.302   2.282  14.917 -0.1167  0.0194 -0.3739
  526TMC3     H 7867   4.221   2.278  15.150  0.5998  0.9726 -0.4933
  526TMC3    H1 7868   4.635   2.285  15.068  1.9716 -0.9743  2.4676
  526TMC3    H2 7869   4.499   2.083  15.413 -1.4537  0.3255  1.4815
  526TMC3    C7 7870   4.713   2.125  15.277 -0.2651  0.4133 -0.8721
  526TMC3    C8 7871   4.269   2.254  15.391 -0.3848  0.5447  0.9676
  526TMC3    O1 7872   4.736   2.086  15.394 -0.2795 -0.2725  0.1628
  526TMC3    O2 7873   4.151   2.259  15.367 -0.5748 -0.4017 -0.5691
  527MPD2     C 7874   3.026   1.209   1.495 -0.2004 -0.7088  0.3579
  527MPD2    C1 7875   2.955   1.232   1.379  0.5825  0.1767  0.0452
  527MPD2    C2 7876   2.993   1.178   1.256  0.1331  0.6719 -0.3000
  527MPD2    C3 7877   3.114   1.117   1.246 -0.5391 -0.0145  0.2470
  527MPD2    C4 7878   3.182   1.090   1.365  0.2476  0.2243  0.2367
  527MPD2    C5 7879   3.134   1.126   1.493  0.3444  0.4030 -0.3714
  527MPD2     H 7880   2.936   1.183   1.164  0.4033 -3.2256 -0.6903
  527MPD2    H1 7881   3.278   1.039   1.363 -0.2069 -0.5911 -0.6997
  527MPD2    H2 7882   2.994   1.233   1.596  1.0097 -1.2433  0.8674
  527MPD2    H3 7883   3.189   1.097   1.582 -0.2004 -0.1349 -0.2102
  527MPD2     N 7884   3.150   1.068   1.115 -0.5154  0.0513  0.4157
  527MPD2    H5 7885   3.091   1.083   1.034  1.0696  1.4345 -0.4704
  527MPD2    N1 7886   2.826   1.283   1.380  0.4904  0.1358  0.0836
  527MPD2    H7 7887   2.773   1.266   1.295 -0.1656 -0.5956  0.6462
  528TMC3    C1 7888   2.623   1.336   1.450  0.1845  0.4388  0.7402
  528TMC3    C2 7889   2.598   1.326   1.308 -0.0808  0.6954 -0.3167
  528TMC3    C3 7890   2.473   1.288   1.273 -0.1260 -0.6995 -0.2003
  528TMC3    C4 7891   2.525   1.289   1.544  0.0187 -0.2351  0.6390
  528TMC3    C5 7892   2.403   1.255   1.500  0.3396 -0.2585  0.1311
  528TMC3    C6 7893   2.371   1.248   1.364  0.2325  0.7632  0.1858
  528TMC3     C 7894   2.758   1.319   1.493 -0.3698 -0.4271 -0.3850
  528TMC3     O 7895   2.783   1.338   1.613  0.1290  0.2749 -0.2251
  528TMC3     H 7896   2.660   1.380   1.236 -0.1854 -1.1633 -1.7865
  528TMC3    H1 7897   2.541   1.282   1.651 -1.1317 -0.3069  0.8053
  528TMC3    H2 7898   2.284   1.197   1.326 -0.7310  0.8993  2.1888
  528TMC3    C7 7899   2.290   1.280   1.586  0.4508  0.6364  0.3976
  528TMC3    C8 7900   2.458   1.280   1.131 -0.8647 -0.9423  0.0034
  528TMC3    O1 7901   2.317   1.288   1.707 -0.0845 -0.1551  0.5535
  528TMC3    O2 7902   2.560   1.285   1.065 -0.2783  0.1587  0.3981
  529MPD2     C 7903   1.282   4.463   0.473  0.1623 -0.0145 -0.2526
  529MPD2    C1 7904   1.289   4.331   0.423  0.5251 -0.3255 -0.0110
  529MPD2    C2 7905   1.283   4.303   0.287  0.2481 -0.1835 -0.3767
  529MPD2    C3 7906   1.301   4.410   0.194 -0.2208  0.4407 -0.3103
  529MPD2    C4 7907   1.293   4.538   0.241 -0.6631  0.1089 -0.0724
  529MPD2    C5 7908   1.279   4.566   0.375 -0.1622  0.8226 -0.2339
  529MPD2     H 7909   1.282   4.203   0.246 -2.8971  0.2175 -1.2774
  529MPD2    H1 7910   1.298   4.619   0.170  0.6081  1.5857  1.6968
  529MPD2    H2 7911   1.291   4.477   0.580 -0.8809 -1.0582 -0.0350
  529MPD2    H3 7912   1.289   4.668   0.410 -2.2088  0.2993  1.8434
  529MPD2     N 7913   1.302   4.396   0.051 -0.0946 -0.2935  0.0073
  529MPD2    H5 7914   1.323   4.472  17.735 -1.3381  0.1716  0.1432
  529MPD2    N1 7915   1.299   4.219   0.511  0.7568 -0.5556  0.4381
  529MPD2    H7 7916   1.307   4.130   0.463  0.5672 -0.6753  0.6317
  530TMC3    C1 7917   1.322   4.075   0.696  0.4553 -0.3835 -0.4916
  530TMC3    C2 7918   1.355   4.069   0.832 -0.2856 -0.3628  0.1905
  530TMC3    C3 7919   1.368   3.951   0.890  0.3280  0.6625  0.3752
  530TMC3    C4 7920   1.276   3.967   0.632 -0.7917 -0.8815 -0.2008
  530TMC3    C5 7921   1.273   3.846   0.698  0.1335  0.4562  0.0445
  530TMC3    C6 7922   1.321   3.835   0.826 -0.3260  0.1821 -0.5415
  530TMC3     C 7923   1.295   4.213   0.648 -0.3989  0.4214  0.3490
  530TMC3     O 7924   1.284   4.306   0.729 -0.5848 -0.0357 -0.2258
  530TMC3     H 7925   1.387   4.160   0.881 -0.4851 -0.8802  1.2615
  530TMC3    H1 7926   1.239   3.971   0.530  0.7502 -0.8757 -0.7563
  530TMC3    H2 7927   1.329   3.738   0.875 -0.2000 -0.0085 -0.9351
  530TMC3    C7 7928   1.206   3.736   0.629 -0.5346 -0.2377 -0.2415
  530TMC3    C8 7929   1.387   3.953   1.035  0.1580 -0.2374  0.2733
  530TMC3    O1 7930   1.206   3.728   0.509 -0.4949  0.2232  0.1312
  530TMC3    O2 7931   1.348   4.054   1.094  0.0656 -0.8250  0.1114
  531MPD2     C 7932   3.581   1.864  12.768  0.3834 -0.3055  0.1284
  531MPD2    C1 7933   3.449   1.904  12.779  0.7012  0.8169  0.1417
  531MPD2    C2 7934   3.348   1.813  12.779 -0.1787 -0.1517  0.4976
  531MPD2    C3 7935   3.369   1.678  12.766 -0.4856  0.3315  0.6486
  531MPD2    C4 7936   3.495   1.637  12.759 -0.6768  0.2233 -0.1981
  531MPD2    C5 7937   3.598   1.727  12.763  0.7605  1.0097 -0.6876
  531MPD2     H 7938   3.247   1.851  12.777 -0.2987 -0.5371 -1.0405
  531MPD2    H1 7939   3.530   1.534  12.757  0.5682  0.6126  2.0312
  531MPD2    H2 7940   3.665   1.931  12.761 -1.9384  2.4422 -1.2125
  531MPD2    H3 7941   3.700   1.689  12.762 -0.3295 -1.8743 -2.7008
  531MPD2     N 7942   3.259   1.580  12.760 -0.2200  0.2307  1.0432
  531MPD2    H5 7943   3.283   1.483  12.739 -0.2713  1.0640 -2.8300
  531MPD2    N1 7944   3.423   2.049  12.769 -0.2401 -0.1492  0.3274
  531MPD2    H7 7945   3.500   2.108  12.800 -0.3088  1.1691 -1.9266
  532TMC3    C1 7946   3.300   2.244  12.780  0.2737 -0.3058  0.3345
  532TMC3    C2 7947   3.179   2.296  12.749  0.1554  1.3166 -0.2060
  532TMC3    C3 7948   3.103   2.365  12.844 -0.1187 -0.3844 -0.7437
  532TMC3    C4 7949   3.349   2.258  12.904  0.1326  0.0282  0.3645
  532TMC3    C5 7950   3.272   2.325  13.000 -0.0089  0.0650  0.3514
  532TMC3    C6 7951   3.146   2.365  12.973 -0.2269  0.1560 -0.1988
  532TMC3     C 7952   3.299   2.105  12.744  0.0315 -0.1817 -0.2126
  532TMC3     O 7953   3.208   2.060  12.674  0.2376 -0.0455  0.0841
  532TMC3     H 7954   3.136   2.279  12.650 -0.8683  2.4327  0.0526
  532TMC3    H1 7955   3.453   2.237  12.925 -0.3032 -0.8296  1.6839
  532TMC3    H2 7956   3.086   2.417  13.047 -1.0890 -0.7939 -0.2254
  532TMC3    C7 7957   3.293   2.284  13.128  0.0109 -0.2774  0.3740
  532TMC3    C8 7958   2.967   2.326  12.831  0.2004 -0.9404 -0.0340
  532TMC3    O1 7959   3.257   2.348  13.228  0.6590 -0.2021  0.0611
  532TMC3    O2 7960   2.884   2.410  12.838 -0.2848 -0.0558 -0.4756
  533TMC3    C1 7961   0.064   2.969  14.742 -0.7438 -1.2229  0.3303
  533TMC3    C2 7962   4.734   3.072  14.683 -0.6086  0.3946  0.2252
  533TMC3    C3 7963   0.019   3.203  14.732 -0.6467  0.7519 -0.0047
  533TMC3    C4 7964   0.155   2.992  14.843 -0.1555  0.1853  0.7736
  533TMC3    C5 7965   0.167   3.115  14.898  0.3792  0.1725 -0.3231
  533TMC3    C6 7966   0.102   3.224  14.843 -0.2316 -0.4780 -0.5074
  533TMC3     C 7967   0.009   2.837  14.754  1.0404  0.5998 -0.0792
  533TMC3     O 7968   0.065   2.756  14.825  0.1806  0.1828  0.3815
  533TMC3     H 7969   4.656   3.053  14.611  0.2346 -0.5441 -0.4531
  533TMC3    H1 7970   0.210   2.914  14.896  1.5335  0.2560 -0.8539
  533TMC3    H2 7971   0.117   3.326  14.877 -1.8831  0.3445 -2.2230
  533TMC3    C7 7972   0.172   3.110  15.045 -0.1759  0.3330 -0.2297
  533TMC3    C8 7973   4.722   3.319  14.656 -0.4713  0.3197 -0.2709
  533TMC3    O1 7974   0.218   3.013  15.103 -0.6104 -0.6382 -0.1518
  533TMC3    O2 7975   4.722   3.423  14.718  0.0792  0.4047 -0.2105
  534MPD2     C 7976   3.271   0.044   1.126 -0.1249  0.4349  0.4939
  534MPD2    C1 7977   3.165   0.135   1.142  0.1406 -0.1790  0.2066
  534MPD2    C2 7978   3.032   0.095   1.138 -0.1220 -0.8605  0.4237
  534MPD2    C3 7979   3.003   4.699   1.119  0.4136  0.2084  0.1648
  534MPD2    C4 7980   3.108   4.610   1.122  0.2993 -0.1475  0.4166
  534MPD2    C5 7981   3.237   4.649   1.124  0.0179  0.0608 -0.9465
  534MPD2     H 7982   2.952   0.168   1.148  1.3426  0.7644  0.3172
  534MPD2    H1 7983   3.084   4.505   1.126 -0.9487  0.2214  2.5236
  534MPD2    H2 7984   3.377   0.066   1.135 -0.2763  2.3291 -2.2451
  534MPD2    H3 7985   3.313   4.573   1.136 -1.3497 -1.0902  0.5197
  534MPD2     N 7986   2.875   4.647   1.102  0.2756  0.5813 -0.7147
  534MPD2    H5 7987   2.870   4.546   1.105  0.2207  0.6800  2.1828
  534MPD2    N1 7988   3.183   0.274   1.142  0.4489 -0.2939  0.4187
  534MPD2    H7 7989   3.104   0.335   1.159 -0.3866 -0.6889 -2.0936
  535TMC3    C1 7990   2.643   4.624   1.102  0.3838 -0.3469  0.3245
  535TMC3    C2 7991   2.657   4.511   1.178  0.2350  0.4321  0.1083
  535TMC3    C3 7992   2.580   4.403   1.138  0.3622  0.1729  0.3930
  535TMC3    C4 7993   2.550   4.634   1.006 -0.4146  0.0933  0.3680
  535TMC3    C5 7994   2.488   4.519   0.957 -0.1007  0.4089  0.0992
  535TMC3    C6 7995   2.505   4.403   1.025 -0.4965  0.3464  0.7543
  535TMC3     C 7996   2.757   4.715   1.098 -0.3898  0.5401  0.3244
  535TMC3     O 7997   2.731   0.099   1.080  0.6560 -0.1392 -0.9137
  535TMC3     H 7998   2.719   4.511   1.266 -0.3508 -0.9022  0.5136
  535TMC3    H1 7999   2.558   4.726   0.948 -1.5374 -0.1107 -0.1257
  535TMC3    H2 8000   2.472   4.310   0.979  0.7354  0.8690 -1.2159
  535TMC3    C7 8001   2.466   4.500   0.816  0.2179  0.5873 -0.6889
  535TMC3    C8 8002   2.555   4.290   1.228  0.0036 -0.0773 -0.2323
  535TMC3    O1 8003   2.484   4.389   0.761  0.7419 -0.1989  0.3637
  535TMC3    O2 8004   2.507   4.190   1.174 -0.0810 -0.3417  0.0368
  536MPD2     C 8005   1.334   2.372  16.103 -0.0478  0.4909  0.4087
  536MPD2    C1 8006   1.228   2.414  16.176 -0.1193  0.2192  0.4290
  536MPD2    C2 8007   1.119   2.468  16.109  1.3225  0.1133  0.2216
  536MPD2    C3 8008   1.126   2.495  15.973 -0.5519  0.6521 -0.3480
  536MPD2    C4 8009   1.241   2.466  15.908 -0.3714  0.6465 -0.6380
  536MPD2    C5 8010   1.346   2.407  15.974 -0.2467  0.0864  0.7208
  536MPD2     H 8011   1.035   2.493  16.173  0.9937  0.2565 -0.2650
  536MPD2    H1 8012   1.260   2.506  15.809  4.1932  0.9704  0.3583
  536MPD2    H2 8013   1.417   2.324  16.152 -1.8997 -1.0701  2.0176
  536MPD2    H3 8014   1.446   2.383  15.940 -0.5569  0.7749 -0.6812
  536MPD2     N 8015   1.032   2.581  15.908  0.6520  0.1474 -0.4890
  536MPD2    H5 8016   1.062   2.616  15.818  0.2366  1.6462 -0.0464
  536MPD2    N1 8017   1.244   2.398  16.317 -0.0101  0.9854 -0.4789
  536MPD2    H7 8018   1.337   2.372  16.347 -0.7949 -1.4470 -0.0904
  537TMC3    C1 8019   1.202   2.414  16.542  0.5846  0.3231  0.5956
  537TMC3    C2 8020   1.325   2.476  16.554  0.3622  0.7173  0.1835
  537TMC3    C3 8021   1.398   2.448  16.666 -0.2058 -0.0197  0.2803
  537TMC3    C4 8022   1.146   2.330  16.642 -0.3791 -0.0494  0.5477
  537TMC3    C5 8023   1.228   2.307  16.752  0.8526  0.0587 -0.5395
  537TMC3    C6 8024   1.358   2.354  16.763 -0.4740 -0.1165  0.5574
  537TMC3     C 8025   1.142   2.414  16.407  0.0896  0.5794 -0.4152
  537TMC3     O 8026   1.021   2.406  16.393  0.6373  0.2068  0.0677
  537TMC3     H 8027   1.359   2.551  16.484 -0.5717 -0.8419 -1.9313
  537TMC3    H1 8028   1.050   2.280  16.635  0.0757 -1.0449  1.3616
  537TMC3    H2 8029   1.412   2.348  16.857 -0.4160  1.6778  0.6395
  537TMC3    C7 8030   1.188   2.201  16.841 -0.6866  0.4103 -0.0406
  537TMC3    C8 8031   1.528   2.517  16.684  0.2228  0.5608  0.1894
  537TMC3    O1 8032   1.074   2.171  16.822  0.1822  0.2688 -0.4642
  537TMC3    O2 8033   1.575   2.512  16.802 -0.0385  0.4388 -0.3007
  538TMC3    C1 8034   1.909   1.234  10.883  0.3997  0.1001  0.0229
  538TMC3    C2 8035   2.003   1.146  10.833  0.0017 -0.4907  0.6912
  538TMC3    C3 8036   1.953   1.033  10.783 -0.1654  0.3651 -0.0469
  538TMC3    C4 8037   1.776   1.207  10.878 -0.0144 -0.4760 -0.2793
  538TMC3    C5 8038   1.735   1.083  10.835  0.5589 -0.2097  0.2387
  538TMC3    C6 8039   1.823   0.994  10.786  0.7893 -0.5276  0.3419
  538TMC3     C 8040   1.941   1.283  11.017  0.1212 -0.1020  0.4735
  538TMC3     O 8041   1.837   1.302  11.081 -0.1683  0.5232 -0.2625
  538TMC3     H 8042   2.108   1.173  10.822  0.4418 -2.8096 -0.8541
  538TMC3    H1 8043   1.701   1.282  10.900  0.5107 -0.8928  2.8100
  538TMC3    H2 8044   1.782   0.911  10.731 -0.3316 -1.2849  2.3091
  538TMC3    C7 8045   1.640   1.032  10.929 -0.8913 -0.4709 -0.5087
  538TMC3    C8 8046   2.049   0.959  10.702  0.5481 -0.8227 -0.2547
  538TMC3    O1 8047   1.590   0.920  10.911  0.0517 -0.2299  0.1511
  538TMC3    O2 8048   2.154   1.022  10.680 -0.0939  0.2709 -0.2636
  539MPD2     C 8049   1.910   0.314  11.474  0.1818  0.3030 -0.1057
  539MPD2    C1 8050   1.844   0.217  11.539  0.2099 -0.4770  0.0771
  539MPD2    C2 8051   1.711   0.235  11.556  0.3181  0.6553 -0.1349
  539MPD2    C3 8052   1.650   0.350  11.512  0.1267  0.6491 -0.6544
  539MPD2    C4 8053   1.723   0.449  11.448  0.2909  0.2369  0.8652
  539MPD2    C5 8054   1.857   0.431  11.432  0.0902  0.1399  0.2437
  539MPD2     H 8055   1.653   0.154  11.599  1.8779 -0.3912 -0.0246
  539MPD2    H1 8056   1.682   0.544  11.414  3.1129  0.8372 -0.8814
  539MPD2    H2 8057   2.018   0.313  11.470  0.1598 -2.1257  0.1981
  539MPD2    H3 8058   1.915   0.502  11.375  0.0157 -0.6656 -0.8457
  539MPD2     N 8059   1.513   0.380  11.541  0.5895 -0.3529 -0.0429
  539MPD2    H5 8060   1.488   0.472  11.507  2.5411  0.9835  2.1304
  539MPD2    N1 8061   1.907   0.102  11.580 -0.0337  0.2056  0.5830
  539MPD2    H7 8062   1.849   0.022  11.604 -0.4440  0.7262  1.3355
  540TMC3    C1 8063   1.281   0.349  11.591  0.0430  0.2770 -0.3535
  540TMC3    C2 8064   1.223   0.387  11.476 -0.2417 -0.2897 -0.4507
  540TMC3    C3 8065   1.090   0.355  11.453 -0.0364 -0.3522  0.1673
  540TMC3    C4 8066   1.205   0.279  11.684  0.3560 -1.0620  0.7006
  540TMC3    C5 8067   1.074   0.258  11.671 -0.0139  0.2709 -0.3671
  540TMC3    C6 8068   1.019   0.292  11.551 -0.1897 -0.7262 -0.9151
  540TMC3     C 8069   1.415   0.297  11.589  0.5757 -0.6445  0.0229
  540TMC3     O 8070   1.430   0.186  11.638 -0.0513  0.1103 -0.2867
  540TMC3     H 8071   1.286   0.438  11.403  0.4747  1.8028  1.6087
  540TMC3    H1 8072   1.256   0.234  11.769  0.8307  0.5018  1.2356
  540TMC3    H2 8073   0.922   0.254  11.520 -0.9645  0.5232  0.0012
  540TMC3    C7 8074   0.985   0.217  11.780  0.0687 -0.2174  0.0928
  540TMC3    C8 8075   1.037   0.344  11.320 -0.0161 -0.2694  0.7109
  540TMC3    O1 8076   0.878   0.175  11.741 -0.2998  1.1986  0.1190
  540TMC3    O2 8077   0.917   0.358  11.311 -0.2245  0.3143  0.5438
  541MPD2     C 8078   0.548   1.644  13.096 -0.8975 -0.7555 -0.3905
  541MPD2    C1 8079   0.559   1.505  13.074  0.1121 -0.5279  0.0940
  541MPD2    C2 8080   0.490   1.450  12.967  0.3250 -0.4078  0.2121
  541MPD2    C3 8081   0.393   1.517  12.892  0.2588 -0.3981  0.0687
  541MPD2    C4 8082   0.368   1.647  12.928 -0.3020 -0.2816 -0.2095
  541MPD2    C5 8083   0.452   1.704  13.022 -0.1201 -0.1650  0.5038
  541MPD2     H 8084   0.507   1.344  12.954  3.6693  0.5300 -2.9205
  541MPD2    H1 8085   0.294   1.714  12.885 -1.7277 -0.7882  1.4391
  541MPD2    H2 8086   0.611   1.691  13.170  0.4530 -0.8451 -1.4707
  541MPD2    H3 8087   0.431   1.807  13.047  1.9982  0.5567 -0.6918
  541MPD2     N 8088   0.306   1.456  12.805 -1.0537 -0.0845  0.2237
  541MPD2    H5 8089   0.229   1.518  12.782  0.7492  1.1478 -2.4601
  541MPD2    N1 8090   0.630   1.417  13.165  0.3273 -0.2957 -0.0900
  541MPD2    H7 8091   0.631   1.317  13.149 -2.7283 -0.6817  2.0252
  542TMC3    C1 8092   0.201   1.286  12.691  0.1334 -0.4426  0.4820
  542TMC3    C2 8093   0.224   1.189  12.598  0.1033 -0.3219 -0.1068
  542TMC3    C3 8094   0.129   1.174  12.503  0.2791  0.0608 -0.0464
  542TMC3    C4 8095   0.089   1.364  12.695 -0.0425 -0.7029  0.0989
  542TMC3    C5 8096   0.009   1.353  12.588 -0.5801 -0.1548  0.4701
  542TMC3    C6 8097   0.020   1.254  12.496 -0.5983 -0.1370 -0.0015
  542TMC3     C 8098   0.319   1.330  12.762  0.2578 -0.1095 -0.3769
  542TMC3     O 8099   0.414   1.253  12.758 -0.2546  0.6209  0.2694
  542TMC3     H 8100   0.319   1.136  12.599  0.9439  1.1950  1.2186
  542TMC3    H1 8101   0.076   1.427  12.782  0.7715 -1.2087  0.5790
  542TMC3    H2 8102   4.681   1.236  12.421 -0.1343 -0.0974 -0.4828
  542TMC3    C7 8103   4.616   1.423  12.582 -0.3061  0.3838  0.1258
  542TMC3    C8 8104   0.144   1.081  12.388  0.1930  0.0628 -0.0269
  542TMC3    O1 8105   4.550   1.402  12.484  0.0550  0.0476  0.4404
  542TMC3    O2 8106   0.056   1.095  12.304  0.2681 -0.7442 -0.1704
  543TMC3    C1 8107   0.060   3.702  17.300  0.0774  0.0145  0.2257
  543TMC3    C2 8108   0.150   3.597  17.321 -0.2917 -0.0639 -0.5606
  543TMC3    C3 8109   0.130   3.513  17.427  0.5204  0.0266  0.3237
  543TMC3    C4 8110   4.697   3.736  17.388  0.1091 -0.5057  0.2139
  543TMC3    C5 8111   4.691   3.660  17.502  0.5319 -0.0627  1.1948
  543TMC3    C6 8112   0.030   3.542  17.515  0.7973 -0.3082 -0.0723
  543TMC3     C 8113   0.038   3.743  17.166 -0.6318 -0.5794  0.8437
  543TMC3     O 8114   4.665   3.778  17.120 -0.1181 -0.0780 -0.1369
  543TMC3     H 8115   0.219   3.563  17.244  0.6163  0.3155  0.0913
  543TMC3    H1 8116   4.633   3.819  17.361  0.0812 -0.3532  0.7453
  543TMC3    H2 8117   0.004   3.481  17.601 -0.3182 -1.8586 -1.5104
  543TMC3    C7 8118   4.601   3.698  17.602 -0.1322 -0.0672  0.6349
  543TMC3    C8 8119   0.164   3.379  17.407 -0.0314  0.0611 -0.1795
  543TMC3    O1 8120   4.569   3.612  17.684 -0.2443 -0.4125  0.6473
  543TMC3    O2 8121   0.200   3.351  17.292  0.7080 -0.4942  0.3838
  544MPD2     C 8122   0.226   2.892  17.557 -0.1306  0.8644  0.0828
  544MPD2    C1 8123   0.252   2.954  17.433  0.5002 -0.7837  0.6184
  544MPD2    C2 8124   0.227   3.091  17.415 -0.0542  0.6383 -0.9476
  544MPD2    C3 8125   0.182   3.162  17.528  0.0660  0.1324 -0.3831
  544MPD2    C4 8126   0.166   3.100  17.649  0.1845 -0.3331 -0.1381
  544MPD2    C5 8127   0.176   2.966  17.657  0.1053 -0.1032  0.2360
  544MPD2     H 8128   0.245   3.139  17.319  0.7741  1.1427 -0.5454
  544MPD2    H1 8129   0.144   3.155  17.739 -0.8968 -3.2043  1.3395
  544MPD2    H2 8130   0.232   2.784  17.566  0.8781  1.1685  3.0540
  544MPD2    H3 8131   0.152   2.923   0.006  1.1391  0.3920  0.7140
  544MPD2     N 8132   0.152   3.297  17.513  0.5487  0.0776  0.1998
  544MPD2    H5 8133   0.122   3.343  17.598 -0.2462  0.7490 -0.4424
  544MPD2    N1 8134   0.290   2.866  17.330 -0.0229 -0.2941  0.6399
  544MPD2    H7 8135   0.285   2.770  17.362  0.6165 -0.4219  0.3700
  545TMC3    C1 8136   0.367   2.788  17.108 -0.3738  0.2976 -0.6748
  545TMC3    C2 8137   0.423   2.819  16.988  0.7138 -0.2668 -0.2617
  545TMC3    C3 8138   0.468   2.720  16.901  1.2483 -0.9260 -0.0189
  545TMC3    C4 8139   0.339   2.659  17.129  0.0683  0.3219  0.0380
  545TMC3    C5 8140   0.393   2.568  17.045  0.2290 -0.3986  1.0124
  545TMC3    C6 8141   0.463   2.591  16.934 -0.6610  0.3406 -0.4016
  545TMC3     C 8142   0.339   2.898  17.202  0.1296 -0.4466  0.3262
  545TMC3     O 8143   0.353   3.012  17.157 -0.4505 -0.0718 -0.0318
  545TMC3     H 8144   0.450   2.924  16.976 -1.1047  0.2682  0.4664
  545TMC3    H1 8145   0.289   2.623  17.218 -2.0239  1.3419 -0.7048
  545TMC3    H2 8146   0.499   2.519  16.862 -1.5365 -0.9336  0.4372
  545TMC3    C7 8147   0.352   2.431  17.063  0.6003  0.7563 -0.0557
  545TMC3    C8 8148   0.569   2.776  16.820  0.1744  0.5506  0.1155
  545TMC3    O1 8149   0.234   2.406  17.084  0.1517  0.2561  0.2287
  545TMC3    O2 8150   0.672   2.721  16.804  0.3632  0.5961  1.1387
  546MPD2     C 8151   1.761   3.430  16.920  0.0526  0.3476  0.5064
  546MPD2    C1 8152   1.734   3.416  17.052  0.1927  0.0401  0.1604
  546MPD2    C2 8153   1.794   3.497  17.141  0.7283 -0.2598  0.5847
  546MPD2    C3 8154   1.875   3.599  17.100  0.7147  0.4211  1.0032
  546MPD2    C4 8155   1.917   3.603  16.968 -0.4604  0.4656  0.0041
  546MPD2    C5 8156   1.861   3.514  16.875 -0.7949  0.7352 -0.8095
  546MPD2     H 8157   1.762   3.494  17.244  1.0885 -3.3177  0.5953
  546MPD2    H1 8158   1.989   3.678  16.937  0.0726  0.3924  1.0962
  546MPD2    H2 8159   1.712   3.367  16.846  0.1634  1.6252 -0.6619
  546MPD2    H3 8160   1.900   3.528  16.776  0.9992  1.4244  0.0014
  546MPD2     N 8161   1.930   3.704  17.184  0.3248 -0.1275  0.2200
  546MPD2    H5 8162   1.998   3.762  17.137 -1.6435 -1.0828 -3.8212
  546MPD2    N1 8163   1.640   3.314  17.094 -0.3384  0.1636  0.5389
  546MPD2    H7 8164   1.594   3.248  17.031 -0.1070 -1.0285  1.6065
  547TMC3    C1 8165   1.502   3.200  17.233 -0.4731  0.2132 -0.2913
  547TMC3    C2 8166   1.422   3.200  17.124 -0.3884 -0.1344  0.0395
  547TMC3    C3 8167   1.312   3.119  17.122 -0.0851 -0.1215 -0.3585
  547TMC3    C4 8168   1.490   3.121  17.338  0.5603  0.2258  0.0964
  547TMC3    C5 8169   1.379   3.030  17.326  0.6238 -0.9484  0.3188
  547TMC3    C6 8170   1.293   3.029  17.221 -0.2297  0.2420 -0.7178
  547TMC3     C 8171   1.620   3.274  17.221 -0.8044 -0.8410  0.6248
  547TMC3     O 8172   1.677   3.294  17.327  0.2333 -0.4102  0.4731
  547TMC3     H 8173   1.413   3.290  17.065 -1.9539 -0.3634 -0.0742
  547TMC3    H1 8174   1.571   3.112  17.409  1.5335 -2.9025 -1.4066
  547TMC3    H2 8175   1.207   2.963  17.219  1.6081 -2.1453 -0.5459
  547TMC3    C7 8176   1.358   2.946  17.443 -0.3437  0.5085  0.2341
  547TMC3    C8 8177   1.188   3.159  17.042 -0.0539  0.1559 -0.2418
  547TMC3    O1 8178   1.387   2.986  17.555 -0.5032 -0.6369  0.2933
  547TMC3    O2 8179   1.207   3.241  16.950 -0.1364 -0.4170 -0.6806
  548MPD2     C 8180   0.828   3.297  12.504 -0.5192 -0.6423  0.2163
  548MPD2    C1 8181   0.796   3.200  12.598 -0.1054 -0.4938 -0.0964
  548MPD2    C2 8182   0.899   3.124  12.654 -0.5127 -0.0686  0.4555
  548MPD2    C3 8183   1.030   3.150  12.623 -0.3922 -0.5573  0.0441
  548MPD2    C4 8184   1.054   3.253  12.539 -0.7550 -0.1212 -0.3412
  548MPD2    C5 8185   0.954   3.333  12.480 -0.5727 -0.1676 -0.5353
  548MPD2     H 8186   0.879   3.049  12.730 -1.8909 -0.5643 -0.3984
  548MPD2    H1 8187   1.154   3.288  12.517 -0.2469 -0.6917  1.0506
  548MPD2    H2 8188   0.750   3.352  12.453  1.1080  2.8578  1.4775
  548MPD2    H3 8189   0.978   3.428  12.433  2.1127 -0.2521  0.6447
  548MPD2     N 8190   1.134   3.077  12.682  0.3545  0.0068 -0.0616
  548MPD2    H5 8191   1.103   2.985  12.713  0.2460  0.4858  1.1990
  548MPD2    N1 8192   0.662   3.182  12.620 -0.1487  0.3826 -0.6130
  548MPD2    H7 8193   0.593   3.239  12.573  2.8696  1.3854 -3.7827
  549TMC3    C1 8194   0.475   3.117  12.749  0.0042  0.1944  0.3696
  549TMC3    C2 8195   0.412   3.227  12.694  0.4301 -0.1398  0.8025
  549TMC3    C3 8196   0.281   3.236  12.697 -0.3965 -0.2345 -0.3014
  549TMC3    C4 8197   0.396   3.004  12.784  0.4365  0.2736  0.5246
  549TMC3    C5 8198   0.263   3.018  12.769  0.1377  0.5714  0.4722
  549TMC3    C6 8199   0.202   3.127  12.723 -0.5134  0.7520  0.0934
  549TMC3     C 8200   0.614   3.091  12.715  0.1937 -0.3421  0.3037
  549TMC3     O 8201   0.660   2.993  12.767 -0.0738  0.0982 -0.0272
  549TMC3     H 8202   0.468   3.313  12.660  1.7351 -1.4594 -0.3877
  549TMC3    H1 8203   0.444   2.925  12.840  0.6226 -1.0709 -1.5284
  549TMC3    H2 8204   0.094   3.137  12.724 -0.5473  0.4562 -0.4283
  549TMC3    C7 8205   0.176   2.909  12.808  0.6883 -0.0317  0.2925
  549TMC3    C8 8206   0.227   3.371  12.662  0.5858  0.6279  0.1629
  549TMC3    O1 8207   0.054   2.923  12.806  0.2721 -0.1953  0.4163
  549TMC3    O2 8208   0.270   3.465  12.724 -0.3159 -0.1778  0.0261
  550TMC3    C1 8209   4.378   1.239  12.832  0.3801  0.2013 -0.1339
  550TMC3    C2 8210   4.314   1.308  12.939  0.5632 -0.0498 -0.9057
  550TMC3    C3 8211   4.193   1.371  12.906  0.0716  0.1763 -0.1744
  550TMC3    C4 8212   4.336   1.254  12.707 -1.1947  0.3235 -0.2252
  550TMC3    C5 8213   4.221   1.331  12.676  0.2305  0.0285  1.1507
  550TMC3    C6 8214   4.149   1.387  12.780 -0.2298 -0.2831  0.0403
  550TMC3     C 8215   4.509   1.186  12.865  0.0978  0.0973 -0.0464
  550TMC3     O 8216   4.567   1.241  12.955  0.1729 -0.0040  0.5883
  550TMC3     H 8217   4.343   1.288  13.041 -2.4146 -0.0617 -0.0567
  550TMC3    H1 8218   4.392   1.210  12.626 -0.5284  1.1783 -0.2248
  550TMC3    H2 8219   4.065   1.452  12.760 -1.7033 -2.1054  0.3121
  550TMC3    C7 8220   4.184   1.364  12.536 -0.6628 -0.1154 -0.7358
  550TMC3    C8 8221   4.116   1.430  13.014 -0.0616  0.5551  0.1434
  550TMC3    O1 8222   4.069   1.406  12.519  0.2094  0.1945  0.4623
  550TMC3    O2 8223   4.168   1.482  13.113  0.2504  0.1163  0.1098
  551TMC3    C1 8224   2.098   4.072  13.450  0.1932 -0.2275  0.4588
  551TMC3    C2 8225   2.166   4.134  13.352  0.2266  0.2536 -0.3485
  551TMC3    C3 8226   2.219   4.259  13.382  0.3242 -0.3400 -0.2608
  551TMC3    C4 8227   2.089   4.127  13.573 -0.2770  0.7011 -0.6940
  551TMC3    C5 8228   2.140   4.254  13.600  0.3793 -0.4660  0.2095
  551TMC3    C6 8229   2.212   4.320  13.502  0.4180  0.3033  0.3309
  551TMC3     C 8230   2.005   3.966  13.415 -0.5850 -0.8319 -0.1600
  551TMC3     O 8231   1.900   3.941  13.475  0.3447  0.2843  0.2508
  551TMC3     H 8232   2.160   4.106  13.247 -0.9147 -2.9181  0.5678
  551TMC3    H1 8233   2.028   4.074  13.645  1.3784  0.4796  0.5281
  551TMC3    H2 8234   2.265   4.411  13.529  0.4650  0.6583 -0.9532
  551TMC3    C7 8235   2.139   4.315  13.728  0.3785 -0.6461  0.5000
  551TMC3    C8 8236   2.284   4.324  13.267 -0.0414 -0.0724  0.0449
  551TMC3    O1 8237   2.121   4.240  13.825  0.0414 -0.3301  0.3321
  551TMC3    O2 8238   2.353   4.243  13.205 -0.3357 -0.5255 -0.1725
  552MPD2     C 8239   3.726   0.952  14.441  0.3143 -0.0204  0.9259
  552MPD2    C1 8240   3.834   0.975  14.358  0.2067 -0.1003 -0.4820
  552MPD2    C2 8241   3.941   1.044  14.413 -0.4178 -0.0232  0.3436
  552MPD2    C3 8242   3.944   1.093  14.548 -0.3916 -0.2431 -0.4825
  552MPD2    C4 8243   3.828   1.090  14.620 -0.2493  0.1546  0.5831
  552MPD2    C5 8244   3.721   1.025  14.562  0.7124 -0.5871  0.1498
  552MPD2     H 8245   4.026   1.070  14.350 -1.9405  2.6005 -0.6455
  552MPD2    H1 8246   3.817   1.141  14.715 -1.2611 -0.8558  1.0028
  552MPD2    H2 8247   3.639   0.894  14.411  0.8212 -0.6257  0.6239
  552MPD2    H3 8248   3.629   1.015  14.619  0.5109 -2.3825 -0.5112
  552MPD2     N 8249   4.060   1.141  14.613 -0.4665  0.4637  0.3686
  552MPD2    H5 8250   4.044   1.158  14.712 -0.0801 -0.2137  0.5465
  552MPD2    N1 8251   3.835   0.926  14.223 -0.8662  0.5528 -0.2538
  552MPD2    H7 8252   3.908   0.960  14.162  0.8762 -0.9470  0.9793
  553TMC3    C1 8253   3.765   0.831  14.017 -0.0688  0.5835  0.2590
  553TMC3    C2 8254   3.665   0.837  13.924 -0.3170 -0.1144 -0.2082
  553TMC3    C3 8255   3.706   0.832  13.791 -0.7315 -0.8167 -0.6749
  553TMC3    C4 8256   3.894   0.819  13.974 -1.1345  0.2528  0.0873
  553TMC3    C5 8257   3.933   0.820  13.839  0.5836  1.0062 -0.1050
  553TMC3    C6 8258   3.832   0.819  13.751 -0.0173 -0.2452  0.2666
  553TMC3     C 8259   3.734   0.852  14.163 -0.3693  0.0260 -0.3764
  553TMC3     O 8260   3.635   0.796  14.207 -0.2135 -0.1814 -0.1763
  553TMC3     H 8261   3.560   0.841  13.954  0.0120 -2.4541  1.2437
  553TMC3    H1 8262   3.977   0.811  14.043 -0.9300  1.0984 -0.0560
  553TMC3    H2 8263   3.853   0.803  13.646 -3.8687  2.4991 -0.8880
  553TMC3    C7 8264   4.052   0.747  13.805 -0.2425 -0.6565  0.0335
  553TMC3    C8 8265   3.611   0.873  13.689 -0.1956 -0.8887 -0.3075
  553TMC3    O1 8266   4.051   0.683  13.704  0.2834  0.0226  0.2627
  553TMC3    O2 8267   3.646   0.940  13.593  0.1086  0.1273 -0.7754
  554TMC3    C1 8268   0.365   4.546  11.678  0.3728  0.4987  0.2767
  554TMC3    C2 8269   0.287   4.573  11.570  0.1476 -0.1522  0.1634
  554TMC3    C3 8270   0.291   4.702  11.519  0.1976 -0.1988 -0.6643
  554TMC3    C4 8271   0.448   4.638  11.733 -0.0320  0.2662 -0.8844
  554TMC3    C5 8272   0.438   0.034  11.696  0.6633 -0.3563 -0.3757
  554TMC3    C6 8273   0.365   0.064  11.586  0.3999  0.7325 -0.9745
  554TMC3     C 8274   0.355   4.411  11.743 -0.1004  0.3655  0.2857
  554TMC3     O 8275   0.259   4.340  11.714  0.7630 -0.0216 -0.8174
  554TMC3     H 8276   0.230   4.496  11.520  0.3553 -0.2376  0.0549
  554TMC3    H1 8277   0.507   4.613  11.820 -1.1233  2.0326  0.3689
  554TMC3    H2 8278   0.356   0.168  11.556 -1.1359  1.0929  0.7369
  554TMC3    C7 8279   0.512   0.129  11.770 -0.5776  0.3680  0.3161
  554TMC3    C8 8280   0.246   4.731  11.387  0.3064 -0.3403  0.2278
  554TMC3    O1 8281   0.557   0.109  11.882  0.8814 -0.3450  0.1788
  554TMC3    O2 8282   0.306   0.088  11.335  0.1554 -0.5800  0.0064
  555TMC3    C1 8283   0.230   4.719  15.069  0.3170  0.9320 -0.8908
  555TMC3    C2 8284   0.132   0.060  15.125 -0.0577  0.2417 -0.0644
  555TMC3    C3 8285   0.070   0.022  15.243  0.1728 -0.6527  1.0761
  555TMC3    C4 8286   0.270   4.603  15.132 -0.5724 -0.4381  0.2405
  555TMC3    C5 8287   0.198   4.559  15.245  0.3189  0.0037 -0.8783
  555TMC3    C6 8288   0.101   4.638  15.302  0.7672 -0.0005 -0.4731
  555TMC3     C 8289   0.317   0.046  14.983 -0.1643  0.4146 -0.2975
  555TMC3     O 8290   0.437   0.022  14.992 -0.4070 -0.0784 -0.4050
  555TMC3     H 8291   0.106   0.159  15.091  1.7734  1.7657  3.0142
  555TMC3    H1 8292   0.351   4.546  15.088 -1.5275 -0.3929 -1.5901
  555TMC3    H2 8293   0.046   4.603  15.388  0.3446 -0.4926 -0.9393
  555TMC3    C7 8294   0.243   4.455  15.334 -0.4397  0.4625 -0.2560
  555TMC3    C8 8295   4.727   0.128  15.314  0.4065 -0.7402  0.2102
  555TMC3    O1 8296   0.169   4.418  15.425  0.5052  0.5609 -0.0042
  555TMC3    O2 8297   4.689   0.234  15.253  0.0909  0.1473 -0.2069
  556MPD2     C 8298   3.074   1.504  10.565 -0.6593  0.0475 -0.1518
  556MPD2    C1 8299   2.984   1.434  10.637  0.1820 -0.3238  0.2010
  556MPD2    C2 8300   2.916   1.329  10.583 -0.5574 -0.6358  0.7876
  556MPD2    C3 8301   2.936   1.298  10.450  0.2993  0.1407  0.2596
  556MPD2    C4 8302   3.029   1.365  10.377  0.1980 -0.0513 -0.0681
  556MPD2    C5 8303   3.093   1.471  10.435  0.2540 -0.7591 -0.8334
  556MPD2     H 8304   2.840   1.277  10.640 -0.0259  0.8250  2.8192
  556MPD2    H1 8305   3.054   1.345  10.273 -1.2539  0.5881 -0.5348
  556MPD2    H2 8306   3.128   1.589  10.605  0.3157 -0.9124  0.5852
  556MPD2    H3 8307   3.162   1.524  10.370 -1.5711  0.5244 -1.7354
  556MPD2     N 8308   2.858   1.198  10.389 -1.1671  0.0669  0.2825
  556MPD2    H5 8309   2.799   1.151  10.457 -0.6741 -1.0437 -0.0476
  556MPD2    N1 8310   2.962   1.475  10.770  0.5967 -0.4899 -0.0683
  556MPD2    H7 8311   2.925   1.409  10.838 -1.1041 -0.2118 -0.6987
  557TMC3    C1 8312   2.731   1.082  10.224 -0.1439 -0.3896  0.8100
  557TMC3    C2 8313   2.722   1.056  10.093 -0.3579 -0.0469  0.4276
  557TMC3    C3 8314   2.614   0.983  10.051 -0.4101 -0.2644  0.7276
  557TMC3    C4 8315   2.639   1.039  10.321 -0.0629 -0.1485  0.0309
  557TMC3    C5 8316   2.534   0.964  10.271 -0.8997  0.2637  0.3181
  557TMC3    C6 8317   2.519   0.936  10.136  0.6169  0.7795  0.2060
  557TMC3     C 8318   2.849   1.166  10.255 -0.4810  0.0238  0.2635
  557TMC3     O 8319   2.908   1.218  10.157 -0.3069 -0.2332 -0.6521
  557TMC3     H 8320   2.788   1.094  10.016 -1.0380  0.6826  0.1982
  557TMC3    H1 8321   2.631   1.081  10.421 -1.6095 -2.6978  0.9808
  557TMC3    H2 8322   2.425   0.893  10.102  0.7744 -1.3525  2.4009
  557TMC3    C7 8323   2.444   0.905  10.370  0.0604 -0.1234  0.0233
  557TMC3    C8 8324   2.580   0.987   9.911  0.0230 -0.1237 -0.1300
  557TMC3    O1 8325   2.486   0.927  10.483 -0.6757  0.0274  0.1695
  557TMC3    O2 8326   2.624   1.083   9.845 -0.0565  0.7965  0.0844
  558TMC3    C1 8327   0.265   4.108  10.703 -0.6654  0.2732 -0.2367
  558TMC3    C2 8328   0.160   4.089  10.788 -0.1211 -0.2419 -0.0349
  558TMC3    C3 8329   0.033   4.123  10.742  0.0735 -0.7957 -1.1777
  558TMC3    C4 8330   0.247   4.163  10.572  0.1404  0.1534  0.0991
  558TMC3    C5 8331   0.124   4.199  10.533 -0.6190 -0.2610 -0.8819
  558TMC3    C6 8332   0.017   4.174  10.611 -0.0545 -0.5715  0.0177
  558TMC3     C 8333   0.392   4.066  10.749 -0.1798 -0.1102  1.0071
  558TMC3     O 8334   0.396   3.979  10.836  0.0858  0.1854  0.3861
  558TMC3     H 8335   0.176   4.032  10.879  1.3191  1.0651  0.5366
  558TMC3    H1 8336   0.327   4.164  10.499 -0.2787 -1.1018 -0.3813
  558TMC3    H2 8337   4.663   4.230  10.592 -0.7909 -1.4336  1.0278
  558TMC3    C7 8338   0.109   4.221  10.390 -0.1465 -0.6364 -0.3356
  558TMC3    C8 8339   4.662   4.133  10.831 -0.4386 -0.0978  0.9657
  558TMC3    O1 8340   0.206   4.266  10.330 -0.1234  0.5555 -0.8566
  558TMC3    O2 8341   4.550   4.166  10.792 -0.9852 -0.5848  0.2249
  559MPD2     C 8342   0.268   4.541  10.682  0.5328 -0.8482  0.1057
  559MPD2    C1 8343   0.193   4.494  10.788  0.0695  0.0241  0.2596
  559MPD2    C2 8344   0.253   4.426  10.891  0.2622 -0.7397  0.3399
  559MPD2    C3 8345   0.391   4.418  10.895 -0.1781 -0.4301  0.0215
  559MPD2    C4 8346   0.466   4.472  10.792 -0.0626 -0.0152 -0.7351
  559MPD2    C5 8347   0.403   4.532  10.682 -0.2898  0.0174 -0.4946
  559MPD2     H 8348   0.201   4.379  10.974 -1.2392  0.9046  0.3246
  559MPD2    H1 8349   0.574   4.472  10.792 -0.0640  2.8431 -1.2559
  559MPD2    H2 8350   0.219   4.591  10.599  1.7643  1.1896  0.6025
  559MPD2    H3 8351   0.472   4.572  10.609  0.0301  0.1015 -0.1484
  559MPD2     N 8352   0.454   4.349  11.000  0.0590  0.4681  0.3812
  559MPD2    H5 8353   0.400   4.280  11.051 -0.6825  0.0506 -0.9815
  559MPD2    N1 8354   0.055   4.514  10.777  0.6084 -0.5359  0.1271
  559MPD2    H7 8355   0.014   4.558  10.695 -1.2849  1.3907  2.1228
  560TMC3    C1 8356   0.648   4.254  11.104 -0.8329 -0.1958  0.3614
  560TMC3    C2 8357   0.590   4.126  11.104  0.1054 -0.1546  0.2366
  560TMC3    C3 8358   0.654   4.030  11.179 -0.4181  0.6874 -0.1563
  560TMC3    C4 8359   0.774   4.275  11.165  0.1781 -0.8036  0.1526
  560TMC3    C5 8360   0.831   4.168  11.241  0.0148  0.2102 -0.2401
  560TMC3    C6 8361   0.773   4.046  11.244  0.0889 -0.2094 -0.4212
  560TMC3     C 8362   0.596   4.353  11.016 -0.8968  0.1147 -0.8698
  560TMC3     O 8363   0.669   4.452  11.004  0.1054  0.0535  0.6658
  560TMC3     H 8364   0.489   4.109  11.069  0.2577  0.4904 -0.5009
  560TMC3    H1 8365   0.820   4.373  11.154 -0.1187 -0.8479 -1.4464
  560TMC3    H2 8366   0.821   3.952  11.269  0.3591  0.4852  1.6239
  560TMC3    C7 8367   0.971   4.167  11.294 -0.3305  0.2304  0.7100
  560TMC3    C8 8368   0.581   3.904  11.204 -0.0455  0.4703  0.4033
  560TMC3    O1 8369   1.007   4.075  11.364 -0.4369 -0.2600 -0.0182
  560TMC3    O2 8370   0.630   3.824  11.287 -0.0255  0.7963 -0.1398
  561TMC3    C1 8371   2.940   3.974  11.600 -0.8632 -0.0183  0.0746
  561TMC3    C2 8372   2.865   3.908  11.694  0.1214 -0.1314  0.2349
  561TMC3    C3 8373   2.785   3.976  11.777  0.4981  0.7868 -0.2830
  561TMC3    C4 8374   2.938   4.111  11.589 -0.0479 -0.0503 -0.1764
  561TMC3    C5 8375   2.848   4.178  11.668 -0.6810  0.3568  1.1344
  561TMC3    C6 8376   2.762   4.112  11.758  0.5021  0.5972 -0.8784
  561TMC3     C 8377   3.058   3.903  11.544 -0.3066 -0.4605 -0.5187
  561TMC3     O 8378   3.103   3.811  11.618  0.3684  0.0257  0.0263
  561TMC3     H 8379   2.881   3.801  11.697 -1.0277 -0.3127 -0.1400
  561TMC3    H1 8380   2.996   4.168  11.517 -0.2018  1.1539  0.6354
  561TMC3    H2 8381   2.690   4.170  11.814  1.5575  2.5783 -1.5623
  561TMC3    C7 8382   2.818   4.318  11.652 -0.3326 -1.1035 -0.6912
  561TMC3    C8 8383   2.692   3.899  11.861 -0.5455  0.0066 -0.4109
  561TMC3    O1 8384   2.722   4.361  11.711 -0.0460 -0.7255 -0.0302
  561TMC3    O2 8385   2.688   3.781  11.841  0.3020  0.5124 -0.1216
  562TMC3    C1 8386   0.042   0.442  16.625 -0.2860  0.4657  0.0903
  562TMC3    C2 8387   4.686   0.463  16.536 -0.0512 -0.6800  0.0808
  562TMC3    C3 8388   4.621   0.349  16.494  0.7048 -0.5994 -0.0491
  562TMC3    C4 8389   0.102   0.319  16.658 -0.5640 -0.2005 -0.3369
  562TMC3    C5 8390   0.040   0.212  16.608 -0.5861  0.2726  0.4440
  562TMC3    C6 8391   4.661   0.224  16.533 -0.6063 -0.2558 -0.0526
  562TMC3     C 8392   0.082   0.551  16.704  0.1312 -0.1609  0.7371
  562TMC3     O 8393   0.131   0.529  16.813  0.4984  0.0040  0.1139
  562TMC3     H 8394   4.637   0.559  16.521  0.3978 -0.5116 -0.3302
  562TMC3    H1 8395   0.180   0.312  16.733 -1.2597  1.1481  0.5149
  562TMC3    H2 8396   4.616   0.130  16.504 -0.4384 -0.0180 -1.0981
  562TMC3    C7 8397   0.115   0.085  16.593  0.4180 -0.3741 -0.7571
  562TMC3    C8 8398   4.488   0.364  16.440 -0.3225  0.0515  0.5643
  562TMC3    O1 8399   0.050   4.725  16.551  0.5161 -0.1351 -0.0563
  562TMC3    O2 8400   4.411   0.272  16.469  0.3800  0.3009  1.0783
  563MPD2     C 8401   2.379   1.778  15.877 -0.5044  0.7726 -0.2527
  563MPD2    C1 8402   2.443   1.789  16.001 -0.0169 -0.2091  0.4324
  563MPD2    C2 8403   2.575   1.746  16.008  0.2208  0.3288 -0.4953
  563MPD2    C3 8404   2.631   1.668  15.910 -0.2783 -0.4305 -0.0907
  563MPD2    C4 8405   2.567   1.656  15.791  0.1593  0.1038  0.5662
  563MPD2    C5 8406   2.439   1.714  15.773  0.3557  0.8505 -0.0370
  563MPD2     H 8407   2.631   1.770  16.097  1.2692 -1.7362 -0.5986
  563MPD2    H1 8408   2.613   1.623  15.699  1.1544  0.1236  1.0630
  563MPD2    H2 8409   2.283   1.828  15.864  0.3225  2.3992  0.0065
  563MPD2    H3 8410   2.389   1.709  15.676 -0.1446  1.2113  0.1987
  563MPD2     N 8411   2.759   1.621  15.928  0.4762  0.6705 -0.2459
  563MPD2    H5 8412   2.813   1.665  16.002  0.9667 -1.4037  0.6367
  563MPD2    N1 8413   2.377   1.851  16.114 -0.1230 -0.0800  0.2471
  563MPD2    H7 8414   2.434   1.850  16.198  1.6600  0.4566 -0.9655
  564TMC3    C1 8415   2.196   1.825  16.256 -0.0222 -0.4295  1.2971
  564TMC3    C2 8416   2.070   1.770  16.246 -1.1646 -1.0099 -0.1088
  564TMC3    C3 8417   2.058   1.638  16.284  0.4841  0.3029 -0.2678
  564TMC3    C4 8418   2.296   1.770  16.331  0.2844 -0.5865 -0.5264
  564TMC3    C5 8419   2.277   1.641  16.378  0.0464 -0.2795  0.0136
  564TMC3    C6 8420   2.159   1.580  16.359 -0.4118 -1.2025  0.3568
  564TMC3     C 8421   2.240   1.873  16.123 -0.0704  0.3039  0.1990
  564TMC3     O 8422   2.145   1.896  16.051 -0.0795  0.1114 -0.2901
  564TMC3     H 8423   1.989   1.801  16.181 -2.1786  1.4550  2.3361
  564TMC3    H1 8424   2.388   1.824  16.349  1.3287 -2.8091  0.9146
  564TMC3    H2 8425   2.142   1.475  16.383 -1.0495 -0.9062  1.1912
  564TMC3    C7 8426   2.393   1.562  16.359  0.4410 -0.2489 -0.6349
  564TMC3    C8 8427   2.027   1.536  16.183  0.1759 -0.0141 -0.6509
  564TMC3    O1 8428   2.496   1.600  16.411  0.0938 -0.3965 -0.2933
  564TMC3    O2 8429   1.999   1.424  16.222  0.3238  0.5054 -0.2056
  565TMC3    C1 8430   2.059   2.949  10.214  0.1490 -0.9859  0.1996
  565TMC3    C2 8431   2.076   2.865  10.320 -0.4802  0.2269 -0.6060
  565TMC3    C3 8432   2.015   2.746  10.305 -0.7319  0.2791  0.3017
  565TMC3    C4 8433   1.986   2.918  10.096 -0.6237 -0.5374 -0.1148
  565TMC3    C5 8434   1.923   2.796  10.105  0.1213  0.6688 -0.1006
  565TMC3    C6 8435   1.951   2.692  10.193  0.5900  0.1690 -0.2773
  565TMC3     C 8436   2.147   3.063  10.200 -0.0610  0.4002  0.0731
  565TMC3     O 8437   2.127   3.130  10.101 -0.0269 -0.5371 -0.3843
  565TMC3     H 8438   2.127   2.897  10.410 -0.8701 -2.0035  0.4145
  565TMC3    H1 8439   1.948   2.997  10.033 -1.1856 -0.5414  0.2121
  565TMC3    H2 8440   1.885   2.607  10.199  0.5509  0.1636 -0.7820
  565TMC3    C7 8441   1.820   2.785  10.004 -0.7753  0.5245 -0.0265
  565TMC3    C8 8442   2.052   2.653  10.407  0.1380 -0.3258 -0.0883
  565TMC3    O1 8443   1.833   2.823   9.892 -0.1537  0.0293 -0.6413
  565TMC3    O2 8444   2.065   2.704  10.517 -0.3209 -0.5597 -0.4650
  566MPD2     C 8445   4.325   4.451  14.469 -0.6601  0.4766 -0.1041
  566MPD2    C1 8446   4.406   4.543  14.396 -0.0125 -0.0687  0.1532
  566MPD2    C2 8447   4.350   4.586  14.270  0.6407  0.1156  0.8494
  566MPD2    C3 8448   4.222   4.552  14.233  1.3173  0.1647 -0.2053
  566MPD2    C4 8449   4.148   4.466  14.315  0.2342  0.8713 -0.1910
  566MPD2    C5 8450   4.196   4.428  14.435 -0.3242 -0.5405 -0.1517
  566MPD2     H 8451   4.413   4.649  14.207 -0.7153 -1.9358 -2.5729
  566MPD2    H1 8452   4.045   4.444  14.287 -0.3081  2.5406  0.4922
  566MPD2    H2 8453   4.353   4.411  14.566  0.8984 -0.2654 -0.8541
  566MPD2    H3 8454   4.128   4.363  14.490 -1.9661  2.1090  0.9131
  566MPD2     N 8455   4.167   4.592  14.113  0.1007  0.6659  0.2516
  566MPD2    H5 8456   4.078   4.561  14.074  1.2730  0.6156 -2.3795
  566MPD2    N1 8457   4.535   4.577  14.440  0.4584  0.2275  0.3798
  566MPD2    H7 8458   4.577   4.516  14.509 -1.9823  1.3037  2.8196
  567TMC3    C1 8459   0.007   4.681  14.420 -0.3344  0.6352 -0.8685
  567TMC3    C2 8460   0.076   4.731  14.320  0.7817 -0.4164  0.0801
  567TMC3    C3 8461   0.211   0.003  14.335  0.1070  0.0600 -0.3153
  567TMC3    C4 8462   0.062   4.625  14.525 -0.2975  0.1281 -0.3118
  567TMC3    C5 8463   0.197   4.638  14.541  0.3561  0.2222 -0.2637
  567TMC3    C6 8464   0.273   4.692  14.445  0.6636  0.1295 -0.2029
  567TMC3     C 8465   4.594   4.692  14.409 -0.0750  0.9438 -0.0745
  567TMC3     O 8466   4.557   0.045  14.335  0.5191 -0.1695  0.2045
  567TMC3     H 8467   0.026   0.028  14.229 -0.5672  0.4184  1.1382
  567TMC3    H1 8468   4.737   4.589  14.606 -0.2577 -0.1642 -0.4119
  567TMC3    H2 8469   0.378   4.711  14.469  0.5200  2.3507 -1.3164
  567TMC3    C7 8470   0.265   4.562  14.650 -1.1054  0.2092 -0.1487
  567TMC3    C8 8471   0.271   0.057  14.215 -0.2817  0.5254 -0.5875
  567TMC3    O1 8472   0.381   4.597  14.670  0.0980  0.1982  0.4075
  567TMC3    O2 8473   0.197   0.105  14.135 -0.8389  0.0976  0.4156
  568MPD2     C 8474   1.869   0.168  16.083 -0.6946  0.1418  0.4067
  568MPD2    C1 8475   1.903   0.237  16.196  0.2431  0.3645  0.3184
  568MPD2    C2 8476   1.941   0.369  16.185  0.1660 -0.2031  0.0292
  568MPD2    C3 8477   1.930   0.434  16.064  0.6611  0.5314  0.1400
  568MPD2    C4 8478   1.877   0.371  15.957 -0.0108  0.0710 -0.1553
  568MPD2    C5 8479   1.856   0.233  15.965  1.0126 -0.9306  0.0314
  568MPD2     H 8480   1.994   0.409  16.271 -1.3024  1.6188  0.0761
  568MPD2    H1 8481   1.868   0.409  15.856 -0.8582 -0.1213 -0.1541
  568MPD2    H2 8482   1.863   0.060  16.090  1.2026  0.0461  0.6488
  568MPD2    H3 8483   1.836   0.181  15.873 -0.1510  0.5367 -0.5550
  568MPD2     N 8484   1.982   0.570  16.062  0.5405 -0.9455  0.3466
  568MPD2    H5 8485   2.015   0.603  16.152  1.6000 -2.1311  0.3840
  568MPD2    N1 8486   1.925   0.158  16.310 -0.0940  0.4858 -0.1196
  568MPD2    H7 8487   1.912   0.057  16.302  1.1480  0.3747 -0.7124
  569TMC3    C1 8488   2.081   0.773  15.977 -0.6755 -0.3678 -0.0989
  569TMC3    C2 8489   2.088   0.815  16.106 -0.1822 -0.4724 -0.3121
  569TMC3    C3 8490   2.192   0.891  16.142 -0.4171 -0.2601 -0.3353
  569TMC3    C4 8491   2.168   0.815  15.879 -0.7481 -0.3544  0.0882
  569TMC3    C5 8492   2.265   0.909  15.914 -0.3378  0.0400  0.1137
  569TMC3    C6 8493   2.280   0.941  16.051 -0.0990  0.2056  0.1421
  569TMC3     C 8494   2.010   0.642  15.946  0.6440 -0.5055  0.3716
  569TMC3     O 8495   2.014   0.597  15.834 -0.2070 -0.3590  0.0292
  569TMC3     H 8496   1.999   0.807  16.167 -0.8405 -1.6595 -1.4045
  569TMC3    H1 8497   2.158   0.777  15.778 -0.4646 -0.0769 -0.0456
  569TMC3    H2 8498   2.363   1.001  16.087 -1.2048  1.6090  0.3703
  569TMC3    C7 8499   2.258   1.029  15.837 -0.5367 -0.4435  0.2139
  569TMC3    C8 8500   2.180   0.945  16.275  0.0290  0.0472 -0.6568
  569TMC3    O1 8501   2.233   1.006  15.716  0.0548 -0.2639 -0.3674
  569TMC3    O2 8502   2.078   0.914  16.340 -0.4778  0.7301 -0.5237
  570TMC3    C1 8503   1.408   4.132  16.197  1.0112 -0.5460  0.3218
  570TMC3    C2 8504   1.431   4.185  16.073 -1.1499  0.6464 -0.2560
  570TMC3    C3 8505   1.454   4.321  16.064  0.1297  0.2679 -0.3807
  570TMC3    C4 8506   1.424   4.204  16.311 -0.2034 -0.2182  0.4690
  570TMC3    C5 8507   1.452   4.337  16.294 -0.0583  0.1795 -0.1272
  570TMC3    C6 8508   1.472   4.401  16.170  0.0600  0.4682 -0.6709
  570TMC3     C 8509   1.362   3.992  16.212 -0.3853 -0.2946 -0.3601
  570TMC3     O 8510   1.276   3.953  16.135 -0.4459  0.8120  0.6854
  570TMC3     H 8511   1.432   4.109  15.995 -1.6737  1.6460 -1.2466
  570TMC3    H1 8512   1.408   4.166  16.411  3.3361 -3.0781 -0.0447
  570TMC3    H2 8513   1.479   4.509  16.166 -2.1315  0.7305  2.3307
  570TMC3    C7 8514   1.437   4.433  16.403 -0.5081  0.0744 -0.4482
  570TMC3    C8 8515   1.487   4.378  15.937  0.0214 -0.6388 -0.5137
  570TMC3    O1 8516   1.508   4.533  16.395 -0.1779 -0.0404  0.1167
  570TMC3    O2 8517   1.543   4.489  15.940 -0.3392 -0.3408  0.2776
  571MPD2     C 8518   0.166   1.347  17.233 -0.4141 -0.0976  0.3548
  571MPD2    C1 8519   0.077   1.334  17.340 -0.5018  0.1737  0.2888
  571MPD2    C2 8520   0.087   1.411  17.453 -0.7809 -0.8444  0.2436
  571MPD2    C3 8521   0.188   1.499  17.464  0.1738 -0.1245  0.1573
  571MPD2    C4 8522   0.275   1.512  17.360  0.3510  0.5416  0.5532
  571MPD2    C5 8523   0.263   1.441  17.247 -0.4645 -0.2613 -0.5224
  571MPD2     H 8524   0.010   1.408  17.530  1.4605 -0.4191  2.5246
  571MPD2    H1 8525   0.365   1.572  17.373  1.5760 -1.2087  0.1308
  571MPD2    H2 8526   0.153   1.294  17.139 -0.5462 -2.6974  1.8357
  571MPD2    H3 8527   0.339   1.449  17.170 -0.5210  0.1848 -0.5309
  571MPD2     N 8528   0.204   1.582  17.578 -0.1618 -0.1034  0.1555
  571MPD2    H5 8529   0.267   1.662  17.576  0.2543 -0.3512  2.5238
  571MPD2    N1 8530   4.707   1.244  17.309  0.1019  0.1721  0.1447
  571MPD2    H7 8531   4.703   1.193  17.222 -1.2263  0.3507  0.0994
  572TMC3    C1 8532   0.172   1.661   0.043 -0.4410 -0.5038 -0.5169
  572TMC3    C2 8533   0.127   1.630   0.169  0.0739  0.3467 -0.3588
  572TMC3    C3 8534   0.136   1.727   0.263 -0.0243  0.1195 -0.4213
  572TMC3    C4 8535   0.196   1.790  17.746  0.2432  0.3117 -0.7754
  572TMC3    C5 8536   0.202   1.881   0.103 -0.0345  0.1375  0.2697
  572TMC3    C6 8537   0.179   1.853   0.235 -0.1795 -0.2886  0.2000
  572TMC3     C 8538   0.159   1.549  17.700  0.6818  0.0813 -0.3638
  572TMC3     O 8539   0.119   1.442   0.002 -0.0655 -0.2491  0.2299
  572TMC3     H 8540   0.110   1.526   0.193  2.5481  0.0461  0.1070
  572TMC3    H1 8541   0.203   1.808  17.640  3.0380 -2.1851 -1.0127
  572TMC3    H2 8542   0.177   1.937   0.303  0.1001 -0.0868 -0.0419
  572TMC3    C7 8543   0.243   2.013   0.070  0.3371 -0.2484 -0.1729
  572TMC3    C8 8544   0.082   1.698   0.388 -0.0073  0.7304 -0.2630
  572TMC3    O1 8545   0.244   2.101   0.159 -0.0394 -0.1978  0.5623
  572TMC3    O2 8546   0.116   1.765   0.486 -0.5786 -0.3933  0.1088
  573MPD2     C 8547   0.839   1.401   0.284 -0.0182 -0.1125  0.8306
  573MPD2    C1 8548   0.848   1.530   0.306  0.4684 -0.2455  0.2194
  573MPD2    C2 8549   0.871   1.613   0.195 -0.8568 -0.4525 -0.4655
  573MPD2    C3 8550   0.893   1.555   0.067 -0.4899 -0.3556  0.2651
  573MPD2    C4 8551   0.874   1.419   0.046  0.2417  0.1307 -0.2958
  573MPD2    C5 8552   0.846   1.341   0.157 -0.2368 -0.2499  0.5301
  573MPD2     H 8553   0.884   1.719   0.215 -0.2476 -0.4770 -0.7624
  573MPD2    H1 8554   0.881   1.374  17.696  0.7201  1.6826 -0.9805
  573MPD2    H2 8555   0.817   1.326   0.360 -0.5352  0.0356  0.8297
  573MPD2    H3 8556   0.843   1.234   0.143 -1.1752 -0.0309 -1.0263
  573MPD2     N 8557   0.927   1.629  17.705  0.2115 -0.3483 -0.0658
  573MPD2    H5 8558   0.930   1.589  17.611 -0.0078  1.7973 -0.9978
  573MPD2    N1 8559   0.834   1.581   0.435  0.4967 -0.3175 -0.0459
  573MPD2    H7 8560   0.813   1.515   0.510  3.6239 -3.0073 -1.5387
  574TMC3    C1 8561   0.947   1.821  17.575 -0.2522 -0.1080  0.1972
  574TMC3    C2 8562   0.860   1.775  17.478  0.0326 -0.4664 -1.4869
  574TMC3    C3 8563   0.854   1.844  17.354  0.2469  0.6163  0.8794
  574TMC3    C4 8564   1.019   1.937  17.552 -0.5977 -0.6487 -0.2859
  574TMC3    C5 8565   1.020   1.994  17.426 -0.0963  0.8688 -0.0771
  574TMC3    C6 8566   0.936   1.952  17.329 -0.4649  0.4006  0.4129
  574TMC3     C 8567   0.952   1.762  17.711 -0.0815 -0.1155 -0.9958
  574TMC3     O 8568   0.989   1.831   0.055  0.6436 -0.1468  0.6471
  574TMC3     H 8569   0.791   1.694  17.499  1.9885 -2.5284 -3.0386
  574TMC3    H1 8570   1.072   1.973  17.639  0.5350 -1.1628 -0.7589
  574TMC3    H2 8571   0.929   1.997  17.231 -2.8075  3.5588  2.0305
  574TMC3    C7 8572   1.118   2.105  17.406 -0.3247 -0.2844  0.3447
  574TMC3    C8 8573   0.716   1.857  17.306  0.1750  0.4279 -0.3363
  574TMC3    O1 8574   1.202   2.122  17.491 -0.1491 -0.2707  0.4437
  574TMC3    O2 8575   0.631   1.770  17.335 -0.1784 -0.3647 -0.3336
  575TMC3    C1 8576   2.357   2.486  11.188  0.4218  0.1555  0.5593
  575TMC3    C2 8577   2.399   2.361  11.234  0.7108 -0.4089 -0.6379
  575TMC3    C3 8578   2.352   2.254  11.165 -0.0213  0.1928  0.2508
  575TMC3    C4 8579   2.275   2.497  11.076 -0.5957 -0.3800 -0.4209
  575TMC3    C5 8580   2.244   2.383  11.000  0.5339  0.4389  0.0584
  575TMC3    C6 8581   2.282   2.262  11.040  0.9462  1.1011 -0.3791
  575TMC3     C 8582   2.389   2.603  11.268 -1.0437 -0.2843  0.8576
  575TMC3     O 8583   2.393   2.714  11.207 -0.2365 -0.3076  0.3698
  575TMC3     H 8584   2.481   2.349  11.304  2.3382 -2.2882 -2.8803
  575TMC3    H1 8585   2.247   2.597  11.044  0.7157  0.2908  0.5251
  575TMC3    H2 8586   2.249   2.176  10.984  0.7745  0.6266  0.4575
  575TMC3    C7 8587   2.198   2.403  10.861  0.2332  0.2251  0.3252
  575TMC3    C8 8588   2.387   2.123  11.217 -0.2202  0.5378  0.4114
  575TMC3    O1 8589   2.151   2.514  10.844  0.0034  0.7326 -0.2438
  575TMC3    O2 8590   2.469   2.122  11.307  0.4220  0.0130  0.3094
  576MPD2     C 8591   1.927   4.141  13.123 -0.1321  0.4894  0.0675
  576MPD2    C1 8592   1.981   4.260  13.071  0.9005 -0.4712 -0.3446
  576MPD2    C2 8593   1.931   4.380  13.120  0.1058 -0.3842 -0.3252
  576MPD2    C3 8594   1.839   4.384  13.223 -0.4716  0.3127  0.0418
  576MPD2    C4 8595   1.793   4.270  13.280  0.0022  0.3119  0.4185
  576MPD2    C5 8596   1.831   4.149  13.226  0.4990  0.0479 -0.1058
  576MPD2     H 8597   1.964   4.473  13.075 -1.3674 -0.6580 -1.9647
  576MPD2    H1 8598   1.722   4.271  13.363 -3.5917  1.1652 -2.6674
  576MPD2    H2 8599   1.963   4.048  13.081 -0.5356  1.4597 -2.4185
  576MPD2    H3 8600   1.798   4.056  13.270 -0.8879  0.0746 -1.0896
  576MPD2     N 8601   1.794   4.512  13.261 -0.5796 -0.6109  0.2102
  576MPD2    H5 8602   1.829   4.589  13.203  0.2305 -0.4780  0.8727
  576MPD2    N1 8603   2.074   4.261  12.959 -0.1729 -0.6446 -1.2209
  576MPD2    H7 8604   2.107   4.353  12.934 -0.7162 -0.2777 -0.5795
  577TMC3    C1 8605   2.226   4.188  12.792 -0.6981  0.5641 -0.0590
  577TMC3    C2 8606   2.294   4.084  12.726  0.0156 -0.2871 -0.4879
  577TMC3    C3 8607   2.348   4.111  12.601 -1.0762  0.7954  0.0853
  577TMC3    C4 8608   2.222   4.315  12.733 -0.0364  0.4076  0.4505
  577TMC3    C5 8609   2.281   4.333  12.613  0.3739 -0.8518  0.0242
  577TMC3    C6 8610   2.346   4.235  12.543 -0.2844  0.3499 -0.1507
  577TMC3     C 8611   2.132   4.152  12.895 -0.3896 -0.9694 -0.2262
  577TMC3     O 8612   2.136   4.035  12.937 -0.8628 -0.6220 -0.1272
  577TMC3     H 8613   2.298   3.983  12.766  0.9450 -0.0188  0.1049
  577TMC3    H1 8614   2.166   4.396  12.778 -0.2395  0.5411 -0.0429
  577TMC3    H2 8615   2.399   4.260  12.452  0.4681  0.7460  0.3953
  577TMC3    C7 8616   2.257   4.458  12.546  0.5060 -0.2255 -0.0584
  577TMC3    C8 8617   2.369   4.002  12.511 -0.2381 -0.0685  0.1944
  577TMC3    O1 8618   2.222   4.551  12.617 -0.1895 -0.5736 -0.4431
  577TMC3    O2 8619   2.330   3.892  12.546  0.4077  0.0498  0.3939
  578MPD2     C 8620   1.453   4.413   1.124 -0.7863 -0.0259  0.6404
  578MPD2    C1 8621   1.554   4.355   1.045  0.4749 -0.0922  0.2893
  578MPD2    C2 8622   1.638   4.272   1.119 -0.0765  0.4096 -0.6493
  578MPD2    C3 8623   1.627   4.257   1.257  0.3877 -0.0805  0.7033
  578MPD2    C4 8624   1.535   4.326   1.328 -0.6619  0.1970 -0.5164
  578MPD2    C5 8625   1.457   4.408   1.258 -0.5389  0.2374 -0.3372
  578MPD2     H 8626   1.711   4.209   1.070 -0.2486 -0.9893  0.9042
  578MPD2    H1 8627   1.522   4.314   1.435 -0.8379  0.6691 -0.4882
  578MPD2    H2 8628   1.380   4.473   1.069  1.6381  2.7735  0.4733
  578MPD2    H3 8629   1.378   4.458   1.314 -1.6912 -1.7184 -0.2237
  578MPD2     N 8630   1.719   4.165   1.319 -0.2485 -0.1332  0.0982
  578MPD2    H5 8631   1.786   4.112   1.265  1.3984  1.6082  0.4458
  578MPD2    N1 8632   1.572   4.373   0.909 -0.8214 -0.5073 -1.0361
  578MPD2    H7 8633   1.525   4.454   0.870  1.6310  1.2213 -0.4039
  579TMC3    C1 8634   1.836   4.042   1.483  0.5496 -0.8676  0.4185
  579TMC3    C2 8635   1.927   4.061   1.583  0.3246  0.2106 -0.6488
  579TMC3    C3 8636   2.032   3.977   1.573 -0.4220 -0.7945 -0.8516
  579TMC3    C4 8637   1.840   3.938   1.392 -0.2899 -0.6655  0.8213
  579TMC3    C5 8638   1.948   3.858   1.390 -0.3745 -0.0863 -0.3317
  579TMC3    C6 8639   2.045   3.880   1.488 -0.2754 -0.1508  0.2699
  579TMC3     C 8640   1.728   4.140   1.457  0.0620 -0.4273 -0.4797
  579TMC3     O 8641   1.678   4.189   1.559 -0.0371 -0.6184  0.3377
  579TMC3     H 8642   1.940   4.158   1.629  0.3892 -0.1140  0.0094
  579TMC3    H1 8643   1.753   3.914   1.331 -0.2122 -1.7016  1.1149
  579TMC3    H2 8644   2.141   3.836   1.468 -0.1475  0.7060 -1.0478
  579TMC3    C7 8645   1.936   3.724   1.330  1.1481 -0.4252 -0.4113
  579TMC3    C8 8646   2.154   4.030   1.634  0.2232  0.5901  0.6191
  579TMC3    O1 8647   1.990   3.631   1.386 -0.8288 -0.1940  0.0996
  579TMC3    O2 8648   2.133   4.105   1.729 -0.3047  0.1554  0.8901
  580TMC3    C1 8649   0.616   3.152  12.210 -0.1074  0.0863 -0.3060
  580TMC3    C2 8650   0.672   3.165  12.082 -0.7675  0.3542  0.7195
  580TMC3    C3 8651   0.709   3.053  12.013  0.3953 -0.1883  1.3661
  580TMC3    C4 8652   0.601   3.028  12.275 -0.6931  0.2697 -0.2779
  580TMC3    C5 8653   0.637   2.920  12.194  0.0032 -0.7287 -0.3492
  580TMC3    C6 8654   0.691   2.931  12.074 -0.1914 -0.1496  0.0802
  580TMC3     C 8655   0.503   3.238  12.239  0.1362  0.3209 -0.1764
  580TMC3     O 8656   0.410   3.185  12.297  0.3578 -0.3103  0.0862
  580TMC3     H 8657   0.689   3.264  12.041  0.9227 -0.6483 -1.0099
  580TMC3    H1 8658   0.549   3.013  12.368 -1.1036  1.3371 -0.3443
  580TMC3    H2 8659   0.726   2.837  12.033 -2.0639 -1.0709  0.5544
  580TMC3    C7 8660   0.614   2.786  12.251 -0.1255 -0.1762  0.4700
  580TMC3    C8 8661   0.733   3.080  11.869 -0.5214 -0.3264 -0.7782
  580TMC3    O1 8662   0.637   2.771  12.370  0.0056 -0.5318 -0.0406
  580TMC3    O2 8663   0.748   3.196  11.828  0.2079  0.5966  0.1667
  581MPD2     C 8664   3.120   2.591  14.948  0.0047  0.0657 -1.1711
  581MPD2    C1 8665   3.026   2.602  15.042  0.0277 -0.2578 -0.1501
  581MPD2    C2 8666   2.946   2.715  15.041  0.4591 -0.1854  0.3238
  581MPD2    C3 8667   2.957   2.807  14.940  0.1494 -0.1889 -0.0662
  581MPD2    C4 8668   3.065   2.806  14.856 -0.6718  1.0839  0.2198
  581MPD2    C5 8669   3.148   2.695  14.862  0.1595  0.3958  0.3529
  581MPD2     H 8670   2.863   2.725  15.111  0.9095 -3.1286  1.2801
  581MPD2    H1 8671   3.079   2.875  14.774 -1.6645 -1.4490 -2.1015
  581MPD2    H2 8672   3.190   2.509  14.957  1.5412  1.3791 -0.9410
  581MPD2    H3 8673   3.238   2.685  14.802 -0.2860 -0.9889 -0.0782
  581MPD2     N 8674   2.862   2.907  14.936  0.0404  0.2809 -0.2485
  581MPD2    H5 8675   2.778   2.890  14.990  0.4481 -0.0278  0.2940
  581MPD2    N1 8676   3.009   2.489  15.129  0.7631  0.5151 -0.2509
  581MPD2    H7 8677   3.084   2.421  15.131  1.8587  1.6956 -1.3945
  582TMC3    C1 8678   2.926   2.361  15.315 -0.2824  0.0533 -0.2927
  582TMC3    C2 8679   3.047   2.331  15.376 -0.1180 -0.2374  0.1348
  582TMC3    C3 8680   3.046   2.255  15.496 -0.1510 -0.0871 -0.8880
  582TMC3    C4 8681   2.806   2.317  15.361 -0.0608 -0.3478 -0.1464
  582TMC3    C5 8682   2.807   2.246  15.475  0.0388  0.4215  0.0961
  582TMC3    C6 8683   2.920   2.217  15.540 -0.3421  0.2365 -0.7723
  582TMC3     C 8684   2.908   2.473  15.225 -0.0132 -0.3028 -0.5908
  582TMC3     O 8685   2.797   2.525  15.230  0.3664  0.2252  0.8808
  582TMC3     H 8686   3.142   2.372  15.343 -1.1812  0.7566 -1.6991
  582TMC3    H1 8687   2.719   2.333  15.298 -0.6102  0.3403  0.7756
  582TMC3    H2 8688   2.917   2.152  15.627  3.9807  1.0920  0.0272
  582TMC3    C7 8689   2.699   2.279  15.561  0.5565  0.0346 -0.0030
  582TMC3    C8 8690   3.128   2.323  15.600  0.2303  0.3209 -0.1347
  582TMC3    O1 8691   2.675   2.217  15.667 -0.4024  0.2015  0.1288
  582TMC3    O2 8692   3.070   2.345  15.704 -0.0527 -0.5118  0.0027
  583MPD2     C 8693   3.105   4.437  16.568 -0.4081  0.0723  0.2798
  583MPD2    C1 8694   3.219   4.513  16.571 -0.8300  0.2560 -0.1613
  583MPD2    C2 8695   3.206   4.636  16.624  0.7793 -0.1250  0.4750
  583MPD2    C3 8696   3.089   4.682  16.681  0.2467  0.2604  0.4918
  583MPD2    C4 8697   2.980   4.600  16.688 -0.2085  0.1453 -0.1129
  583MPD2    C5 8698   2.989   4.478  16.633 -0.1773  0.0729 -0.8081
  583MPD2     H 8699   3.293   4.701  16.631  2.1291 -1.5756 -2.5247
  583MPD2    H1 8700   2.886   4.644  16.720  0.4333  0.7917  0.8967
  583MPD2    H2 8701   3.110   4.331  16.546 -0.2674  0.3088 -0.8380
  583MPD2    H3 8702   2.897   4.420  16.639  0.2475 -0.1539  3.6383
  583MPD2     N 8703   3.095   0.074  16.747  0.0627 -0.1466 -0.0090
  583MPD2    H5 8704   3.180   0.130  16.734 -0.2563  0.6103  1.2125
  583MPD2    N1 8705   3.348   4.471  16.522 -0.0862 -0.7807 -0.1236
  583MPD2    H7 8706   3.418   4.543  16.534 -0.8141 -0.3710  1.5979
  584TMC3    C1 8707   3.018   0.256  16.874 -0.5611 -0.1410 -0.4045
  584TMC3    C2 8708   3.104   0.337  16.809 -0.0216  0.5336 -0.4500
  584TMC3    C3 8709   3.132   0.453  16.874 -0.4449 -0.3330  0.2655
  584TMC3    C4 8710   2.965   0.285  16.999 -0.2514 -0.1335  0.1294
  584TMC3    C5 8711   2.990   0.416  17.050  0.6120  0.3294  0.3211
  584TMC3    C6 8712   3.071   0.500  16.984  0.5448  0.6397  0.0354
  584TMC3     C 8713   3.004   0.117  16.830 -0.3802  0.0067 -0.4191
  584TMC3     O 8714   2.927   0.045  16.896 -0.1212  0.3520  0.0687
  584TMC3     H 8715   3.144   0.323  16.709 -1.3786  0.1104 -0.9302
  584TMC3    H1 8716   2.902   0.214  17.051 -0.1924 -1.8585 -2.1701
  584TMC3    H2 8717   3.098   0.599  17.018  1.2897  0.0735  1.1221
  584TMC3    C7 8718   2.969   0.427  17.188 -0.0686 -0.0568  0.4121
  584TMC3    C8 8719   3.215   0.546  16.792  0.0246 -0.2532  0.0776
  584TMC3    O1 8720   2.911   0.327  17.227  0.0305 -0.0661  0.6318
  584TMC3    O2 8721   3.218   0.523  16.671 -0.1173 -0.2249  0.2469
  585MPD2     C 8722   2.877   3.738   0.441 -0.4236  0.7737  0.5665
  585MPD2    C1 8723   2.884   3.768   0.307  0.3852 -0.2525 -0.2810
  585MPD2    C2 8724   2.908   3.663   0.221 -0.2026  0.3829 -0.2575
  585MPD2    C3 8725   2.908   3.532   0.261 -0.6047  0.1607  0.0287
  585MPD2    C4 8726   2.911   3.512   0.396 -0.8255 -0.7238 -0.4614
  585MPD2    C5 8727   2.897   3.611   0.483 -0.2191  0.6884 -0.1891
  585MPD2     H 8728   2.936   3.682   0.118 -0.8611 -1.8297 -0.8552
  585MPD2    H1 8729   2.907   3.411   0.436  1.6618 -0.9223 -0.7206
  585MPD2    H2 8730   2.866   3.815   0.516 -0.4250  1.6555 -0.3372
  585MPD2    H3 8731   2.897   3.593   0.590  0.8607  0.3461 -0.2487
  585MPD2     N 8732   2.918   3.424   0.168  0.6282 -0.8777  0.3084
  585MPD2    H5 8733   2.925   3.341   0.225  3.5136 -1.2276 -0.5493
  585MPD2    N1 8734   2.884   3.899   0.252 -0.3344  0.0946 -0.0432
  585MPD2    H7 8735   2.879   3.893   0.151 -1.0054  1.1446 -0.0636
  586TMC3    C1 8736   2.945   3.304  17.701 -0.6590  0.2083 -0.1850
  586TMC3    C2 8737   2.999   3.193   0.019 -0.1899 -0.1506 -0.2204
  586TMC3    C3 8738   3.032   3.096  17.675 -0.2718 -0.3126  0.2577
  586TMC3    C4 8739   2.930   3.315  17.565 -0.1620  0.7610  0.5538
  586TMC3    C5 8740   2.964   3.208  17.486 -0.0739  0.0245 -0.2225
  586TMC3    C6 8741   3.013   3.093  17.544  0.2376 -0.0339 -1.0363
  586TMC3     C 8742   2.905   3.423   0.031 -0.2270 -0.5824  0.2005
  586TMC3     O 8743   2.868   3.517  17.709  0.2609 -0.2396 -0.1561
  586TMC3     H 8744   2.993   3.170   0.125 -0.5625  0.9798  0.0049
  586TMC3    H1 8745   2.892   3.404  17.516 -1.1997 -0.6153 -1.1614
  586TMC3    H2 8746   3.026   3.002  17.486 -0.6801 -0.2683 -0.8754
  586TMC3    C7 8747   2.864   3.190  17.373  0.1400 -0.2324  0.1990
  586TMC3    C8 8748   3.073   2.964  17.738 -0.9075  0.9257 -0.3407
  586TMC3    O1 8749   2.755   3.237  17.383 -0.4243  0.0432  0.2761
  586TMC3    O2 8750   3.031   2.861  17.689 -0.4799 -0.2126  0.1838
  587TMC3    C1 8751   0.592   2.577  16.494  0.1762  0.5720  0.2167
  587TMC3    C2 8752   0.521   2.660  16.414  0.4150  0.4880 -0.0590
  587TMC3    C3 8753   0.588   2.742  16.328 -0.6212 -0.1236  0.1826
  587TMC3    C4 8754   0.729   2.600  16.500  0.1009 -0.4216 -0.7651
  587TMC3    C5 8755   0.795   2.673  16.415  0.0793 -0.1497  0.4444
  587TMC3    C6 8756   0.731   2.746  16.319  0.5793  0.6326  0.1696
  587TMC3     C 8757   0.518   2.498  16.593  0.6120  0.9343  1.0147
  587TMC3     O 8758   0.594   2.441  16.670  0.1274  0.8325  0.9166
  587TMC3     H 8759   0.413   2.656  16.413  0.4404 -0.3505  0.4363
  587TMC3    H1 8760   0.796   2.535  16.556  1.3690  1.0091 -0.6102
  587TMC3    H2 8761   0.782   2.811  16.249  0.4650  0.1967 -0.3214
  587TMC3    C7 8762   0.933   2.723  16.431  0.6509 -0.0747  0.4018
  587TMC3    C8 8763   0.514   2.829  16.229 -0.4987  0.2755 -0.0058
  587TMC3    O1 8764   0.998   2.775  16.340  0.0111 -0.2137  0.3430
  587TMC3    O2 8765   0.574   2.853  16.126  0.6204 -0.4100  0.0176
  588TMC3    C1 8766   1.558   4.550  10.109  0.0722 -0.5144 -0.0789
  588TMC3    C2 8767   1.524   4.458  10.017  0.8750 -0.4682  0.0206
  588TMC3    C3 8768   1.620   4.377   9.967  0.2814  0.5629 -0.0225
  588TMC3    C4 8769   1.689   4.578  10.142  0.3268 -0.3843  0.5197
  588TMC3    C5 8770   1.783   4.502  10.080  0.1924 -0.3332  0.3453
  588TMC3    C6 8771   1.755   4.393  10.003 -0.1741 -0.5811 -0.4538
  588TMC3     C 8772   1.459   4.640  10.158 -0.9844  0.1961  1.4761
  588TMC3     O 8773   1.347   4.599  10.162  0.1301 -0.0481 -0.6966
  588TMC3     H 8774   1.419   4.446   9.993  0.7472  1.6832 -0.5027
  588TMC3    H1 8775   1.713   4.626  10.236  1.3801  1.5679 -0.7265
  588TMC3    H2 8776   1.839   4.342   9.957  1.3170  1.1594  0.3454
  588TMC3    C7 8777   1.912   4.566  10.066  0.1792 -1.0207  0.4899
  588TMC3    C8 8778   1.587   4.244   9.942 -0.7331 -0.3803  0.0330
  588TMC3    O1 8779   1.985   4.513   9.983  0.0984 -0.0385  0.4784
  588TMC3    O2 8780   1.494   4.217   9.867  0.0454  0.5959 -0.3364
  589TMC3    C1 8781   1.650   2.625   1.444  0.0957 -0.3309  0.4598
  589TMC3    C2 8782   1.739   2.582   1.534 -0.3232  1.3365  0.3736
  589TMC3    C3 8783   1.779   2.451   1.528  0.6732  0.0717  0.8818
  589TMC3    C4 8784   1.595   2.536   1.359 -0.4395 -0.3116 -0.1383
  589TMC3    C5 8785   1.641   2.409   1.355 -0.3344 -0.6821  0.7542
  589TMC3    C6 8786   1.739   2.364   1.431  0.3486  0.0600 -0.3206
  589TMC3     C 8787   1.598   2.761   1.445 -0.2149  0.5429  0.1708
  589TMC3     O 8788   1.519   2.784   1.355 -0.2460 -0.2482 -0.3316
  589TMC3     H 8789   1.767   2.636   1.624 -1.7369  2.6795  0.0028
  589TMC3    H1 8790   1.531   2.575   1.280  0.7275  1.9130  0.0214
  589TMC3    H2 8791   1.768   2.259   1.425  1.5364  0.2206  2.8276
  589TMC3    C7 8792   1.589   2.316   1.257  1.0197  0.2678 -0.4485
  589TMC3    C8 8793   1.904   2.420   1.609 -0.8008 -0.5203 -0.1606
  589TMC3    O1 8794   1.663   2.224   1.224 -0.1041 -0.1734  0.5127
  589TMC3    O2 8795   1.927   2.503   1.697  0.4713  0.0808  0.1118
  590MPD2     C 8796   1.478   0.879  16.923  0.7786 -0.0795  0.1945
  590MPD2    C1 8797   1.402   0.978  16.874  0.5782  1.0324  0.3528
  590MPD2    C2 8798   1.450   1.059  16.769  0.3500 -0.2799 -0.2221
  590MPD2    C3 8799   1.580   1.045  16.723 -0.0285 -0.1177  0.1180
  590MPD2    C4 8800   1.659   0.946  16.785  0.7146 -0.3133 -1.1027
  590MPD2    C5 8801   1.614   0.872  16.887 -0.6210  0.2624 -0.0188
  590MPD2     H 8802   1.391   1.140  16.729 -2.1363 -1.5079  0.9836
  590MPD2    H1 8803   1.766   0.943  16.770  0.9157  0.8922  0.0250
  590MPD2    H2 8804   1.428   0.819  16.998 -0.7272  0.4544 -0.3908
  590MPD2    H3 8805   1.676   0.800  16.939 -2.2325 -0.3643  1.0448
  590MPD2     N 8806   1.615   1.118  16.607 -0.3080 -0.0490  0.0208
  590MPD2    H5 8807   1.545   1.165  16.550 -0.9712  1.5956  2.1896
  590MPD2    N1 8808   1.267   0.975  16.916 -0.2984 -0.3911 -0.8471
  590MPD2    H7 8809   1.235   0.890  16.961  0.5943 -0.4896 -0.3873
  591TMC3    C1 8810   1.748   1.166  16.408 -0.7366  0.0409 -1.1866
  591TMC3    C2 8811   1.815   1.090  16.318 -0.8510  0.5631  1.2040
  591TMC3    C3 8812   1.801   1.121  16.187 -1.2324  0.1465  0.3905
  591TMC3    C4 8813   1.659   1.268  16.379  0.6710 -0.2817 -0.0769
  591TMC3    C5 8814   1.666   1.302  16.245  0.2083  0.2384  0.4773
  591TMC3    C6 8815   1.729   1.227  16.146  0.7530 -0.5256 -0.1833
  591TMC3     C 8816   1.744   1.120  16.547  0.2476 -0.4166 -0.6252
  591TMC3     O 8817   1.844   1.069  16.591  0.2421  0.2116  0.0024
  591TMC3     H 8818   1.860   1.002  16.362  0.1033 -1.1110 -3.0745
  591TMC3    H1 8819   1.607   1.327  16.454 -0.2921 -2.2986  0.8423
  591TMC3    H2 8820   1.709   1.213  16.040 -0.7192  1.1710 -0.1244
  591TMC3    C7 8821   1.559   1.395  16.203  0.6566 -0.5447  0.3356
  591TMC3    C8 8822   1.804   1.017  16.085 -0.0788 -0.9634 -0.1695
  591TMC3    O1 8823   1.489   1.440  16.296 -0.9676 -0.2438  0.1538
  591TMC3    O2 8824   1.848   1.043  15.975 -0.6197 -0.0003 -0.1457
  592MPD2     C 8825   1.244   2.843  11.810 -0.0343  0.2122  0.9212
  592MPD2    C1 8826   1.298   2.785  11.922  0.1095  0.0121  0.0076
  592MPD2    C2 8827   1.231   2.685  11.986 -0.0600 -0.3107  0.0012
  592MPD2    C3 8828   1.109   2.639  11.931 -0.3360 -0.0221  0.1972
  592MPD2    C4 8829   1.067   2.691  11.812 -0.8082 -0.7179  0.1770
  592MPD2    C5 8830   1.128   2.797  11.757  0.3260  0.1399 -0.0081
  592MPD2     H 8831   1.275   2.650  12.079  0.2960  0.4733  0.1273
  592MPD2    H1 8832   0.974   2.656  11.769  0.7697 -2.3399 -1.8772
  592MPD2    H2 8833   1.278   2.939  11.773  0.4801 -0.5350 -0.5456
  592MPD2    H3 8834   1.083   2.850  11.674  1.2405 -0.8190 -1.1221
  592MPD2     N 8835   1.040   2.528  11.985 -1.1862  0.1829  0.3944
  592MPD2    H5 8836   1.092   2.475  12.054 -2.5737 -0.8022  0.6822
  592MPD2    N1 8837   1.414   2.850  11.979  0.3451 -0.4281 -0.2413
  592MPD2    H7 8838   1.457   2.923  11.923 -1.2913 -0.0920 -1.0298
  593TMC3    C1 8839   1.586   2.907  12.109  0.1067  0.6560  0.1754
  593TMC3    C2 8840   1.608   2.966  12.228  0.1767 -0.6010  0.2001
  593TMC3    C3 8841   1.723   3.026  12.252  0.1118 -0.4823 -0.0791
  593TMC3    C4 8842   1.681   2.894  12.016 -0.1752 -0.1322  0.4615
  593TMC3    C5 8843   1.808   2.939  12.045  0.2579  0.5886  0.5059
  593TMC3    C6 8844   1.824   3.013  12.163 -0.3381 -0.1476  0.2877
  593TMC3     C 8845   1.461   2.833  12.102  0.8437 -0.4784  0.5498
  593TMC3     O 8846   1.404   2.784  12.199 -0.5563  0.7211  0.3569
  593TMC3     H 8847   1.518   2.972  12.288  0.0056  0.3491 -0.1439
  593TMC3    H1 8848   1.664   2.855  11.916  0.5222 -0.2001  0.3670
  593TMC3    H2 8849   1.922   3.058  12.173  0.6484 -2.8214  2.6108
  593TMC3    C7 8850   1.896   2.968  11.940  0.1794  0.1352 -0.2082
  593TMC3    C8 8851   1.741   3.102  12.374  1.0312 -0.4886 -0.1149
  593TMC3    O1 8852   1.952   3.074  11.936  0.1076  0.2725 -0.1061
  593TMC3    O2 8853   1.653   3.090  12.461  0.7017  0.2589  0.2513
  594MPD2     C 8854   0.021   1.297  14.254  0.7869  1.1063  0.4148
  594MPD2    C1 8855   4.723   1.352  14.375 -0.8033 -0.6765 -0.4257
  594MPD2    C2 8856   0.054   1.462  14.419  0.4510  0.3046  0.3207
  594MPD2    C3 8857   0.167   1.511  14.360  0.2876  0.4889 -0.6044
  594MPD2    C4 8858   0.203   1.458  14.239 -0.5907 -0.6751 -0.3738
  594MPD2    C5 8859   0.128   1.354  14.190 -0.4684  0.5524 -0.7307
  594MPD2     H 8860   0.025   1.512  14.511  2.3028  2.3482 -0.1966
  594MPD2    H1 8861   0.287   1.493  14.180  0.1872  1.8618  2.1976
  594MPD2    H2 8862   4.701   1.222  14.202 -2.0048  3.0322  0.7113
  594MPD2    H3 8863   0.153   1.335  14.086  1.4638  0.5274 -0.2667
  594MPD2     N 8864   0.238   1.624  14.422 -0.6175  0.4501  0.3866
  594MPD2    H5 8865   0.203   1.664  14.509  0.2468  2.5286 -0.2048
  594MPD2    N1 8866   4.629   1.282  14.453  0.7472 -0.7403 -0.3163
  594MPD2    H7 8867   4.578   1.204  14.412  1.8296 -0.6289 -1.8727
  595TMC3    C1 8868   0.554   1.960  14.539 -0.2270 -0.1529  0.0977
  595TMC3    C2 8869   0.492   1.887  14.441 -0.7557 -0.2302  0.0921
  595TMC3    C3 8870   0.396   1.791  14.478 -0.1399  0.3770 -0.3612
  595TMC3    C4 8871   0.527   1.939  14.675 -0.1636  0.2953 -0.0142
  595TMC3    C5 8872   0.431   1.848  14.704 -0.8102  0.0400  0.5358
  595TMC3    C6 8873   0.357   1.777  14.612 -0.0246 -0.3575 -0.6093
  595TMC3     C 8874   0.663   2.055  14.506  0.5416  0.9562 -0.3944
  595TMC3     O 8875   0.744   2.072  14.595  0.0456  0.4692 -0.0853
  595TMC3     H 8876   0.527   1.891  14.339 -2.9195  0.1692 -0.6270
  595TMC3    H1 8877   0.575   1.997  14.753  0.9706  2.6750 -2.4696
  595TMC3    H2 8878   0.295   1.698  14.653  0.3194  0.3097  1.2244
  595TMC3    C7 8879   0.352   1.885  14.814 -0.4054  0.2092 -0.7057
  595TMC3    C8 8880   0.345   1.694  14.374  0.3823 -0.2128 -0.3570
  595TMC3    O1 8881   0.233   1.864  14.803 -0.5091 -0.9890 -0.0578
  595TMC3    O2 8882   0.407   1.683  14.269  0.6921 -0.6651  0.3344
  596MPD2     C 8883   4.084   4.508  16.992 -0.4480 -0.0210  0.3422
  596MPD2    C1 8884   4.131   4.604  16.915  1.1177  0.4124  0.6012
  596MPD2    C2 8885   4.158   4.582  16.781  0.6067  1.0177 -0.4466
  596MPD2    C3 8886   4.140   4.458  16.726  0.0206 -0.4055  0.1600
  596MPD2    C4 8887   4.098   4.355  16.806  0.3542  0.6011 -0.1061
  596MPD2    C5 8888   4.066   4.382  16.942  0.5136  0.3738  0.2302
  596MPD2     H 8889   4.187   4.667  16.721  1.7593 -0.7023 -2.3322
  596MPD2    H1 8890   4.079   4.252  16.777  3.0613  0.5869 -1.7552
  596MPD2    H2 8891   4.055   4.519  17.096 -0.6126 -1.6907  0.4664
  596MPD2    H3 8892   4.036   4.306  17.013 -2.0393  2.4938  1.3840
  596MPD2     N 8893   4.184   4.419  16.595  0.2673 -0.2287  0.9505
  596MPD2    H5 8894   4.183   4.319  16.578  0.4503  0.2154 -1.7434
  596MPD2    N1 8895   4.156   0.000  16.956 -0.2030  0.1556  0.2829
  596MPD2    H7 8896   4.187   0.064  16.884  0.1974  1.0230  1.2219
  597TMC3    C1 8897   4.182   0.185  17.094  0.2286  0.3345  0.2213
  597TMC3    C2 8898   4.242   0.261  16.989 -0.9384  0.7335 -0.0802
  597TMC3    C3 8899   4.239   0.392  17.000  0.1822  0.3813  0.2359
  597TMC3    C4 8900   4.133   0.243  17.208  0.9443  0.0825  0.0823
  597TMC3    C5 8901   4.141   0.376  17.216  0.5483  0.3053  0.6204
  597TMC3    C6 8902   4.200   0.451  17.111  0.2919  0.3934 -0.0689
  597TMC3     C 8903   4.134   0.048  17.083 -0.0877 -0.8161  0.1808
  597TMC3     O 8904   4.086   4.730  17.182  0.6443  0.3778 -0.5284
  597TMC3     H 8905   4.270   0.212  16.896 -1.6461 -1.0083  0.6226
  597TMC3    H1 8906   4.088   0.185  17.289 -0.8471  1.1242 -0.1772
  597TMC3    H2 8907   4.199   0.560  17.111 -2.6923  0.3544 -0.6581
  597TMC3    C7 8908   4.026   0.445  17.284  0.3001  0.1365  0.5872
  597TMC3    C8 8909   4.282   0.477  16.892  0.7052 -0.3012 -0.4191
  597TMC3    O1 8910   3.989   0.384  17.383  0.0191 -0.5350 -0.2318
  597TMC3    O2 8911   4.273   0.431  16.779  0.3730  0.3404  0.5656
  598TMC3    C1 8912   2.062   1.269  15.103  0.4053 -0.2214  0.2078
  598TMC3    C2 8913   1.950   1.192  15.085 -0.0422  0.3123  0.0615
  598TMC3    C3 8914   1.899   1.206  14.958 -0.0580  0.5941  0.2117
  598TMC3    C4 8915   2.115   1.353  15.002  0.5203  0.0119 -0.1870
  598TMC3    C5 8916   2.049   1.371  14.882  0.5544 -0.2578 -0.1173
  598TMC3    C6 8917   1.938   1.296  14.857 -0.5364 -0.5832 -0.3928
  598TMC3     C 8918   2.129   1.260  15.234  0.3223 -0.1293  0.0590
  598TMC3     O 8919   2.082   1.169  15.306 -0.2477 -0.1172 -0.3813
  598TMC3     H 8920   1.911   1.120  15.156 -2.0477 -0.1025 -1.4600
  598TMC3    H1 8921   2.209   1.404  15.019 -1.4016  3.4038  0.2318
  598TMC3    H2 8922   1.883   1.298  14.764 -0.0882 -0.0804 -0.6452
  598TMC3    C7 8923   2.076   1.479  14.796 -0.1111  0.9952 -0.4032
  598TMC3    C8 8924   1.795   1.110  14.917 -0.3416  0.5694 -0.4367
  598TMC3    O1 8925   2.006   1.481  14.695 -0.1476  0.0389 -0.3929
  598TMC3    O2 8926   1.704   1.084  14.995  0.0297  0.1963 -0.3885
  599MPD2     C 8927   2.572   3.497  16.180  0.8459 -0.1703  0.1132
  599MPD2    C1 8928   2.477   3.422  16.116  0.0802 -0.0077 -0.2426
  599MPD2    C2 8929   2.349   3.478  16.117  0.4739  0.0362  0.0164
  599MPD2    C3 8930   2.313   3.608  16.161 -0.1322 -0.0926  0.3969
  599MPD2    C4 8931   2.414   3.680  16.218 -0.0821  0.6012 -0.2751
  599MPD2    C5 8932   2.537   3.618  16.228  0.0702 -0.4625 -0.0084
  599MPD2     H 8933   2.276   3.414  16.069 -0.2347  0.1215  0.9942
  599MPD2    H1 8934   2.403   3.772  16.273 -0.1664 -0.6037  1.7427
  599MPD2    H2 8935   2.673   3.458  16.191  1.1233  0.9501  1.4658
  599MPD2    H3 8936   2.616   3.682  16.267 -0.4562 -0.5926  1.2625
  599MPD2     N 8937   2.178   3.653  16.187  0.0440 -0.6252 -0.1300
  599MPD2    H5 8938   2.169   3.734  16.248 -0.0340  0.5589 -1.6975
  599MPD2    N1 8939   2.516   3.293  16.083  0.1339 -0.3009  0.2605
  599MPD2    H7 8940   2.610   3.264  16.106  0.5637 -0.5592 -1.9149
  600TMC3    C1 8941   1.940   3.638  16.192  0.3679 -0.4410  0.1677
  600TMC3    C2 8942   1.836   3.546  16.191  0.2922  0.0584  0.4399
  600TMC3    C3 8943   1.713   3.593  16.239  0.2737  0.1091  0.6188
  600TMC3    C4 8944   1.929   3.767  16.228  0.1554 -0.1064 -0.1020
  600TMC3    C5 8945   1.802   3.808  16.264  0.3254  0.0925 -0.2225
  600TMC3    C6 8946   1.695   3.722  16.273 -0.2716 -0.7373  0.0378
  600TMC3     C 8947   2.067   3.586  16.141  1.2126  0.2068  0.2776
  600TMC3     O 8948   2.055   3.493  16.064 -0.0183 -0.6809 -0.2686
  600TMC3     H 8949   1.854   3.439  16.181 -0.8193  0.1146 -2.1609
  600TMC3    H1 8950   2.015   3.833  16.228  0.7590 -0.8990 -1.2894
  600TMC3    H2 8951   1.608   3.764  16.322  0.7909  0.4299  0.9231
  600TMC3    C7 8952   1.783   3.946  16.307 -0.3627 -0.2583 -0.6037
  600TMC3    C8 8953   1.594   3.511  16.229 -0.3531  0.5748  0.2867
  600TMC3    O1 8954   1.689   3.970  16.386 -0.3422 -0.2156  0.7210
  600TMC3    O2 8955   1.621   3.391  16.235  0.2355  0.4055 -0.1396
  601MPD2     C 8956   0.326   2.370  17.463  0.0565 -0.3876  0.2795
  601MPD2    C1 8957   0.230   2.357  17.558 -0.3672  0.1497  0.0878
  601MPD2    C2 8958   0.235   2.251  17.647 -0.0040  0.2204 -0.1583
  601MPD2    C3 8959   0.321   2.145  17.623  0.4589  0.1947  0.0690
  601MPD2    C4 8960   0.404   2.145  17.512  0.2684 -0.0681 -0.8359
  601MPD2    C5 8961   0.412   2.268  17.444 -0.3206  0.3285 -0.5447
  601MPD2     H 8962   0.162   2.241  17.725 -0.0103  0.2753 -0.1572
  601MPD2    H1 8963   0.472   2.071  17.473 -0.1492 -0.9184  0.0574
  601MPD2    H2 8964   0.336   2.457  17.400 -2.1721 -0.2343  0.1539
  601MPD2    H3 8965   0.491   2.279  17.371  0.8505  0.4793  0.7256
  601MPD2     N 8966   0.311   2.025  17.692 -0.0236  0.5962 -0.1444
  601MPD2    H5 8967   0.343   1.938  17.649 -2.6657  0.3186 -1.5598
  601MPD2    N1 8968   0.112   2.440  17.566 -0.1713  0.3656  0.4015
  601MPD2    H7 8969   0.030   2.403  17.614  1.3998 -1.4003  1.7397
  602TMC3    C1 8970   4.686   2.580  17.479  1.1745  0.7738 -0.1587
  602TMC3    C2 8971   4.654   2.676  17.381 -0.6231  0.7587  0.1377
  602TMC3    C3 8972   4.525   2.680  17.329  0.1868 -0.0835 -0.1419
  602TMC3    C4 8973   4.585   2.493  17.527 -0.6667  0.2077 -0.0463
  602TMC3    C5 8974   4.462   2.504  17.478 -0.6177 -0.0530 -0.0236
  602TMC3    C6 8975   4.433   2.587  17.369  0.4010 -0.6949 -0.2420
  602TMC3     C 8976   0.086   2.545  17.486 -0.3817  0.7219  0.7061
  602TMC3     O 8977   0.171   2.610  17.426 -0.1865  0.0791  0.3433
  602TMC3     H 8978   0.004   2.731  17.349 -1.8226  2.4198 -0.2503
  602TMC3    H1 8979   4.597   2.425  17.611  1.2058 -0.2506 -0.6895
  602TMC3    H2 8980   4.329   2.595  17.337 -0.2586 -3.4046  1.2208
  602TMC3    C7 8981   4.364   2.401  17.513 -0.5424  0.0999  0.0682
  602TMC3    C8 8982   4.507   2.742  17.200  1.2497 -0.0965 -0.6548
  602TMC3    O1 8983   4.357   2.359  17.629  0.0202 -0.6603  0.1921
  602TMC3    O2 8984   4.563   2.846  17.177  0.1085 -0.2335 -0.4090
  603TMC3    C1 8985   1.566   1.915  10.887 -0.2052  0.4608 -0.2544
  603TMC3    C2 8986   1.625   1.952  11.006  0.1402  0.6330  0.7416
  603TMC3    C3 8987   1.729   2.035  11.013 -0.3678  0.1125 -0.0575
  603TMC3    C4 8988   1.618   1.962  10.765 -0.3757  1.0649 -0.0792
  603TMC3    C5 8989   1.721   2.054  10.780 -0.3322  1.0127  0.0328
  603TMC3    C6 8990   1.773   2.100  10.899 -0.0557 -0.5877 -0.4434
  603TMC3     C 8991   1.440   1.847  10.893 -0.9671  0.4692 -0.1571
  603TMC3     O 8992   1.401   1.813  10.783 -0.6118  0.6574  0.1632
  603TMC3     H 8993   1.589   1.915  11.101  0.2149 -0.4048  0.3626
  603TMC3    H1 8994   1.590   1.916  10.670  1.0559 -0.8024  0.3955
  603TMC3    H2 8995   1.833   2.191  10.897  1.2998 -1.4867 -0.1860
  603TMC3    C7 8996   1.784   2.098  10.665 -0.1919  0.5070  0.7489
  603TMC3    C8 8997   1.796   2.054  11.141 -0.2982  0.2419 -0.9031
  603TMC3    O1 8998   1.900   2.144  10.674  0.3438  0.8789 -0.3772
  603TMC3    O2 8999   1.773   1.984  11.239  0.2767 -0.4529 -0.2009
  604MPD2     C 9000   3.113   0.431  16.259 -0.3454 -0.4325  0.1647
  604MPD2    C1 9001   3.089   0.554  16.201  0.2836  0.1335  0.6471
  604MPD2    C2 9002   3.106   0.574  16.066 -0.0116  0.0603  0.0992
  604MPD2    C3 9003   3.157   0.467  15.988 -0.1296 -0.9492  0.5338
  604MPD2    C4 9004   3.173   0.339  16.047  0.2073 -0.1205 -0.1251
  604MPD2    C5 9005   3.137   0.318  16.175  0.0581 -0.9370 -0.2772
  604MPD2     H 9006   3.090   0.674  16.029 -2.5323 -1.3604 -2.6509
  604MPD2    H1 9007   3.207   0.252  15.993  1.3419  1.0384 -1.2821
  604MPD2    H2 9008   3.096   0.415  16.364 -2.8870  1.5767  0.0502
  604MPD2    H3 9009   3.147   0.219  16.218  4.5423 -0.7847 -1.0160
  604MPD2     N 9010   3.199   0.505  15.864 -0.7290  0.5697  0.9997
  604MPD2    H5 9011   3.198   0.602  15.832  2.8703 -0.1259 -1.1477
  604MPD2    N1 9012   3.039   0.653  16.289 -0.1636  0.8034  1.3155
  604MPD2    H7 9013   3.045   0.647  16.390 -0.6202 -0.9661  1.2260
  605TMC3    C1 9014   2.981   0.872  16.349  0.5355 -0.6912  0.3207
  605TMC3    C2 9015   3.100   0.918  16.393 -0.5445 -0.5948 -0.5092
  605TMC3    C3 9016   3.116   1.032  16.457  0.0770  0.8946 -0.1549
  605TMC3    C4 9017   2.870   0.953  16.351 -0.4118  0.2324  0.2261
  605TMC3    C5 9018   2.894   1.077  16.405  0.3270 -0.3713  0.1093
  605TMC3    C6 9019   3.005   1.118  16.478  0.0176 -0.2813  0.2762
  605TMC3     C 9020   2.987   0.773  16.242  0.3421  0.7221 -0.4745
  605TMC3     O 9021   2.934   0.802  16.135 -0.1991 -0.2621  0.1710
  605TMC3     H 9022   3.189   0.863  16.364  1.0975  1.1225  1.3273
  605TMC3    H1 9023   2.769   0.920  16.328 -0.4784  0.7426 -0.2271
  605TMC3    H2 9024   3.013   1.221  16.509 -0.5220  0.1696 -1.0886
  605TMC3    C7 9025   2.785   1.171  16.382  0.3422  0.3265  0.0104
  605TMC3    C8 9026   3.252   1.081  16.465 -0.3642  0.1208 -0.2027
  605TMC3    O1 9027   2.768   1.260  16.470 -0.9334  0.5712  0.7250
  605TMC3    O2 9028   3.330   1.051  16.372  0.5247  0.0085  0.0532
  606TMC3    C1 9029   0.384   0.063  17.375 -0.2435  0.4142  0.0650
  606TMC3    C2 9030   0.498   0.014  17.321  0.0044 -1.2814 -0.2709
  606TMC3    C3 9031   0.501   4.622  17.266  0.4169 -0.1376 -0.1383
  606TMC3    C4 9032   0.271   4.726  17.365 -1.1966  0.3990  0.3296
  606TMC3    C5 9033   0.272   4.594  17.317  0.4675 -0.3037 -0.3945
  606TMC3    C6 9034   0.392   4.537  17.268 -0.2978  0.0191 -0.2624
  606TMC3     C 9035   0.378   0.199  17.416 -0.4279 -0.5059 -0.7197
  606TMC3     O 9036   0.467   0.269  17.369 -0.6080  0.0046  0.5255
  606TMC3     H 9037   0.586   0.077  17.310 -0.3667 -0.5124  1.1861
  606TMC3    H1 9038   0.178   0.035  17.397  0.0596  0.5320  3.7089
  606TMC3    H2 9039   0.392   4.430  17.253  2.5473  0.0868 -0.5772
  606TMC3    C7 9040   0.150   4.512  17.322 -0.2761 -0.1122  0.4000
  606TMC3    C8 9041   0.628   4.565  17.241 -0.7809 -0.0056 -0.2433
  606TMC3    O1 9042   0.069   4.544  17.407 -0.4591 -0.6707  0.6914
  606TMC3    O2 9043   0.730   4.623  17.283 -0.3933 -0.3393 -0.2809
  607MPD2     C 9044   1.434   1.919  11.800  0.5966 -0.3015  0.5616
  607MPD2    C1 9045   1.441   2.036  11.869 -0.0476  0.7319 -0.5316
  607MPD2    C2 9046   1.419   2.045  12.001  0.1769  0.1865 -0.6419
  607MPD2    C3 9047   1.394   1.932  12.072 -0.0294 -0.3069  0.4330
  607MPD2    C4 9048   1.408   1.813  12.011  0.5890 -0.0889 -0.1126
  607MPD2    C5 9049   1.414   1.806  11.872  0.6136  0.3337 -0.5236
  607MPD2     H 9050   1.412   2.142  12.049  1.7380 -0.4493  0.8408
  607MPD2    H1 9051   1.383   1.717  12.055 -1.1847  0.9067  1.0478
  607MPD2    H2 9052   1.461   1.917  11.695  0.5749 -2.5328  0.6066
  607MPD2    H3 9053   1.405   1.707  11.828 -1.2248 -0.0077  0.6322
  607MPD2     N 9054   1.372   1.945  12.210  0.4812  0.6959 -0.1838
  607MPD2    H5 9055   1.371   2.040  12.243  2.8746  0.5830  0.1793
  607MPD2    N1 9056   1.480   2.152  11.799 -0.3056 -0.1747 -0.1474
  607MPD2    H7 9057   1.496   2.236  11.853  2.1115  0.8271 -2.4446
  608TMC3    C1 9058   1.582   2.287  11.661  0.5468 -0.6732  0.2769
  608TMC3    C2 9059   1.651   2.332  11.777 -0.4252  0.2682  0.8108
  608TMC3    C3 9060   1.714   2.448  11.763 -0.6056 -0.5516  0.1215
  608TMC3    C4 9061   1.584   2.350  11.541  0.5098 -0.2982 -0.3894
  608TMC3    C5 9062   1.654   2.470  11.538  0.2183  0.2458  0.6275
  608TMC3    C6 9063   1.725   2.518  11.645  0.3728 -0.1964 -0.0954
  608TMC3     C 9064   1.501   2.169  11.667  0.3500  0.3397 -0.9670
  608TMC3     O 9065   1.464   2.102  11.574  0.3402 -0.0402  0.0752
  608TMC3     H 9066   1.671   2.266  11.861  0.1349  0.2555  0.6675
  608TMC3    H1 9067   1.526   2.317  11.455  0.1556  1.8610 -1.0026
  608TMC3    H2 9068   1.780   2.611  11.634  0.1145  0.0166  0.3810
  608TMC3    C7 9069   1.657   2.531  11.410 -0.2766 -0.0092 -0.6808
  608TMC3    C8 9070   1.728   2.527  11.879 -0.7909  0.1409  0.2552
  608TMC3    O1 9071   1.628   2.462  11.313 -0.6363 -0.0511 -0.4190
  608TMC3    O2 9072   1.814   2.614  11.889 -0.7862 -0.0926 -0.0084
  609TMC3    C1 9073   3.818   1.161  10.008 -0.3538 -0.1271  0.0473
  609TMC3    C2 9074   3.709   1.089  10.055  0.6481 -0.0387  0.0851
  609TMC3    C3 9075   3.639   1.000   9.968 -0.1568 -1.1319  0.3936
  609TMC3    C4 9076   3.848   1.151   9.879 -0.3074  0.1414  0.5186
  609TMC3    C5 9077   3.772   1.076   9.791 -0.0626 -0.2665  0.7338
  609TMC3    C6 9078   3.666   0.999   9.837  0.1390 -0.3581 -0.5652
  609TMC3     C 9079   3.893   1.251  10.097 -0.5135  0.2181 -0.5740
  609TMC3     O 9080   3.838   1.294  10.198  0.4539 -0.3109 -0.8333
  609TMC3     H 9081   3.694   1.087  10.162 -2.8515  1.5717 -0.3844
  609TMC3    H1 9082   3.930   1.207   9.836 -0.1260  1.2711  2.3475
  609TMC3    H2 9083   3.606   0.937   9.771 -1.3518 -1.5080  1.8499
  609TMC3    C7 9084   3.822   1.059   9.653  0.1899  0.7182  0.9269
  609TMC3    C8 9085   3.498   0.962   9.999  0.0675  0.4284 -0.0911
  609TMC3    O1 9086   3.919   1.127   9.621 -0.6638  0.0904 -1.0456
  609TMC3    O2 9087   3.442   0.879   9.930  0.2216  0.2096  0.4801
  610TMC3    C1 9088   1.954   2.203  12.618 -0.2071 -0.1639 -0.2572
  610TMC3    C2 9089   1.998   2.247  12.497 -0.3264  0.9002 -0.0880
  610TMC3    C3 9090   2.103   2.189  12.439  0.2979  0.0591 -0.4021
  610TMC3    C4 9091   2.020   2.105  12.687 -0.1399 -0.2548  0.1296
  610TMC3    C5 9092   2.127   2.049  12.623 -0.1090  0.3800 -0.1165
  610TMC3    C6 9093   2.169   2.088  12.500  0.5263  0.4559  0.0318
  610TMC3     C 9094   1.843   2.276  12.682  0.4062 -0.4061 -0.2706
  610TMC3     O 9095   1.815   2.392  12.645  0.4956  0.0869 -0.3511
  610TMC3     H 9096   1.942   2.327  12.449 -2.2527 -0.2472  0.2495
  610TMC3    H1 9097   1.988   2.073  12.785  3.8955  0.5355  1.7198
  610TMC3    H2 9098   2.248   2.032  12.451 -0.8873 -0.7544 -0.8690
  610TMC3    C7 9099   2.209   1.948  12.685  0.4387 -0.7122  0.0318
  610TMC3    C8 9100   2.172   2.249  12.326 -0.0079 -0.0988  0.4414
  610TMC3    O1 9101   2.293   1.888  12.622  0.2901 -0.0929 -0.0790
  610TMC3    O2 9102   2.261   2.186  12.273  0.8300  0.0112 -0.2227
  611MPD2     C 9103   0.849   1.836  10.375  0.3249  0.4789  0.0372
  611MPD2    C1 9104   0.788   1.869  10.256  0.0589 -0.4138  0.5878
  611MPD2    C2 9105   0.869   1.930  10.158  0.5528  0.4520 -0.4006
  611MPD2    C3 9106   0.998   1.963  10.194  0.5956  0.4340 -0.1645
  611MPD2    C4 9107   1.055   1.921  10.308  0.5424 -0.9035 -0.1765
  611MPD2    C5 9108   0.984   1.856  10.401 -0.2417 -0.5751 -0.4040
  611MPD2     H 9109   0.831   1.962  10.062 -1.1090  4.0416  1.4818
  611MPD2    H1 9110   1.159   1.934  10.336  0.5141 -0.9119 -0.0677
  611MPD2    H2 9111   0.789   1.804  10.459 -1.1560  0.2851 -1.0971
  611MPD2    H3 9112   1.029   1.836  10.498  0.3205 -2.4495 -1.0617
  611MPD2     N 9113   1.086   2.031  10.108 -1.0606 -0.3011 -0.1173
  611MPD2    H5 9114   1.178   2.041  10.151 -1.3400 -2.0296  0.8497
  611MPD2    N1 9115   0.660   1.829  10.226  0.5856 -0.2747 -0.0912
  611MPD2    H7 9116   0.606   1.782  10.298 -0.3065  0.1096 -0.5025
  612TMC3    C1 9117   1.160   2.181   9.939  0.6631 -0.1668 -0.1428
  612TMC3    C2 9118   1.289   2.159   9.973  0.3184  0.5046  0.4599
  612TMC3    C3 9119   1.378   2.250   9.937 -0.4079  0.5465 -0.4257
  612TMC3    C4 9120   1.121   2.290   9.865 -0.1462  1.0816  0.1240
  612TMC3    C5 9121   1.220   2.369   9.817 -0.4879  0.2445 -0.5336
  612TMC3    C6 9122   1.352   2.350   9.855 -0.1155 -0.0244 -0.3007
  612TMC3     C 9123   1.052   2.101   9.993 -0.1516 -0.5463 -0.6883
  612TMC3     O 9124   0.944   2.120   9.938  0.0504 -0.0023 -0.4249
  612TMC3     H 9125   1.324   2.064  10.011  0.2402 -0.0432 -0.8642
  612TMC3    H1 9126   1.016   2.307   9.843 -0.3044  0.2745  0.2612
  612TMC3    H2 9127   1.425   2.421   9.821 -0.8561  0.7823 -0.2088
  612TMC3    C7 9128   1.186   2.445   9.702 -0.7734  0.8040 -0.4653
  612TMC3    C8 9129   1.519   2.240   9.992 -0.5716  0.2304  0.9493
  612TMC3    O1 9130   1.068   2.471   9.679  0.3864 -0.4389 -0.7286
  612TMC3    O2 9131   1.602   2.303   9.929  0.0779  0.1183 -0.1917
  613MPD2     C 9132   0.574   0.646  16.280 -0.0943  0.4005 -0.3070
  613MPD2    C1 9133   0.543   0.518  16.336  0.1848 -0.7576 -0.4294
  613MPD2    C2 9134   0.642   0.448  16.402  0.6497 -0.7985 -0.9709
  613MPD2    C3 9135   0.771   0.489  16.414 -0.3955  0.3718 -0.0952
  613MPD2    C4 9136   0.810   0.602  16.336  0.2523 -0.4267  0.8739
  613MPD2    C5 9137   0.713   0.676  16.270 -0.1787 -0.0675  0.2386
  613MPD2     H 9138   0.615   0.351  16.442 -1.6603  0.5069  0.6306
  613MPD2    H1 9139   0.912   0.634  16.350  0.9512 -1.6736 -1.3682
  613MPD2    H2 9140   0.500   0.709  16.232 -1.6047  0.1603  1.6984
  613MPD2    H3 9141   0.744   0.769  16.223 -0.5303  1.1401  2.4032
  613MPD2     N 9142   0.869   0.402  16.468 -0.3804  0.2592  0.0903
  613MPD2    H5 9143   0.964   0.408  16.432 -1.7785 -0.2657 -3.6772
  613MPD2    N1 9144   0.411   0.469  16.310  0.1929  0.5095 -0.0325
  613MPD2    H7 9145   0.378   0.502  16.220 -2.0654  0.9892  0.9779
  614TMC3    C1 9146   0.266   0.288  16.306 -0.2020  0.4269  0.0140
  614TMC3    C2 9147   0.298   0.156  16.325  0.8367  0.0652 -0.6106
  614TMC3    C3 9148   0.229   0.073  16.236  0.1966  0.0898  0.4785
  614TMC3    C4 9149   0.185   0.345  16.210  0.5445 -0.9198 -0.1227
  614TMC3    C5 9150   0.124   0.254  16.127 -1.0001 -0.4045  0.3905
  614TMC3    C6 9151   0.140   0.120  16.140 -0.2998 -0.8253  0.3697
  614TMC3     C 9152   0.351   0.372  16.385  0.4876 -0.0513 -0.0960
  614TMC3     O 9153   0.392   0.328  16.488 -1.0963  0.2279 -0.7063
  614TMC3     H 9154   0.364   0.131  16.406  1.7530  0.7791 -1.1309
  614TMC3    H1 9155   0.186   0.453  16.200 -1.3077 -0.8840  0.1452
  614TMC3    H2 9156   0.090   0.050  16.074 -1.1818 -2.5745  2.8967
  614TMC3    C7 9157   0.050   0.307  16.017  0.1582 -0.2235  0.2316
  614TMC3    C8 9158   0.290   4.679  16.214  0.4740  0.0419 -0.0921
  614TMC3    O1 9159   0.031   0.426  16.015 -0.0244  0.1770  0.1838
  614TMC3    O2 9160   0.224   4.597  16.157 -0.2457 -0.4525 -0.2182
  615MPD2     C 9161   4.559   1.269  16.472 -0.9835  0.6322 -0.0439
  615MPD2    C1 9162   4.644   1.301  16.368 -0.2623  0.0906 -0.1973
  615MPD2    C2 9163   4.615   1.273  16.234 -0.0733  0.4793  0.3036
  615MPD2    C3 9164   4.500   1.201  16.202  0.8253  0.0948 -0.1141
  615MPD2    C4 9165   4.409   1.177  16.305 -0.7118  0.2311  0.1573
  615MPD2    C5 9166   4.444   1.206  16.432  0.3097  0.2106  0.1134
  615MPD2     H 9167   4.682   1.312  16.157  0.4831 -0.8207  0.1407
  615MPD2    H1 9168   4.317   1.121  16.289 -0.5417 -0.0963  0.3186
  615MPD2    H2 9169   4.581   1.304  16.572 -0.6935 -1.4460  0.6079
  615MPD2    H3 9170   4.370   1.176  16.505 -0.0013 -0.5464 -0.5164
  615MPD2     N 9171   4.469   1.172  16.063 -0.0612 -0.0576  0.1543
  615MPD2    H5 9172   4.376   1.141  16.039 -0.4104  3.2600 -2.7031
  615MPD2    N1 9173   0.026   1.374  16.383 -0.2971  0.0806 -0.5581
  615MPD2    H7 9174   0.076   1.401  16.299 -1.2116  1.2086 -0.7417
  616TMC3    C1 9175   0.210   1.483  16.496 -0.4438 -0.5398 -0.4925
  616TMC3    C2 9176   0.312   1.453  16.580  0.5031 -0.2657 -0.3526
  616TMC3    C3 9177   0.427   1.519  16.555 -0.3316  0.3487 -0.3312
  616TMC3    C4 9178   0.203   1.585  16.411 -0.1951 -0.4496  0.0751
  616TMC3    C5 9179   0.321   1.655  16.390 -0.7859  0.0852  0.9840
  616TMC3    C6 9180   0.431   1.629  16.472 -0.2919  0.2356  0.1245
  616TMC3     C 9181   0.089   1.404  16.502 -0.5855 -0.7227  0.6289
  616TMC3     O 9182   0.072   1.361  16.616 -0.7843  0.1836 -0.6852
  616TMC3     H 9183   0.300   1.369  16.647 -0.5472 -1.6593 -2.3029
  616TMC3    H1 9184   0.115   1.595  16.349 -0.7056 -1.2163  0.6710
  616TMC3    H2 9185   0.532   1.656  16.445 -0.4626  0.2976 -0.4545
  616TMC3    C7 9186   0.316   1.755  16.289 -0.2348 -0.1393 -0.5549
  616TMC3    C8 9187   0.551   1.450  16.584  1.0443  0.2729  0.3045
  616TMC3    O1 9188   0.227   1.743  16.202  0.0065  0.3333  0.1998
  616TMC3    O2 9189   0.548   1.326  16.565  0.3060 -0.2244  0.3161
  617MPD2     C 9190   3.209   4.345  13.960  0.0724 -0.4223  0.1758
  617MPD2    C1 9191   3.096   4.367  13.889  0.7688 -0.5250  0.0263
  617MPD2    C2 9192   2.980   4.300  13.926  0.5091  0.6840 -0.2455
  617MPD2    C3 9193   2.979   4.222  14.040  0.5895  0.6508 -0.0538
  617MPD2    C4 9194   3.090   4.211  14.121  0.1445  0.4279 -0.0475
  617MPD2    C5 9195   3.205   4.273  14.071 -0.1591 -0.7161 -0.5552
  617MPD2     H 9196   2.890   4.323  13.869 -1.1786 -1.4728  1.5489
  617MPD2    H1 9197   3.101   4.155  14.213 -0.7312 -2.0638 -1.4525
  617MPD2    H2 9198   3.302   4.392  13.931 -0.2231  0.6475  0.9412
  617MPD2    H3 9199   3.299   4.263  14.124  0.7606  1.3630 -1.8217
  617MPD2     N 9200   2.850   4.162  14.078 -0.0950 -0.7367 -0.6865
  617MPD2    H5 9201   2.774   4.197  14.021 -0.7590  2.4584  2.1747
  617MPD2    N1 9202   3.114   4.431  13.768 -0.3102 -0.0221  0.0224
  617MPD2    H7 9203   3.208   4.467  13.750  0.7007 -1.7074  1.9292
  618TMC3    C1 9204   3.075   4.516  13.554  0.9476 -0.3175  0.5960
  618TMC3    C2 9205   3.195   4.583  13.548 -0.2075 -0.0737  0.3249
  618TMC3    C3 9206   3.256   4.583  13.424 -0.4755  0.5412 -0.2921
  618TMC3    C4 9207   3.012   4.464  13.440 -0.8048  0.5320  0.6520
  618TMC3    C5 9208   3.073   4.475  13.320 -0.4882  0.0308 -0.7515
  618TMC3    C6 9209   3.199   4.533  13.310 -0.3923 -0.4586 -0.4110
  618TMC3     C 9210   3.022   4.460  13.673 -0.9032  0.0171  0.3032
  618TMC3     O 9211   2.903   4.433  13.671  0.0996 -0.3982 -0.3218
  618TMC3     H 9212   3.243   4.614  13.641 -1.4697  1.1999  0.5485
  618TMC3    H1 9213   2.921   4.406  13.441 -0.4572 -0.0238 -0.3669
  618TMC3    H2 9214   3.251   4.532  13.215 -1.6091 -0.4770 -1.0831
  618TMC3    C7 9215   3.041   4.367  13.224 -0.1088  0.6982 -0.6624
  618TMC3    C8 9216   3.388   4.619  13.411  0.3082 -0.6411  0.1933
  618TMC3    O1 9217   2.974   4.272  13.265 -0.0984  0.7235 -0.2465
  618TMC3    O2 9218   3.431   4.693  13.501 -0.0555 -0.4483 -0.0090
  619MPD2     C 9219   3.396   0.984  12.858 -0.1065  0.4443 -0.1207
  619MPD2    C1 9220   3.311   0.980  12.964 -0.0583 -0.0055 -0.2517
  619MPD2    C2 9221   3.301   0.861  13.038  0.6655 -0.9494 -0.2558
  619MPD2    C3 9222   3.385   0.755  13.013 -0.4550  0.1665 -0.1340
  619MPD2    C4 9223   3.466   0.757  12.900  0.5580 -1.0612  0.1206
  619MPD2    C5 9224   3.473   0.874  12.823  0.7947  0.1845 -0.1856
  619MPD2     H 9225   3.233   0.855  13.122  0.3625  2.0204 -0.2938
  619MPD2    H1 9226   3.539   0.682  12.871  1.4635 -0.0523 -0.2203
  619MPD2    H2 9227   3.402   1.074  12.797 -0.6773  0.6668  0.1562
  619MPD2    H3 9228   3.553   0.874  12.750 -0.2769  0.7079 -1.3776
  619MPD2     N 9229   3.406   0.643  13.093 -0.4972 -0.8113  0.2822
  619MPD2    H5 9230   3.466   0.566  13.067 -0.1015 -0.3911 -0.0483
  619MPD2    N1 9231   3.227   1.083  13.015  0.4614  0.6325 -0.4739
  619MPD2    H7 9232   3.182   1.049  13.099  0.1232  0.8687 -0.5613
  620TMC3    C1 9233   3.202   1.296  13.100  0.5177 -0.1540  0.4503
  620TMC3    C2 9234   3.200   1.238  13.220  0.2313  0.2406 -0.1933
  620TMC3    C3 9235   3.248   1.302  13.327 -0.3757  0.5870  0.9958
  620TMC3    C4 9236   3.234   1.426  13.089  0.2542  0.0804 -0.4509
  620TMC3    C5 9237   3.287   1.492  13.200 -0.3915 -0.0958  0.6684
  620TMC3    C6 9238   3.304   1.425  13.313 -0.2707  0.0767 -0.5293
  620TMC3     C 9239   3.240   1.213  12.988  0.4222  0.3020 -0.1821
  620TMC3     O 9240   3.314   1.263  12.902 -0.1127 -0.5165  0.3892
  620TMC3     H 9241   3.153   1.142  13.240 -0.8716  1.1194  1.4465
  620TMC3    H1 9242   3.219   1.476  12.994 -2.4627  0.6597  0.2793
  620TMC3    H2 9243   3.351   1.472  13.399  0.3736  1.3614 -1.5841
  620TMC3    C7 9244   3.311   1.635  13.173  0.3423  0.4745 -0.2194
  620TMC3    C8 9245   3.299   1.229  13.431 -0.9140 -0.1447 -0.0601
  620TMC3    O1 9246   3.220   1.675  13.103 -0.1175  0.7456  0.0983
  620TMC3    O2 9247   3.415   1.240  13.468  0.1793  0.0290  0.7583
  621MPD2     C 9248   4.203   0.404   9.413  0.3983  0.5088  0.0021
  621MPD2    C1 9249   4.236   0.443   9.536  1.1357 -0.1204  0.3117
  621MPD2    C2 9250   4.352   0.514   9.552  0.1139  0.3271 -0.1352
  621MPD2    C3 9251   4.432   0.555   9.450  0.4770  0.0005  0.6737
  621MPD2    C4 9252   4.400   0.519   9.322 -0.5281  0.2956 -0.0779
  621MPD2    C5 9253   4.293   0.445   9.309  0.3258 -0.2118 -0.2108
  621MPD2     H 9254   4.394   0.543   9.647 -2.4693 -0.1992  1.1645
  621MPD2    H1 9255   4.461   0.546   9.236  0.2602 -1.1226  0.0359
  621MPD2    H2 9256   4.122   0.334   9.396 -1.3419  3.1127 -2.5806
  621MPD2    H3 9257   4.274   0.418   9.206 -3.2831  1.7991 -0.1030
  621MPD2     N 9258   4.538   0.637   9.491 -0.2373  0.0082 -0.1528
  621MPD2    H5 9259   4.545   0.664   9.589 -0.3739 -2.7403  0.6111
  621MPD2    N1 9260   4.160   0.425   9.652 -0.0746  0.4898 -0.4137
  621MPD2    H7 9261   4.195   0.472   9.735 -1.0924 -0.0306  0.3167
  622TMC3    C1 9262   3.976   0.387   9.787  0.2445  0.2809 -0.0212
  622TMC3    C2 9263   4.001   0.509   9.855  0.1949 -0.3338 -0.9916
  622TMC3    C3 9264   3.914   0.538   9.959 -0.9440  0.2348  0.3929
  622TMC3    C4 9265   3.866   0.310   9.815  0.7521 -0.3718  0.2740
  622TMC3    C5 9266   3.801   0.334   9.932  0.9201  0.0910 -0.2685
  622TMC3    C6 9267   3.827   0.442  10.013  0.4409  0.2068 -0.4994
  622TMC3     C 9268   4.035   0.361   9.662 -0.2837  0.0231  0.0414
  622TMC3     O 9269   3.963   0.300   9.583 -0.4278  0.1058 -0.3055
  622TMC3     H 9270   4.068   0.587   9.819 -1.1046  0.9834 -0.5257
  622TMC3    H1 9271   3.845   0.221   9.757 -0.8336  0.7365 -0.8556
  622TMC3    H2 9272   3.768   0.465  10.101  0.1182  0.4683 -0.7797
  622TMC3    C7 9273   3.683   0.259   9.978 -0.1244  0.2035 -0.2250
  622TMC3    C8 9274   3.948   0.658  10.032  0.1983  0.3712  0.5413
  622TMC3    O1 9275   3.657   0.262  10.099 -0.0470 -0.2222 -0.0329
  622TMC3    O2 9276   4.046   0.720   9.999  0.2319  0.4310 -0.3839
  623MPD2     C 9277   3.470   1.670  15.732  0.2722  0.2325  0.9967
  623MPD2    C1 9278   3.435   1.550  15.787  0.4884 -0.3757 -0.3286
  623MPD2    C2 9279   3.534   1.487  15.871  0.9500  0.0392  0.2889
  623MPD2    C3 9280   3.653   1.550  15.891 -0.0968  0.2953  0.0921
  623MPD2    C4 9281   3.676   1.675  15.840 -0.3840 -0.2034  0.1331
  623MPD2    C5 9282   3.589   1.739  15.757  0.5384 -0.4132 -0.0364
  623MPD2     H 9283   3.521   1.388  15.913 -2.2709 -0.2456 -1.3683
  623MPD2    H1 9284   3.768   1.728  15.861 -0.6134 -0.2974  1.3789
  623MPD2    H2 9285   3.402   1.706  15.656 -1.1371 -1.0699  1.6312
  623MPD2    H3 9286   3.607   1.830  15.701 -0.7805  0.4702  0.9628
  623MPD2     N 9287   3.730   1.477  15.976 -0.2039 -0.1301  0.1839
  623MPD2    H5 9288   3.675   1.397  16.006 -1.3204  1.3661  2.1908
  623MPD2    N1 9289   3.307   1.485  15.762  0.0036  0.5657 -0.0361
  623MPD2    H7 9290   3.234   1.545  15.725  1.7966  1.9675 -1.2860
  624TMC3    C1 9291   4.061   1.403  16.303 -0.0391  0.3265  0.9704
  624TMC3    C2 9292   3.973   1.342  16.385  0.0683  0.1997  0.7447
  624TMC3    C3 9293   3.852   1.311  16.328  0.3358 -1.0099 -0.2688
  624TMC3    C4 9294   4.031   1.443  16.176 -0.5768  0.1460 -0.3786
  624TMC3    C5 9295   3.905   1.425  16.131 -0.0973  0.0205 -0.1684
  624TMC3    C6 9296   3.816   1.357  16.206 -0.1718  0.8633  0.0434
  624TMC3     C 9297   4.188   1.449  16.367  0.4175 -0.0336  0.1579
  624TMC3     O 9298   4.193   1.459  16.484 -0.7895 -0.2746  0.0473
  624TMC3     H 9299   4.012   1.294  16.474  0.3357 -0.7042  0.1379
  624TMC3    H1 9300   4.102   1.494  16.112  0.1063 -1.2266 -0.7155
  624TMC3    H2 9301   3.723   1.317  16.166 -0.5642 -0.4067  2.1894
  624TMC3    C7 9302   3.852   1.518  16.031  0.2839  0.4276 -0.5521
  624TMC3    C8 9303   3.749   1.249  16.402  0.2191  0.1701 -0.4042
  624TMC3    O1 9304   3.922   1.613  16.000 -0.6911 -0.4350 -0.0641
  624TMC3    O2 9305   3.687   1.162  16.341  0.1382 -0.2459  0.0496
  625MPD2     C 9306   4.302   2.640   0.388  0.3016 -0.8368  0.7642
  625MPD2    C1 9307   4.325   2.777   0.414  0.2505 -0.2017  0.4272
  625MPD2    C2 9308   4.448   2.818   0.460 -0.5662 -0.4557 -0.1286
  625MPD2    C3 9309   4.552   2.725   0.489 -0.5226 -0.0105  0.2342
  625MPD2    C4 9310   4.523   2.590   0.469  0.0406  0.0348 -0.1765
  625MPD2    C5 9311   4.404   2.549   0.415  0.2431 -0.1936 -0.1136
  625MPD2     H 9312   4.460   2.924   0.477  1.3979 -0.5409 -0.9825
  625MPD2    H1 9313   4.593   2.509   0.487 -1.0656 -1.2944 -1.8163
  625MPD2    H2 9314   4.211   2.601   0.346 -0.0775 -0.1786  0.9761
  625MPD2    H3 9315   4.387   2.444   0.395  0.8489 -0.4391  0.6895
  625MPD2     N 9316   4.680   2.775   0.532  0.4398  0.1732 -0.2116
  625MPD2    H5 9317   4.696   2.874   0.545 -0.2693  0.2425  0.1153
  625MPD2    N1 9318   4.229   2.881   0.413 -0.4329 -0.5624  0.2619
  625MPD2    H7 9319   4.255   2.973   0.445  0.0528  0.3846 -2.8301
  626TMC3    C1 9320   4.010   2.986   0.401  0.4511 -0.0889  0.4896
  626TMC3    C2 9321   3.901   3.005   0.324 -0.6169 -0.2428 -0.7924
  626TMC3    C3 9322   3.832   3.122   0.348  0.3299  0.6059 -0.0373
  626TMC3    C4 9323   4.045   3.064   0.502  0.2088 -0.1773 -1.0512
  626TMC3    C5 9324   3.971   3.174   0.530  0.4921  0.0905  0.8053
  626TMC3    C6 9325   3.855   3.209   0.454 -0.3077 -0.6129 -0.1783
  626TMC3     C 9326   4.096   2.866   0.377 -0.0383  0.3829 -0.4757
  626TMC3     O 9327   4.046   2.766   0.332  0.0429  0.5743 -0.1767
  626TMC3     H 9328   3.886   2.958   0.228 -1.1788  0.7686 -1.1878
  626TMC3    H1 9329   4.135   3.053   0.561  0.8478  1.4837 -1.7152
  626TMC3    H2 9330   3.805   3.306   0.454 -0.3489 -0.6238  1.4616
  626TMC3    C7 9331   4.011   3.258   0.638  0.2694  0.4788 -1.0313
  626TMC3    C8 9332   3.731   3.166   0.250  0.2731 -0.0603 -0.0421
  626TMC3    O1 9333   4.126   3.254   0.672 -0.0052  0.4262  0.3050
  626TMC3    O2 9334   3.736   3.277   0.205  0.1558 -0.0669  0.0667
  627MPD2     C 9335   2.351   2.987  14.388 -0.6092  0.5157 -0.2041
  627MPD2    C1 9336   2.353   2.928  14.512 -0.2807 -0.2182 -0.8396
  627MPD2    C2 9337   2.280   2.809  14.535 -0.4687 -0.6852  0.3101
  627MPD2    C3 9338   2.203   2.746  14.441  0.3132  0.6766  0.5108
  627MPD2    C4 9339   2.200   2.809  14.318 -0.1899 -0.7974  0.0054
  627MPD2    C5 9340   2.267   2.925  14.296 -0.3895  0.4111  0.0817
  627MPD2     H 9341   2.295   2.754  14.627  1.0996  0.7437  0.9130
  627MPD2    H1 9342   2.138   2.772  14.237 -0.9109  0.2234  0.1010
  627MPD2    H2 9343   2.404   3.077  14.362 -0.9286  1.1353  1.2997
  627MPD2    H3 9344   2.253   2.970  14.198  2.4136 -1.7100 -1.2929
  627MPD2     N 9345   2.113   2.636  14.472  0.2639  0.0920  0.3558
  627MPD2    H5 9346   2.096   2.620  14.571  0.2377 -1.4569  0.0886
  627MPD2    N1 9347   2.434   2.982  14.614 -0.6909  0.5065 -0.1119
  627MPD2    H7 9348   2.441   2.934  14.703  0.7542  1.8094  0.4897
  628TMC3    C1 9349   2.566   3.146  14.733 -0.2490  0.4816  0.2284
  628TMC3    C2 9350   2.657   3.056  14.786 -0.1094 -0.0541  0.0606
  628TMC3    C3 9351   2.756   3.111  14.868  0.0987 -0.4406 -0.3611
  628TMC3    C4 9352   2.580   3.277  14.763  0.3139 -0.1784 -0.6465
  628TMC3    C5 9353   2.682   3.328  14.838  0.1409 -0.6801  0.2448
  628TMC3    C6 9354   2.766   3.245  14.896 -0.0740 -0.0187  0.4137
  628TMC3     C 9355   2.488   3.115  14.611 -0.4118  0.1551 -0.7489
  628TMC3     O 9356   2.469   3.202  14.532 -0.5591 -0.0053  0.3598
  628TMC3     H 9357   2.646   2.951  14.762  2.4121 -0.2229 -0.3506
  628TMC3    H1 9358   2.504   3.342  14.721 -0.3818 -0.6841 -0.1405
  628TMC3    H2 9359   2.857   3.287  14.937 -0.0551  2.2808 -1.9711
  628TMC3    C7 9360   2.698   3.466  14.863  0.3152  0.0522  0.3947
  628TMC3    C8 9361   2.882   3.033  14.884 -1.0314  0.1651  0.1351
  628TMC3    O1 9362   2.750   3.500  14.969  0.4518  0.2680 -0.3992
  628TMC3    O2 9363   2.987   3.090  14.875  0.3094 -0.0450 -0.0938
  629MPD2     C 9364   1.034   1.421  16.721  0.1065 -0.0634 -0.0448
  629MPD2    C1 9365   1.013   1.553  16.704  0.1326  0.2178 -0.9733
  629MPD2    C2 9366   0.887   1.587  16.673 -1.0846 -0.6870 -0.1500
  629MPD2    C3 9367   0.781   1.494  16.675 -0.3997 -0.1706  0.6348
  629MPD2    C4 9368   0.802   1.360  16.700  0.0292  0.5688 -0.7978
  629MPD2    C5 9369   0.934   1.326  16.715 -0.2226 -0.2745  0.6499
  629MPD2     H 9370   0.862   1.692  16.676  0.4068 -0.3387  0.0720
  629MPD2    H1 9371   0.723   1.287  16.702  0.1277  0.4297 -2.1433
  629MPD2    H2 9372   1.136   1.389  16.742  0.8726  4.0941  2.4711
  629MPD2    H3 9373   0.958   1.220  16.723 -1.7490 -0.7184 -0.5073
  629MPD2     N 9374   0.654   1.534  16.623 -0.1785  0.2348 -0.0612
  629MPD2    H5 9375   0.645   1.635  16.610  1.1555  0.4467  0.7242
  629MPD2    N1 9376   1.121   1.638  16.694 -0.0523  0.4055 -0.8274
  629MPD2    H7 9377   1.214   1.598  16.703 -0.2644  0.4706  1.5804
  630TMC3    C1 9378   1.252   1.834  16.677  0.5127 -0.1320  0.1993
  630TMC3    C2 9379   1.269   1.937  16.585 -0.4210  0.4586 -0.3102
  630TMC3    C3 9380   1.396   1.994  16.596  0.0446  0.3765 -0.4956
  630TMC3    C4 9381   1.342   1.778  16.766 -0.3776 -0.3254  0.1441
  630TMC3    C5 9382   1.468   1.832  16.760  0.6290  0.1106 -0.1768
  630TMC3    C6 9383   1.491   1.939  16.672  0.5252  0.5554 -0.7732
  630TMC3     C 9384   1.120   1.772  16.674  0.1127  1.1281 -0.6315
  630TMC3     O 9385   1.030   1.851  16.658 -0.5157  0.3618  0.6187
  630TMC3     H 9386   1.185   1.975  16.528  0.7848 -1.0355 -3.0734
  630TMC3    H1 9387   1.319   1.692  16.827  0.6579 -0.4897  0.3046
  630TMC3    H2 9388   1.586   1.989  16.655  1.1781  0.1394  1.6760
  630TMC3    C7 9389   1.583   1.772  16.828 -0.1082 -0.1114 -0.1359
  630TMC3    C8 9390   1.448   2.094  16.503 -0.0676 -0.4248 -0.3535
  630TMC3    O1 9391   1.555   1.677  16.895 -0.3164 -0.2268  0.1289
  630TMC3    O2 9392   1.514   2.180  16.554 -0.3673  0.3778 -0.7341
  631MPD2     C 9393   3.829   1.214  15.309 -0.7170  0.3040  0.5183
  631MPD2    C1 9394   3.913   1.321  15.308  0.2998 -0.3945 -0.4915
  631MPD2    C2 9395   4.037   1.307  15.377  0.2369  0.8345 -0.1212
  631MPD2    C3 9396   4.078   1.197  15.449 -1.1882  0.9236  0.0828
  631MPD2    C4 9397   3.989   1.089  15.448 -0.1367  0.2047  0.7025
  631MPD2    C5 9398   3.864   1.107  15.387  0.0069  0.7050  0.5719
  631MPD2     H 9399   4.107   1.389  15.365  0.2238  0.4711 -2.5627
  631MPD2    H1 9400   4.009   0.992  15.492 -0.9337  0.4745  1.6462
  631MPD2    H2 9401   3.740   1.216  15.246  0.2410  0.6459 -0.8370
  631MPD2    H3 9402   3.800   1.019  15.390  3.1055 -1.5720  0.1286
  631MPD2     N 9403   4.197   1.194  15.519 -0.0361  0.2069 -0.6635
  631MPD2    H5 9404   4.263   1.270  15.509 -0.5679  0.8667  0.7649
  631MPD2    N1 9405   3.874   1.440  15.249  0.5404 -0.2355  0.2344
  631MPD2    H7 9406   3.792   1.422  15.192  1.6172  0.3973 -1.5020
  632TMC3    C1 9407   3.851   1.665  15.204  0.2190  0.0590  0.4100
  632TMC3    C2 9408   3.841   1.783  15.277  0.2631 -0.0905  0.5818
  632TMC3    C3 9409   3.745   1.867  15.238  0.1093 -0.2595  0.1004
  632TMC3    C4 9410   3.757   1.640  15.099  0.0480  0.7485  0.0557
  632TMC3    C5 9411   3.679   1.741  15.058 -0.4092  0.5099  0.1288
  632TMC3    C6 9412   3.671   1.868  15.122 -0.1086  0.1899  0.9727
  632TMC3     C 9413   3.929   1.565  15.260  0.4263  0.0546 -0.2052
  632TMC3     O 9414   4.033   1.598  15.310 -0.7664 -0.0513  0.3303
  632TMC3     H 9415   3.887   1.785  15.376  1.5269  3.6648 -0.0652
  632TMC3    H1 9416   3.762   1.548  15.042 -0.7150  2.1753 -2.3362
  632TMC3    H2 9417   3.604   1.950  15.102 -0.8143 -0.3152  1.2548
  632TMC3    C7 9418   3.674   1.746  14.909  0.0828  0.0043 -0.4556
  632TMC3    C8 9419   3.696   1.961  15.336 -0.4113 -0.3369 -0.4244
  632TMC3    O1 9420   3.765   1.687  14.852 -0.6685  0.0353  0.5890
  632TMC3    O2 9421   3.573   1.975  15.344  0.0240 -0.0643  0.1069
  633MPD2     C 9422   3.831   0.062  17.468 -0.3916  0.2855 -0.7093
  633MPD2    C1 9423   3.767   4.693  17.411 -0.4049 -0.1452  0.0908
  633MPD2    C2 9424   3.826   4.561  17.423 -0.0638 -0.3788 -0.0854
  633MPD2    C3 9425   3.941   4.535  17.493 -0.4918 -0.1537  0.2205
  633MPD2    C4 9426   3.996   4.649  17.546 -0.7349  0.5807 -0.2410
  633MPD2    C5 9427   3.945   0.037  17.539 -0.3862  0.0937  0.3117
  633MPD2     H 9428   3.784   4.479  17.367  2.1639 -2.1721  0.8709
  633MPD2    H1 9429   4.093   4.632  17.592 -1.6762  0.8168  1.8314
  633MPD2    H2 9430   3.783   0.158  17.456 -1.8593 -0.4564 -0.8048
  633MPD2    H3 9431   3.997   0.124  17.578 -0.1876 -0.1799  0.6572
  633MPD2     N 9432   4.013   4.414  17.485  0.2463 -0.4657 -0.0099
  633MPD2    H5 9433   4.104   4.407  17.529 -0.1319 -2.2380  0.5220
  633MPD2    N1 9434   3.639   4.692  17.348 -0.4232 -0.6656  0.1933
  633MPD2    H7 9435   3.604   4.613  17.295  0.2486 -0.5859 -0.3756
  634TMC3    C1 9436   3.456   0.039  17.244  0.0310 -0.5581  0.4869
  634TMC3    C2 9437   3.424   4.642  17.221 -0.2940 -0.0990  0.3109
  634TMC3    C3 9438   3.363   4.612  17.104  0.4526 -0.0304 -0.0777
  634TMC3    C4 9439   3.452   0.128  17.139  0.1577 -0.0460 -1.1047
  634TMC3    C5 9440   3.398   0.090  17.021 -0.0912  0.0377 -0.0044
  634TMC3    C6 9441   3.338   4.706  17.006 -0.0437  0.3785  0.7778
  634TMC3     C 9442   3.557   0.057  17.348  0.3760  0.1837 -0.9254
  634TMC3     O 9443   3.573   0.168  17.391 -0.3823 -0.1458  0.1869
  634TMC3     H 9444   3.430   4.559  17.290 -2.5170 -1.9541 -1.7608
  634TMC3    H1 9445   3.503   0.221  17.158  0.7243 -0.4563 -0.6120
  634TMC3    H2 9446   3.290   4.676  16.913 -2.9991 -0.7410  2.6614
  634TMC3    C7 9447   3.424   0.166  16.902  1.1124 -0.4628  0.8288
  634TMC3    C8 9448   3.381   4.476  17.054  0.2740  0.4235 -0.0872
  634TMC3    O1 9449   3.363   0.137  16.798  0.5513  0.3401 -0.3122
  634TMC3    O2 9450   3.465   4.402  17.105  0.3558  0.6401 -0.7367
  635TMC3    C1 9451   4.488   1.129  17.323 -0.6636  0.4529  0.1867
  635TMC3    C2 9452   4.519   1.002  17.288 -0.8566  0.3461  0.4438
  635TMC3    C3 9453   4.419   0.907  17.292 -0.4451 -0.1864  0.5985
  635TMC3    C4 9454   4.357   1.166  17.338 -0.2888 -0.2181  0.3072
  635TMC3    C5 9455   4.259   1.070  17.338 -0.1050 -0.6770 -0.1264
  635TMC3    C6 9456   4.286   0.940  17.313 -0.0338  0.1174  0.2631
  635TMC3     C 9457   4.593   1.219  17.384 -0.4517  0.3194  0.0795
  635TMC3     O 9458   4.571   1.270  17.491 -0.3463  0.3913  0.1219
  635TMC3     H 9459   4.619   0.964  17.271 -0.4817  1.4268  0.1823
  635TMC3    H1 9460   4.338   1.266  17.373  0.5090 -1.1515  3.4894
  635TMC3    H2 9461   4.214   0.859  17.321 -1.0690  0.6974 -3.3233
  635TMC3    C7 9462   4.132   1.114  17.389  0.1456 -0.4485  0.3781
  635TMC3    C8 9463   4.451   0.762  17.272  0.1287  0.3578  0.3217
  635TMC3    O1 9464   4.124   1.213  17.464 -0.2015 -0.3553 -0.0566
  635TMC3    O2 9465   4.376   0.698  17.196 -0.2382 -0.1009 -0.2584
  636MPD2     C 9466   0.313   4.600  16.561  0.3835 -0.1109 -1.1813
  636MPD2    C1 9467   0.342   4.718  16.630  0.5582  0.1629  0.0482
  636MPD2    C2 9468   0.473   4.730  16.672 -0.0201 -0.5051  0.7907
  636MPD2    C3 9469   0.577   4.635  16.644  0.3455  0.0247 -0.0495
  636MPD2    C4 9470   0.543   4.526  16.569 -0.3285  0.2311  0.0983
  636MPD2    C5 9471   0.409   4.504  16.530 -0.2102  0.1614  0.5741
  636MPD2     H 9472   0.501   0.085  16.722 -1.1552 -1.1153  2.5523
  636MPD2    H1 9473   0.619   4.461  16.526 -0.2736  0.7383 -0.5763
  636MPD2    H2 9474   0.215   4.587  16.518  0.2246 -1.0104 -0.5412
  636MPD2    H3 9475   0.382   4.416  16.472  2.8394  1.0848 -2.2402
  636MPD2     N 9476   0.707   4.670  16.678  0.1474 -0.4224  0.5557
  636MPD2    H5 9477   0.710   0.029  16.710 -0.0505 -0.1545 -0.2400
  636MPD2    N1 9478   0.247   0.087  16.640  0.2794  0.1699 -0.2023
  636MPD2    H7 9479   0.279   0.169  16.689 -0.7085  0.4114  0.0272
  637TMC3    C1 9480   0.934   4.702  16.626  0.4528 -0.1015 -0.0465
  637TMC3    C2 9481   0.904   0.092  16.650  0.8020 -0.6758  0.4104
  637TMC3    C3 9482   0.940   0.189  16.563 -0.4545  0.0375  0.9783
  637TMC3    C4 9483   1.007   4.666  16.515 -0.7556  0.1773  0.2689
  637TMC3    C5 9484   1.024   0.022  16.417  0.2954  0.4244  0.1214
  637TMC3    C6 9485   1.005   0.151  16.446 -0.6203  0.3890 -0.0102
  637TMC3     C 9486   0.822   4.604  16.651 -0.5309  0.6543  0.7116
  637TMC3     O 9487   0.829   4.489  16.616 -0.4106 -0.0087  0.1680
  637TMC3     H 9488   0.847   0.119  16.739  0.4854  0.5782 -0.1744
  637TMC3    H1 9489   1.021   4.559  16.503  1.5523  0.5491 -0.3308
  637TMC3    H2 9490   1.004   0.227  16.368  1.7399  1.2857  0.8288
  637TMC3    C7 9491   0.932   4.727  16.306  0.3072  0.5649 -0.5548
  637TMC3    C8 9492   0.835   0.296  16.551  0.9138  0.1719 -0.8693
  637TMC3    O1 9493   0.890   0.073  16.229  0.3695 -0.4283 -0.0797
  637TMC3    O2 9494   0.738   0.283  16.626 -0.4472  0.3892  0.0812
  638MPD2     C 9495   4.719   3.351  15.256 -0.6597 -0.3082 -0.0282
  638MPD2    C1 9496   0.040   3.230  15.224 -0.6451 -0.1410 -1.0042
  638MPD2    C2 9497   0.029   3.117  15.309 -0.3163  0.2444 -0.7318
  638MPD2    C3 9498   4.687   3.131  15.423 -0.3000  0.7757 -0.0304
  638MPD2    C4 9499   4.637   3.255  15.460  0.2524  0.0922  0.0424
  638MPD2    C5 9500   4.659   3.362  15.381  0.0622 -0.0506 -0.1451
  638MPD2     H 9501   0.077   3.022  15.289 -2.3698 -0.9981  0.2307
  638MPD2    H1 9502   4.595   3.271  15.558  0.8260 -0.1363  0.3241
  638MPD2    H2 9503   0.008   3.441  15.203  1.0321 -2.3652 -2.6744
  638MPD2    H3 9504   4.639   3.463  15.414  0.0284  0.5849 -2.1342
  638MPD2     N 9505   4.665   3.016  15.495  0.2212  0.1761  0.0634
  638MPD2    H5 9506   4.716   2.933  15.467 -1.2912 -0.7079 -0.0559
  638MPD2    N1 9507   0.105   3.218  15.099  0.2687 -0.0886 -0.6551
  638MPD2    H7 9508   0.075   3.291  15.035 -1.0905 -0.8129 -0.8574
  639TMC3    C1 9509   4.535   2.848  15.570  0.0685  0.5502  1.1266
  639TMC3    C2 9510   4.439   2.779  15.493  0.2308  0.0742 -0.3002
  639TMC3    C3 9511   4.474   2.656  15.441 -0.3463  0.6047  0.4438
  639TMC3    C4 9512   4.648   2.785  15.613 -0.1584 -0.4433 -0.1117
  639TMC3    C5 9513   4.682   2.661  15.565 -0.4326  0.3227 -0.6618
  639TMC3    C6 9514   4.599   2.603  15.469  1.5497  0.3256  0.2907
  639TMC3     C 9515   4.543   2.989  15.545  0.0680 -0.8680 -0.0800
  639TMC3     O 9516   4.437   3.048  15.534  0.0905  0.1549  0.0911
  639TMC3     H 9517   4.347   2.835  15.480 -0.0962 -0.8751 -2.1683
  639TMC3    H1 9518   4.719   2.832  15.680 -0.1478  0.1269 -0.5303
  639TMC3    H2 9519   4.624   2.511  15.418 -0.8994  0.3153 -0.8659
  639TMC3    C7 9520   0.090   2.649  15.558 -0.0799 -0.3630  0.3645
  639TMC3    C8 9521   4.385   2.593  15.342 -0.0222  0.1792 -0.0820
  639TMC3    O1 9522   0.140   2.648  15.672 -0.2506  0.2757 -0.3529
  639TMC3    O2 9523   4.435   2.505  15.273 -0.1518  0.0393  0.1476
  640MPD2     C 9524   4.445   2.120  10.142  0.1433  0.0589  0.5689
  640MPD2    C1 9525   4.310   2.089  10.169 -0.0621  0.3705  0.0024
  640MPD2    C2 9526   4.251   2.147  10.281  0.0646 -0.5931 -0.3935
  640MPD2    C3 9527   4.315   2.241  10.361 -0.1089 -0.4496  0.3054
  640MPD2    C4 9528   4.446   2.271  10.339  0.4682 -0.2087  0.4639
  640MPD2    C5 9529   4.511   2.211  10.226  0.5424 -0.2417 -0.4677
  640MPD2     H 9530   4.154   2.110  10.313 -0.1689 -0.4094 -0.8970
  640MPD2    H1 9531   4.505   2.342  10.396 -0.1177 -0.8974  1.9241
  640MPD2    H2 9532   4.502   2.068  10.065  1.2597  0.9842  0.7657
  640MPD2    H3 9533   4.613   2.239  10.207  0.4101  1.0643  0.7626
  640MPD2     N 9534   4.255   2.304  10.479  0.0372  0.6049 -0.0594
  640MPD2    H5 9535   4.307   2.385  10.512  0.9613  0.3388 -0.8582
  640MPD2    N1 9536   4.257   1.980  10.097  0.7392  0.0435  0.2094
  640MPD2    H7 9537   4.324   1.947  10.028 -0.1621  0.2137 -0.7471
  641TMC3    C1 9538   4.098   1.826  10.016 -0.2479  0.3172  0.4614
  641TMC3    C2 9539   4.168   1.807   9.900 -0.2992  0.5993 -0.2634
  641TMC3    C3 9540   4.127   1.692   9.833 -0.7053  0.2847  0.0127
  641TMC3    C4 9541   3.979   1.757  10.051  0.0303 -0.1110 -0.5274
  641TMC3    C5 9542   3.944   1.649   9.972  0.3559  0.1892  0.1259
  641TMC3    C6 9543   4.022   1.616   9.869  0.0975 -0.1828 -0.3320
  641TMC3     C 9544   4.135   1.926  10.117  0.2945  0.2957 -1.0993
  641TMC3     O 9545   4.048   1.950  10.199  0.0153 -0.0592  0.0569
  641TMC3     H 9546   4.235   1.880   9.858  0.1422 -1.3949 -3.0461
  641TMC3    H1 9547   3.913   1.779  10.134  1.3297 -1.0310  0.7674
  641TMC3    H2 9548   4.003   1.527   9.809  0.4473  1.4628 -2.9088
  641TMC3    C7 9549   3.812   1.592   9.997 -0.4126 -0.3888 -0.1295
  641TMC3    C8 9550   4.186   1.645   9.709 -0.2867  0.4791  0.0644
  641TMC3    O1 9551   3.742   1.634  10.086  0.0578 -0.0991  0.1288
  641TMC3    O2 9552   4.104   1.613   9.622 -0.4343 -0.0601 -0.7675
  642TMC3    C1 9553   1.366   2.981  12.717 -0.1453  0.2001  0.8224
  642TMC3    C2 9554   1.498   3.008  12.746 -0.4999  0.2192 -0.6915
  642TMC3    C3 9555   1.578   2.899  12.736 -0.2548 -0.0709  0.5863
  642TMC3    C4 9556   1.320   2.850  12.714 -0.6877 -0.0533 -0.1593
  642TMC3    C5 9557   1.413   2.745  12.709  0.2406  0.1113 -0.4191
  642TMC3    C6 9558   1.546   2.770  12.709  0.2784  0.1284  0.0799
  642TMC3     C 9559   1.274   3.094  12.696  0.7691 -0.3654 -0.4319
  642TMC3     O 9560   1.338   3.195  12.671 -0.2134 -0.1831 -0.2183
  642TMC3     H 9561   1.549   3.104  12.754 -1.1897  0.4086  1.3364
  642TMC3    H1 9562   1.217   2.835  12.684 -0.7792  1.7127 -0.7429
  642TMC3    H2 9563   1.625   2.696  12.700 -0.9498 -1.1409 -0.0606
  642TMC3    C7 9564   1.361   2.622  12.657 -0.4777  0.0960 -0.1154
  642TMC3    C8 9565   1.720   2.914  12.755 -0.1293 -0.5383  0.0930
  642TMC3    O1 9566   1.417   2.562  12.571 -0.2021 -0.2920 -0.1900
  642TMC3    O2 9567   1.807   2.858  12.690  0.6722 -0.1873  0.0253
  643TMC3    C1 9568   0.923   2.828   0.478  0.3081  0.1464 -0.7052
  643TMC3    C2 9569   0.853   2.948   0.480 -0.6210  0.0461 -0.0319
  643TMC3    C3 9570   0.850   3.019   0.361  0.0368 -0.5305  0.0821
  643TMC3    C4 9571   0.991   2.783   0.364 -0.1490  0.3754  0.2331
  643TMC3    C5 9572   0.972   2.859   0.248  0.7851  0.3018  0.5014
  643TMC3    C6 9573   0.897   2.971   0.243  0.1244  0.5132 -0.4005
  643TMC3     C 9574   0.960   2.783   0.607  0.8911  0.0617  0.3052
  643TMC3     O 9575   0.875   2.812   0.692 -0.3597  0.0152  0.4481
  643TMC3     H 9576   0.811   2.992   0.570  2.6760  2.5975  0.2445
  643TMC3    H1 9577   1.030   2.682   0.364  2.0364  1.2344  0.6236
  643TMC3    H2 9578   0.862   2.996   0.144  0.6283  1.5210 -0.3187
  643TMC3    C7 9579   1.051   2.843   0.128 -0.4065 -0.4467 -0.4267
  643TMC3    C8 9580   0.787   3.151   0.346  0.4758  0.4475  0.3675
  643TMC3    O1 9581   1.086   2.944   0.068 -0.5321 -0.0869 -0.0625
  643TMC3    O2 9582   0.681   3.158   0.406 -0.3862  0.1160  0.5611
  644MPD2     C 9583   4.281   2.121   9.731  0.2026 -0.5600 -0.1255
  644MPD2    C1 9584   4.349   2.217   9.801  0.3061 -0.0812 -0.0675
  644MPD2    C2 9585   4.270   2.303   9.883 -0.2404 -0.1841 -0.5719
  644MPD2    C3 9586   4.127   2.306   9.880 -0.6775  0.3199 -0.3678
  644MPD2    C4 9587   4.064   2.215   9.805 -0.0759  0.2461  0.0379
  644MPD2    C5 9588   4.142   2.123   9.727  1.0690 -0.3394  0.3326
  644MPD2     H 9589   4.322   2.367   9.954 -3.4888 -1.6356  3.0835
  644MPD2    H1 9590   3.956   2.216   9.795 -0.1721 -0.0862  1.0133
  644MPD2    H2 9591   4.331   2.049   9.667  0.7508 -0.1932 -0.1116
  644MPD2    H3 9592   4.085   2.052   9.668  1.2356 -1.0479  1.0195
  644MPD2     N 9593   4.055   2.416   9.945 -0.2505 -0.4323  0.1684
  644MPD2    H5 9594   4.110   2.485   9.996 -0.6167  1.2208 -1.6687
  644MPD2    N1 9595   4.491   2.213   9.798  0.3390  0.2499 -0.3112
  644MPD2    H7 9596   4.524   2.150   9.725  0.9104 -0.2321  0.3607
  645TMC3    C1 9597   3.880   2.551  10.032 -0.3225 -0.6614  0.2700
  645TMC3    C2 9598   3.948   2.665  10.025 -0.5420  0.3526 -0.3643
  645TMC3    C3 9599   3.900   2.781  10.074  0.7482 -0.2558  0.6058
  645TMC3    C4 9600   3.751   2.549  10.072  0.5486  0.7479  0.1602
  645TMC3    C5 9601   3.697   2.671  10.123  0.4734 -0.3698 -0.1230
  645TMC3    C6 9602   3.772   2.782  10.115 -0.3454 -0.6390 -0.3323
  645TMC3     C 9603   3.916   2.433   9.952  0.6935  1.0102 -0.8902
  645TMC3     O 9604   3.820   2.372   9.902 -0.1728 -0.2884  0.2440
  645TMC3     H 9605   4.047   2.668   9.981 -0.0743  3.1560  0.8930
  645TMC3    H1 9606   3.712   2.454  10.106  0.9038  0.3303 -0.6125
  645TMC3    H2 9607   3.737   2.874  10.160 -1.9561 -0.6612 -1.5494
  645TMC3    C7 9608   3.570   2.683  10.188  0.0220 -0.5451 -0.6542
  645TMC3    C8 9609   3.967   2.901  10.067  0.7507 -0.4021  0.7362
  645TMC3    O1 9610   3.556   2.792  10.242  0.3980  0.1331 -0.1884
  645TMC3    O2 9611   3.905   3.001  10.094  0.1761 -0.4032  0.1353
  646MPD2     C 9612   4.421   1.692  14.757 -0.4543  0.1348  0.6275
  646MPD2    C1 9613   4.467   1.791  14.831 -0.3588 -0.4545  0.0419
  646MPD2    C2 9614   4.405   1.917  14.814 -0.5113  0.1476  0.4769
  646MPD2    C3 9615   4.296   1.940  14.740 -0.3670  0.6035  0.1508
  646MPD2    C4 9616   4.251   1.829  14.666 -0.3384  0.7225  0.0514
  646MPD2    C5 9617   4.314   1.707  14.667  0.0889 -0.1815  0.2147
  646MPD2     H 9618   4.443   2.003  14.869 -1.9910  1.7246 -0.9935
  646MPD2    H1 9619   4.173   1.838  14.591 -0.0210  0.4282 -0.3124
  646MPD2    H2 9620   4.467   1.594  14.764 -0.8873 -0.1283 -0.1871
  646MPD2    H3 9621   4.280   1.626  14.604  1.0820  1.0160 -1.8560
  646MPD2     N 9622   4.244   2.073  14.729  0.0547 -0.1472 -0.5967
  646MPD2    H5 9623   4.258   2.135  14.808  1.4310  0.5141 -1.3585
  646MPD2    N1 9624   4.569   1.766  14.918 -0.3270 -0.1851  0.0156
  646MPD2    H7 9625   4.617   1.676  14.918 -0.8873 -0.4849  2.6990
  647TMC3    C1 9626   4.714   1.798  15.104  0.8497  0.7339  0.3962
  647TMC3    C2 9627   4.691   1.794  15.239 -0.4784 -0.1916  0.6550
  647TMC3    C3 9628   0.020   1.698  15.309  0.2175 -0.2318  0.7423
  647TMC3    C4 9629   0.068   1.716  15.046 -0.4402  0.0906 -0.3507
  647TMC3    C5 9630   0.147   1.630  15.131  0.3032  0.4648  0.1565
  647TMC3    C6 9631   0.110   1.612  15.262  0.3153  0.0175 -0.3893
  647TMC3     C 9632   4.597   1.841  15.029 -0.5587  0.2717 -0.2057
  647TMC3     O 9633   4.518   1.918  15.082 -0.2461  0.0531 -0.4612
  647TMC3     H 9634   4.618   1.867  15.271 -0.8759 -0.0721 -0.5025
  647TMC3    H1 9635   0.083   1.724  14.939 -1.0834  1.2295 -0.3550
  647TMC3    H2 9636   0.162   1.536  15.319  0.8345  0.4611 -0.2721
  647TMC3    C7 9637   0.269   1.565  15.083 -0.3583  0.0114 -0.5347
  647TMC3    C8 9638   4.730   1.714  15.446 -0.0625 -0.2205 -1.0091
  647TMC3    O1 9639   0.349   1.517  15.167 -0.2837 -0.0477  0.0867
  647TMC3    O2 9640   4.629   1.780  15.476  0.4321 -0.0974  0.4155
  648TMC3    C1 9641   4.227   4.451  16.372 -0.3162 -0.3325  0.5497
  648TMC3    C2 9642   4.310   4.340  16.349  0.1996 -0.5257  0.4385
  648TMC3    C3 9643   4.325   4.307  16.216  0.8935  0.0636  1.2070
  648TMC3    C4 9644   4.177   4.529  16.270  0.0387  0.7097 -0.3715
  648TMC3    C5 9645   4.203   4.490  16.142  0.2978 -0.0084  0.1608
  648TMC3    C6 9646   4.280   4.384  16.112 -0.0187  0.9392  0.7358
  648TMC3     C 9647   4.216   4.512  16.501  0.1214  0.3566 -0.0752
  648TMC3     O 9648   4.220   4.633  16.507  0.5738 -0.0633  0.0437
  648TMC3     H 9649   4.330   4.269  16.428  0.8708 -1.0213 -0.1751
  648TMC3    H1 9650   4.133   4.624  16.296  0.6024  0.9175 -0.1873
  648TMC3    H2 9651   4.314   4.358  16.013  0.0094 -0.8719  1.2259
  648TMC3    C7 9652   4.139   4.551  16.026 -0.4643 -0.1718  0.2005
  648TMC3    C8 9653   4.393   4.184  16.185  0.4930  0.5043 -0.3576
  648TMC3    O1 9654   4.193   4.535  15.918  0.2952  0.1525  0.1085
  648TMC3    O2 9655   4.386   4.142  16.070 -0.2585  0.3806 -0.3613
  649TMC3    C1 9656   2.304   0.692  12.878 -0.2884 -0.9733  0.5448
  649TMC3    C2 9657   2.378   0.656  12.773 -0.5535 -0.5669 -1.0139
  649TMC3    C3 9658   2.450   0.539  12.794  0.1787  0.1542 -0.0899
  649TMC3    C4 9659   2.301   0.618  12.993 -0.6454  0.7191  0.1093
  649TMC3    C5 9660   2.364   0.497  13.011 -0.0904 -0.1917  0.4575
  649TMC3    C6 9661   2.439   0.461  12.905  0.1772 -0.2934  0.1707
  649TMC3     C 9662   2.233   0.819  12.865  0.1260  0.1704  0.0742
  649TMC3     O 9663   2.218   0.873  12.978 -0.5981 -0.4765  0.3433
  649TMC3     H 9664   2.393   0.711  12.680  3.3933 -0.0792 -0.0882
  649TMC3    H1 9665   2.245   0.660  13.076  3.0777  0.1463  2.9335
  649TMC3    H2 9666   2.496   0.369  12.913  1.4593  0.3360 -1.6440
  649TMC3    C7 9667   2.342   0.427  13.136 -0.0646 -0.1689  0.1919
  649TMC3    C8 9668   2.581   0.528  12.727 -0.2915 -0.1541  0.0822
  649TMC3    O1 9669   2.245   0.461  13.203  0.3340 -0.8241 -0.4232
  649TMC3    O2 9670   2.653   0.439  12.762 -0.5121 -0.1378 -0.3489
  650TMC3    C1 9671   0.503   1.914  12.660 -0.0102 -0.4033 -0.0397
  650TMC3    C2 9672   0.437   1.988  12.752 -0.3239  0.1826 -0.0535
  650TMC3    C3 9673   0.442   2.125  12.748 -0.8043 -0.3555 -0.3981
  650TMC3    C4 9674   0.591   1.963  12.569  0.0550 -0.1604  0.7458
  650TMC3    C5 9675   0.578   2.101  12.554  0.2051  0.7595 -0.5353
  650TMC3    C6 9676   0.510   2.184  12.643 -0.3508  0.1224  0.4548
  650TMC3     C 9677   0.439   1.803  12.604 -0.0228 -0.6762 -0.0191
  650TMC3     O 9678   0.319   1.802  12.625  0.2237  0.0962  0.4669
  650TMC3     H 9679   0.380   1.936  12.828 -1.8661  2.0411  0.0733
  650TMC3    H1 9680   0.647   1.908  12.494  1.5767  1.5275  0.6295
  650TMC3    H2 9681   0.492   2.288  12.618  1.0331  0.4437  0.8123
  650TMC3    C7 9682   0.588   2.142  12.416 -0.0099 -0.5426 -0.6475
  650TMC3    C8 9683   0.336   2.194  12.821  0.2998 -0.6091  0.9022
  650TMC3    O1 9684   0.587   2.059  12.325 -0.2491 -0.5660  0.0825
  650TMC3    O2 9685   0.260   2.122  12.889  0.1313  0.0251 -0.6332
  651MPD2     C 9686   3.804   4.521  11.305  0.2403  0.1116 -0.6193
  651MPD2    C1 9687   3.814   4.628  11.221  0.3615 -0.3010  0.4015
  651MPD2    C2 9688   3.923   4.634  11.130 -0.0501  0.2816 -0.6404
  651MPD2    C3 9689   4.010   4.532  11.113  0.6345 -0.0664  0.1474
  651MPD2    C4 9690   3.998   4.428  11.201 -0.2234  0.1562 -0.0560
  651MPD2    C5 9691   3.898   4.419  11.288  0.1323 -0.3871  0.4822
  651MPD2     H 9692   3.923   4.714  11.056 -1.4761 -0.2775 -1.2514
  651MPD2    H1 9693   4.066   4.344  11.185 -3.3700 -2.5672  0.8732
  651MPD2    H2 9694   3.728   4.505  11.381  1.5956 -0.5570  0.5852
  651MPD2    H3 9695   3.884   4.332  11.351 -1.7249 -0.2192  0.2912
  651MPD2     N 9696   4.115   4.538  11.007 -0.0513 -0.2953 -0.3681
  651MPD2    H5 9697   4.099   4.607  10.934 -2.3019  0.0709  0.4642
  651MPD2    N1 9698   3.722   0.003  11.225 -0.3379 -0.5470 -0.4398
  651MPD2    H7 9699   3.735   0.075  11.155  0.8905  0.9091  1.3031
  652TMC3    C1 9700   4.555   4.510  10.847 -0.0017 -0.7252  0.4385
  652TMC3    C2 9701   4.457   4.467  10.929 -0.6217 -0.3933 -0.0848
  652TMC3    C3 9702   4.328   4.503  10.907 -0.7351  0.3939  0.3789
  652TMC3    C4 9703   4.523   4.578  10.725 -0.4548  0.0990  0.5937
  652TMC3    C5 9704   4.392   4.603  10.712 -0.4989  0.2429  0.3419
  652TMC3    C6 9705   4.293   4.564  10.791 -0.1728 -0.1701 -0.2178
  652TMC3     C 9706   4.702   4.485  10.880 -0.0933  0.2471 -0.1037
  652TMC3     O 9707   4.723   4.433  10.988  0.1589 -0.1270 -0.0183
  652TMC3     H 9708   4.485   4.435  11.028  0.6924  0.9801 -0.0279
  652TMC3    H1 9709   4.597   4.615  10.656 -0.8781 -0.9858 -0.4233
  652TMC3    H2 9710   4.193   4.603  10.778 -0.2994  0.2286  1.9907
  652TMC3    C7 9711   4.352   4.653  10.589 -0.3610  0.0951 -0.3454
  652TMC3    C8 9712   4.231   4.462  11.008 -0.3306 -0.0687  0.3157
  652TMC3    O1 9713   4.242   4.617  10.550  0.3439  0.6658 -0.3892
  652TMC3    O2 9714   4.267   4.380  11.090 -0.2878 -0.3021 -0.5561
  653MPD2     C 9715   3.299   4.509  17.572  0.4798 -0.0518 -0.1392
  653MPD2    C1 9716   3.231   4.588  17.481 -0.4185  0.3263 -0.3897
  653MPD2    C2 9717   3.161   4.529  17.372  0.1223  0.1165 -0.5784
  653MPD2    C3 9718   3.170   4.395  17.350 -0.4693 -0.3011 -0.9227
  653MPD2    C4 9719   3.248   4.320  17.433  0.7987  0.3194  0.1409
  653MPD2    C5 9720   3.309   4.376  17.543  1.3705 -0.5585  0.2263
  653MPD2     H 9721   3.106   4.597  17.308  0.4488  2.6527  1.8276
  653MPD2    H1 9722   3.262   4.214  17.414  1.3929  0.5919 -0.9308
  653MPD2    H2 9723   3.356   4.560  17.650  1.8112 -1.4894 -0.1711
  653MPD2    H3 9724   3.375   4.312  17.602 -0.2748  0.0382  2.7357
  653MPD2     N 9725   3.094   4.345  17.238 -0.8264  0.0313 -0.7884
  653MPD2    H5 9726   3.031   4.407  17.188  0.1666  0.8855 -0.9779
  653MPD2    N1 9727   3.216   4.726  17.502 -0.4003 -0.0178 -0.7032
  653MPD2    H7 9728   3.182   0.044  17.424 -1.1334 -2.3481 -2.0348
  654TMC3    C1 9729   2.972   4.173  17.127 -0.0301  0.4719 -0.4390
  654TMC3    C2 9730   2.892   4.266  17.063 -0.3704  0.5157 -0.0918
  654TMC3    C3 9731   2.811   4.213  16.971 -0.0767 -0.4453  0.5985
  654TMC3    C4 9732   2.964   4.036  17.103 -0.6248 -0.0186  0.2665
  654TMC3    C5 9733   2.858   3.989  17.014 -0.0974  0.1852 -0.5219
  654TMC3    C6 9734   2.782   4.080  16.954  0.2387  0.2530  0.6081
  654TMC3     C 9735   3.087   4.219  17.197  0.4739  0.5278 -0.6163
  654TMC3     O 9736   3.167   4.128  17.224  0.2872 -0.8311  0.0609
  654TMC3     H 9737   2.914   4.372  17.055 -2.4014  0.9350 -0.0995
  654TMC3    H1 9738   3.038   3.966  17.142 -2.7233 -2.7088 -0.6477
  654TMC3    H2 9739   2.694   4.049  16.900  0.7537 -0.8704  0.4182
  654TMC3    C7 9740   2.879   3.879  16.928  0.1392 -0.3427 -0.5034
  654TMC3    C8 9741   2.736   4.308  16.892  0.3784 -0.7090  0.1742
  654TMC3    O1 9742   2.811   3.870  16.828  0.0756 -0.0510 -0.0476
  654TMC3    O2 9743   2.721   4.419  16.944  0.2297  0.3319  0.8745
  655MPD2     C 9744   4.636   4.459  16.084 -0.5186  0.1832  0.8018
  655MPD2    C1 9745   4.574   4.518  15.978 -0.3602 -0.4481 -0.0685
  655MPD2    C2 9746   4.556   4.456  15.857 -0.4760 -0.6576  0.1395
  655MPD2    C3 9747   4.614   4.331  15.845 -0.2504  0.2308  0.0933
  655MPD2    C4 9748   4.684   4.271  15.951  0.1092 -0.1614  0.8904
  655MPD2    C5 9749   4.702   4.339  16.063 -0.1136  0.0249 -0.2899
  655MPD2     H 9750   4.504   4.498  15.772 -1.8311  0.2935  1.4402
  655MPD2    H1 9751   4.720   4.170  15.941 -0.6470 -0.3538  0.1708
  655MPD2    H2 9752   4.651   4.505  16.181 -0.1839  1.4210  0.1578
  655MPD2    H3 9753   0.004   4.286  16.149  1.6158  0.2882 -0.9281
  655MPD2     N 9754   4.606   4.253  15.729 -0.1144  0.4436 -0.5642
  655MPD2    H5 9755   4.660   4.167  15.726  0.1587  0.5763  0.5144
  655MPD2    N1 9756   4.514   4.640  15.989  0.6079  0.1558 -0.3244
  655MPD2    H7 9757   4.474   4.670  15.900 -3.2624 -0.4034  1.2036
  656TMC3    C1 9758   4.433   0.105  16.078  0.4278  0.1534  0.2080
  656TMC3    C2 9759   4.352   0.147  16.185  0.4490 -0.3022  0.0300
  656TMC3    C3 9760   4.234   0.215  16.154 -0.3285 -0.4979 -0.0647
  656TMC3    C4 9761   4.387   0.130  15.945 -0.2253 -0.7304 -0.2718
  656TMC3    C5 9762   4.272   0.203  15.923  0.6699  1.1029 -0.7550
  656TMC3    C6 9763   4.193   0.246  16.030  0.6161 -0.1491 -0.1255
  656TMC3     C 9764   4.521   4.731  16.097  0.4778 -0.6197 -0.1479
  656TMC3     O 9765   4.581   4.724  16.202 -0.3217  0.0534  0.2909
  656TMC3     H 9766   4.374   0.110  16.285  0.5126  0.6765  0.3763
  656TMC3    H1 9767   4.445   0.110  15.855 -0.5682  0.5079 -0.7825
  656TMC3    H2 9768   4.109   0.312  16.015 -1.2499 -2.2334  1.1352
  656TMC3    C7 9769   4.240   0.246  15.788 -0.1292  0.7732  0.1001
  656TMC3    C8 9770   4.125   0.180  16.244 -0.2165  0.3153 -0.1202
  656TMC3    O1 9771   4.321   0.226  15.701 -0.2878 -0.4860  0.3524
  656TMC3    O2 9772   4.018   0.168  16.183  0.3030 -0.8777  0.2423
  657TMC3    C1 9773   3.705   3.832  14.607 -0.2985 -0.3039 -0.5497
  657TMC3    C2 9774   3.615   3.851  14.713 -0.0765 -0.5445 -0.1191
  657TMC3    C3 9775   3.529   3.959  14.706  0.7442  0.5170  0.2585
  657TMC3    C4 9776   3.719   3.924  14.511  0.5484  0.3842  0.6971
  657TMC3    C5 9777   3.635   4.034  14.517  0.3448 -0.4491  0.0741
  657TMC3    C6 9778   3.542   4.053  14.613 -0.2852 -0.0382 -0.2192
  657TMC3     C 9779   3.742   3.699  14.593  0.2984 -0.1214  0.3748
  657TMC3     O 9780   3.734   3.650  14.483  0.2925  0.1130 -0.1178
  657TMC3     H 9781   3.617   3.780  14.794 -1.8903 -1.1512 -0.6040
  657TMC3    H1 9782   3.784   3.898  14.428 -0.0692  1.1466 -0.0307
  657TMC3    H2 9783   3.481   4.143  14.624 -1.7939 -1.1823  0.9702
  657TMC3    C7 9784   3.650   4.128  14.405 -0.3063 -0.1447 -0.6781
  657TMC3    C8 9785   3.442   3.965  14.823  0.1559 -1.2575  0.7895
  657TMC3    O1 9786   3.739   4.098  14.324 -0.5159  0.0143  0.0974
  657TMC3    O2 9787   3.450   3.874  14.904 -0.1534 -0.3126  0.3374
  658MPD2     C 9788   0.266   4.232  15.050  0.1739  0.4574  0.2234
  658MPD2    C1 9789   0.136   4.281  15.035  0.0504  0.3633 -0.1539
  658MPD2    C2 9790   0.115   4.373  14.929 -0.2412  0.6146  0.6901
  658MPD2    C3 9791   0.215   4.418  14.845  0.5997  0.4271  0.0160
  658MPD2    C4 9792   0.349   4.386  14.877  0.2196 -0.5220  0.3133
  658MPD2    C5 9793   0.370   4.285  14.971 -0.4780  0.4170  0.5214
  658MPD2     H 9794   0.012   4.406  14.919 -0.4632 -0.7747 -1.5190
  658MPD2    H1 9795   0.428   4.426  14.814  0.5028  2.0303  2.3078
  658MPD2    H2 9796   0.294   4.153  15.118 -1.6443 -2.5088 -2.5222
  658MPD2    H3 9797   0.465   4.237  14.988 -0.1186 -0.1437 -2.9466
  658MPD2     N 9798   0.182   4.491  14.731  0.5581 -0.2230 -0.4165
  658MPD2    H5 9799   0.083   4.498  14.710  0.3283  0.3290  0.8655
  658MPD2    N1 9800   0.025   4.260  15.122  0.1640 -0.3840  0.1360
  658MPD2    H7 9801   4.675   4.312  15.116  0.1508 -0.5889 -1.4168
  659TMC3    C1 9802   4.649   4.188  15.307  0.1171  0.0950 -1.0960
  659TMC3    C2 9803   4.653   4.205  15.443 -0.1183 -0.1999  0.1387
  659TMC3    C3 9804   4.526   4.212  15.504  0.9789  0.2071 -0.6949
  659TMC3    C4 9805   4.542   4.167  15.228 -0.4704 -0.1765  0.0765
  659TMC3    C5 9806   4.425   4.180  15.290  0.4626  0.0904 -0.8751
  659TMC3    C6 9807   4.411   4.205  15.427 -0.1423  0.0977 -0.0259
  659TMC3     C 9808   0.029   4.173  15.230  0.3429 -0.4817 -0.2754
  659TMC3     O 9809   0.117   4.099  15.278 -0.3549  0.3037 -0.4988
  659TMC3     H 9810   0.009   4.214  15.499  0.0348 -0.1820 -0.1211
  659TMC3    H1 9811   4.550   4.137  15.125 -2.2965  0.3477 -0.2241
  659TMC3    H2 9812   4.317   4.212  15.479  0.4630 -1.2525  1.2580
  659TMC3    C7 9813   4.301   4.158  15.216  0.8411  0.2590  0.3830
  659TMC3    C8 9814   4.516   4.279  15.633 -0.5058  0.5860 -0.2436
  659TMC3    O1 9815   4.213   4.105  15.280  0.0547 -0.0720 -0.0084
  659TMC3    O2 9816   4.417   4.348  15.639  0.0212 -0.2090  0.3082
  660MPD2     C 9817   2.979   3.298  12.765  0.5761  0.5384 -0.2308
  660MPD2    C1 9818   2.847   3.344  12.775  0.1906  0.2774 -0.3829
  660MPD2    C2 9819   2.775   3.315  12.892 -0.1219 -0.3132  0.0238
  660MPD2    C3 9820   2.828   3.243  12.994 -0.2178  0.5017 -0.2774
  660MPD2    C4 9821   2.955   3.192  12.980  0.6437 -0.3657 -0.1029
  660MPD2    C5 9822   3.030   3.222  12.868  0.3867  0.2287  0.1124
  660MPD2     H 9823   2.672   3.349  12.894  0.5592  1.7661  0.2065
  660MPD2    H1 9824   2.996   3.129  13.058 -1.2487  0.1248  1.2982
  660MPD2    H2 9825   3.048   3.316  12.683 -2.1892  1.6923 -2.3096
  660MPD2    H3 9826   3.138   3.211  12.861  0.3457  0.1586 -0.4162
  660MPD2     N 9827   2.752   3.194  13.102  0.8548  0.0252 -0.1166
  660MPD2    H5 9828   2.793   3.106  13.133  1.3089 -0.2860 -1.5894
  660MPD2    N1 9829   2.796   3.425  12.666  0.2903  0.0760  0.5338
  660MPD2    H7 9830   2.840   3.413  12.576 -0.9802  0.3567 -0.1307
  661TMC3    C1 9831   2.618   3.527  12.536  0.0136 -0.3583  0.9028
  661TMC3    C2 9832   2.693   3.522  12.423  0.5655 -0.5516  0.3125
  661TMC3    C3 9833   2.638   3.511  12.299  0.3173  0.4064  0.7413
  661TMC3    C4 9834   2.481   3.516  12.527  1.3465 -0.5481 -0.8757
  661TMC3    C5 9835   2.430   3.504  12.396  0.1941 -0.1011  0.4875
  661TMC3    C6 9836   2.507   3.498  12.287  0.3385 -0.2793 -0.0381
  661TMC3     C 9837   2.674   3.487  12.665 -0.1906  0.4993  0.0634
  661TMC3     O 9838   2.594   3.511  12.755  0.0257  0.0111  0.1588
  661TMC3     H 9839   2.800   3.537  12.430  0.4342 -0.2695  1.7075
  661TMC3    H1 9840   2.414   3.507  12.612  4.7028 -1.9046  1.5992
  661TMC3    H2 9841   2.459   3.478  12.192  0.7750 -2.2655  0.1597
  661TMC3    C7 9842   2.291   3.459  12.382  0.1096  0.1753  0.5289
  661TMC3    C8 9843   2.715   3.466  12.184  0.0326  0.2839  0.0908
  661TMC3    O1 9844   2.258   3.399  12.280 -0.6269  0.6382 -0.1656
  661TMC3    O2 9845   2.653   3.440  12.085 -0.0567 -0.7870 -0.4479
  662MPD2     C 9846   3.275   2.705   0.393  0.1923 -0.3385 -0.4017
  662MPD2    C1 9847   3.207   2.655   0.289  0.7106 -0.3818  0.0834
  662MPD2    C2 9848   3.161   2.740   0.186  0.5937  0.4867  0.4044
  662MPD2    C3 9849   3.193   2.877   0.188 -0.5735  0.3795  0.5830
  662MPD2    C4 9850   3.280   2.920   0.282  0.1520 -0.3167  0.5913
  662MPD2    C5 9851   3.322   2.832   0.380  0.3029  0.1172 -0.9121
  662MPD2     H 9852   3.101   2.699   0.106 -0.6321  0.4749  1.3357
  662MPD2    H1 9853   3.309   3.024   0.291 -0.3889 -0.2555  1.6462
  662MPD2    H2 9854   3.314   2.647   0.476 -0.0929  2.7948  1.9224
  662MPD2    H3 9855   3.387   2.872   0.457  0.0702  0.8553 -1.1042
  662MPD2     N 9856   3.149   2.974   0.104 -0.4635  0.0363 -0.1492
  662MPD2    H5 9857   3.170   3.070   0.128 -1.8977 -0.1017  1.6625
  662MPD2    N1 9858   3.185   2.514   0.277 -0.3801 -0.5498 -0.0090
  662MPD2    H7 9859   3.150   2.468   0.193 -0.7026  0.0982 -0.2269
  663TMC3    C1 9860   3.207   2.293   0.321 -0.4961  0.6555  0.2941
  663TMC3    C2 9861   3.202   2.189   0.404  0.4556 -0.2496  0.4412
  663TMC3    C3 9862   3.199   2.065   0.353  0.4915 -0.1205  0.7270
  663TMC3    C4 9863   3.215   2.277   0.183  0.4999  0.1313  0.0675
  663TMC3    C5 9864   3.201   2.148   0.131 -0.1169 -0.8690  0.1129
  663TMC3    C6 9865   3.167   2.047   0.216  0.1251 -0.6921 -0.0344
  663TMC3     C 9866   3.224   2.427   0.376 -0.4958  0.2715 -0.0219
  663TMC3     O 9867   3.248   2.451   0.490 -0.1809 -0.1575 -0.0216
  663TMC3     H 9868   3.187   2.199   0.511  0.4726  1.0022  0.3243
  663TMC3    H1 9869   3.226   2.354   0.108  3.9206  0.9451  1.3916
  663TMC3    H2 9870   3.175   1.948   0.172  1.0191  0.4431 -2.4278
  663TMC3    C7 9871   3.214   2.135  17.735  0.0857  0.0528 -0.4114
  663TMC3    C8 9872   3.140   1.971   0.443 -0.8748 -0.4014 -0.2133
  663TMC3    O1 9873   3.283   2.211  17.669  0.1827 -0.0326 -0.4530
  663TMC3    O2 9874   3.176   1.975   0.558 -0.1910 -0.2524 -0.0497
  664MPD2     C 9875   1.596   1.107  17.604  0.3176 -0.4491 -0.0591
  664MPD2    C1 9876   1.535   1.237  17.602 -0.9289  0.1539  0.3627
  664MPD2    C2 9877   1.438   1.266  17.697  0.5218  0.2501  0.4217
  664MPD2    C3 9878   1.394   1.167   0.037 -0.5396 -0.0500  0.2829
  664MPD2    C4 9879   1.454   1.043   0.039  0.2794  0.3125  0.1930
  664MPD2    C5 9880   1.550   1.011  17.690  0.9997 -0.3004  0.3097
  664MPD2     H 9881   1.385   1.360  17.698  2.6449  1.4913 -2.6460
  664MPD2    H1 9882   1.439   0.959   0.105 -1.1001 -0.0246 -0.5505
  664MPD2    H2 9883   1.661   1.071  17.526  2.4317  0.7389  1.1618
  664MPD2    H3 9884   1.602   0.916  17.691  0.6654 -0.4845  0.2478
  664MPD2     N 9885   1.313   1.208   0.141  0.0513  0.1782 -0.3364
  664MPD2    H5 9886   1.291   1.306   0.130 -1.4390 -0.1363 -0.0863
  664MPD2    N1 9887   1.567   1.332  17.503  0.0498  0.1163  0.2250
  664MPD2    H7 9888   1.646   1.309  17.444  0.6815 -2.2970  2.0301
  665TMC3    C1 9889   1.204   1.209   0.351  0.0963 -0.3121 -0.4735
  665TMC3    C2 9890   1.109   1.156   0.435  0.1905 -0.3242 -0.4537
  665TMC3    C3 9891   1.065   1.232   0.533 -0.4998  0.0379  0.0625
  665TMC3    C4 9892   1.265   1.333   0.378 -0.0137 -0.4755 -0.6282
  665TMC3    C5 9893   1.212   1.398   0.484 -0.2985 -0.5116  0.0235
  665TMC3    C6 9894   1.111   1.356   0.560 -0.4728 -0.2077 -0.3307
  665TMC3     C 9895   1.260   1.129   0.245  1.0288  0.2816  0.0134
  665TMC3     O 9896   1.262   1.009   0.268  0.1993 -0.2313 -0.4932
  665TMC3     H 9897   1.070   1.057   0.414 -0.1060 -0.1366 -0.7960
  665TMC3    H1 9898   1.348   1.378   0.327 -0.2259 -0.4607 -0.9608
  665TMC3    H2 9899   1.077   1.399   0.654  0.1944 -0.0060 -0.1843
  665TMC3    C7 9900   1.234   1.541   0.477  0.5188  0.0641  0.5601
  665TMC3    C8 9901   0.926   1.223   0.574  0.0197  0.2350 -0.4944
  665TMC3    O1 9902   1.256   1.591   0.367  0.4175  0.1165  0.1770
  665TMC3    O2 9903   0.871   1.329   0.602 -0.1670 -0.1191  0.3871
  666TMC3    C1 9904   4.717   0.774   9.437 -0.3105 -0.9954  0.2797
  666TMC3    C2 9905   0.099   0.790   9.367  0.4968  0.6054 -0.6533
  666TMC3    C3 9906   0.180   0.891   9.400  0.4050  0.3211  0.5785
  666TMC3    C4 9907   4.669   0.866   9.524  0.4603 -0.3825 -0.3371
  666TMC3    C5 9908   0.018   0.964   9.560  0.2437 -0.1692  0.2196
  666TMC3    C6 9909   0.144   0.982   9.501 -0.2461  0.2240 -0.0407
  666TMC3     C 9910   4.633   0.667   9.400 -0.5514 -0.2890 -0.2127
  666TMC3     O 9911   4.666   0.613   9.296 -0.5209 -0.4696  0.5388
  666TMC3     H 9912   0.131   0.716   9.294 -0.2830  0.4450 -0.8307
  666TMC3    H1 9913   4.573   0.853   9.572  1.7892 -4.0840  1.3397
  666TMC3    H2 9914   0.211   1.065   9.522  0.9625 -0.6447 -0.4895
  666TMC3    C7 9915   4.711   1.048   9.671 -0.1257  0.5389 -0.3187
  666TMC3    C8 9916   0.319   0.879   9.343  0.1058  0.6053 -0.6669
  666TMC3    O1 9917   4.621   1.000   9.740 -0.4292 -0.2980  0.3433
  666TMC3    O2 9918   0.322   0.860   9.223 -0.1217  0.3622 -0.1426
  667MPD2     C 9919   1.684   1.454  14.391  0.2544  0.0173 -0.1740
  667MPD2    C1 9920   1.646   1.424  14.518  0.0385  0.4953  0.2956
  667MPD2    C2 9921   1.571   1.307  14.535 -0.5576 -0.1168 -0.2819
  667MPD2    C3 9922   1.534   1.227  14.428 -0.3091  0.2376  0.4159
  667MPD2    C4 9923   1.605   1.244  14.308 -0.9117 -0.8922 -0.1306
  667MPD2    C5 9924   1.673   1.363  14.292 -0.2265  0.0992 -0.6383
  667MPD2     H 9925   1.539   1.296  14.638  1.6929 -0.7622  0.3572
  667MPD2    H1 9926   1.594   1.183  14.219  0.4647  0.8514 -1.4856
  667MPD2    H2 9927   1.729   1.551  14.370  0.3019  0.2666  1.0673
  667MPD2    H3 9928   1.717   1.391  14.197 -1.0968  0.7571 -0.8492
  667MPD2     N 9929   1.458   1.111  14.437 -0.0361  0.5649  0.5957
  667MPD2    H5 9930   1.439   1.055  14.355 -0.5275 -0.5085  1.4406
  667MPD2    N1 9931   1.671   1.508  14.629  0.3708 -0.0430  0.5846
  667MPD2    H7 9932   1.649   1.473  14.722 -2.5970 -0.4465 -0.2836
  668TMC3    C1 9933   1.776   1.686  14.753 -0.2821  0.5353 -0.0716
  668TMC3    C2 9934   1.835   1.813  14.750 -0.4255 -0.2964 -0.1265
  668TMC3    C3 9935   1.873   1.875  14.864 -0.3321  0.3833  0.5412
  668TMC3    C4 9936   1.747   1.621  14.876  0.0160  0.1014 -0.2756
  668TMC3    C5 9937   1.816   1.678  14.983 -0.0623  0.0396 -0.5500
  668TMC3    C6 9938   1.875   1.801  14.984  0.0909  0.2351  0.8470
  668TMC3     C 9939   1.746   1.626  14.623  0.2851  0.1379 -0.1858
  668TMC3     O 9940   1.782   1.693  14.528 -0.0872  0.0725 -0.1446
  668TMC3     H 9941   1.838   1.861  14.653  0.2775 -0.3369 -0.1309
  668TMC3    H1 9942   1.722   1.516  14.872  0.0222  0.0861  0.1105
  668TMC3    H2 9943   1.926   1.840  15.071  1.5640 -0.7172  0.4140
  668TMC3    C7 9944   1.820   1.609  15.114 -0.0590 -0.3692  0.0262
  668TMC3    C8 9945   1.912   2.013  14.881 -0.5158  0.4698 -0.0785
  668TMC3    O1 9946   1.912   1.648  15.182  0.0986 -0.1321  0.4853
  668TMC3    O2 9947   1.873   2.057  14.989 -0.1414 -0.2363 -0.0284
  669TMC3    C1 9948   4.413   1.100  14.820  0.6200  0.4292  0.4824
  669TMC3    C2 9949   4.290   1.117  14.757  0.1089  0.5540 -0.7616
  669TMC3    C3 9950   4.284   1.192  14.639  0.2010 -0.0452  0.1204
  669TMC3    C4 9951   4.523   1.162  14.766 -0.7604 -0.1054  0.3218
  669TMC3    C5 9952   4.514   1.229  14.649 -0.0870 -0.7153  0.0896
  669TMC3    C6 9953   4.394   1.250  14.585 -0.0064 -0.0829 -0.7426
  669TMC3     C 9954   4.406   1.030  14.950  0.4345 -0.4133 -0.5116
  669TMC3     O 9955   4.299   0.984  14.984 -0.0789 -0.3835 -0.1128
  669TMC3     H 9956   4.205   1.059  14.794  2.5264 -0.5894  3.0781
  669TMC3    H1 9957   4.615   1.153  14.822  0.3603  0.6865 -1.4194
  669TMC3    H2 9958   4.385   1.319  14.501 -1.3857  0.6929  0.0322
  669TMC3    C7 9959   4.632   1.290  14.594  0.6786 -0.2482 -0.0143
  669TMC3    C8 9960   4.178   1.174  14.550 -0.5617  0.4930  0.2410
  669TMC3    O1 9961   4.718   1.345  14.669  0.4660  0.4627  0.1062
  669TMC3    O2 9962   4.207   1.180  14.432  0.3518 -0.2703  0.8990
  670MPD2     C 9963   3.109   3.422  13.525  0.3977  0.2461  0.0674
  670MPD2    C1 9964   2.996   3.489  13.482 -0.3722 -0.0797  0.3476
  670MPD2    C2 9965   2.909   3.547  13.570  0.5335  0.4805  0.1637
  670MPD2    C3 9966   2.927   3.539  13.705  0.3227  0.6733  0.1717
  670MPD2    C4 9967   3.025   3.448  13.752  0.0400 -0.4145  0.2769
  670MPD2    C5 9968   3.118   3.398  13.658 -0.4965  0.1563 -0.3995
  670MPD2     H 9969   2.833   3.616  13.535 -0.7588 -0.8283  0.3853
  670MPD2    H1 9970   3.046   3.434  13.857 -1.8382 -1.3448  0.5227
  670MPD2    H2 9971   3.182   3.376  13.460 -2.8404 -2.0611 -1.9356
  670MPD2    H3 9972   3.207   3.349  13.697 -0.0157  1.6408  0.3684
  670MPD2     N 9973   2.843   3.612  13.794  0.0310  0.1658  0.5085
  670MPD2    H5 9974   2.779   3.680  13.754 -1.0121 -1.2315 -0.2075
  670MPD2    N1 9975   2.973   3.513  13.342  0.3120 -0.5807 -0.3240
  670MPD2    H7 9976   2.903   3.579  13.309 -1.6556 -3.0298 -1.0293
  671TMC3    C1 9977   2.736   3.687  13.995  0.0981 -0.0675  0.1448
  671TMC3    C2 9978   2.757   3.715  14.126  0.4117  0.1070 -0.4285
  671TMC3    C3 9979   2.680   3.661  14.226 -0.7193 -0.4869  0.2128
  671TMC3    C4 9980   2.618   3.628  13.961 -0.4707  0.1823  0.2364
  671TMC3    C5 9981   2.536   3.566  14.055  0.2820  0.9497  0.2747
  671TMC3    C6 9982   2.567   3.580  14.185  0.3178 -0.4415 -1.2286
  671TMC3     C 9983   2.843   3.604  13.932  0.5779  0.3027  0.0296
  671TMC3     O 9984   2.903   3.528  14.006  0.1847 -0.0249 -0.2004
  671TMC3     H 9985   2.850   3.753  14.167 -0.1454  0.6157  0.3451
  671TMC3    H1 9986   2.607   3.609  13.855  0.1755 -0.5821  0.2989
  671TMC3    H2 9987   2.509   3.527  14.259 -0.7448  0.0524 -1.7150
  671TMC3    C7 9988   2.451   3.468  13.999  0.6351  0.8223  0.0192
  671TMC3    C8 9989   2.750   3.623  14.347 -0.1292  0.2696 -0.5484
  671TMC3    O1 9990   2.472   3.434  13.882  0.3523 -0.3667 -0.2850
  671TMC3    O2 9991   2.821   3.706  14.398  0.3591  0.2474 -0.1183
  672MPD2     C 9992   3.694   4.504   0.104 -0.1138  0.6676  0.8419
  672MPD2    C1 9993   3.665   4.471   0.237  0.1925 -0.3724 -0.3792
  672MPD2    C2 9994   3.688   4.559   0.337  0.0991  0.1589 -1.0008
  672MPD2    C3 9995   3.749   4.680   0.307 -0.6468  0.2379  0.0337
  672MPD2    C4 9996   3.787   4.710   0.176 -0.1505 -0.5479  0.5027
  672MPD2    C5 9997   3.767   4.616   0.076 -0.0964 -0.0905  0.2012
  672MPD2     H 9998   3.655   4.536   0.437 -2.2539  0.9831 -1.5674
  672MPD2    H1 9999   3.849   0.057   0.149  0.6125 -1.8782 -1.9711
  672MPD2    H210000   3.681   4.430   0.026 -0.0951  0.1136  1.3638
  672MPD2    H310001   3.795   4.642  17.722 -2.6589  0.5851 -0.3342
  672MPD2     N10002   3.784   0.030   0.412  0.5133  0.2583 -0.0525
  672MPD2    H510003   3.850   0.106   0.394  0.3779  0.7771  1.6682
  672MPD2    N110004   3.603   4.347   0.271 -0.1102  0.2635  0.0237
  672MPD2    H710005   3.582   4.328   0.368  0.6423  1.2333  0.3755
  673TMC3    C110006   3.485   4.151   0.257  0.0417 -0.0070 -0.0763
  673TMC3    C210007   3.495   4.021   0.221 -0.3135 -0.3257  0.4722
  673TMC3    C310008   3.416   3.933   0.287  0.1141  0.6660 -0.2376
  673TMC3    C410009   3.375   4.202   0.325 -0.2360  0.1142  0.5455
  673TMC3    C510010   3.297   4.108   0.391  0.1375  0.0287  0.0331
  673TMC3    C610011   3.320   3.971   0.374 -0.7577  0.0958  0.0192
  673TMC3     C10012   3.561   4.249   0.181 -0.3937 -0.5160 -1.2618
  673TMC3     O10013   3.599   4.223   0.071  0.3747  0.2962  0.2782
  673TMC3     H10014   3.585   3.983   0.175 -0.4431  2.1597 -1.8418
  673TMC3    H110015   3.360   4.309   0.331 -0.3689  0.2216 -1.6811
  673TMC3    H210016   3.254   3.898   0.421  0.2187 -0.9328 -0.2107
  673TMC3    C710017   3.188   4.153   0.480  0.5075  0.3423 -0.2281
  673TMC3    C810018   3.477   3.804   0.320  0.1225 -0.1559  0.2262
  673TMC3    O110019   3.164   4.081   0.574  0.6944  0.7432 -0.7387
  673TMC3    O210020   3.405   3.709   0.330 -0.2646 -0.1546  0.7453
  674MPD2     C10021   3.039   3.748  17.399  0.4221  0.5238  0.2954
  674MPD2    C110022   3.137   3.789  17.491  0.2107 -0.8593  0.3180
  674MPD2    C210023   3.129   3.917  17.542  0.3292 -1.0528  1.0785
  674MPD2    C310024   3.019   4.000  17.507 -0.5822  0.5643 -0.2529
  674MPD2    C410025   2.925   3.956  17.412  0.2885 -0.5505 -0.2005
  674MPD2    C510026   2.938   3.831  17.360  0.2891 -0.0756  0.0948
  674MPD2     H10027   3.184   3.953  17.628  0.7321  0.6517  0.1086
  674MPD2    H110028   2.842   4.022  17.388  2.0261  1.5154 -0.4801
  674MPD2    H210029   3.045   3.648  17.359  1.5255 -0.1663  2.1892
  674MPD2    H310030   2.874   3.799  17.279 -1.2413  0.4256  1.1021
  674MPD2     N10031   3.006   4.108  17.596  0.2157  0.1878  0.0549
  674MPD2    H510032   3.072   4.102  17.674  0.3037 -1.7565 -0.1691
  674MPD2    N110033   3.226   3.699  17.559  0.1022 -0.1074  0.0637
  674MPD2    H710034   3.275   3.743  17.637 -0.7245  0.8855  0.0224
  675TMC3    C110035   3.337   3.518  17.640  0.3273  0.2433 -0.3367
  675TMC3    C210036   3.307   3.412  17.718  0.4846 -0.4767  0.2601
  675TMC3    C310037   3.381   3.405   0.086  0.0012 -0.3863  0.3077
  675TMC3    C410038   3.431   3.612  17.674  0.0468  0.3571  0.0736
  675TMC3    C510039   3.503   3.595   0.042  0.2977  0.0095  0.1031
  675TMC3    C610040   3.483   3.485   0.119 -0.4125  0.1936  0.2556
  675TMC3     C10041   3.239   3.562  17.541 -0.0593 -0.4888 -0.0427
  675TMC3     O10042   3.183   3.477  17.473  0.3436  0.4787 -0.2752
  675TMC3     H10043   3.230   3.342  17.686  0.9110 -0.7370 -0.2065
  675TMC3    H110044   3.465   3.695  17.614 -1.7470  0.6071 -0.6126
  675TMC3    H210045   3.536   3.483   0.214  0.5208  1.7090 -0.2295
  675TMC3    C710046   3.631   3.660   0.050  0.1287 -0.1262  0.7237
  675TMC3    C810047   3.305   3.337   0.192 -0.3847 -0.1010  0.5025
  675TMC3    O110048   3.644   3.778   0.031 -0.2050 -0.0570 -0.7708
  675TMC3    O210049   3.236   3.239   0.152 -0.2313  0.1783  0.1852
  676MPD2     C10050   0.492   1.061  11.239 -0.7369  0.3855  0.2247
  676MPD2    C110051   0.409   1.155  11.174 -0.2459 -0.2676  0.0683
  676MPD2    C210052   0.350   1.106  11.057  0.1113 -0.2078  0.5496
  676MPD2    C310053   0.356   0.973  11.020  0.4100  0.1871  0.0441
  676MPD2    C410054   0.436   0.888  11.086  0.0893  0.5221  0.6855
  676MPD2    C510055   0.505   0.931  11.194 -0.0532 -0.0017 -0.3270
  676MPD2     H10056   0.278   1.175  11.014  1.2676  1.8259  1.9090
  676MPD2    H110057   0.446   0.785  11.054 -1.2192  1.5086 -2.8361
  676MPD2    H210058   0.539   1.091  11.332 -0.3840 -0.9924  0.4854
  676MPD2    H310059   0.570   0.866  11.250 -1.3091 -1.3961 -0.5009
  676MPD2     N10060   0.275   0.923  10.917  0.2405 -0.1277 -0.2869
  676MPD2    H510061   0.279   0.823  10.899  2.4909 -0.1565  0.4733
  676MPD2    N110062   0.387   1.278  11.223 -0.2211  0.5607  0.6883
  676MPD2    H710063   0.338   1.339  11.158 -2.3107 -0.7919  0.9901
  677TMC3    C110064   0.393   1.462  11.368  0.1949  0.0583 -0.2486
  677TMC3    C210065   0.431   1.520  11.487  0.3402 -0.4598  0.4346
  677TMC3    C310066   0.447   1.657  11.494 -0.0183 -0.7577  0.6258
  677TMC3    C410067   0.380   1.549  11.259  0.6951 -0.5190  0.2090
  677TMC3    C510068   0.396   1.682  11.272 -0.9657 -0.9077 -0.1875
  677TMC3    C610069   0.430   1.740  11.391  0.1552  0.2066 -0.1414
  677TMC3     C10070   0.420   1.326  11.347 -0.4757 -0.6535  0.3304
  677TMC3     O10071   0.480   1.274  11.441  0.5653  0.0741 -0.3339
  677TMC3     H10072   0.466   1.454  11.566 -1.7732 -0.5076  1.3353
  677TMC3    H110073   0.365   1.506  11.161 -1.3786  0.8681 -0.0851
  677TMC3    H210074   0.439   1.848  11.396  0.8176  0.1635 -0.3255
  677TMC3    C710075   0.396   1.754  11.145  0.7279 -0.6493 -0.0687
  677TMC3    C810076   0.500   1.720  11.613 -0.1613 -0.1675  0.2108
  677TMC3    O110077   0.383   1.691  11.042 -0.4779  0.5081 -0.4624
  677TMC3    O210078   0.539   1.839  11.606 -0.9475  0.4960  0.1034
  678MPD2     C10079   2.326   2.167   1.755  0.9381 -0.8752 -0.0386
  678MPD2    C110080   2.300   2.137   1.617 -0.7753  0.6983  0.4649
  678MPD2    C210081   2.184   2.188   1.556  0.2818 -0.1502  0.6778
  678MPD2    C310082   2.102   2.274   1.622  0.5389 -0.0346 -0.1326
  678MPD2    C410083   2.128   2.305   1.752  0.7462 -0.3419  0.3048
  678MPD2    C510084   2.234   2.252   1.816  0.1838  0.2983 -0.6123
  678MPD2     H10085   2.152   2.161   1.456  5.1506  1.9652 -1.4514
  678MPD2    H110086   2.064   2.370   1.812 -0.8494 -0.9598 -0.7364
  678MPD2    H210087   2.415   2.134   1.808  0.1161 -2.0882  0.5918
  678MPD2    H310088   2.247   2.278   1.921  0.2009  1.7504 -0.9836
  678MPD2     N10089   1.974   2.314   1.566 -0.4281 -0.0225  0.0042
  678MPD2    H510090   1.958   2.288   1.469 -0.2770 -4.5629  1.1980
  678MPD2    N110091   2.387   2.055   1.538 -1.1555  0.4897  0.2185
  678MPD2    H710092   2.352   2.034   1.446  0.3578 -0.6020 -0.1021
  679TMC3    C110093   2.757   1.809   1.411  0.4035 -0.3725 -0.0816
  679TMC3    C210094   2.698   1.915   1.484  0.4712  0.1401 -0.7924
  679TMC3    C310095   2.562   1.929   1.487  0.0433 -0.1230 -0.1468
  679TMC3    C410096   2.682   1.700   1.365 -0.2072  0.4695 -0.4924
  679TMC3    C510097   2.549   1.718   1.380 -0.5637 -0.2378 -0.4928
  679TMC3    C610098   2.485   1.829   1.437  0.3395 -0.6520  0.3667
  679TMC3     C10099   2.892   1.823   1.354 -0.6413 -0.2321  0.3227
  679TMC3     O10100   2.930   1.726   1.288  0.0184  0.6259  0.2674
  679TMC3     H10101   2.760   1.979   1.545 -0.1466  1.4434 -1.5427
  679TMC3    H110102   2.726   1.624   1.301 -0.1897  0.1904 -0.1491
  679TMC3    H210103   2.377   1.831   1.431  0.4749  1.2960 -1.2803
  679TMC3    C710104   2.470   1.648   1.286  0.1639  0.3855 -0.2568
  679TMC3    C810105   2.513   2.021   1.584  0.5218 -0.5176  0.5399
  679TMC3    O110106   2.539   1.613   1.190 -0.2930 -0.4257 -0.8066
  679TMC3    O210107   2.585   2.054   1.679 -0.3741  0.0754  0.0976
  680MPD2     C10108   2.192   0.731  13.977 -1.1600 -0.4385  0.4133
  680MPD2    C110109   2.317   0.680  14.013  0.1688 -0.0941 -0.3954
  680MPD2    C210110   2.429   0.758  14.003 -0.1635 -1.3278 -0.1684
  680MPD2    C310111   2.424   0.888  13.972 -0.1362  0.5724 -0.7143
  680MPD2    C410112   2.298   0.938  13.932  0.3785  0.3425 -0.3395
  680MPD2    C510113   2.185   0.858  13.933 -0.1335 -0.3418 -0.6115
  680MPD2     H10114   2.522   0.703  14.003  1.0779  0.8044  3.8655
  680MPD2    H110115   2.287   1.044  13.911 -1.4974  0.5268  1.5533
  680MPD2    H210116   2.101   0.671  13.983 -0.3260 -1.7116  0.3273
  680MPD2    H310117   2.089   0.897  13.901  0.3783  0.0578 -1.6520
  680MPD2     N10118   2.539   0.974  13.957  0.5915 -0.1795  0.2690
  680MPD2    H510119   2.528   1.071  13.928  4.0885 -0.1356 -0.8589
  680MPD2    N110120   2.332   0.540  14.036 -0.4944 -1.3465 -0.1007
  680MPD2    H710121   2.424   0.502  14.054  0.0202  0.0752  0.2634
  681TMC3    C110122   2.302   0.319  13.988  0.3585  0.2683 -0.4980
  681TMC3    C210123   2.380   0.277  14.089 -0.1070 -0.2574 -0.0711
  681TMC3    C310124   2.465   0.174  14.070 -1.1353  0.5287 -0.5862
  681TMC3    C410125   2.304   0.262  13.868  0.2411 -0.0434  0.5374
  681TMC3    C510126   2.395   0.160  13.851 -0.6560 -0.0068  0.2148
  681TMC3    C610127   2.479   0.118  13.953 -0.2613 -0.4087 -0.9780
  681TMC3     C10128   2.238   0.443  14.001 -0.5177 -0.2990  0.1110
  681TMC3     O10129   2.126   0.459  13.955  0.0102 -0.2017  0.1881
  681TMC3     H10130   2.367   0.328  14.183  0.1653  1.5127 -1.0016
  681TMC3    H110131   2.238   0.307  13.794  0.3347  1.2427  1.2374
  681TMC3    H210132   2.536   0.026  13.946 -0.7767 -0.8922  1.3063
  681TMC3    C710133   2.412   0.104  13.718 -1.1861 -0.2046  0.4274
  681TMC3    C810134   2.547   0.108  14.178  0.1407 -1.1171  0.3028
  681TMC3    O110135   2.485   0.006  13.715  0.5633  0.3861 -0.0115
  681TMC3    O210136   2.656   0.059  14.152  0.2292  0.3683 -0.4934
  682MPD2     C10137   4.463   1.721  10.854  0.0026 -0.2104 -0.1103
  682MPD2    C110138   4.507   1.595  10.863 -0.4188 -0.0802 -0.4126
  682MPD2    C210139   4.494   1.525  10.980 -0.0217  0.2323  0.2193
  682MPD2    C310140   4.458   1.588  11.103  0.8564  0.5373  0.5293
  682MPD2    C410141   4.449   1.729  11.093 -0.3062  0.9053 -0.1301
  682MPD2    C510142   4.443   1.797  10.972 -0.0395  0.4531 -0.0763
  682MPD2     H10143   4.516   1.419  10.981  1.4836  0.5451 -0.5965
  682MPD2    H110144   4.442   1.786  11.185  0.4317  0.4754  0.1967
  682MPD2    H210145   4.469   1.774  10.760 -2.9819  0.5923  0.1701
  682MPD2    H310146   4.436   1.905  10.968 -0.4433  0.4520  0.6381
  682MPD2     N10147   4.445   1.526  11.229  0.4125 -0.2400  0.2467
  682MPD2    H510148   4.420   1.588  11.305  0.3519  1.0413 -0.8124
  682MPD2    N110149   4.526   1.514  10.749  0.7687  0.5003 -0.7421
  682MPD2    H710150   4.534   1.414  10.765  1.3338  0.8501  1.0713
  683TMC3    C110151   4.501   1.347  11.594  0.0131  0.2711  0.0350
  683TMC3    C210152   4.508   1.209  11.606  0.0828  0.8320  0.0442
  683TMC3    C310153   4.465   1.140  11.493  0.6246 -0.2022 -0.3098
  683TMC3    C410154   4.458   1.421  11.482  0.1562 -0.6094 -0.0816
  683TMC3    C510155   4.439   1.340  11.373 -0.1344 -0.0745 -0.0366
  683TMC3    C610156   4.426   1.208  11.376 -0.2913  0.4684 -0.2440
  683TMC3     C10157   4.524   1.425  11.714 -0.7944 -0.5627  0.6358
  683TMC3     O10158   4.504   1.548  11.711  0.0314 -0.8166  0.4866
  683TMC3     H10159   4.561   1.155  11.684  0.7922  1.1351 -0.2282
  683TMC3    H110160   4.464   1.530  11.487 -1.9658 -0.4480 -1.1919
  683TMC3    H210161   4.399   1.141  11.295 -1.2232  1.4552 -0.7476
  683TMC3    C710162   4.456   1.389  11.239  0.1383  0.0782  0.3780
  683TMC3    C810163   4.515   1.003  11.474 -0.2786  0.8617  0.9131
  683TMC3    O110164   4.452   1.302  11.155  0.5422 -0.0819  0.3143
  683TMC3    O210165   4.531   0.962  11.359  0.2241  0.1539 -0.3905
  684MPD2     C10166   3.145   1.485  16.524 -0.7951 -0.1513 -0.6079
  684MPD2    C110167   3.028   1.527  16.452  0.4488  0.8136  0.0799
  684MPD2    C210168   2.951   1.631  16.509  0.7955 -0.1628 -0.4053
  684MPD2    C310169   2.984   1.686  16.629 -0.3721  0.0030  0.6839
  684MPD2    C410170   3.092   1.635  16.709  0.0095 -0.0612 -0.3019
  684MPD2    C510171   3.165   1.536  16.652  1.4378  0.1757  0.8165
  684MPD2     H10172   2.872   1.670  16.446  1.1411  1.1355 -0.0328
  684MPD2    H110173   3.121   1.671  16.806 -2.0748  1.5460 -0.2618
  684MPD2    H210174   3.211   1.407  16.486 -0.6029 -0.1801 -0.2066
  684MPD2    H310175   3.254   1.499  16.702  2.7590  1.4454 -0.6174
  684MPD2     N10176   2.920   1.803  16.678 -0.2373 -0.8104 -0.1584
  684MPD2    H510177   2.949   1.839  16.769 -2.4279  0.2268  0.1258
  684MPD2    N110178   3.001   1.482  16.318  0.3789  0.0111  0.9958
  684MPD2    H710179   2.915   1.512  16.273  0.7647  1.7708  1.4201
  685TMC3    C110180   3.060   1.397  16.087 -0.1950 -0.4979  0.1597
  685TMC3    C210181   2.953   1.470  16.041  0.5584 -0.6194 -1.2600
  685TMC3    C310182   2.952   1.495  15.906  0.4999  0.8279  0.1155
  685TMC3    C410183   3.159   1.351  16.001  0.3129 -0.3273  0.7445
  685TMC3    C510184   3.148   1.373  15.869  0.3237 -0.2579  0.6910
  685TMC3    C610185   3.047   1.455  15.824  0.2428 -0.7550 -0.2348
  685TMC3     C10186   3.090   1.401  16.237 -0.0768  0.1368 -0.2036
  685TMC3     O10187   3.201   1.354  16.265  0.7661 -0.1884 -0.1124
  685TMC3     H10188   2.866   1.493  16.102  1.5888  2.3737 -0.9524
  685TMC3    H110189   3.248   1.303  16.039  1.5132  1.2230 -0.0867
  685TMC3    H210190   3.044   1.487  15.720 -0.9843  0.9551  0.3426
  685TMC3    C710191   3.278   1.360  15.804 -0.1111  0.0722  0.0518
  685TMC3    C810192   2.834   1.545  15.843  0.3010  0.2713 -0.2536
  685TMC3    O110193   3.350   1.266  15.827  0.0959 -0.1927 -0.0495
  685TMC3    O210194   2.793   1.488  15.742  0.4526 -0.8621  0.2120
  686MPD2     C10195   4.354   1.547  15.273 -0.3187  0.5729  0.8531
  686MPD2    C110196   4.365   1.518  15.406 -0.0913  0.6038  0.2375
  686MPD2    C210197   4.474   1.449  15.452 -0.0037 -0.0665  0.5198
  686MPD2    C310198   4.558   1.393  15.362  0.0551 -0.3630 -0.5226
  686MPD2    C410199   4.540   1.410  15.228  0.3879 -0.1752 -0.6459
  686MPD2    C510200   4.438   1.489  15.186 -0.0553 -0.4902  0.3024
  686MPD2     H10201   4.492   1.435  15.558  0.0703 -0.6413  0.4326
  686MPD2    H110202   4.602   1.363  15.152  1.3773  0.4251 -0.1976
  686MPD2    H210203   4.255   1.575  15.238 -0.3848 -2.5590 -1.5622
  686MPD2    H310204   4.420   1.489  15.079 -1.5532 -1.0874  0.5503
  686MPD2     N10205   4.666   1.309  15.400 -0.0076 -0.0668 -0.4926
  686MPD2    H510206   0.004   1.301  15.333  1.8288  1.4590  1.3852
  686MPD2    N110207   4.252   1.542  15.498 -0.3732 -0.0053 -0.4493
  686MPD2    H710208   4.163   1.558  15.452 -1.0693 -3.8615 -0.4513
  687TMC3    C110209   4.579   1.207  15.611 -0.3055  0.7474 -0.1069
  687TMC3    C210210   4.457   1.171  15.560  0.4077 -0.4788  0.2330
  687TMC3    C310211   4.362   1.136  15.659  0.6896 -0.4947  0.2031
  687TMC3    C410212   4.623   1.208  15.741 -0.3560  0.8588 -0.4790
  687TMC3    C510213   4.525   1.164  15.829  0.7915  0.1033  0.1001
  687TMC3    C610214   4.400   1.125  15.788  0.2253  0.1606  0.1954
  687TMC3     C10215   4.691   1.239  15.522 -0.1728  0.4066  0.1670
  687TMC3     O10216   0.061   1.182  15.552  0.2270  0.0358  0.6383
  687TMC3     H10217   4.434   1.160  15.455  0.8734 -0.8475  0.1725
  687TMC3    H110218   4.724   1.243  15.760 -0.0988  0.1074 -0.4643
  687TMC3    H210219   4.324   1.105  15.863  0.0936  0.7607  0.2220
  687TMC3    C710220   4.568   1.173  15.964 -0.3862  0.2275 -0.2308
  687TMC3    C810221   4.234   1.105  15.618  0.4027 -0.0611  0.2086
  687TMC3    O110222   4.691   1.167  15.980  0.7147 -0.0496 -0.2140
  687TMC3    O210223   4.174   1.009  15.663 -0.6351  0.1096  0.2904
  688MPD2     C10224   3.558   0.580  17.200 -0.0461  0.4704  0.4180
  688MPD2    C110225   3.609   0.520  17.311  0.3150 -0.4414  0.3448
  688MPD2    C210226   3.746   0.530  17.326 -0.0186  0.1773  0.7890
  688MPD2    C310227   3.825   0.569  17.219  0.0043  0.1885 -0.1792
  688MPD2    C410228   3.767   0.620  17.109 -0.5152 -0.6042 -0.2942
  688MPD2    C510229   3.636   0.632  17.098  0.5106  0.0981 -0.4548
  688MPD2     H10230   3.793   0.480  17.410  0.5245 -0.5633  0.0447
  688MPD2    H110231   3.818   0.665  17.024 -2.6632 -0.0707 -1.3124
  688MPD2    H210232   3.451   0.582  17.181 -0.4079 -1.1006  2.3335
  688MPD2    H310233   3.599   0.678  17.007  1.1590 -1.8475 -1.7026
  688MPD2     N10234   3.963   0.534  17.201  0.0347  0.7055 -0.0326
  688MPD2    H510235   4.001   0.557  17.109  0.6386  1.5562  0.4370
  688MPD2    N110236   3.523   0.466  17.407  0.3476 -0.4082 -0.2649
  688MPD2    H710237   3.566   0.448  17.498  0.5731 -0.2092 -0.3303
  689TMC3    C110238   3.338   0.374  17.508  1.1364  0.5774  0.5004
  689TMC3    C210239   3.347   0.444  17.622  0.5575 -0.0910 -0.4489
  689TMC3    C310240   3.298   0.384  17.735  0.1297  0.3994 -0.8741
  689TMC3    C410241   3.295   0.243  17.506  0.1716 -0.6490  0.1382
  689TMC3    C510242   3.239   0.191  17.616  0.4010 -0.3333  0.2988
  689TMC3    C610243   3.228   0.264  17.729 -0.1377  0.2996  0.5038
  689TMC3     C10244   3.393   0.430  17.389 -0.5541  0.6992 -0.4663
  689TMC3     O10245   3.330   0.417  17.288  0.0839  0.0763 -0.2898
  689TMC3     H10246   3.389   0.544  17.628 -0.8507  0.5613 -1.4580
  689TMC3    H110247   3.321   0.186  17.418 -1.5035 -0.6488 -0.3555
  689TMC3    H210248   3.188   0.212   0.066 -1.8430  0.9239  0.0706
  689TMC3    C710249   3.224   0.048  17.627  0.6674 -0.2129  0.4942
  689TMC3    C810250   3.278   0.471   0.104 -0.4341  0.0549 -0.1288
  689TMC3    O110251   3.206   4.735  17.735 -0.0492 -0.2250  0.1672
  689TMC3    O210252   3.345   0.571   0.119  0.2270 -0.4083  0.2367
  690MPD2     C10253   1.583   2.321  15.619  0.6886 -0.5645 -0.0456
  690MPD2    C110254   1.463   2.353  15.571  0.9085 -0.2100 -0.1881
  690MPD2    C210255   1.459   2.426  15.457 -0.3879  0.3694 -0.5182
  690MPD2    C310256   1.575   2.499  15.413 -0.0157  0.1906  0.0515
  690MPD2    C410257   1.700   2.467  15.458  0.2272  0.3213  0.1028
  690MPD2    C510258   1.701   2.374  15.563  0.4553  0.5365  0.6148
  690MPD2     H10259   1.362   2.464  15.427 -0.1574 -0.5415 -2.4170
  690MPD2    H110260   1.790   2.510  15.418  0.9304 -4.1653 -3.1667
  690MPD2    H210261   1.595   2.263  15.710 -1.4475 -2.7855 -1.1358
  690MPD2    H310262   1.799   2.357  15.605  0.7454  0.3511 -0.1512
  690MPD2     N10263   1.550   2.611  15.332  0.5174  0.6553  0.9447
  690MPD2    H510264   1.456   2.629  15.298 -0.2203 -0.6972  2.2391
  690MPD2    N110265   1.339   2.307  15.622  0.3166  0.0129 -0.5607
  690MPD2    H710266   1.254   2.348  15.586  0.0494  0.3305  0.4389
  691TMC3    C110267   1.202   2.167  15.741  0.0083  0.2166 -0.1620
  691TMC3    C210268   1.093   2.222  15.669  0.0175  0.2008 -0.1850
  691TMC3    C310269   0.972   2.206  15.735 -0.5844 -0.3535 -0.1431
  691TMC3    C410270   1.193   2.119  15.869  0.2274  0.2246 -2.0515
  691TMC3    C510271   1.070   2.101  15.922  0.9833  0.4419  0.2703
  691TMC3    C610272   0.959   2.147  15.856  0.2041  1.1793  0.0401
  691TMC3     C10273   1.334   2.202  15.711  0.0465  0.0774  0.0412
  691TMC3     O10274   1.422   2.127  15.758  0.1831 -0.4717 -0.1950
  691TMC3     H10275   1.095   2.250  15.564  2.7542  0.7377  0.0087
  691TMC3    H110276   1.283   2.080  15.916  0.9239  1.3530 -2.4428
  691TMC3    H210277   0.857   2.126  15.884 -0.0899  1.4828 -0.8022
  691TMC3    C710278   1.052   2.036  16.050  0.2299  0.4299 -0.0310
  691TMC3    C810279   0.850   2.250  15.666  0.0713 -0.3304 -0.6676
  691TMC3    O110280   1.135   2.029  16.138 -0.1609 -0.1116  0.1851
  691TMC3    O210281   0.857   2.251  15.539 -0.1227  0.0219 -0.4910
  692TMC3    C110282   2.483   3.061  16.063 -0.2487  0.2747 -0.2667
  692TMC3    C210283   2.618   3.052  16.086  0.0574 -0.7337  0.1295
  692TMC3    C310284   2.665   2.952  16.161  0.2470 -0.0949 -0.0011
  692TMC3    C410285   2.398   2.963  16.103  0.3167  0.9254 -0.6924
  692TMC3    C510286   2.441   2.860  16.186  0.0322 -0.1362 -0.1704
  692TMC3    C610287   2.577   2.864  16.218 -0.3667 -0.1046  0.0864
  692TMC3     C10288   2.426   3.193  16.049 -0.2215 -0.8508  0.2756
  692TMC3     O10289   2.315   3.206  15.999 -0.8192  0.4235 -0.0699
  692TMC3     H10290   2.687   3.112  16.028  0.9209  0.6924  2.6448
  692TMC3    H110291   2.293   2.958  16.077 -0.5177  1.2200  2.5431
  692TMC3    H210292   2.618   2.770  16.254 -0.4063 -0.3917 -0.6303
  692TMC3    C710293   2.376   2.730  16.176  0.2054  0.0512 -0.5669
  692TMC3    C810294   2.739   3.009  16.270 -0.2468  0.2013 -0.0424
  692TMC3    O110295   2.295   2.715  16.088 -0.5123  0.2125 -0.3847
  692TMC3    O210296   2.673   2.993  16.373  0.0100 -0.5039 -0.1264
  693MPD2     C10297   1.395   1.090  11.381  0.9821 -0.6127  0.0218
  693MPD2    C110298   1.350   1.030  11.268 -0.2915  0.0086 -0.4683
  693MPD2    C210299   1.429   1.033  11.152 -0.5587  0.5548 -0.2037
  693MPD2    C310300   1.548   1.097  11.158  0.0707 -0.4247 -0.1481
  693MPD2    C410301   1.586   1.173  11.269  0.2746  1.0103 -0.3997
  693MPD2    C510302   1.503   1.171  11.375 -0.7185  0.3439 -0.3078
  693MPD2     H10303   1.405   0.980  11.061  1.1744  1.9237 -1.4694
  693MPD2    H110304   1.673   1.237  11.257  2.7292 -1.6172  3.3097
  693MPD2    H210305   1.324   1.113  11.460 -0.3052  0.3035 -1.3880
  693MPD2    H310306   1.534   1.236  11.456 -1.1323 -1.2366  1.1285
  693MPD2     N10307   1.640   1.106  11.048 -0.2301  0.1925 -0.1109
  693MPD2    H510308   1.719   1.169  11.059  1.6328 -1.9394 -1.3273
  693MPD2    N110309   1.220   0.973  11.271 -0.3364  0.8316 -0.2150
  693MPD2    H710310   1.183   0.951  11.363  3.2210  0.3452  1.1223
  694TMC3    C110311   1.024   0.869  11.199 -0.0619  0.0906 -0.0008
  694TMC3    C210312   0.951   0.815  11.095  0.6623 -1.0142 -0.3114
  694TMC3    C310313   0.860   0.716  11.117 -0.6206 -0.6230  0.3557
  694TMC3    C410314   1.004   0.825  11.322  0.0336  0.5939  0.0633
  694TMC3    C510315   0.915   0.728  11.343 -0.5876  0.1140  0.1314
  694TMC3    C610316   0.832   0.672  11.244  0.1345  0.1271  0.5361
  694TMC3     C10317   1.153   0.915  11.168  0.8080  0.2288 -0.2689
  694TMC3     O10318   1.188   0.901  11.052  0.0466 -0.5075  0.0018
  694TMC3     H10319   0.969   0.844  10.992  1.6425  1.9229  0.6892
  694TMC3    H110320   1.063   0.867  11.404  0.1873  0.9474 -0.2275
  694TMC3    H210321   0.752   0.602  11.266  0.4318 -0.3146  0.2140
  694TMC3    C710322   0.867   0.698  11.479 -0.1594  0.3484 -0.8149
  694TMC3    C810323   0.759   0.680  11.021  0.3571 -0.0204  0.2305
  694TMC3    O110324   0.886   0.782  11.569 -0.3709  0.2706 -0.0405
  694TMC3    O210325   0.708   0.571  11.033 -0.1434  0.0391  0.1603
  695MPD2     C10326   3.103   3.046  13.605  0.2716 -0.3061  0.0940
  695MPD2    C110327   3.019   3.040  13.718  0.1359 -0.2533  0.0480
  695MPD2    C210328   2.891   3.088  13.706  1.2152  0.2557  0.0076
  695MPD2    C310329   2.838   3.137  13.585  0.3660  0.1642  0.1460
  695MPD2    C410330   2.919   3.144  13.472  0.0290 -0.1621 -0.1161
  695MPD2    C510331   3.043   3.089  13.487  0.4105  0.0979  0.0743
  695MPD2     H10332   2.819   3.086  13.787 -0.0884  2.8145 -1.0725
  695MPD2    H110333   2.887   3.173  13.373  0.8517  0.0890 -0.3086
  695MPD2    H210334   3.205   3.013  13.615  1.3300  3.0216  0.1515
  695MPD2    H310335   3.097   3.081  13.393  0.8026 -1.1849  0.4056
  695MPD2     N10336   2.705   3.171  13.598  0.5739 -0.1545 -0.1823
  695MPD2    H510337   2.650   3.144  13.679 -1.4165 -1.2309 -1.8497
  695MPD2    N110338   3.048   3.001  13.853 -0.1896  0.5773 -0.6783
  695MPD2    H710339   2.972   3.012  13.919 -0.7458 -1.6441 -0.9433
  696TMC3    C110340   2.500   3.277  13.544  1.2823 -0.5264  0.3272
  696TMC3    C210341   2.421   3.177  13.608 -0.2361  0.0158  0.3455
  696TMC3    C310342   2.300   3.199  13.659 -0.5761 -0.0018 -0.0891
  696TMC3    C410343   2.447   3.401  13.524  0.5500  0.2476 -0.4426
  696TMC3    C510344   2.324   3.426  13.578 -0.5229 -0.8368  0.3255
  696TMC3    C610345   2.248   3.328  13.647  0.8938  0.2552 -0.1853
  696TMC3     C10346   2.642   3.256  13.513 -0.7209  0.0084  0.4906
  696TMC3     O10347   2.675   3.320  13.415  0.1442  0.1143  0.4334
  696TMC3     H10348   2.455   3.075  13.624 -1.4501 -0.6859 -1.4896
  696TMC3    H110349   2.510   3.476  13.477  0.5304  2.8992  3.7642
  696TMC3    H210350   2.144   3.340  13.674  0.3524  0.1504 -2.2117
  696TMC3    C710351   2.302   3.559  13.614 -0.0851 -0.8228  0.1658
  696TMC3    C810352   2.215   3.085  13.684  0.2662  0.0859  0.4858
  696TMC3    O110353   2.401   3.636  13.609  0.7282  0.2137  0.2498
  696TMC3    O210354   2.217   2.996  13.601 -0.4908 -0.2568 -0.1802
  697MPD2     C10355   2.094   0.577  15.468  0.3352 -0.1309  0.1424
  697MPD2    C110356   2.103   0.477  15.370 -0.3449  0.1397 -0.1898
  697MPD2    C210357   2.132   0.527  15.248 -0.1470  0.0497 -0.0693
  697MPD2    C310358   2.132   0.665  15.215 -0.3157  0.9647  0.8310
  697MPD2    C410359   2.112   0.762  15.315  0.5402  0.7235 -0.7345
  697MPD2    C510360   2.090   0.716  15.439 -0.5418 -0.4168 -0.5103
  697MPD2     H10361   2.148   0.459  15.164 -0.0965  0.4876 -0.4141
  697MPD2    H110362   2.109   0.869  15.303  0.9094  1.1875  3.3719
  697MPD2    H210363   2.082   0.553  15.573  0.7874  1.5230  0.5694
  697MPD2    H310364   2.062   0.789  15.513 -0.0475 -1.2805  0.5414
  697MPD2     N10365   2.165   0.704  15.081 -0.1089 -0.4425 -0.4462
  697MPD2    H510366   2.185   0.634  15.010  1.0368  0.1453 -0.6902
  697MPD2    N110367   2.088   0.335  15.397 -0.1466  0.3030 -0.3966
  697MPD2    H710368   2.107   0.268  15.323 -0.9809 -2.7263  2.0962
  698TMC3    C110369   2.112   0.852  14.901 -0.1749  0.4623  0.2474
  698TMC3    C210370   2.158   0.965  14.839 -0.2911  0.5150  0.2300
  698TMC3    C310371   2.130   0.968  14.706 -1.0102  0.3384  0.2915
  698TMC3    C410372   2.053   0.746  14.848 -0.1500  0.0827  0.7062
  698TMC3    C510373   2.020   0.763  14.714  0.2794  0.1180 -0.8728
  698TMC3    C610374   2.058   0.870  14.642 -0.4147  0.1663  0.0570
  698TMC3     C10375   2.150   0.838  15.038 -0.3468  0.1813  0.2211
  698TMC3     O10376   2.171   0.945  15.100 -0.3675  0.4117  0.3141
  698TMC3     H10377   2.201   1.050  14.890  0.6934  1.1467 -1.6520
  698TMC3    H110378   2.023   0.662  14.910  0.1066 -0.7920 -0.3635
  698TMC3    H210379   2.026   0.887  14.540 -2.1946 -1.0045  0.4126
  698TMC3    C710380   1.961   0.653  14.636  0.8039 -0.1028 -0.1252
  698TMC3    C810381   2.167   1.083  14.626 -0.4827  0.0269 -0.6782
  698TMC3    O110382   1.926   0.666  14.519  0.1548 -0.3874  0.3444
  698TMC3    O210383   2.083   1.114  14.543 -0.4903  0.2132  0.0590
  699TMC3    C110384   2.532   3.143  13.193  0.0013 -0.3177 -0.0082
  699TMC3    C210385   2.581   3.025  13.232 -0.4130 -0.0172 -0.2033
  699TMC3    C310386   2.486   2.947  13.299  0.9911 -0.3745 -0.5465
  699TMC3    C410387   2.411   3.196  13.232  0.1317  0.0829  0.5384
  699TMC3    C510388   2.320   3.114  13.294  0.8362 -0.4100 -0.1897
  699TMC3    C610389   2.357   2.985  13.320 -0.1124 -0.4239 -0.0780
  699TMC3     C10390   2.623   3.244  13.129  0.4451  0.7831 -0.1410
  699TMC3     O10391   2.573   3.347  13.098  1.0316 -0.5919 -0.5453
  699TMC3     H10392   2.679   2.987  13.203 -0.1527  2.0840 -2.0527
  699TMC3    H110393   2.386   3.297  13.202  1.3947  0.2066 -0.1189
  699TMC3    H210394   2.284   2.910  13.350 -2.9358  1.6009 -1.8071
  699TMC3    C710395   2.180   3.147  13.306  0.6393  0.0683 -0.5664
  699TMC3    C810396   2.530   2.821  13.367  0.1267 -0.6117  0.4964
  699TMC3    O110397   2.105   3.049  13.303 -0.1693  0.3192  0.5714
  699TMC3    O210398   2.444   2.745  13.404 -0.2266  0.1802  0.0231
  700TMC3    C110399   1.382   0.601  17.418 -0.3680  0.1327 -0.0289
  700TMC3    C210400   1.491   0.545  17.348 -0.1814 -0.3311 -0.1786
  700TMC3    C310401   1.545   0.431  17.380  0.3858 -0.2676 -0.1656
  700TMC3    C410402   1.341   0.546  17.530 -0.2400  0.3502 -0.1088
  700TMC3    C510403   1.414   0.429  17.566  0.3223  0.3809 -0.2279
  700TMC3    C610404   1.509   0.364  17.490  0.0529 -0.1249 -0.0035
  700TMC3     C10405   1.342   0.742  17.413  0.1440 -0.2565  0.1158
  700TMC3     O10406   1.268   0.789  17.499 -0.1964 -0.2319 -0.1408
  700TMC3     H10407   1.533   0.592  17.259 -1.3825  0.6735 -0.2078
  700TMC3    H110408   1.270   0.600  17.592  0.1842  2.3739 -1.3934
  700TMC3    H210409   1.560   0.274  17.522  2.3050  0.6291 -1.5058
  700TMC3    C710410   1.440   0.418  17.708  0.9525  0.4915  0.3767
  700TMC3    C810411   1.636   0.371  17.284  0.8626 -0.4979 -0.0675
  700TMC3    O110412   1.532   0.350  17.746  0.1363 -0.4250  0.5448
  700TMC3    O210413   1.672   0.432  17.182 -0.5995 -0.0161  0.2487
  701TMC3    C110414   1.121   4.460  15.031 -0.1786 -0.2197  0.1734
  701TMC3    C210415   1.076   4.436  14.900  0.2610 -0.1303  0.2315
  701TMC3    C310416   1.160   4.378  14.811 -0.0577 -0.7421  0.9726
  701TMC3    C410417   1.259   4.454  15.057 -0.2626  0.3116  0.3068
  701TMC3    C510418   1.340   4.444  14.947 -0.0570  0.2450 -0.4167
  701TMC3    C610419   1.296   4.384  14.830  0.3682 -0.5271 -0.0222
  701TMC3     C10420   1.019   4.474  15.139 -0.6749  0.5026 -0.8385
  701TMC3     O10421   0.921   4.539  15.103  0.0628 -0.4221  0.1228
  701TMC3     H10422   0.971   4.451  14.882 -0.2242 -0.8122  2.4850
  701TMC3    H110423   1.302   4.477  15.154 -0.4809  1.0166  0.2383
  701TMC3    H210424   1.362   4.370  14.745  0.0939  4.7482 -1.0521
  701TMC3    C710425   1.473   4.496  14.950 -1.4068  0.5263  0.6526
  701TMC3    C810426   1.108   4.317  14.691 -0.3123 -0.4501 -0.0052
  701TMC3    O110427   1.541   4.443  14.870 -0.3775  0.1228  0.4539
  701TMC3    O210428   1.197   4.286  14.612  0.1406 -0.4062 -0.4576
  702MPD2     C10429   0.170   1.039  10.111  0.2971 -0.1335  0.4111
  702MPD2    C110430   0.157   1.120  10.227 -0.0832 -0.3275 -0.4177
  702MPD2    C210431   0.203   1.252  10.222  0.4216  0.1729 -0.2299
  702MPD2    C310432   0.242   1.307  10.103 -0.2315 -0.1911 -0.7262
  702MPD2    C410433   0.252   1.226   9.987 -1.3727 -0.3164 -0.6848
  702MPD2    C510434   0.216   1.093   9.996 -0.1855  0.0226  0.1029
  702MPD2     H10435   0.193   1.320  10.305  1.6930  0.8972 -0.6790
  702MPD2    H110436   0.282   1.256   9.887  0.2919  0.0833 -0.0779
  702MPD2    H210437   0.158   0.931  10.110 -0.8822 -0.0024  1.1718
  702MPD2    H310438   0.231   1.026   9.912 -0.7300 -1.0177  0.8282
  702MPD2     N10439   0.274   1.446  10.091 -0.3675  0.5221  0.4025
  702MPD2    H510440   0.237   1.498  10.170 -0.3798  2.3685 -0.8216
  702MPD2    N110441   0.105   1.078  10.350 -0.1934  0.5544 -0.0636
  702MPD2    H710442   0.113   1.135  10.434  0.1448 -2.6438  2.1132
  703TMC3    C110443   0.305   1.647  10.014 -0.2182 -0.7885 -0.3272
  703TMC3    C210444   0.229   1.669  10.122  0.0920 -1.0374  0.7130
  703TMC3    C310445   0.279   1.735  10.234 -0.6170 -0.1671 -0.2020
  703TMC3    C410446   0.427   1.711  10.007 -0.0435 -0.2174  0.6298
  703TMC3    C510447   0.467   1.789  10.112 -0.0380 -0.9044  0.1757
  703TMC3    C610448   0.394   1.809  10.228 -0.8042 -0.1105  0.2491
  703TMC3     C10449   0.331   1.509   9.989  0.0420 -0.4201 -0.1687
  703TMC3     O10450   0.405   1.475   9.897 -0.3740 -0.0155 -0.0448
  703TMC3     H10451   0.128   1.628  10.123 -0.6274  0.7027 -0.3885
  703TMC3    H110452   0.513   1.684   9.946 -0.2307  1.2815 -0.3097
  703TMC3    H210453   0.433   1.865  10.313 -0.7477  0.8074 -0.3753
  703TMC3    C710454   0.599   1.845  10.103 -0.0031 -0.2975 -0.1340
  703TMC3    C810455   0.254   1.658  10.355  0.0239  0.2193 -0.1013
  703TMC3    O110456   0.643   1.870   9.990 -0.3853 -0.0565 -0.3284
  703TMC3    O210457   0.213   1.551  10.322  0.2416  0.0951  0.3161
  704TMC3    C110458   2.869   4.616  11.966  0.0294 -0.0362 -0.0149
  704TMC3    C210459   2.999   4.636  11.916  0.3562  0.3782  0.0148
  704TMC3    C310460   3.100   4.546  11.948  0.4187  0.2738 -0.1978
  704TMC3    C410461   2.842   4.489  12.019  0.2014 -0.2220  0.0309
  704TMC3    C510462   2.938   4.388  12.008  0.2506  0.5979 -1.1188
  704TMC3    C610463   3.072   4.418  11.985 -0.1354  0.5012 -0.0517
  704TMC3     C10464   2.764   4.719  11.962 -0.2457  0.6878 -0.1909
  704TMC3     O10465   2.652   4.684  11.982  0.1788  0.1082 -0.0757
  704TMC3     H10466   3.014   4.733  11.871  0.0369 -0.3051 -1.5463
  704TMC3    H110467   2.743   4.464  12.054 -0.1838  2.3907  0.8234
  704TMC3    H210468   3.154   4.349  12.000 -0.7311  0.1539  1.6377
  704TMC3    C710469   2.896   4.247  12.033  0.1656  0.3784  0.3193
  704TMC3    C810470   3.243   4.579  11.926  0.0481 -0.5111  0.2442
  704TMC3    O110471   2.775   4.222  12.047 -0.4373  0.1436  0.3002
  704TMC3    O210472   3.322   4.494  11.963  0.7164  0.9610 -0.0488
  705MPD2     C10473   3.399   2.965  16.772 -0.5731  0.3900 -0.0140
  705MPD2    C110474   3.314   2.996  16.663  0.1463  0.0221  0.1497
  705MPD2    C210475   3.205   3.069  16.690 -0.3003 -0.0903  0.6958
  705MPD2    C310476   3.170   3.093  16.822 -0.0207  0.4811 -0.2936
  705MPD2    C410477   3.245   3.052  16.926  0.1001 -0.5604 -0.3249
  705MPD2    C510478   3.363   2.991  16.896 -0.4991  0.1065 -0.8470
  705MPD2     H10479   3.138   3.088  16.608  0.6886  0.0038 -0.0941
  705MPD2    H110480   3.212   3.068  17.028  0.7958 -0.3757 -0.1303
  705MPD2    H210481   3.488   2.904  16.759 -1.3078 -0.4029 -1.3386
  705MPD2    H310482   3.423   2.966  16.983 -0.2651  0.3149 -0.9473
  705MPD2     N10483   3.056   3.167  16.861  0.7597 -0.6703 -0.1161
  705MPD2    H510484   3.044   3.179  16.961  1.0282  1.4191 -0.3290
  705MPD2    N110485   3.342   2.966  16.531 -0.1730 -0.5418 -0.4235
  705MPD2    H710486   3.279   3.012  16.466  0.0175  0.9130  0.4225
  706TMC3    C110487   3.436   2.798  16.117 -0.0426  0.8460 -0.3059
  706TMC3    C210488   3.364   2.901  16.065 -0.3405 -0.1110  0.0535
  706TMC3    C310489   3.341   3.010  16.148  0.5187  0.3305  0.1750
  706TMC3    C410490   3.483   2.806  16.252 -0.0210 -0.0310  0.2301
  706TMC3    C510491   3.444   2.911  16.328 -0.3640 -1.1035  0.9480
  706TMC3    C610492   3.382   3.023  16.276 -0.3932 -0.1699  0.3111
  706TMC3     C10493   3.467   2.687  16.025 -0.2800 -0.0831 -0.6148
  706TMC3     O10494   3.569   2.629  16.064 -0.3194 -0.2946  0.3096
  706TMC3     H10495   3.335   2.892  15.962  0.0916 -0.1572 -0.0638
  706TMC3    H110496   3.532   2.720  16.297  0.1653 -0.6628 -1.1832
  706TMC3    H210497   3.338   3.108  16.327 -0.3122 -0.9063  1.6245
  706TMC3    C710498   3.445   2.895  16.473 -0.3326 -0.1397 -0.3376
  706TMC3    C810499   3.302   3.126  16.070 -0.5097  0.2862 -1.1586
  706TMC3    O110500   3.531   2.818  16.519  0.7125 -0.2924 -0.6115
  706TMC3    O210501   3.263   3.109  15.954  0.2825 -0.0604 -0.0104
  707TMC3    C110502   0.787   2.288   0.061 -0.3438  0.2883 -0.0072
  707TMC3    C210503   0.731   2.163   0.084 -0.1311  0.0611  0.3153
  707TMC3    C310504   0.701   2.082  17.722 -0.1056  0.0720  0.5711
  707TMC3    C410505   0.806   2.331  17.683 -0.1080  0.3996  0.1814
  707TMC3    C510506   0.776   2.248  17.584 -0.9938  0.6407 -0.5549
  707TMC3    C610507   0.725   2.124  17.596  0.3311  0.1441  0.5470
  707TMC3     C10508   0.814   2.379   0.175 -0.3702  0.5410  0.3216
  707TMC3     O10509   0.891   2.470   0.158  0.0421 -0.1048 -0.5635
  707TMC3     H10510   0.717   2.120   0.182  0.5706 -0.3514  0.2316
  707TMC3    H110511   0.843   2.431  17.663 -3.4385  1.3351 -1.1808
  707TMC3    H210512   0.696   2.064  17.511 -1.6213  0.9909  0.6024
  707TMC3    C710513   0.775   2.294  17.447  0.3128  0.8345 -0.0579
  707TMC3    C810514   0.652   1.941  17.742 -0.6363 -0.7013 -0.5232
  707TMC3    O110515   0.802   2.214  17.356 -0.8610  0.2348 -0.3466
  707TMC3    O210516   0.630   1.889  17.632  0.2301 -0.0668  0.8484
  708MPD2     C10517   1.773   1.804  13.410 -0.2831  0.2375 -0.1257
  708MPD2    C110518   1.651   1.792  13.473 -0.2307  0.1626  0.3005
  708MPD2    C210519   1.634   1.790  13.608  0.5277 -0.5994  0.7245
  708MPD2    C310520   1.751   1.793  13.689 -0.1784 -0.3335 -0.2643
  708MPD2    C410521   1.872   1.808  13.636  0.5669  0.6310  0.4035
  708MPD2    C510522   1.885   1.813  13.498 -0.4366  0.2540  0.9211
  708MPD2     H10523   1.534   1.789  13.648  0.4067 -2.4778  0.3559
  708MPD2    H110524   1.957   1.809  13.704 -1.3570 -0.3424  2.8123
  708MPD2    H210525   1.797   1.830  13.308 -1.8695  0.2594 -0.4861
  708MPD2    H310526   1.982   1.813  13.449 -0.7899 -1.0400  0.2244
  708MPD2     N10527   1.738   1.785  13.829  0.1222  0.4464  0.0399
  708MPD2    H510528   1.822   1.801  13.884 -0.3764  2.1140  0.3144
  708MPD2    N110529   1.537   1.786  13.394  0.1354  0.0015 -0.0103
  708MPD2    H710530   1.448   1.790  13.442  1.3089 -1.3514  2.2643
  709TMC3    C110531   1.395   1.720  13.223  1.0184 -0.5327 -0.0987
  709TMC3    C210532   1.356   1.608  13.159  0.3806  0.2989  0.2769
  709TMC3    C310533   1.238   1.553  13.203  0.4008  0.7852  0.4897
  709TMC3    C410534   1.310   1.780  13.319  0.3524 -0.3963  0.8716
  709TMC3    C510535   1.193   1.723  13.360 -0.3351 -0.0890 -0.2016
  709TMC3    C610536   1.158   1.606  13.298  0.8814 -0.2214  0.1950
  709TMC3     C10537   1.529   1.744  13.262  0.5337  0.3766 -0.2992
  709TMC3     O10538   1.614   1.691  13.191  0.4026 -0.5556  0.0644
  709TMC3     H10539   1.428   1.571  13.086 -0.0447 -0.3584  0.1861
  709TMC3    H110540   1.332   1.881  13.352 -1.4424  0.0589  0.6358
  709TMC3    H210541   1.078   1.546  13.339 -0.9497  1.2228 -1.2685
  709TMC3    C710542   1.196   1.709  13.501 -0.4844 -0.5776 -0.6186
  709TMC3    C810543   1.212   1.409  13.175  0.8631  0.3263 -0.3060
  709TMC3    O110544   1.292   1.763  13.558 -0.0521  0.6175  0.2643
  709TMC3    O210545   1.144   1.347  13.253  0.3628 -0.1644  0.2329
  710TMC3    C110546   2.284   1.955   0.552 -0.0604  0.1965  0.5215
  710TMC3    C210547   2.352   1.902   0.444  0.3499  0.0770 -0.4344
  710TMC3    C310548   2.421   1.780   0.469  0.3239  0.2906 -0.1496
  710TMC3    C410549   2.263   1.882   0.668 -0.1621 -0.0425  0.6011
  710TMC3    C510550   2.319   1.758   0.672 -0.3437 -0.2662  0.8441
  710TMC3    C610551   2.388   1.702   0.570 -0.5667 -0.0624 -0.1879
  710TMC3     C10552   2.261   2.094   0.535 -0.5642 -0.1526 -0.1322
  710TMC3     O10553   2.221   2.135   0.426  0.3827 -0.1196  0.1223
  710TMC3     H10554   2.379   1.973   0.366  1.2622  0.2541  0.0420
  710TMC3    H110555   2.220   1.923   0.758  1.5002  0.5910  1.1092
  710TMC3    H210556   2.423   1.601   0.587 -0.8648 -0.0566  0.4457
  710TMC3    C710557   2.329   1.688   0.796  1.1429  0.9115  0.3896
  710TMC3    C810558   2.550   1.757   0.397 -0.0407 -0.0915  1.3247
  710TMC3    O110559   2.436   1.645   0.833  0.1543 -0.1614  0.1300
  710TMC3    O210560   2.589   1.837   0.316  0.5148  0.3935 -0.2823
  711TMC3    C110561   2.004   3.768  14.865 -0.5646 -0.2661  0.2826
  711TMC3    C210562   2.049   3.891  14.909 -0.8078 -0.0639 -0.3077
  711TMC3    C310563   2.182   3.912  14.923  0.1689  0.1463 -0.5262
  711TMC3    C410564   2.093   3.669  14.833  0.0651 -0.5683 -0.2602
  711TMC3    C510565   2.228   3.690  14.862 -0.2483  0.8941 -0.6518
  711TMC3    C610566   2.276   3.814  14.889  0.7247  0.4614  0.1593
  711TMC3     C10567   1.861   3.740  14.851  0.3623 -0.0426 -0.1584
  711TMC3     O10568   1.831   3.639  14.793 -0.0909 -0.0608  0.0386
  711TMC3     H10569   1.979   3.973  14.920  0.1078  0.5880  0.6195
  711TMC3    H110570   2.054   3.568  14.827  0.6656 -0.7326 -1.3954
  711TMC3    H210571   2.384   3.813  14.899  0.8792  4.9016 -1.1019
  711TMC3    C710572   2.284   3.582  14.933 -0.1379  0.1737  0.1488
  711TMC3    C810573   2.209   3.974  15.055  0.1709 -0.9779  0.2774
  711TMC3    O110574   2.350   3.609  15.036 -0.2394 -0.3415 -0.1154
  711TMC3    O210575   2.120   4.036  15.107  0.1023  0.1610 -0.5338
  712MPD2     C10576   2.829   0.090  13.471  0.4576  0.2623  0.0448
  712MPD2    C110577   2.923   0.087  13.568 -0.1121 -0.1574  0.3754
  712MPD2    C210578   3.057   0.121  13.545 -0.7060 -0.3477 -0.7837
  712MPD2    C310579   3.092   0.145  13.413  0.5609 -0.0290 -0.2267
  712MPD2    C410580   3.006   0.123  13.311  0.4843 -0.3542 -0.0238
  712MPD2    C510581   2.871   0.095  13.343 -0.0675 -0.3619  0.2854
  712MPD2     H10582   3.131   0.129  13.623 -0.8833 -0.0183 -0.6502
  712MPD2    H110583   3.025   0.126  13.204 -2.3290  0.4556 -0.4975
  712MPD2    H210584   2.722   0.080  13.485  0.3355  0.5538 -0.6995
  712MPD2    H310585   2.791   0.080  13.271  1.1799  1.2319 -1.4506
  712MPD2     N10586   3.227   0.179  13.401 -0.0598 -0.4449 -0.7674
  712MPD2    H510587   3.273   0.204  13.488  0.7979  0.9522 -1.6164
  712MPD2    N110588   2.873   0.059  13.696 -0.6516 -0.6105  0.1528
  712MPD2    H710589   2.772   0.049  13.699 -0.6303 -0.6788  0.5320
  713TMC3    C110590   3.413   0.277  13.299  0.5257 -0.6978  0.3220
  713TMC3    C210591   3.402   0.393  13.219 -0.0889 -0.3831 -0.4000
  713TMC3    C310592   3.404   0.510  13.289 -0.4206  0.6338 -0.4753
  713TMC3    C410593   3.444   0.280  13.433  0.0102 -0.1874  0.0043
  713TMC3    C510594   3.439   0.403  13.490  0.0647  1.1991 -0.3781
  713TMC3    C610595   3.421   0.514  13.420  0.4465 -0.2977  0.7612
  713TMC3     C10596   3.290   0.198  13.283 -0.0104  0.1506  0.2093
  713TMC3     O10597   3.251   0.185  13.166 -0.0428  0.1076 -0.1683
  713TMC3     H10598   3.386   0.388  13.112  1.5344 -1.4127 -0.5912
  713TMC3    H110599   3.445   0.192  13.497 -1.0783  0.4523  0.9039
  713TMC3    H210600   3.412   0.607  13.475  0.7836  0.1466  0.0774
  713TMC3    C710601   3.352   0.401  13.605 -0.0568 -0.0096  0.4582
  713TMC3    C810602   3.363   0.628  13.223  0.3271 -0.4005 -0.7244
  713TMC3    O110603   3.363   0.300  13.671 -0.3172 -0.1019  0.0824
  713TMC3    O210604   3.319   0.715  13.298 -0.0679  0.5723 -0.4606
  714MPD2     C10605   1.568   3.747   1.478 -0.5339 -0.2391 -0.4567
  714MPD2    C110606   1.586   3.660   1.375 -0.4854 -0.4008 -0.2622
  714MPD2    C210607   1.547   3.688   1.245  0.2748 -0.7821 -0.4110
  714MPD2    C310608   1.485   3.811   1.217  0.1924  0.2998  0.4606
  714MPD2    C410609   1.467   3.900   1.318  0.3956  0.3920 -0.2009
  714MPD2    C510610   1.511   3.869   1.446 -0.5093 -0.0449  0.6904
  714MPD2     H10611   1.569   3.627   1.159  1.8394  1.6678 -1.7633
  714MPD2    H110612   1.428   3.999   1.296 -3.4605 -0.6094  2.1840
  714MPD2    H210613   1.595   3.728   1.582  1.7861  2.6385 -0.5314
  714MPD2    H310614   1.495   3.937   1.528  0.4007  1.2795 -0.2398
  714MPD2     N10615   1.457   3.839   1.077  0.4107 -0.0088  0.8167
  714MPD2    H510616   1.480   3.773   1.003  0.1656  1.4500 -0.5493
  714MPD2    N110617   1.642   3.534   1.411 -0.1557 -0.6972  0.3633
  714MPD2    H710618   1.682   3.531   1.505  0.4630  2.1201  0.1738
  715TMC3    C110619   1.744   3.329   1.402 -0.4042  0.7204 -0.2879
  715TMC3    C210620   1.753   3.214   1.331  0.0368  0.4571  0.1505
  715TMC3    C310621   1.868   3.142   1.345 -0.2109 -0.1424 -0.3563
  715TMC3    C410622   1.851   3.379   1.477 -0.4273 -0.1487  0.0385
  715TMC3    C510623   1.963   3.304   1.488  0.5286  0.1408  0.0629
  715TMC3    C610624   1.974   3.187   1.424  0.2459 -0.5464 -0.4151
  715TMC3     C10625   1.661   3.425   1.335  0.3179 -1.1669 -0.6463
  715TMC3     O10626   1.602   3.390   1.233  0.4116 -0.5821  0.5262
  715TMC3     H10627   1.672   3.177   1.269 -1.3599  0.4589  1.9709
  715TMC3    H110628   1.852   3.482   1.510  0.9325  0.6209 -2.3924
  715TMC3    H210629   2.070   3.136   1.435 -0.0193 -0.8252  0.5900
  715TMC3    C710630   2.074   3.371   1.548 -0.1235 -0.4255  0.3161
  715TMC3    C810631   1.876   3.012   1.278  0.6218 -0.1431 -0.3162
  715TMC3    O110632   2.187   3.326   1.527 -0.3131  0.3323 -0.4493
  715TMC3    O210633   1.788   2.982   1.196  0.3616 -0.4191  0.1749
  716MPD2     C10634   4.533   1.626   9.587  0.8515  0.2322 -0.7135
  716MPD2    C110635   4.397   1.611   9.587 -0.7502  0.0222  0.2440
  716MPD2    C210636   4.348   1.547   9.473  0.6227 -0.0417 -0.2341
  716MPD2    C310637   4.424   1.527   9.355  0.3404  0.0866  0.4814
  716MPD2    C410638   4.558   1.562   9.361  0.0013 -0.3136 -0.2856
  716MPD2    C510639   4.612   1.609   9.476  0.8418  0.6263 -0.0277
  716MPD2     H10640   4.245   1.513   9.461  0.9595 -1.5109  1.0127
  716MPD2    H110641   4.632   1.552   9.282 -2.1011 -2.2666 -1.9804
  716MPD2    H210642   4.582   1.668   9.675  1.2025 -0.4656 -0.5773
  716MPD2    H310643   4.719   1.626   9.486  0.9874  0.0845 -0.6401
  716MPD2     N10644   4.365   1.456   9.251  0.4422 -0.3100 -0.1287
  716MPD2    H510645   4.275   1.410   9.264 -0.2975  1.1637 -0.0293
  716MPD2    N110646   4.321   1.643   9.702  0.5822 -0.9147  0.1398
  716MPD2    H710647   4.370   1.683   9.781  0.7592 -0.3026 -0.2808
  717TMC3    C110648   4.340   1.314   9.072  0.7385 -0.2631 -0.7110
  717TMC3    C210649   4.218   1.293   9.127  0.2597 -0.6197 -0.1364
  717TMC3    C310650   4.159   1.170   9.095 -0.7636 -0.2491  0.5354
  717TMC3    C410651   4.406   1.217   9.004  0.5295  0.0553  0.7452
  717TMC3    C510652   4.343   1.096   8.975 -0.1598  0.0451  0.6012
  717TMC3    C610653   4.221   1.068   9.022  0.4817  0.8485  0.7518
  717TMC3     C10654   4.429   1.404   9.138 -0.1872 -0.8486  0.0236
  717TMC3     O10655   4.532   1.437   9.081 -0.2386 -0.3282  0.0953
  717TMC3     H10656   4.161   1.377   9.166 -0.2250 -0.9775 -0.0788
  717TMC3    H110657   4.512   1.233   8.989 -0.1218  0.3232 -3.7119
  717TMC3    H210658   4.173   0.971   9.012  2.7310 -0.2365  0.6328
  717TMC3    C710659   4.413   1.000   8.889  0.0008 -0.5046  0.2344
  717TMC3    C810660   4.056   1.138   9.191  0.2737 -0.1343 -0.1671
  717TMC3    O110661   4.361   0.891   8.877 -0.0232 -0.1705 -0.1584
  717TMC3    O210662   4.064   1.211   9.292 -0.2054 -0.8060  0.0389
  718MPD2     C10663   3.542   4.609  12.628 -0.0041  0.7754  0.6827
  718MPD2    C110664   3.612   4.498  12.599 -0.1437 -0.6183  0.3481
  718MPD2    C210665   3.551   4.393  12.544 -0.7512  0.2509  0.2077
  718MPD2    C310666   3.422   4.401  12.495 -0.4719 -0.4893  0.0516
  718MPD2    C410667   3.344   4.514  12.517 -0.8232  0.0452 -0.3034
  718MPD2    C510668   3.408   4.617  12.583 -0.0508  0.3655  0.2525
  718MPD2     H10669   3.612   4.305  12.526  1.7561  2.0297  0.0288
  718MPD2    H110670   3.250   4.533  12.466  0.8442  1.9739 -2.6612
  718MPD2    H210671   3.591   4.693  12.676  1.8243  0.2489 -0.2621
  718MPD2    H310672   3.349   4.705  12.607 -2.9294 -1.0426 -1.6896
  718MPD2     N10673   3.383   4.281  12.439 -0.0775 -0.4139 -0.0793
  718MPD2    H510674   3.441   4.201  12.461  0.5403 -0.4550 -1.8827
  718MPD2    N110675   3.749   4.482  12.629 -0.3293 -0.4858  0.5716
  718MPD2    H710676   3.781   4.386  12.624  0.8596 -0.1562  1.8160
  719TMC3    C110677   3.969   4.518  12.693  0.8936  0.2724  0.0755
  719TMC3    C210678   3.964   4.387  12.729  0.1250  0.1481 -0.3794
  719TMC3    C310679   4.043   4.301  12.662  0.2007 -0.0695 -0.6976
  719TMC3    C410680   4.072   4.568  12.620  0.4117  0.0565 -0.3855
  719TMC3    C510681   4.162   4.473  12.567 -0.3460 -0.2148 -0.2380
  719TMC3    C610682   4.144   4.335  12.579 -0.3698 -0.4587 -0.2715
  719TMC3     C10683   3.842   4.580  12.662  0.5211  0.6358 -0.0679
  719TMC3     O10684   3.827   4.700  12.659 -0.3628 -0.4438 -0.2317
  719TMC3     H10685   3.889   4.345  12.795  1.1483  1.3679  1.5791
  719TMC3    H110686   4.065   4.668  12.581  0.0606 -0.8994 -2.7604
  719TMC3    H210687   4.210   4.267  12.526  3.3710  3.0064 -0.0477
  719TMC3    C710688   4.298   4.518  12.549 -0.6477  0.1261 -0.3501
  719TMC3    C810689   3.956   4.194  12.606 -0.7234  0.0480 -0.2275
  719TMC3    O110690   4.374   4.467  12.467 -0.0044  0.2770 -0.2267
  719TMC3    O210691   3.840   4.227  12.616  0.0845  0.5150  0.0328
  720MPD2     C10692   3.363   1.623  13.702 -0.4074  0.8713  0.2678
  720MPD2    C110693   3.384   1.751  13.738  0.3614  0.2136 -1.0032
  720MPD2    C210694   3.491   1.782  13.815  0.0962 -0.0153  0.7481
  720MPD2    C310695   3.588   1.684  13.850  0.0747 -0.5350 -0.1842
  720MPD2    C410696   3.572   1.562  13.798 -0.0929 -0.3207 -0.4899
  720MPD2    C510697   3.457   1.530  13.732 -0.7879 -0.0721  0.3215
  720MPD2     H10698   3.504   1.887  13.838 -2.2882  0.3209  0.5200
  720MPD2    H110699   3.641   1.479  13.809 -0.7738 -1.0777 -1.8061
  720MPD2    H210700   3.273   1.586  13.653 -1.3095  2.0206  1.0643
  720MPD2    H310701   3.446   1.425  13.706 -1.3002  0.0652 -0.0067
  720MPD2     N10702   3.692   1.718  13.941  0.7670 -0.6066  0.1669
  720MPD2    H510703   3.698   1.815  13.968  1.0114 -0.1077 -1.6820
  720MPD2    N110704   3.295   1.856  13.699 -0.7696  0.4171  0.1984
  720MPD2    H710705   3.324   1.950  13.725 -0.8992  0.6641 -0.5502
  721TMC3    C110706   3.880   1.698  14.077  0.8144 -0.7607 -0.4658
  721TMC3    C210707   3.820   1.774  14.171 -0.0014 -0.0533  0.2872
  721TMC3    C310708   3.904   1.839  14.259  0.0214 -0.2564 -0.6221
  721TMC3    C410709   4.014   1.691  14.064  0.8874  0.4480 -0.4978
  721TMC3    C510710   4.094   1.754  14.152 -0.1529 -0.3370 -0.8474
  721TMC3    C610711   4.042   1.828  14.249 -0.3941 -0.4207 -0.1232
  721TMC3     C10712   3.795   1.633  13.978 -0.2465  0.1202 -0.2761
  721TMC3     O10713   3.836   1.530  13.926 -0.0397  0.3009 -0.3578
  721TMC3     H10714   3.716   1.755  14.192 -0.5199  0.6816 -1.6759
  721TMC3    H110715   4.052   1.625  13.986  2.8359  1.3504 -0.3114
  721TMC3    H210716   4.101   1.861  14.334  0.3592 -1.1989 -0.3472
  721TMC3    C710717   4.234   1.754  14.138  0.0102 -0.3636  0.1941
  721TMC3    C810718   3.842   1.862  14.387 -0.4670 -0.9044 -0.0742
  721TMC3    O110719   4.301   1.839  14.191 -0.5119  0.1897 -0.3968
  721TMC3    O210720   3.906   1.834  14.490  0.4706 -0.7442 -0.2616
  722MPD2     C10721   1.943   0.424  13.621  0.0996  0.2493  0.2929
  722MPD2    C110722   1.970   0.551  13.576 -0.1555  0.3024  1.0277
  722MPD2    C210723   1.867   0.629  13.531 -0.3298 -0.4270 -0.0303
  722MPD2    C310724   1.739   0.578  13.513 -0.6788 -0.2008 -0.1672
  722MPD2    C410725   1.706   0.455  13.562  0.2867 -0.4234 -0.2586
  722MPD2    C510726   1.805   0.386  13.622 -0.1523 -0.3182 -0.5163
  722MPD2     H10727   1.888   0.731  13.500 -0.1204 -0.4436  0.0560
  722MPD2    H110728   1.606   0.411  13.568 -0.0296  0.1717 -1.1608
  722MPD2    H210729   2.024   0.369  13.666  0.5026 -1.1129 -2.1070
  722MPD2    H310730   1.774   0.292  13.666  1.8848 -1.8932 -2.4446
  722MPD2     N10731   1.649   0.658  13.438 -0.2158  0.2180 -0.0032
  722MPD2    H510732   1.685   0.742  13.395  0.4515  0.1814  0.4800
  722MPD2    N110733   2.093   0.610  13.579 -0.2351  0.2285  0.0829
  722MPD2    H710734   2.096   0.711  13.567  0.8209  0.4881  2.3823
  723TMC3    C110735   1.479   0.660  13.268  0.2255  0.6912 -0.6704
  723TMC3    C210736   1.373   0.594  13.213 -0.1692  0.0271 -0.3065
  723TMC3    C310737   1.342   0.607  13.080  0.0213 -0.4764  0.0497
  723TMC3    C410738   1.537   0.766  13.199 -0.5003  0.0220 -0.1478
  723TMC3    C510739   1.501   0.779  13.070 -0.0307 -0.7070  0.5658
  723TMC3    C610740   1.405   0.706  13.003 -0.6898  0.2698  0.4744
  723TMC3     C10741   1.518   0.621  13.402  0.2526  0.0944 -0.6211
  723TMC3     O10742   1.442   0.561  13.475 -0.0032 -0.3662  0.0899
  723TMC3     H10743   1.323   0.511  13.262 -1.5962  0.4700 -1.0183
  723TMC3    H110744   1.626   0.812  13.240  0.2135 -1.4250 -0.0648
  723TMC3    H210745   1.367   0.723  12.903  0.2377 -0.2214  0.0357
  723TMC3    C710746   1.554   0.889  12.998 -0.1251  0.4139  0.3451
  723TMC3    C810747   1.267   0.504  13.014 -0.0935 -0.0649 -0.1040
  723TMC3    O110748   1.565   0.885  12.878 -0.5470 -0.7034 -0.4655
  723TMC3    O210749   1.215   0.533  12.906  0.4891 -0.3269  0.5013
  724TMC3    C110750   2.388   3.414  10.835 -0.7567 -0.1624  0.5247
  724TMC3    C210751   2.310   3.371  10.735  0.7134  0.2021  0.6876
  724TMC3    C310752   2.235   3.465  10.671  0.1115  0.4615 -0.1968
  724TMC3    C410753   2.392   3.544  10.887 -0.0315  0.5682  0.2587
  724TMC3    C510754   2.322   3.630  10.813  0.2979  0.2713 -0.3414
  724TMC3    C610755   2.234   3.597  10.716  0.1796  0.3253 -0.6600
  724TMC3     C10756   2.494   3.332  10.892  0.1368 -0.3750 -0.0398
  724TMC3     O10757   2.471   3.216  10.914  0.1926  0.3963 -0.2818
  724TMC3     H10758   2.323   3.273  10.691  0.0293 -0.3734  1.7591
  724TMC3    H110759   2.474   3.575  10.951  1.1770 -0.5458 -0.7223
  724TMC3    H210760   2.169   3.675  10.679 -0.9117  0.0483  0.6785
  724TMC3    C710761   2.338   3.770  10.827  0.1571  0.2144  0.2190
  724TMC3    C810762   2.176   3.429  10.538 -0.4074 -0.2297  0.0118
  724TMC3    O110763   2.310   3.843  10.732  0.5957 -0.3939 -0.2093
  724TMC3    O210764   2.118   3.323  10.532 -0.0979  0.1669 -0.1191
  725TMC3    C110765   4.049   2.298  13.032 -0.3410 -0.5312 -0.6155
  725TMC3    C210766   3.965   2.315  12.930 -0.3710 -0.1980  0.1418
  725TMC3    C310767   3.866   2.220  12.911 -0.1191 -0.0299  0.4241
  725TMC3    C410768   4.042   2.180  13.100  0.7046  0.5162 -0.0849
  725TMC3    C510769   3.940   2.092  13.081 -0.4006  0.8763 -0.2909
  725TMC3    C610770   3.842   2.106  12.984  0.1402 -0.7309 -0.4581
  725TMC3     C10771   4.168   2.380  13.029 -0.7569 -0.1721 -0.1645
  725TMC3     O10772   4.155   2.486  12.973 -0.5422  0.3066  0.0846
  725TMC3     H10773   3.957   2.402  12.866 -1.2865  0.4481  1.1396
  725TMC3    H110774   4.115   2.147  13.173  1.1462  0.1133 -0.7037
  725TMC3    H210775   3.781   2.023  12.950 -0.3157 -1.3700  1.9414
  725TMC3    C710776   3.960   1.955  13.128 -0.3390 -0.4249 -0.9319
  725TMC3    C810777   3.760   2.236  12.806  0.9321 -0.1767  0.4726
  725TMC3    O110778   4.075   1.913  13.136  0.2397  0.5173 -0.5081
  725TMC3    O210779   3.652   2.182  12.821 -0.0433 -0.1801  0.3115
  726MPD2     C10780   1.470   3.721  10.671 -0.1229  0.3327 -0.0290
  726MPD2    C110781   1.420   3.709  10.541  0.4728  0.5021 -0.5043
  726MPD2    C210782   1.382   3.589  10.494  0.0199  0.0934 -0.3961
  726MPD2    C310783   1.400   3.471  10.569 -0.1147  0.0533 -0.4564
  726MPD2    C410784   1.460   3.485  10.691 -0.6572  0.0148 -0.0861
  726MPD2    C510785   1.489   3.610  10.749 -0.9073 -0.1913 -0.0723
  726MPD2     H10786   1.341   3.581  10.394 -0.4997  0.5772 -0.2199
  726MPD2    H110787   1.472   3.394  10.749  1.5649  0.5727  0.3219
  726MPD2    H210788   1.503   3.817  10.707  0.4836 -0.0450  0.4253
  726MPD2    H310789   1.531   3.622  10.848  0.0344 -0.0246 -0.4929
  726MPD2     N10790   1.380   3.341  10.525 -0.0025 -0.7732  0.4237
  726MPD2    H510791   1.365   3.271  10.597 -1.5235  0.3980  1.2390
  726MPD2    N110792   1.403   3.816  10.444  0.1782 -0.6235 -0.2602
  726MPD2    H710793   1.351   3.795  10.360  1.5636 -2.3979 -0.6928
  727TMC3    C110794   1.405   4.032  10.365  0.6342 -0.9909  0.7229
  727TMC3    C210795   1.486   4.143  10.357  0.1646 -0.0509  0.4924
  727TMC3    C310796   1.432   4.263  10.328  0.0218  0.3147 -0.5695
  727TMC3    C410797   1.264   4.042  10.334 -0.4907  0.6431 -0.4474
  727TMC3    C510798   1.225   4.165  10.288 -0.2856  0.8688 -0.4869
  727TMC3    C610799   1.301   4.273  10.288 -0.6239  0.2779 -0.1912
  727TMC3     C10800   1.441   3.944  10.470 -0.1372  0.2408 -0.0579
  727TMC3     O10801   1.505   3.992  10.562 -0.2012  0.4368 -0.2040
  727TMC3     H10802   1.588   4.127  10.390 -0.6995  0.1929  3.2690
  727TMC3    H110803   1.194   3.965  10.364 -0.4362  0.6857 -0.2108
  727TMC3    H210804   1.260   4.372  10.276 -0.9921  0.2163  0.5567
  727TMC3    C710805   1.097   4.190  10.233 -0.0083  0.3083  0.9161
  727TMC3    C810806   1.514   4.368  10.387 -0.4335 -0.7869  0.8613
  727TMC3    O110807   1.062   4.304  10.201  0.1604 -0.5126 -0.3569
  727TMC3    O210808   1.635   4.341  10.384  0.1731  0.1889 -0.2458
  728TMC3    C110809   1.595   2.809  15.223  0.3031  0.0636  1.3027
  728TMC3    C210810   1.643   2.941  15.240 -0.8187  0.6988 -0.3204
  728TMC3    C310811   1.577   3.040  15.177  0.7503  0.1987 -0.5753
  728TMC3    C410812   1.495   2.784  15.134 -0.2448 -0.4343  0.2901
  728TMC3    C510813   1.432   2.885  15.069  0.0126 -0.4161  1.0693
  728TMC3    C610814   1.474   3.023  15.089  0.2165  0.3008  0.2037
  728TMC3     C10815   1.644   2.709  15.307  0.4166  0.3975 -0.6504
  728TMC3     O10816   1.752   2.726  15.353  0.2129  0.4170  0.2008
  728TMC3     H10817   1.723   2.963  15.309 -0.7668 -0.8267  0.1108
  728TMC3    H110818   1.456   2.684  15.118 -0.6506 -0.1804 -0.3215
  728TMC3    H210819   1.412   3.105  15.053 -0.7649  0.5690  2.5286
  728TMC3    C710820   1.328   2.849  14.979  0.2283 -0.6684 -0.6693
  728TMC3    C810821   1.625   3.178  15.200 -0.4071 -0.2150  0.0241
  728TMC3    O110822   1.240   2.775  15.022 -0.0190 -0.1966  0.0691
  728TMC3    O210823   1.551   3.271  15.175 -0.4489 -0.5485 -0.5591
  729MPD2     C10824   3.513   3.725  17.223 -0.6255  0.1823  0.0161
  729MPD2    C110825   3.632   3.695  17.163 -0.3911  0.5524 -0.1801
  729MPD2    C210826   3.747   3.707  17.239 -0.5036 -0.6149  0.1416
  729MPD2    C310827   3.749   3.785  17.355 -0.1825 -0.6252 -1.0475
  729MPD2    C410828   3.631   3.804  17.419  0.1951 -0.0132  0.3233
  729MPD2    C510829   3.512   3.769  17.353 -0.0459 -0.3639 -0.4217
  729MPD2     H10830   3.848   3.687  17.205 -1.0321 -1.5242 -0.8913
  729MPD2    H110831   3.637   3.855  17.514  2.3632  3.7498 -1.8431
  729MPD2    H210832   3.416   3.703  17.178 -0.5197  2.2166 -1.1716
  729MPD2    H310833   3.418   3.789  17.403  0.0104  1.6500 -1.1358
  729MPD2     N10834   3.858   3.832  17.429 -0.3696  0.0756 -0.3656
  729MPD2    H510835   3.837   3.886  17.513 -3.3015 -0.2816 -0.8868
  729MPD2    N110836   3.621   3.674  17.027  0.1167 -0.2003 -0.8972
  729MPD2    H710837   3.533   3.691  16.979 -1.2512  2.4178  2.5054
  730TMC3    C110838   4.063   3.941  17.448 -0.9341 -0.7709 -0.0393
  730TMC3    C210839   4.199   3.946  17.429  0.9304  0.8847  0.1760
  730TMC3    C310840   4.258   4.071  17.419  0.0601  0.5400 -0.0744
  730TMC3    C410841   3.994   4.058  17.479 -0.0651  0.3294 -0.0345
  730TMC3    C510842   4.057   4.180  17.472  0.3272 -0.2236  0.0692
  730TMC3    C610843   4.193   4.188  17.432  0.2631  0.1310  0.0907
  730TMC3     C10844   3.988   3.829  17.394 -0.1109 -0.3724  0.1411
  730TMC3     O10845   4.040   3.759  17.306 -0.0055  0.2412 -0.2044
  730TMC3     H10846   4.247   3.850  17.413  0.7090  1.4846 -4.0959
  730TMC3    H110847   3.888   4.067  17.495 -0.0410  1.0732 -0.2890
  730TMC3    H210848   4.237   4.284  17.405  0.6514 -0.5338 -1.6086
  730TMC3    C710849   3.969   4.292  17.432 -0.4593  0.0436 -0.7226
  730TMC3    C810850   4.394   4.062  17.355  0.1785 -0.0358 -0.8751
  730TMC3    O110851   3.868   4.271  17.365  0.0396  0.2311  0.0027
  730TMC3    O210852   4.404   3.949  17.311 -0.4642  0.0485  0.6462
  731MPD2     C10853   3.296   1.379  11.952  0.2310 -0.4000  0.0851
  731MPD2    C110854   3.350   1.472  12.032  0.1836 -0.6243  0.7018
  731MPD2    C210855   3.292   1.501  12.151 -0.1196  0.0950  0.2633
  731MPD2    C310856   3.168   1.447  12.182 -0.1265  0.7051  0.5080
  731MPD2    C410857   3.112   1.357  12.100  0.0783  0.4039 -0.1410
  731MPD2    C510858   3.175   1.317  11.986 -0.0932  0.0094  0.7380
  731MPD2     H10859   3.335   1.591  12.194  0.5453 -0.4549  0.7449
  731MPD2    H110860   3.024   1.301  12.129  0.2080 -0.0435 -0.5877
  731MPD2    H210861   3.347   1.353  11.860 -1.4031  0.7169 -1.1402
  731MPD2    H310862   3.122   1.246  11.923 -3.7184  2.3789  1.1591
  731MPD2     N10863   3.112   1.482  12.313  0.4909 -0.2910 -0.2232
  731MPD2    H510864   3.175   1.538  12.370 -0.9229 -1.0074  2.0211
  731MPD2    N110865   3.473   1.530  11.995 -0.6482  1.0905 -0.1365
  731MPD2    H710866   3.515   1.509  11.905 -1.3252 -1.7137  0.2277
  732TMC3    C110867   3.668   1.647  11.987  0.3504  0.0725  0.0312
  732TMC3    C210868   3.626   1.687  11.861 -1.1765  0.4413  0.2083
  732TMC3    C310869   3.707   1.643  11.759  0.1821  0.2733 -0.0112
  732TMC3    C410870   3.782   1.584  12.015 -0.0267 -0.5466 -0.7251
  732TMC3    C510871   3.861   1.537  11.911  0.3144 -0.0661  0.3232
  732TMC3    C610872   3.821   1.564  11.780 -0.4380  0.5098  0.0093
  732TMC3     C10873   3.556   1.608  12.073  0.2737  0.5177 -0.4480
  732TMC3     O10874   3.561   1.620  12.196 -0.2024  0.1103  0.4198
  732TMC3     H10875   3.531   1.739  11.849 -1.0472  0.4752 -0.7041
  732TMC3    H110876   3.779   1.546  12.116 -0.2450 -2.6034 -1.4924
  732TMC3    H210877   3.867   1.503  11.703  1.7928  0.6715  1.2010
  732TMC3    C710878   3.995   1.485  11.926  0.4560 -0.1576 -0.4997
  732TMC3    C810879   3.635   1.616  11.633 -0.4646  0.2893 -0.1295
  732TMC3    O110880   4.044   1.440  11.823  0.2469  0.3604 -0.2079
  732TMC3    O210881   3.696   1.541  11.560  0.0322 -0.0267  0.4885
  733TMC3    C110882   3.137   3.924  12.428  0.7847 -0.1143  0.0391
  733TMC3    C210883   3.127   4.059  12.390  0.8719  0.2996 -0.0115
  733TMC3    C310884   3.243   4.116  12.348  0.2475 -0.6819 -0.0116
  733TMC3    C410885   3.251   3.852  12.426  0.7000  0.0136 -0.0445
  733TMC3    C510886   3.367   3.904  12.374  0.4185  0.8279 -0.4200
  733TMC3    C610887   3.363   4.041  12.336 -0.1201 -0.1818 -0.3463
  733TMC3     C10888   3.023   3.862  12.491 -0.2764  0.7524  0.0754
  733TMC3     O10889   3.031   3.746  12.522  0.2258 -0.1412 -0.3979
  733TMC3     H10890   3.037   4.119  12.384 -0.6292 -1.9616 -0.2234
  733TMC3    H110891   3.254   3.756  12.476  0.3695  0.4043  0.7298
  733TMC3    H210892   3.437   4.089  12.273  0.0245 -0.4433 -0.3767
  733TMC3    C710893   3.492   3.843  12.408 -0.1279 -0.8879 -0.5066
  733TMC3    C810894   3.261   4.257  12.383  0.0647  0.1206 -0.1655
  733TMC3    O110895   3.482   3.729  12.450  0.0008  0.1588 -0.5050
  733TMC3    O210896   3.164   4.330  12.385  0.0416  0.2718 -0.3265
  734MPD2     C10897   1.660   2.521  12.385 -0.8136  0.5758 -0.7754
  734MPD2    C110898   1.569   2.441  12.318 -0.1781 -0.1459 -0.9896
  734MPD2    C210899   1.574   2.428  12.184 -0.4319  0.4053 -0.1651
  734MPD2    C310900   1.660   2.502  12.118 -0.6483  0.2517 -0.5779
  734MPD2    C410901   1.748   2.583  12.172 -0.1777  0.3126 -0.3998
  734MPD2    C510902   1.742   2.604  12.310  0.2117  0.0606 -0.1791
  734MPD2     H10903   1.507   2.361  12.132  0.7265 -0.9221  0.0759
  734MPD2    H110904   1.821   2.645  12.121 -0.8691  0.5172 -1.1343
  734MPD2    H210905   1.647   2.542  12.491 -0.5210  0.5429 -0.7337
  734MPD2    H310906   1.803   2.682  12.355 -0.8138  1.8225 -1.8325
  734MPD2     N10907   1.652   2.475  11.983 -0.2194  0.1039 -0.0816
  734MPD2    H510908   1.581   2.408  11.957 -1.0731  0.3618  1.5295
  734MPD2    N110909   1.498   2.345  12.404 -0.3046  0.3445 -0.5724
  734MPD2    H710910   1.516   2.354  12.504  1.0320  1.0584 -0.8888
  735TMC3    C110911   1.391   2.137  12.473  0.4813  0.2275  0.3496
  735TMC3    C210912   1.312   2.031  12.431 -0.5574 -0.8126  0.0232
  735TMC3    C310913   1.353   1.899  12.440  0.1836  0.5993  0.3513
  735TMC3    C410914   1.504   2.104  12.544 -0.1046 -0.4545 -0.0568
  735TMC3    C510915   1.545   1.971  12.553  0.0088 -0.4517  0.1556
  735TMC3    C610916   1.474   1.869  12.497 -0.4769  0.1829  0.2882
  735TMC3     C10917   1.405   2.245  12.368  0.4903 -0.7716  0.2704
  735TMC3     O10918   1.352   2.227  12.267  0.0373 -0.0106  0.5380
  735TMC3     H10919   1.210   2.043  12.396 -0.1316 -0.1991 -1.0187
  735TMC3    H110920   1.572   2.180  12.580 -1.7670  1.4359 -0.8952
  735TMC3    H210921   1.507   1.767  12.477  1.4477  0.3254  2.7573
  735TMC3    C710922   1.687   1.969  12.510  0.6145 -0.2043 -0.3048
  735TMC3    C810923   1.357   1.843  12.310 -0.1476  0.4884  0.0216
  735TMC3    O110924   1.736   2.075  12.460  0.5436  0.2884  0.0022
  735TMC3    O210925   1.357   1.721  12.295  0.2323 -0.1453 -0.5373
  736MPD2     C10926   1.926   1.696  12.520  0.0698  0.3651 -0.1397
  736MPD2    C110927   1.870   1.810  12.472  0.3335 -0.8179 -0.3478
  736MPD2    C210928   1.942   1.877  12.369 -0.3568  0.1609 -0.1120
  736MPD2    C310929   2.058   1.827  12.327  0.1032  0.2178 -0.3154
  736MPD2    C410930   2.114   1.717  12.381 -0.0498 -0.5150  0.9993
  736MPD2    C510931   2.049   1.653  12.480  0.1087  0.4012 -0.6107
  736MPD2     H10932   1.896   1.967  12.330  1.0175  0.3243 -1.3442
  736MPD2    H110933   2.201   1.670  12.337 -0.5712  0.6563 -1.2508
  736MPD2    H210934   1.857   1.643  12.586  1.6259 -1.6232 -0.1109
  736MPD2    H310935   2.088   1.559  12.519 -2.2457  0.0907  0.9366
  736MPD2     N10936   2.129   1.872  12.207 -1.0066  1.0223 -0.1667
  736MPD2    H510937   2.208   1.816  12.175 -2.1030 -0.1775 -0.8025
  736MPD2    N110938   1.750   1.849  12.531  0.5278 -0.3034  0.5473
  736MPD2    H710939   1.698   1.781  12.585 -0.5251  0.1216  0.0681
  737TMC3    C110940   2.157   1.963  11.992 -0.1566 -0.1010 -0.2858
  737TMC3    C210941   2.137   2.074  11.914  0.0092  0.2206 -0.3199
  737TMC3    C310942   2.175   2.069  11.781 -0.5375 -0.1806  0.8960
  737TMC3    C410943   2.207   1.844  11.941 -0.4638  0.2504  0.6433
  737TMC3    C510944   2.239   1.846  11.803  0.1180 -0.1839 -0.1518
  737TMC3    C610945   2.221   1.959  11.724  0.0625  0.2987  0.4900
  737TMC3     C10946   2.085   1.968  12.126 -0.6583  0.1180  0.4171
  737TMC3     O10947   1.991   2.043  12.144  0.2884 -0.1705  0.6454
  737TMC3     H10948   2.089   2.161  11.956  0.0359  0.7408 -1.3643
  737TMC3    H110949   2.230   1.756  12.000 -1.3328 -0.5886 -0.2387
  737TMC3    H210950   2.251   1.955  11.619 -4.4943 -1.1736 -0.7340
  737TMC3    C710951   2.297   1.724  11.755  0.2624  0.1742 -0.0163
  737TMC3    C810952   2.123   2.176  11.699 -0.0373 -0.1107  0.1189
  737TMC3    O110953   2.291   1.629  11.831 -0.2995  0.6775  0.4030
  737TMC3    O210954   2.121   2.287  11.754 -0.0696 -0.5185 -0.5396
  738MPD2     C10955   2.263   1.353  14.552  0.4223  0.4643 -0.4159
  738MPD2    C110956   2.336   1.278  14.640  0.2913 -0.2956 -0.5912
  738MPD2    C210957   2.460   1.317  14.681 -0.2638 -0.3432 -0.1722
  738MPD2    C310958   2.519   1.431  14.625  0.6572  0.0228  0.1044
  738MPD2    C410959   2.454   1.492  14.526  0.7400 -0.3344  0.1198
  738MPD2    C510960   2.329   1.454  14.493 -0.0195 -0.1522 -0.1167
  738MPD2     H10961   2.519   1.253  14.745  1.0298  1.0991  0.0875
  738MPD2    H110962   2.485   1.580  14.471 -1.5172  0.4532  0.1030
  738MPD2    H210963   2.161   1.336  14.518 -0.3763 -0.1245  2.2714
  738MPD2    H310964   2.279   1.510  14.414  2.2978  1.0790 -0.7127
  738MPD2     N10965   2.643   1.487  14.660  0.2039 -0.5980  0.3601
  738MPD2    H510966   2.687   1.558  14.603  2.7155  0.9605  4.2092
  738MPD2    N110967   2.281   1.146  14.680  0.0020 -0.0618 -0.2780
  738MPD2    H710968   2.340   1.090  14.740 -1.9078 -1.1913  0.5743
  739TMC3    C110969   2.851   1.501  14.756 -0.1325 -0.1181  0.4142
  739TMC3    C210970   2.921   1.496  14.640 -0.5545 -0.8484 -0.4455
  739TMC3    C310971   3.057   1.460  14.652  0.0523  0.5869 -0.0231
  739TMC3    C410972   2.904   1.491  14.879 -0.1961 -0.0561 -0.2121
  739TMC3    C510973   3.036   1.459  14.886 -0.5972 -1.1188 -0.6925
  739TMC3    C610974   3.117   1.438  14.778 -0.0958  0.2790  0.2495
  739TMC3     C10975   2.719   1.440  14.763 -0.0356 -0.4840  0.3954
  739TMC3     O10976   2.688   1.372  14.861 -0.3299 -0.2805 -0.1807
  739TMC3     H10977   2.872   1.487  14.543  0.4083 -2.2765 -0.8061
  739TMC3    H110978   2.841   1.508  14.965 -2.4896  1.9998 -2.3062
  739TMC3    H210979   3.214   1.393  14.797 -0.6727 -0.2174  2.0332
  739TMC3    C710980   3.103   1.505  15.009 -0.2972 -0.5254  0.2635
  739TMC3    C810981   3.112   1.383  14.540 -0.6949 -0.3215  0.0929
  739TMC3    O110982   3.034   1.570  15.088  0.1325  0.0799 -0.3829
  739TMC3    O210983   3.068   1.410  14.432 -0.0738 -0.4425 -1.1222
  740TMC3    C110984   3.373   2.435  14.435  1.0484 -0.6078  0.1414
  740TMC3    C210985   3.428   2.418  14.559 -0.1905  0.2356 -0.2385
  740TMC3    C310986   3.546   2.349  14.564 -0.3051  0.3267  0.1422
  740TMC3    C410987   3.432   2.396  14.321  0.4571  0.1014  0.0488
  740TMC3    C510988   3.554   2.337  14.327 -0.4505 -0.0865  0.3819
  740TMC3    C610989   3.613   2.315  14.446 -0.1377  0.4681  0.1386
  740TMC3     C10990   3.254   2.511  14.420  0.0936 -0.2044 -0.5031
  740TMC3     O10991   3.229   2.568  14.314  0.2373  0.2245  0.2645
  740TMC3     H10992   3.375   2.461  14.643  1.3206  1.9953 -0.1832
  740TMC3    H110993   3.376   2.404  14.229  1.1824  0.8883 -0.3241
  740TMC3    H210994   3.712   2.270  14.448  0.4018  1.6755  1.2675
  740TMC3    C710995   3.609   2.267  14.214 -1.1015  0.2963 -0.0001
  740TMC3    C810996   3.613   2.328  14.692  0.0794 -0.1790  0.2683
  740TMC3    O110997   3.686   2.174  14.233  0.5201 -0.0623  0.4244
  740TMC3    O210998   3.557   2.387  14.783 -0.1590 -0.1189 -0.0869
  741TMC3    C110999   3.006   1.777  13.977 -0.1993  0.4053  0.4229
  741TMC3    C211000   2.901   1.696  14.006 -0.3590  0.1548  0.1633
  741TMC3    C311001   2.932   1.587  14.090  0.3984 -0.1075  0.3636
  741TMC3    C411002   3.142   1.740  13.991  0.3916 -0.2660  0.0292
  741TMC3    C511003   3.162   1.622  14.056  0.2348  0.6540  0.1188
  741TMC3    C611004   3.060   1.547  14.115 -0.3277 -0.3566 -0.1970
  741TMC3     C11005   2.972   1.893  13.900 -0.4768 -0.0542 -0.2809
  741TMC3     O11006   3.046   1.990  13.906 -0.0717 -0.5901 -0.0091
  741TMC3     H11007   2.801   1.737  14.009 -0.0112  0.9081  1.3382
  741TMC3    H111008   3.220   1.803  13.951 -1.1573  1.4047 -0.3709
  741TMC3    H211009   3.081   1.458  14.172 -0.2883  0.8826  1.7566
  741TMC3    C711010   3.300   1.592  14.097  0.3166  0.0914  0.0771
  741TMC3    C811011   2.817   1.506  14.119  0.4631 -0.3243  0.1566
  741TMC3    O111012   3.369   1.687  14.126  0.1353 -0.0480 -0.1617
  741TMC3    O211013   2.711   1.545  14.071  0.3651  0.0349  0.0440
  742TMC3    C111014   2.703   0.041  15.564  0.0427 -0.7891  0.0749
  742TMC3    C211015   2.627   0.041  15.447 -0.7190 -0.2346  0.0394
  742TMC3    C311016   2.687   4.735  15.330  0.9584  0.4778 -1.1069
  742TMC3    C411017   2.833   0.005  15.565 -0.7433 -0.6063 -0.6133
  742TMC3    C511018   2.891   4.712  15.440  0.2830  0.1754  0.0813
  742TMC3    C611019   2.817   4.706  15.328  0.0620 -0.3628  0.0382
  742TMC3     C11020   2.634   4.727  15.681  0.6973  0.3292 -0.5410
  742TMC3     O11021   2.703   4.670  15.760  0.4762 -0.3789 -0.2661
  742TMC3     H11022   2.520   0.055  15.449 -0.8508 -1.1074 -0.8793
  742TMC3    H111023   2.882   4.734  15.661  0.7657  0.8395 -1.2593
  742TMC3    H211024   2.869   4.672  15.239 -0.5373  2.3350 -1.3465
  742TMC3    C711025   3.020   4.648  15.432 -0.0280  0.2423 -0.4691
  742TMC3    C811026   2.603   4.721  15.213 -0.0190  0.6307  0.4996
  742TMC3    O111027   3.036   4.574  15.333  0.1435 -0.3751  0.2300
  742TMC3    O211028   2.641   4.631  15.136 -0.0080 -0.2063  0.0787
  743MPD2     C11029   0.565   1.962   1.188  0.3624 -0.3193 -0.2915
  743MPD2    C111030   0.594   1.829   1.150 -0.3138  0.3232 -0.1614
  743MPD2    C211031   0.704   1.774   1.212  0.2683 -0.0067  0.7633
  743MPD2    C311032   0.792   1.852   1.287 -0.4677 -0.1271 -0.4770
  743MPD2    C411033   0.760   1.981   1.322 -0.0654 -0.4674  0.3963
  743MPD2    C511034   0.654   2.033   1.266  0.8152 -0.1318 -0.2812
  743MPD2     H11035   0.728   1.669   1.197  0.3575 -0.0407  1.1408
  743MPD2    H111036   0.818   2.056   1.374 -0.8952  1.3937 -1.3237
  743MPD2    H211037   0.477   2.018   1.160 -0.2176 -1.3967 -0.6562
  743MPD2    H311038   0.639   2.137   1.295  0.2945 -1.0906  2.9396
  743MPD2     N11039   0.908   1.784   1.335  0.2362 -0.5712 -0.7129
  743MPD2    H511040   0.918   1.694   1.289  0.7322 -0.9155  0.0647
  743MPD2    N111041   0.505   1.764   1.065  1.0237  0.0453 -0.4335
  743MPD2    H711042   0.433   1.822   1.024 -0.2626  0.2976  2.1828
  744TMC3    C111043   0.420   1.596   0.918  0.1143  0.0179  0.3737
  744TMC3    C211044   0.420   1.675   0.808  0.3091 -0.0723 -0.3721
  744TMC3    C311045   0.375   1.630   0.688  0.6166  1.4200 -0.0060
  744TMC3    C411046   0.399   1.462   0.899  0.5299  0.9693  0.4309
  744TMC3    C511047   0.359   1.417   0.772  0.0768 -0.4230 -0.8195
  744TMC3    C611048   0.337   1.501   0.667 -0.4574  0.1213  0.8070
  744TMC3     C11049   0.502   1.630   1.034 -0.1497  0.0691 -0.8705
  744TMC3     O11050   0.555   1.538   1.093  0.5955  0.1332  0.0473
  744TMC3     H11051   0.470   1.771   0.813 -1.8071  0.9811  0.4172
  744TMC3    H111052   0.426   1.391   0.977  0.7824  0.4601 -0.1207
  744TMC3    H211053   0.290   1.465   0.576 -0.3824 -1.0757  1.2424
  744TMC3    C711054   0.430   1.307   0.709 -0.3241 -0.5142  0.1468
  744TMC3    C811055   0.429   1.695   0.572 -0.2191  0.0777  0.1007
  744TMC3    O111056   0.481   1.334   0.602  0.0538  0.3064 -0.4227
  744TMC3    O211057   0.468   1.808   0.585  0.0884  0.4477 -0.7114
  745TMC3    C111058   2.883   4.675  13.906 -0.0502 -0.0423 -0.4807
  745TMC3    C211059   2.952   4.651  14.029 -0.1575 -0.3821 -0.4020
  745TMC3    C311060   2.887   4.564  14.118  0.1374 -0.0139  0.2620
  745TMC3    C411061   2.752   4.631  13.875 -0.2902 -0.0080  0.5104
  745TMC3    C511062   2.694   4.549  13.969  0.5714 -0.4567 -0.8070
  745TMC3    C611063   2.759   4.520  14.090 -0.0364  0.3180  0.1602
  745TMC3     C11064   2.949   0.023  13.804  0.2373  0.3431 -0.8598
  745TMC3     O11065   3.067   0.029  13.832 -0.4529  0.4650  0.1401
  745TMC3     H11066   3.046   4.702  14.045 -0.9177  0.2556  2.0102
  745TMC3    H111067   2.716   4.644  13.774 -1.2374 -0.5703  0.7791
  745TMC3    H211068   2.714   4.449  14.158  0.0343  0.4286  0.3222
  745TMC3    C711069   2.629   4.430  13.917 -0.5059  0.0912 -0.1218
  745TMC3    C811070   2.945   4.525  14.245  0.3474 -0.1972  0.5216
  745TMC3    O111071   2.662   4.319  13.962  0.1416  0.0303  0.3110
  745TMC3    O211072   2.888   4.429  14.296 -0.4746  0.0567 -0.6941
  746TMC3    C111073   0.148   0.932  10.726  0.4083  0.1255  0.1219
  746TMC3    C211074   0.146   0.974  10.595 -0.0282 -0.1136 -0.7931
  746TMC3    C311075   0.051   0.924  10.512 -0.5250 -0.1911 -0.1982
  746TMC3    C411076   0.036   0.862  10.776 -0.1877 -0.0100 -0.2594
  746TMC3    C511077   4.676   0.826  10.695  0.0926  0.2990 -0.2790
  746TMC3    C611078   4.684   0.857  10.558  0.5835 -0.9264 -0.6971
  746TMC3     C11079   0.224   1.009  10.822  0.4491 -0.7144 -0.3054
  746TMC3     O11080   0.247   1.119  10.784  0.3994  0.5337  0.2550
  746TMC3     H11081   0.240   1.019  10.564 -0.5553  1.0133 -0.7483
  746TMC3    H111082   0.020   0.845  10.881  0.5984 -1.0384 -0.3062
  746TMC3    H211083   4.601   0.833  10.492 -0.3897  1.8056 -0.4412
  746TMC3    C711084   4.554   0.765  10.750  0.3898 -0.3058 -0.0832
  746TMC3    C811085   0.057   0.951  10.370  0.2184 -0.0359 -0.1107
  746TMC3    O111086   4.459   0.762  10.672 -0.4401  0.1754 -0.1721
  746TMC3    O211087   4.729   0.883  10.295  0.4523 -0.7545 -0.2482
  747TMC3    C111088   2.994   1.632  10.958 -0.5342 -0.3055  0.4971
  747TMC3    C211089   2.890   1.589  11.030 -0.3938 -0.6306 -0.4582
  747TMC3    C311090   2.879   1.630  11.161 -0.1373  0.1678 -0.6164
  747TMC3    C411091   3.096   1.710  11.004  0.7201 -0.4994 -0.2555
  747TMC3    C511092   3.087   1.747  11.138 -0.2874  0.1526  0.9208
  747TMC3    C611093   2.979   1.708  11.216  0.6074 -0.7244  0.5786
  747TMC3     C11094   2.985   1.606  10.818 -0.8799 -0.6697 -0.3240
  747TMC3     O11095   3.020   1.702  10.755  0.1351 -0.1264 -0.2905
  747TMC3     H11096   2.816   1.526  10.981 -0.3951 -1.7827  0.9891
  747TMC3    H111097   3.182   1.727  10.940  0.2277 -2.6603 -1.5018
  747TMC3    H211098   2.993   1.724  11.322 -2.0364 -0.9110  0.9583
  747TMC3    C711099   3.212   1.780  11.206  0.0682  0.5382  0.8033
  747TMC3    C811100   2.794   1.559  11.246  0.6959  0.2758  0.2474
  747TMC3    O111101   3.212   1.827  11.322 -0.5042  0.2361 -0.0432
  747TMC3    O211102   2.756   1.449  11.207  0.1576 -0.0787  0.2790
  748MPD2     C11103   0.330   3.555   1.448  0.2801 -0.5928  0.1241
  748MPD2    C111104   0.295   3.442   1.371  0.0814 -0.1881 -1.0860
  748MPD2    C211105   0.396   3.357   1.325 -0.3591 -0.1721 -0.7920
  748MPD2    C311106   0.531   3.389   1.345 -0.0696  0.4347  0.2956
  748MPD2    C411107   0.560   3.493   1.426 -1.1722 -0.7497  1.1252
  748MPD2    C511108   0.459   3.565   1.483 -0.3963 -0.2870  0.3203
  748MPD2     H11109   0.373   3.276   1.257  0.4453 -1.2006  0.1533
  748MPD2    H111110   0.663   3.509   1.456 -1.3530  0.9341  0.8435
  748MPD2    H211111   0.250   3.625   1.473 -0.1919 -1.6960  1.6886
  748MPD2    H311112   0.494   3.647   1.545  0.9003 -0.4249 -0.2238
  748MPD2     N11113   0.633   3.302   1.299 -0.6408 -0.4076 -0.1334
  748MPD2    H511114   0.601   3.215   1.260 -0.4496 -0.5068 -0.0706
  748MPD2    N111115   0.158   3.437   1.334  0.1955  0.0357  0.6841
  748MPD2    H711116   0.094   3.507   1.369  0.9889 -0.1067  2.4260
  749TMC3    C111117   0.844   3.220   1.236 -0.0698 -0.4145  0.1235
  749TMC3    C211118   0.782   3.097   1.227 -0.6015 -0.2664  0.0443
  749TMC3    C311119   0.856   3.001   1.171  0.9305  0.1904  0.5009
  749TMC3    C411120   0.965   3.251   1.182 -0.0662  0.3681  0.1830
  749TMC3    C511121   1.025   3.156   1.101  0.2391  0.2391  0.1739
  749TMC3    C611122   0.970   3.027   1.102 -0.6873 -0.9006 -0.2213
  749TMC3     C11123   0.768   3.330   1.291  0.3762 -0.7311  0.0368
  749TMC3     O11124   0.832   3.434   1.304  0.3458 -0.4790  0.0529
  749TMC3     H11125   0.707   3.065   1.298 -0.7862  1.8219  0.7618
  749TMC3    H111126   1.017   3.346   1.194 -0.3635  0.7123 -1.2132
  749TMC3    H211127   1.030   2.950   1.056  2.4115  1.0049  0.6515
  749TMC3    C711128   1.125   3.204   1.009 -0.5591  0.6867 -0.7811
  749TMC3    C811129   0.776   2.885   1.126  0.5050 -0.0083  0.3025
  749TMC3    O111130   1.166   3.317   1.023  0.8802  0.6966  0.3123
  749TMC3    O211131   0.657   2.893   1.111  0.9977 -0.2618  0.5752
  750MPD2     C11132   0.657   3.495  11.177  0.0613  0.7543  0.4019
  750MPD2    C111133   0.597   3.449  11.291  0.9033 -0.6443  0.6158
  750MPD2    C211134   0.557   3.317  11.304  0.2343  0.0828 -0.1420
  750MPD2    C311135   0.578   3.227  11.189 -0.4775  0.0821 -0.1610
  750MPD2    C411136   0.627   3.281  11.072 -0.2009  0.6478  0.2773
  750MPD2    C511137   0.669   3.410  11.067  0.8140  0.0396  0.4288
  750MPD2     H11138   0.521   3.275  11.398 -1.0865  1.3277 -0.0905
  750MPD2    H111139   0.623   3.219  10.983  2.1123  1.3940 -0.3300
  750MPD2    H211140   0.684   3.598  11.157 -1.9092  0.8313 -1.9158
  750MPD2    H311141   0.708   3.453  10.975  3.5505  0.8774  1.9708
  750MPD2     N11142   0.536   3.093  11.197 -0.2381  0.0685 -0.1793
  750MPD2    H511143   0.548   3.035  11.115 -2.5658  1.8337 -1.7858
  750MPD2    N111144   0.568   3.546  11.388  0.2230 -0.4557 -0.3974
  750MPD2    H711145   0.593   3.642  11.365 -1.8234  0.6752  2.0892
  751TMC3    C111146   0.493   2.880  11.274 -0.4142 -0.6325 -0.2095
  751TMC3    C211147   0.428   2.808  11.368 -0.4686  0.2158 -0.1428
  751TMC3    C311148   0.442   2.670  11.361  0.5809 -0.0327 -0.9407
  751TMC3    C411149   0.573   2.821  11.183  0.8281 -0.0194  0.6499
  751TMC3    C511150   0.589   2.685  11.184 -0.2260 -0.6693  0.3571
  751TMC3    C611151   0.526   2.611  11.272  0.2997 -0.4079 -0.3134
  751TMC3     C11152   0.496   3.018  11.302  0.0061  0.1887 -0.2205
  751TMC3     O11153   0.457   3.055  11.411  0.1799 -0.0397 -0.0247
  751TMC3     H11154   0.350   2.858  11.424 -1.1044 -0.1727 -0.6945
  751TMC3    H111155   0.622   2.870  11.099 -1.6923  0.9404 -0.2526
  751TMC3    H211156   0.548   2.505  11.281  2.0626  0.0342  0.7321
  751TMC3    C711157   0.601   2.623  11.058 -0.2027  0.5071  0.3115
  751TMC3    C811158   0.325   2.598  11.354  0.7496 -0.0299 -0.7839
  751TMC3    O111159   0.682   2.661  10.971  0.4537  0.1801  0.0892
  751TMC3    O211160   0.317   2.509  11.266  0.0699  0.6272 -0.5742
  752TMC3    C111161   4.711   3.491  16.810  0.2386 -0.0899 -0.6142
  752TMC3    C211162   0.073   3.410  16.789  0.2150 -0.2170  0.1939
  752TMC3    C311163   0.104   3.313  16.880  0.0309 -0.3976 -0.0024
  752TMC3    C411164   4.667   3.508  16.939 -0.5708  0.1887 -0.3492
  752TMC3    C511165   4.688   3.413  17.037 -0.0253 -0.2433  0.9864
  752TMC3    C611166   0.040   3.314  17.003 -0.5819 -0.2459  0.1387
  752TMC3     C11167   4.648   3.557  16.692 -0.4972  0.0202 -0.0724
  752TMC3     O11168   4.707   3.551  16.583  0.4902 -0.5750  0.2492
  752TMC3     H11169   0.127   3.418  16.695  1.2265  0.2002  0.8028
  752TMC3    H111170   4.595   3.587  16.959 -0.5006  0.2663 -0.3992
  752TMC3    H211171   0.084   3.261  17.086 -0.8554 -1.7537 -0.6753
  752TMC3    C711172   4.619   3.417  17.171 -0.1171  0.5539 -0.0294
  752TMC3    C811173   0.170   3.194  16.835 -0.1212  0.0024 -0.3988
  752TMC3    O111174   4.561   3.519  17.204 -0.1242 -0.0880  0.0408
  752TMC3    O211175   0.260   3.207  16.753  0.2228 -0.6840 -0.4733
  753TMC3    C111176   1.277   4.198  13.336  0.4634  0.1058 -0.1001
  753TMC3    C211177   1.381   4.218  13.429  0.4121 -0.0726  0.2484
  753TMC3    C311178   1.429   4.103  13.493 -0.6616  0.3638  0.7709
  753TMC3    C411179   1.218   4.078  13.298 -0.3928 -0.5455 -0.0557
  753TMC3    C511180   1.280   3.970  13.361  0.1744 -0.0104 -0.1455
  753TMC3    C611181   1.381   3.975  13.460  0.6565 -0.6135  0.4782
  753TMC3     C11182   1.203   4.320  13.296  0.4545  0.8524 -0.3931
  753TMC3     O11183   1.124   4.303  13.209 -0.7074  0.1844  0.0862
  753TMC3     H11184   1.437   4.311  13.434 -2.7771  1.7679  1.6678
  753TMC3    H111185   1.150   4.071  13.214 -0.3167  1.3882 -0.2839
  753TMC3    H211186   1.426   3.890  13.510  2.6792 -0.1565 -0.5545
  753TMC3    C711187   1.235   3.828  13.327 -0.2303 -0.6551 -0.2494
  753TMC3    C811188   1.535   4.093  13.597 -0.0652 -0.3010 -0.8477
  753TMC3    O111189   1.314   3.742  13.364  0.1209 -0.0489  0.2298
  753TMC3    O211190   1.559   3.982  13.640  0.2410  0.4547 -0.0733
  754MPD2     C11191   0.550   3.340  13.074 -0.5867 -0.0328  0.4282
  754MPD2    C111192   0.521   3.207  13.110  0.3758 -0.3193 -0.6025
  754MPD2    C211193   0.386   3.175  13.108 -0.9565  0.3424  0.0838
  754MPD2    C311194   0.283   3.265  13.076 -0.3691 -0.2789  0.2558
  754MPD2    C411195   0.317   3.396  13.050 -0.4362 -0.2674  0.2605
  754MPD2    C511196   0.449   3.434  13.046  0.0980  0.1160  0.5649
  754MPD2     H11197   0.354   3.072  13.122 -1.2216  0.2308 -1.3437
  754MPD2    H111198   0.247   3.475  13.028 -0.7808 -0.6200  0.0890
  754MPD2    H211199   0.651   3.376  13.064 -1.0402  0.9805 -0.4627
  754MPD2    H311200   0.462   3.538  13.018 -1.3757  1.0569  3.4196
  754MPD2     N11201   0.144   3.230  13.085  0.2602 -0.1918  0.0032
  754MPD2    H511202   0.083   3.304  13.053  0.2706 -0.2430 -0.1360
  754MPD2    N111203   0.627   3.109  13.109  0.6646  0.3944  0.1081
  754MPD2    H711204   0.711   3.140  13.060  2.1054  1.0217  2.9041
  755MPD2     C11205   3.937   3.507  12.855  0.4335  0.4033  0.1404
  755MPD2    C111206   4.045   3.566  12.918  0.3719 -0.0460 -0.1617
  755MPD2    C211207   4.150   3.496  12.971 -0.4548 -0.1990 -0.3819
  755MPD2    C311208   4.157   3.355  12.961 -0.3438  0.3818  0.3613
  755MPD2    C411209   4.050   3.298  12.901  0.5122  0.0835 -0.5118
  755MPD2    C511210   3.944   3.366  12.847  0.0198  0.2124 -0.8792
  755MPD2     H11211   4.233   3.542  13.023  1.4161 -1.1704 -2.4916
  755MPD2    H111212   4.030   3.195  12.872 -0.0450  0.4436 -1.4412
  755MPD2    H211213   3.850   3.553  12.810  1.4084  1.0415 -1.0920
  755MPD2    H311214   3.873   3.315  12.783 -0.6588  0.1154 -0.0495
  755MPD2     N11215   4.260   3.269  13.010 -0.5057  0.3548 -0.1613
  755MPD2    H511216   4.245   3.172  12.986 -0.7979  0.4680 -0.4478
  755MPD2    N111217   4.037   3.703  12.955 -0.0561  0.0154  0.1153
  755MPD2    H711218   4.124   3.740  12.992 -0.0704  1.7647 -1.6077
  756MPD2     C11219   0.003   4.262  10.117  0.4052  0.0058 -0.6153
  756MPD2    C111220   4.664   4.210  10.220  0.8222 -0.4253  0.5863
  756MPD2    C211221   4.530   4.183  10.193  0.8221  0.3589  0.8068
  756MPD2    C311222   4.477   4.182  10.065  0.2910  0.7958  0.2046
  756MPD2    C411223   4.555   4.235   9.960  0.0246 -0.4093  0.3403
  756MPD2    C511224   4.682   4.278   9.993  0.1020  0.4031  0.7098
  756MPD2     H11225   4.469   4.145  10.275 -1.1906  2.4642  0.2705
  756MPD2    H111226   4.510   4.250   9.862 -0.0941  0.4327  0.5245
  756MPD2    H211227   0.107   4.289  10.124  0.1109  1.4418 -1.7124
  756MPD2    H311228   0.004   4.313   9.910  0.0898 -0.2547  0.4243
  756MPD2     N11229   4.346   4.137  10.040  0.2044  0.3210  0.0389
  756MPD2    H511230   4.297   4.097  10.120  0.0944 -0.6181 -0.5049
  756MPD2    N111231   4.716   4.186  10.350  0.1280 -0.5118  0.1844
  756MPD2    H711232   4.667   4.129  10.417 -1.9598  1.8033  0.6078
  757MPD2     C11233   3.973   3.445  10.368 -0.5402  0.1176 -0.3571
  757MPD2    C111234   4.092   3.483  10.320 -0.0822 -0.4166 -0.5140
  757MPD2    C211235   4.106   3.603  10.247 -0.8515 -0.2112  0.1072
  757MPD2    C311236   3.999   3.689  10.230 -0.1680  0.1309 -0.3345
  757MPD2    C411237   3.884   3.653  10.285 -0.5189 -0.5016  0.3176
  757MPD2    C511238   3.866   3.538  10.359 -0.7543 -0.7915 -0.2868
  757MPD2     H11239   4.200   3.623  10.195 -0.8589 -2.6506 -0.8383
  757MPD2    H111240   3.799   3.719  10.274  0.1514  0.5622  1.5294
  757MPD2    H211241   3.961   3.359  10.432 -0.1800  0.8676  0.7294
  757MPD2    H311242   3.774   3.516  10.412 -0.0528 -0.5781  1.0028
  757MPD2     N11243   4.022   3.810  10.160 -0.4198  0.0197 -0.1221
  757MPD2    H511244   4.111   3.805  10.110  0.6546  1.5531  1.6328
  757MPD2    N111245   4.203   3.396  10.344  0.1942 -0.2843 -0.6560
  757MPD2    H711246   4.196   3.310  10.398 -0.1007 -0.0473 -0.3165
  758MPD2     C11247   0.589   3.295  15.848  0.3165  0.6179  0.3451
  758MPD2    C111248   0.698   3.265  15.918  0.3974 -0.3470  0.2738
  758MPD2    C211249   0.726   3.330  16.037 -0.4459 -0.2107  0.1040
  758MPD2    C311250   0.634   3.420  16.096 -0.5096 -0.4826 -0.3307
  758MPD2    C411251   0.517   3.445  16.019 -0.7008  0.0331  0.1226
  758MPD2    C511252   0.504   3.389  15.896 -0.2110 -0.2404  0.0096
  758MPD2     H11253   0.818   3.314  16.092  1.2658 -0.7583 -2.9179
  758MPD2    H111254   0.438   3.509  16.058 -2.1513 -1.8943  0.3399
  758MPD2    H211255   0.561   3.241  15.759  1.3425  0.2573  0.2425
  758MPD2    H311256   0.410   3.403  15.844  0.8584  0.5868 -1.6746
  758MPD2     N11257   0.652   3.488  16.218  1.0007  0.3683 -0.1035
  758MPD2    H511258   0.571   3.538  16.253  0.8683  0.7270 -0.9051
  758MPD2    N111259   0.770   3.148  15.875  0.0266 -0.1050 -0.2416
  758MPD2    H711260   0.736   3.104  15.790 -1.2842 -0.3877  0.4310
  759MPD2     C11261   3.404   1.560  10.716  0.1507  0.0283  0.7527
  759MPD2    C111262   3.502   1.468  10.677 -0.4188  0.3199 -0.7687
  759MPD2    C211263   3.630   1.509  10.638  0.0388 -0.7873  0.4493
  759MPD2    C311264   3.662   1.642  10.654  0.1124  0.3003  0.6636
  759MPD2    C411265   3.566   1.733  10.684  0.5343  0.5537 -0.1558
  759MPD2    C511266   3.443   1.692  10.713  0.2194 -0.4965  0.3954
  759MPD2     H11267   3.708   1.435  10.622  0.4400  0.0044 -1.2391
  759MPD2    H111268   3.583   1.839  10.700 -0.9755  1.2904 -3.3205
  759MPD2    H211269   3.309   1.534  10.760  0.0497 -1.1581 -0.1657
  759MPD2    H311270   3.373   1.763  10.755 -0.8769 -0.2892 -1.7332
  759MPD2     N11271   3.798   1.687  10.628  0.3843 -0.0861  0.4701
  759MPD2    H511272   3.867   1.618  10.599  0.8750  0.5019  0.2357
  759MPD2    N111273   3.475   1.329  10.674 -0.3430  0.0243 -0.1646
  759MPD2    H711274   3.544   1.272  10.627  0.3186  0.9446 -0.3142
  760MPD2     C11275   4.589   3.116  11.838 -0.1285  0.1066 -0.4609
  760MPD2    C111276   4.463   3.152  11.889 -0.5428 -0.4794  0.5951
  760MPD2    C211277   4.371   3.055  11.925  0.6058 -0.4017 -0.6083
  760MPD2    C311278   4.406   2.918  11.929 -0.5154  0.1446  0.0615
  760MPD2    C411279   4.529   2.878  11.875  0.2287 -0.2759  0.1923
  760MPD2    C511280   4.612   2.974  11.828 -0.4541 -0.1321  0.0442
  760MPD2     H11281   4.277   3.084  11.969  1.3598  1.3595 -0.1438
  760MPD2    H111282   4.560   2.775  11.859  0.9156 -0.1914  0.9779
  760MPD2    H211283   4.673   3.178  11.809 -0.3822  0.0477 -1.3199
  760MPD2    H311284   4.700   2.934  11.779  1.6325  1.1100  2.7916
  760MPD2     N11285   4.316   2.813  11.950  0.1138  0.2717 -0.1119
  760MPD2    H511286   4.353   2.720  11.938  0.5134 -0.0987  3.8978
  760MPD2    N111287   4.423   3.291  11.895  0.4078  0.1585  0.2081
  760MPD2    H711288   4.327   3.315  11.916  0.9841  2.8252 -0.1208
  761MPD2     C11289   4.579   2.478  11.473 -0.5879 -0.0572 -0.1280
  761MPD2    C111290   4.658   2.441  11.375 -0.4630 -0.2606 -0.3058
  761MPD2    C211291   0.040   2.500  11.351  0.0700  0.5315 -0.0602
  761MPD2    C311292   0.100   2.582  11.449 -0.2753  0.3442 -0.4794
  761MPD2    C411293   0.025   2.616  11.562 -0.1962  0.1055 -0.2060
  761MPD2    C511294   4.632   2.569  11.566 -0.0796  0.3415  0.5141
  761MPD2     H11295   0.094   2.478  11.259 -0.5572  3.4261 -1.1040
  761MPD2    H111296   0.056   2.680  11.643  0.0836  2.0008 -1.8121
  761MPD2    H211297   4.475   2.447  11.465  0.3260 -3.0216 -0.4767
  761MPD2    H311298   4.568   2.602  11.647 -4.0896  1.0902 -2.9263
  761MPD2     N11299   0.227   2.639  11.439  0.0068  0.5769  0.2302
  761MPD2    H511300   0.247   2.706  11.513 -0.2788  1.1157 -0.1736
  761MPD2    N111301   4.611   2.340  11.283 -0.2873 -0.8775  0.1610
  761MPD2    H711302   4.517   2.308  11.305 -0.1206 -2.4133 -1.4149
  762MPD2     C11303   0.160   1.601  10.845  0.4208 -0.5680 -0.1908
  762MPD2    C111304   0.168   1.731  10.819  0.4150  0.4126  0.0538
  762MPD2    C211305   0.208   1.768  10.695 -0.2563  0.0050 -0.2021
  762MPD2    C311306   0.233   1.672  10.599 -0.0850  0.1430 -0.1978
  762MPD2    C411307   0.224   1.542  10.628 -0.3674  0.4747  0.1645
  762MPD2    C511308   0.183   1.501  10.758 -0.3020 -0.0397 -0.4382
  762MPD2     H11309   0.199   1.870  10.660  1.4218  1.2943  3.0947
  762MPD2    H111310   0.246   1.471  10.549  0.2485 -0.0895  0.8514
  762MPD2    H211311   0.136   1.584  10.949 -1.5764  4.5413  0.1976
  762MPD2    H311312   0.163   1.397  10.781  0.0006 -0.4127 -1.8870
  762MPD2     N11313   0.266   1.726  10.470 -0.4709 -0.3429  0.5306
  762MPD2    H511314   0.276   1.827  10.461  1.0253 -0.5358 -0.0907
  762MPD2    N111315   0.107   1.811  10.917 -0.0833  0.7484  0.0614
  762MPD2    H711316   0.075   1.769  11.004 -0.5822  1.0160  0.0027
  763MPD2     C11317   1.889   3.158  16.271  0.7854 -0.1590 -0.5521
  763MPD2    C111318   2.013   3.184  16.215 -0.1234  0.0987 -0.4377
  763MPD2    C211319   2.109   3.262  16.272 -0.7230  0.0341  0.1142
  763MPD2    C311320   2.088   3.329  16.388 -0.5311 -0.4953  0.3529
  763MPD2    C411321   1.959   3.318  16.440 -0.8490  0.0242  0.3090
  763MPD2    C511322   1.857   3.234  16.386  0.1280 -0.1691  0.1188
  763MPD2     H11323   2.209   3.265  16.230 -1.3723 -2.9168 -1.6461
  763MPD2    H111324   1.926   3.371  16.529 -0.2036  0.5935  0.2097
  763MPD2    H211325   1.816   3.098  16.217  1.6991  0.2403 -2.2377
  763MPD2    H311326   1.755   3.236  16.422 -0.0834  0.8941 -0.5172
  763MPD2     N11327   2.186   3.412  16.444  0.1679  0.5156  0.0006
  763MPD2    H511328   2.273   3.404  16.392  0.4254  0.4694  0.4457
  763MPD2    N111329   2.053   3.117  16.095  0.2274 -0.7344  0.2240
  763MPD2    H711330   2.133   3.156  16.045 -0.2646 -0.0883 -0.0552
  764MPD2     C11331   1.279   0.254  17.088  0.4705 -0.7605 -0.4871
  764MPD2    C111332   1.157   0.185  17.101  0.1400  0.0218  0.2928
  764MPD2    C211333   1.169   0.064  17.173  0.7066  0.5441 -0.2555
  764MPD2    C311334   1.287   0.009  17.213  0.3677  0.4677 -0.1535
  764MPD2    C411335   1.401   0.084  17.196  0.1933 -0.2291  0.8591
  764MPD2    C511336   1.397   0.206  17.131  0.2938  0.1222  0.1041
  764MPD2     H11337   1.079   0.005  17.185  1.1388 -0.2459 -0.8741
  764MPD2    H111338   1.497   0.035  17.211  1.0335  0.8848 -0.8198
  764MPD2    H211339   1.278   0.348  17.033 -2.1700  1.0251  2.6489
  764MPD2    H311340   1.487   0.256  17.097  0.7178 -1.7969 -1.6018
  764MPD2     N11341   1.280   4.634  17.291  0.0746 -0.0277 -0.2327
  764MPD2    H511342   1.193   4.582  17.284  0.0183 -0.0762  0.8428
  764MPD2    N111343   1.034   0.240  17.078 -0.2204  0.7861  0.2126
  764MPD2    H711344   0.953   0.182  17.102  2.5509 -3.3962 -0.5078
  765MPD2     C11345   0.356   2.371  15.652 -0.4659  0.0356 -0.0844
  765MPD2    C111346   0.410   2.419  15.774  0.1651 -0.4795  0.6702
  765MPD2    C211347   0.540   2.384  15.805 -0.3760 -0.4852 -0.0731
  765MPD2    C311348   0.624   2.323  15.717 -0.1588  0.8260 -0.3184
  765MPD2    C411349   0.572   2.269  15.601 -0.2148 -0.5964 -0.4750
  765MPD2    C511350   0.437   2.293  15.571 -0.1832  0.1756  0.1839
  765MPD2     H11351   0.588   2.428  15.892  3.4431 -1.9159 -1.4582
  765MPD2    H111352   0.627   2.209  15.530 -0.3320 -0.2105 -0.8905
  765MPD2    H211353   0.253   2.387  15.621  0.3560 -1.0452 -3.4298
  765MPD2    H311354   0.394   2.251  15.480  1.4474  0.9743 -0.9630
  765MPD2     N11355   0.759   2.294  15.754 -0.2017  0.2150  0.1192
  765MPD2    H511356   0.782   2.322  15.849 -0.9840  2.8932 -0.4600
  765MPD2    N111357   0.311   2.479  15.859 -0.3653 -0.0355 -0.2396
  765MPD2    H711358   0.216   2.479  15.824 -0.1990  0.9142 -0.6986
  766MPD2     C11359   4.276   2.530  15.816 -0.1979  0.3430 -0.1856
  766MPD2    C111360   4.404   2.490  15.801 -0.0905 -0.3915  0.2748
  766MPD2    C211361   4.423   2.400  15.693  1.0429  0.0282  0.7947
  766MPD2    C311362   4.316   2.368  15.609 -0.0215  0.0643 -0.5165
  766MPD2    C411363   4.193   2.418  15.625 -0.0393  0.2492  0.1148
  766MPD2    C511364   4.168   2.495  15.737  0.2544 -0.3670 -0.2032
  766MPD2     H11365   4.522   2.370  15.660  0.0548 -2.0900 -0.2152
  766MPD2    H111366   4.118   2.395  15.550  1.3444  1.7121 -1.7312
  766MPD2    H211367   4.261   2.609  15.890  1.2420  1.5488 -1.1781
  766MPD2    H311368   4.072   2.540  15.759  0.0946 -0.9208  0.2195
  766MPD2     N11369   4.346   2.281  15.502 -0.1607 -0.1807  0.3735
  766MPD2    H511370   4.441   2.245  15.498 -0.8321 -2.2361  2.5774
  766MPD2    N111371   4.502   2.549  15.883  0.3903  0.2028  0.1194
  766MPD2    H711372   4.466   2.620  15.947  0.0214  1.5982 -1.6157
  767MPD2     C11373   4.016   2.640  15.329 -0.0266  0.3448 -0.0525
  767MPD2    C111374   4.143   2.607  15.290 -0.3839  0.1020  0.3622
  767MPD2    C211375   4.160   2.554  15.162  0.0852  0.0217 -0.4557
  767MPD2    C311376   4.057   2.549  15.071 -0.2125  0.2669 -0.3810
  767MPD2    C411377   3.935   2.594  15.112  0.4496 -0.2412 -0.6144
  767MPD2    C511378   3.914   2.639  15.238 -0.7642  0.2349 -0.2147
  767MPD2     H11379   4.260   2.541  15.122  1.6098  2.5009  2.6253
  767MPD2    H111380   3.850   2.603  15.045 -0.1683 -0.1003  0.1866
  767MPD2    H211381   3.979   2.684  15.421 -1.2659 -0.1888 -0.2937
  767MPD2    H311382   3.815   2.664  15.272 -0.4390 -0.2148  1.0846
  767MPD2     N11383   4.089   2.508  14.941 -0.2573 -0.7062  0.3870
  767MPD2    H511384   4.181   2.473  14.916 -0.1055  0.1721 -0.2632
  767MPD2    N111385   4.254   2.624  15.377  0.1027  0.5940  0.0784
  767MPD2    H711386   4.235   2.676  15.462  2.4714  3.0410 -0.8832
  768MPD2     C11387   4.083   0.259  10.744 -0.3255 -0.0930 -0.0468
  768MPD2    C111388   4.060   0.317  10.864  0.0071 -0.4413 -0.6617
  768MPD2    C211389   4.149   0.305  10.966 -0.7221 -1.1012 -0.2125
  768MPD2    C311390   4.273   0.248  10.945 -0.2239  0.0425 -0.8196
  768MPD2    C411391   4.302   0.196  10.824 -0.7121 -0.9268  0.4840
  768MPD2    C511392   4.203   0.196  10.725 -0.6682 -1.2912 -0.1604
  768MPD2     H11393   4.122   0.345  11.063 -0.8969  0.1557 -0.7699
  768MPD2    H111394   4.396   0.156  10.787 -0.3840  2.1548 -1.9797
  768MPD2    H211395   4.014   0.255  10.661  1.2371  2.9865 -1.4979
  768MPD2    H311396   4.220   0.136  10.637 -0.1463 -1.1506 -0.1522
  768MPD2     N11397   4.375   0.244  11.042  1.0112 -0.1909  0.0852
  768MPD2    H511398   4.467   0.211  11.016  1.0446  1.7257 -2.2327
  768MPD2    N111399   3.947   0.407  10.880 -0.3184 -0.7213 -0.0642
  768MPD2    H711400   3.920   0.446  10.970  0.4890 -0.3429  0.0107
  769MPD2     C11401   0.729   4.211  14.359 -0.4817 -0.0472  0.0792
  769MPD2    C111402   0.692   4.159  14.482  0.4625 -0.4048  0.3695
  769MPD2    C211403   0.778   4.168  14.592  0.1664 -0.1256 -0.5438
  769MPD2    C311404   0.897   4.244  14.577 -1.0219 -0.6234 -0.2689
  769MPD2    C411405   0.931   4.292  14.454 -0.3576 -0.1727 -1.1385
  769MPD2    C511406   0.854   4.271  14.344 -0.1229  0.1680 -0.0725
  769MPD2     H11407   0.747   4.149  14.694 -2.2609  0.2724 -1.2042
  769MPD2    H111408   1.022   4.348  14.433 -0.7078  0.8433  0.0764
  769MPD2    H211409   0.671   4.193  14.269  0.9724  3.0163 -1.4490
  769MPD2    H311410   0.899   4.308  14.252  0.4327  2.5935  1.1715
  769MPD2     N11411   0.976   4.275  14.696  0.1713 -0.2121  0.1681
  769MPD2    H511412   0.930   4.264  14.785  2.7720 -0.4335  1.4984
  769MPD2    N111413   0.563   4.114  14.487  0.3946 -0.2336  0.2697
  769MPD2    H711414   0.512   4.133  14.402  1.2748  1.4380  0.1190
  770MPD2     C11415   0.271   3.511  15.120  0.9210 -0.2812 -0.0964
  770MPD2    C111416   0.335   3.487  14.997 -0.3713 -0.2243  0.2858
  770MPD2    C211417   0.312   3.576  14.893 -0.3269  0.1932  0.4475
  770MPD2    C311418   0.237   3.691  14.915  0.3359 -0.3755 -0.4649
  770MPD2    C411419   0.183   3.720  15.038 -0.5295 -0.2683  0.2020
  770MPD2    C511420   0.193   3.624  15.139  0.6334  0.2210 -0.1614
  770MPD2     H11421   0.339   3.558  14.790  2.3149  0.7769  1.0277
  770MPD2    H111422   0.129   3.812  15.058  0.2909  0.3678 -0.4946
  770MPD2    H211423   0.299   3.449  15.205  1.3637  1.4272  0.9963
  770MPD2    H311424   0.160   3.654  15.238  0.3775  0.2882 -0.2654
  770MPD2     N11425   0.220   3.780  14.807 -0.8441  0.0658  0.6131
  770MPD2    H511426   0.273   3.757  14.724  2.2252  0.8758  2.3504
  770MPD2    N111427   0.412   3.371  14.987 -0.2614  0.3129  0.3318
  770MPD2    H711428   0.423   3.334  15.081  0.1128 -0.9350 -0.2055
  771MPD2     C11429   2.413   1.676  13.917 -0.1255  0.1020  0.3959
  771MPD2    C111430   2.350   1.756  13.829 -0.6837  0.2597  0.6572
  771MPD2    C211431   2.252   1.697  13.749 -0.2538  0.1434 -0.7679
  771MPD2    C311432   2.196   1.574  13.783 -0.1364  0.3795 -0.3013
  771MPD2    C411433   2.251   1.504  13.891 -0.1120 -0.3872 -0.3071
  771MPD2    C511434   2.366   1.549  13.943  0.1482 -0.5179  0.6783
  771MPD2     H11435   2.207   1.757  13.671 -1.1797  0.1434 -0.2414
  771MPD2    H111436   2.209   1.410  13.925 -1.0184 -0.3249 -1.2574
  771MPD2    H211437   2.497   1.711  13.977  0.2049  0.9931 -0.5783
  771MPD2    H311438   2.405   1.486  14.023  1.6562 -1.3876 -0.7350
  771MPD2     N11439   2.080   1.535  13.707  1.1634 -0.0763 -0.9936
  771MPD2    H511440   2.053   1.600  13.634 -2.5637 -1.2470 -0.6550
  771MPD2    N111441   2.372   1.895  13.820  0.2193 -0.1287  0.3068
  771MPD2    H711442   2.313   1.946  13.754 -0.4809 -0.5385  0.6181
  772MPD2     C11443   1.934   2.506  13.780 -0.2327  0.0295 -0.5268
  772MPD2    C111444   1.949   2.365  13.790 -0.1469 -0.5359  0.2036
  772MPD2    C211445   1.835   2.282  13.781 -0.2193  0.6277 -0.1052
  772MPD2    C311446   1.709   2.341  13.788  0.1668 -0.2190 -0.3852
  772MPD2    C411447   1.696   2.477  13.775 -0.0917  0.2170 -0.9874
  772MPD2    C511448   1.806   2.560  13.760 -0.3886  0.3105 -0.2164
  772MPD2     H11449   1.849   2.175  13.791  1.5303  0.7205 -1.6083
  772MPD2    H111450   1.595   2.514  13.766  0.9569  3.7362  1.6392
  772MPD2    H211451   2.021   2.571  13.771 -0.0493  0.2480  2.6544
  772MPD2    H311452   1.800   2.666  13.740 -0.1458  1.1674  4.2743
  772MPD2     N11453   1.586   2.264  13.792  0.1821 -0.6425 -0.9729
  772MPD2    H511454   1.494   2.307  13.787  0.3613 -0.0665  0.7053
  772MPD2    N111455   2.080   2.308  13.800  0.1205 -0.3361 -0.6372
  772MPD2    H711456   2.091   2.220  13.751 -0.9963 -0.3840 -0.7983
  773MPD2     C11457   1.611   3.754   0.005  0.4984  0.0140 -0.2090
  773MPD2    C111458   1.502   3.669   0.010  0.2643  0.4720  0.5468
  773MPD2    C211459   1.522   3.546   0.074  0.1175 -0.5414  0.0209
  773MPD2    C311460   1.639   3.519   0.141 -0.0495 -1.3903  0.4839
  773MPD2    C411461   1.734   3.617   0.151 -0.2661 -0.5449  0.3246
  773MPD2    C511462   1.723   3.728   0.080 -0.1498 -0.1675  0.3070
  773MPD2     H11463   1.437   3.482   0.092  0.0243 -0.3663  0.2058
  773MPD2    H111464   1.829   3.598   0.200 -0.0855 -1.6856 -0.4721
  773MPD2    H211465   1.609   3.836  17.682  1.5916  0.8035  0.6554
  773MPD2    H311466   1.805   3.796   0.065  0.4939 -0.9646  0.2357
  773MPD2     N11467   1.665   3.386   0.193  0.0562  0.6597 -0.0823
  773MPD2    H511468   1.598   3.315   0.166 -1.1763  1.3090  1.2767
  773MPD2    N111469   1.381   3.684  17.684 -0.3475  0.1432  0.4777
  773MPD2    H711470   1.307   3.617  17.698  1.3958 -2.2635 -1.6832
  774MPD2     C11471   0.155   2.170  13.380 -0.2515 -0.6620 -0.2191
  774MPD2    C111472   0.172   2.234  13.501  0.6289  0.2809  0.3478
  774MPD2    C211473   0.198   2.368  13.496  0.1862 -0.2419  0.1054
  774MPD2    C311474   0.222   2.432  13.368  0.0416 -0.0786 -0.5421
  774MPD2    C411475   0.198   2.361  13.251  0.2244 -0.1668  0.0737
  774MPD2    C511476   0.167   2.231  13.258 -0.1007 -0.6651  0.3466
  774MPD2     H11477   0.219   2.431  13.582 -0.2055  2.6708 -1.9031
  774MPD2    H111478   0.214   2.408  13.155  2.0063  1.4556  1.1583
  774MPD2    H211479   0.121   2.067  13.378  1.7451 -1.3344  0.7454
  774MPD2    H311480   0.144   2.175  13.168 -0.1250  1.2920 -0.8690
  774MPD2     N11481   0.260   2.568  13.368  0.1868  0.0118 -0.2243
  774MPD2    H511482   0.270   2.599  13.465 -1.1795  0.2371 -0.1431
  774MPD2    N111483   0.171   2.150  13.620  0.5565  0.2416 -0.0534
  774MPD2    H711484   0.142   2.055  13.600  2.3331 -0.6503  1.5855
  775MPD2     C11485   1.391   4.304  15.597 -0.0588 -0.8619  0.4359
  775MPD2    C111486   1.471   4.342  15.704 -0.5326  0.4217 -0.4980
  775MPD2    C211487   1.575   4.430  15.676  0.7202 -0.4434 -0.6321
  775MPD2    C311488   1.594   4.477  15.548 -0.3779 -0.0827 -0.0060
  775MPD2    C411489   1.516   4.438  15.445  0.2162 -0.6746 -0.0384
  775MPD2    C511490   1.415   4.348  15.467 -0.2717  0.1027 -0.2014
  775MPD2     H11491   1.647   4.453  15.754 -0.6734 -2.3487  1.2031
  775MPD2    H111492   1.545   4.465  15.344  1.9428 -0.4082  0.5202
  775MPD2    H211493   1.315   4.227  15.607  0.4745 -1.5150 -0.5360
  775MPD2    H311494   1.365   4.312  15.378  2.1821 -0.8375 -1.1945
  775MPD2     N11495   1.715   4.553  15.515  0.7792  0.3005 -0.0269
  775MPD2    H511496   1.734   4.548  15.416  0.6647  0.9391 -0.0791
  775MPD2    N111497   1.450   4.298  15.833  0.0858  0.2822  0.4163
  775MPD2    H711498   1.381   4.225  15.849  1.8059 -0.8784  2.5707
  776MPD2     C11499   0.499   4.287  11.426 -0.4966 -0.2215  0.0058
  776MPD2    C111500   0.581   4.211  11.499  0.6781 -0.7896 -0.4057
  776MPD2    C211501   0.697   4.267  11.549 -0.1488 -0.1866 -0.1685
  776MPD2    C311502   0.733   4.394  11.509 -0.3468  0.2718  1.0308
  776MPD2    C411503   0.653   4.473  11.430 -0.1406  0.0980  0.7173
  776MPD2    C511504   0.528   4.420  11.397  0.0424 -0.3876  0.5725
  776MPD2     H11505   0.755   4.219  11.628  0.7080  0.5366 -0.3569
  776MPD2    H111506   0.686   4.568  11.389 -1.2896 -0.1518 -0.7867
  776MPD2    H211507   0.403   4.249  11.393  0.3990  0.0254 -2.8855
  776MPD2    H311508   0.461   4.467  11.326  0.2568 -1.4633 -0.3530
  776MPD2     N11509   0.855   4.453  11.549  0.3075  0.1699  0.2927
  776MPD2    H511510   0.863   4.553  11.532  2.0197  0.1060  0.7306
  776MPD2    N111511   0.543   4.084  11.541 -0.2436 -0.0219  0.1883
  776MPD2    H711512   0.445   4.057  11.528  0.7777 -1.8990 -3.6965
  777MPD2     C11513   1.114   2.003   0.671 -0.0238  0.2624  0.4259
  777MPD2    C111514   1.136   1.913   0.776 -0.4535 -0.1338  0.2881
  777MPD2    C211515   1.182   1.787   0.743 -0.8679  0.5378 -0.2072
  777MPD2    C311516   1.194   1.744   0.612 -0.1991  0.1868 -0.4928
  777MPD2    C411517   1.167   1.833   0.510 -0.1468  0.3431  0.1895
  777MPD2    C511518   1.135   1.961   0.541 -1.2243  0.3933  0.7195
  777MPD2     H11519   1.205   1.711   0.818 -0.4492  0.0693 -0.8129
  777MPD2    H111520   1.156   1.802   0.406 -0.5693 -1.5670  0.7924
  777MPD2    H211521   1.085   2.107   0.685  0.4302  0.4054  0.3111
  777MPD2    H311522   1.094   2.018   0.458  0.0781 -1.3097 -1.1003
  777MPD2     N11523   1.216   1.606   0.591  0.3584 -0.6295  0.2050
  777MPD2    H511524   1.232   1.549   0.674  0.4507 -0.4352  0.3209
  777MPD2    N111525   1.107   1.943   0.907  0.5217  0.0470  0.5291
  777MPD2    H711526   1.093   2.041   0.930  0.4631 -0.0071  0.7210
  778MPD2     C11527   2.035   2.281  14.894  0.3531 -0.2943  1.2636
  778MPD2    C111528   2.057   2.187  14.798  0.1948  0.8558 -0.7318
  778MPD2    C211529   2.154   2.213  14.703 -0.5233  0.3576 -0.2533
  778MPD2    C311530   2.231   2.328  14.703  0.4535 -0.3881  0.0321
  778MPD2    C411531   2.205   2.426  14.802 -0.0730  0.0650 -0.0681
  778MPD2    C511532   2.099   2.401  14.894 -0.0993 -0.8596  0.1026
  778MPD2     H11533   2.174   2.145  14.621  3.0694  2.1354 -0.8663
  778MPD2    H111534   2.261   2.519  14.797 -0.1870  0.0101 -2.1273
  778MPD2    H211535   1.954   2.266  14.964 -0.2867  2.4048  1.1171
  778MPD2    H311536   2.084   2.469  14.978  0.4507 -2.9164  1.8620
  778MPD2     N11537   2.340   2.335  14.616 -0.3677 -0.2728  0.3974
  778MPD2    H511538   2.350   2.266  14.542 -1.6922 -0.7936  0.7091
  778MPD2    N111539   1.995   2.065  14.783  0.3778  0.4162 -0.0186
  778MPD2    H711540   2.018   2.001  14.708 -1.1049  1.7928 -1.6598
  779MPD2     C11541   1.611   0.657  13.848  0.0609  0.6753 -0.9637
  779MPD2    C111542   1.672   0.627  13.969 -0.5673  0.9679 -0.6152
  779MPD2    C211543   1.744   0.723  14.037  0.3575  0.5485 -0.0507
  779MPD2    C311544   1.773   0.843  13.975  0.0029  1.4650 -0.6444
  779MPD2    C411545   1.729   0.859  13.847 -1.0430 -0.5313 -0.6896
  779MPD2    C511546   1.645   0.774  13.787 -0.0812 -0.3511 -0.4052
  779MPD2     H11547   1.790   0.710  14.134  0.4315  0.6593 -0.0712
  779MPD2    H111548   1.760   0.942  13.785 -1.7777  0.7814  0.6963
  779MPD2    H211549   1.554   0.587  13.788 -0.4182 -0.2883  0.6243
  779MPD2    H311550   1.594   0.786  13.692  1.7940 -0.7946 -1.4573
  779MPD2     N11551   1.857   0.942  14.040 -0.0761  0.9543  0.1788
  779MPD2    H511552   1.891   0.921  14.133 -0.8030 -0.7594  0.0413
  779MPD2    N111553   1.664   0.499  14.033 -0.3901  0.0976 -0.0245
  779MPD2    H711554   1.727   0.489  14.112 -0.7641  0.6186  0.3330
  780MPD2     C11555   1.136   0.836   1.237 -0.5151  0.1015  0.0655
  780MPD2    C111556   1.131   0.824   1.097  0.7112 -0.0575 -0.4979
  780MPD2    C211557   1.228   0.874   1.018  0.9161  0.4413 -0.1099
  780MPD2    C311558   1.330   0.946   1.076 -0.1553  0.0335 -0.2002
  780MPD2    C411559   1.332   0.968   1.217 -0.4017  0.1434  0.2503
  780MPD2    C511560   1.234   0.912   1.296  0.6173  0.1160  0.2747
  780MPD2     H11561   1.229   0.853   0.911 -0.0521  0.2530 -0.0830
  780MPD2    H111562   1.405   1.026   1.272  1.3675 -1.5362 -0.3373
  780MPD2    H211563   1.060   0.780   1.290 -0.5194  1.6386  1.7195
  780MPD2    H311564   1.241   0.926   1.403 -0.2977  0.7893  0.2408
  780MPD2     N11565   1.419   1.001   0.981  0.9799 -0.1912 -0.5485
  780MPD2    H511566   1.396   0.970   0.887 -0.8127  1.3046 -0.5949
  780MPD2    N111567   1.029   0.737   1.049 -0.6280 -0.2868 -0.3188
  780MPD2    H711568   0.977   0.686   1.120  0.1777 -0.0035  0.4700
  781MPD2     C11569   3.319   2.524  11.813 -0.0066 -0.3958  0.9471
  781MPD2    C111570   3.338   2.418  11.901 -0.2024  0.8026  0.0935
  781MPD2    C211571   3.396   2.297  11.859  0.4341 -0.0610 -0.5621
  781MPD2    C311572   3.467   2.299  11.740  0.0701  0.3778 -0.7497
  781MPD2    C411573   3.441   2.397  11.647  0.3286 -0.1407  0.3861
  781MPD2    C511574   3.374   2.510  11.685  1.3547  0.1065  0.1192
  781MPD2     H11575   3.404   2.210  11.922 -0.9151  0.0990 -0.1673
  781MPD2    H111576   3.480   2.376  11.548 -0.6961  0.4535 -0.1362
  781MPD2    H211577   3.269   2.614  11.849  0.2094  0.5220 -1.0202
  781MPD2    H311578   3.359   2.592  11.615  0.6770  0.5083  0.7336
  781MPD2     N11579   3.562   2.199  11.709  0.0588  0.3518 -0.7830
  781MPD2    H511580   3.587   2.199  11.610  0.9981 -1.0059 -0.5457
  781MPD2    N111581   3.276   2.414  12.032  0.2675 -0.4691  0.1407
  781MPD2    H711582   3.282   2.323  12.078 -1.4916 -1.2381 -1.1393
  782MPD2     C11583   0.830   2.616   9.946 -1.0723  1.1621 -0.0742
  782MPD2    C111584   0.872   2.573  10.065 -0.1160  0.2196  0.0838
  782MPD2    C211585   0.965   2.653  10.133  0.3955  0.4263  0.2929
  782MPD2    C311586   1.011   2.775  10.079 -0.3740 -0.4079  0.2134
  782MPD2    C411587   0.964   2.819   9.957  0.5056 -1.3143  0.0544
  782MPD2    C511588   0.874   2.735   9.891 -0.3861 -0.3164  0.2155
  782MPD2     H11589   1.004   2.614  10.226 -0.1767  0.6797  0.6395
  782MPD2    H111590   1.001   2.913   9.917 -2.1108 -0.4797 -0.3612
  782MPD2    H211591   0.756   2.554   9.897  1.1936 -0.6959 -1.0961
  782MPD2    H311592   0.847   2.766   9.791 -2.6954  1.3737  1.3619
  782MPD2     N11593   1.118   2.836  10.148  1.2070  0.1662 -0.8476
  782MPD2    H511594   1.143   2.794  10.237  0.7835 -0.7210 -1.1479
  782MPD2    N111595   0.834   2.455  10.134 -0.0471 -0.0041 -0.1619
  782MPD2    H711596   0.895   2.439  10.214 -1.7944 -1.9508  0.7583
  783MPD2     C11597   0.321   2.398  10.954 -0.2942 -0.1191 -0.1136
  783MPD2    C111598   0.440   2.472  10.945 -0.3984  0.1569  0.7096
  783MPD2    C211599   0.510   2.471  10.822 -0.3748 -0.0455  0.8645
  783MPD2    C311600   0.468   2.386  10.722 -0.3470 -0.6244 -1.0379
  783MPD2    C411601   0.351   2.314  10.731 -0.2834 -0.3258 -0.1977
  783MPD2    C511602   0.281   2.323  10.845 -0.1783  0.0165  0.5368
  783MPD2     H11603   0.597   2.532  10.800 -0.2665 -0.1752  0.9361
  783MPD2    H111604   0.309   2.257  10.649 -1.9619 -0.6129  0.8682
  783MPD2    H211605   0.256   2.396  11.040  0.5393  0.8491  0.5297
  783MPD2    H311606   0.183   2.277  10.839 -1.6310  3.2580 -0.4016
  783MPD2     N11607   0.548   2.371  10.603 -0.4590  0.0294 -0.3706
  783MPD2    H511608   0.636   2.420  10.592 -0.4806  0.1298 -0.1130
  783MPD2    N111609   0.488   2.542  11.057 -0.1446 -0.2116  0.3916
  783MPD2    H711610   0.440   2.524  11.144  1.0186  0.1285  1.1095
  784MPD2     C11611   3.872   3.603   0.576  0.9916  0.5612 -0.6347
  784MPD2    C111612   3.908   3.725   0.526 -0.1656 -0.5259  0.2426
  784MPD2    C211613   3.816   3.797   0.453 -0.7214 -0.0830  0.0221
  784MPD2    C311614   3.690   3.752   0.427  0.1957  0.1398  0.3438
  784MPD2    C411615   3.661   3.625   0.469 -0.4805  0.5888 -0.0177
  784MPD2    C511616   3.746   3.562   0.548 -0.3508  0.0178 -0.5797
  784MPD2     H11617   3.844   3.894   0.413 -1.5684  1.1541  2.4106
  784MPD2    H111618   3.564   3.579   0.454 -1.5380  2.5800  0.5929
  784MPD2    H211619   3.942   3.546   0.636  2.2061  1.2475 -1.4186
  784MPD2    H311620   3.715   3.468   0.592 -0.9457 -1.1454 -3.4875
  784MPD2     N11621   3.606   3.834   0.356  0.0003  0.2314  0.1797
  784MPD2    H511622   3.627   3.929   0.329 -0.6899  0.7042  1.3262
  784MPD2    N111623   4.024   3.790   0.570 -0.3946 -0.4165  0.6590
  784MPD2    H711624   4.038   3.882   0.529  2.0590 -1.3659 -0.6888
  785MPD2     C11625   2.572   2.169  10.332 -0.4706 -0.1831 -0.0517
  785MPD2    C111626   2.568   2.201  10.465  0.7374  0.0687 -0.5402
  785MPD2    C211627   2.528   2.329  10.509 -0.3203  0.4502  0.0420
  785MPD2    C311628   2.499   2.425  10.418  0.4158  0.5345  0.1293
  785MPD2    C411629   2.505   2.394  10.281 -0.8105 -0.1621 -0.3014
  785MPD2    C511630   2.544   2.264  10.238 -0.4992  0.0708  0.2033
  785MPD2     H11631   2.530   2.359  10.613  2.9848  0.9191 -0.1535
  785MPD2    H111632   2.485   2.465  10.201 -0.1926  1.0397  0.6112
  785MPD2    H211633   2.594   2.066  10.305 -2.4048 -0.4662 -0.6026
  785MPD2    H311634   2.546   2.233  10.134 -1.8392 -0.9066  0.4665
  785MPD2     N11635   2.464   2.551  10.469 -0.2323  0.3041 -0.1147
  785MPD2    H511636   2.468   2.548  10.570 -2.0607  0.5535 -0.0472
  785MPD2    N111637   2.594   2.091  10.557  0.2214 -0.7601  0.4949
  785MPD2    H711638   2.618   1.999  10.524 -3.6451 -1.6543  0.1609
  786MPD2     C11639   2.202   0.121  14.899 -0.0355 -0.1368  0.2282
  786MPD2    C111640   2.290   0.014  14.902  0.4289  0.5184  0.3400
  786MPD2    C211641   2.379   0.001  15.006 -0.1260  0.3959 -0.3036
  786MPD2    C311642   2.388   0.087  15.109  0.1097  0.3092  0.2137
  786MPD2    C411643   2.297   0.192  15.113  0.0154 -0.2252 -1.3927
  786MPD2    C511644   2.208   0.210  15.005  0.1299 -0.0487  0.8118
  786MPD2     H11645   2.442   4.652  15.023  0.2312  0.5182 -0.9951
  786MPD2    H111646   2.301   0.270  15.188 -3.2643 -0.6397 -0.7945
  786MPD2    H211647   2.137   0.135  14.814  1.5572  2.0416 -0.6513
  786MPD2    H311648   2.137   0.292  15.007 -2.8702 -2.5990 -0.5362
  786MPD2     N11649   2.494   0.075  15.206  0.4163 -0.7908  0.9239
  786MPD2    H511650   2.485   0.147  15.277 -0.7639 -1.3762  1.3826
  786MPD2    N111651   2.309   4.661  14.795 -0.4229  0.0469 -0.1076
  786MPD2    H711652   2.365   4.577  14.807 -1.0187 -0.0783  1.7874
  787MPD2     C11653   2.701   4.383  14.921  0.4030  0.3341 -0.3165
  787MPD2    C111654   2.702   4.320  14.800  0.4227  0.8357 -1.4050
  787MPD2    C211655   2.786   4.208  14.774 -0.3716  0.3286  0.4155
  787MPD2    C311656   2.858   4.145  14.866  0.2121  0.0058 -0.1166
  787MPD2    C411657   2.850   4.203  14.993  0.4548  0.4682  0.6449
  787MPD2    C511658   2.773   4.313  15.015 -0.9743  0.2425  0.1202
  787MPD2     H11659   2.800   4.180  14.670  0.3570 -0.5063  0.7372
  787MPD2    H111660   2.904   4.156  15.073 -0.2835  0.8040  1.3441
  787MPD2    H211661   2.643   4.472  14.945  2.1565  0.5680  3.0882
  787MPD2    H311662   2.767   4.335  15.121  1.3186 -1.2870  0.5559
  787MPD2     N11663   2.931   4.029  14.836  0.4702 -0.5005  0.3446
  787MPD2    H511664   2.945   4.013  14.736 -2.2770 -0.0572 -0.1332
  787MPD2    N111665   2.610   4.374  14.710  0.6284  0.0367  0.3720
  787MPD2    H711666   2.554   4.452  14.741 -0.1418  1.1629 -3.8723
  788MPD2     C11667   0.517   3.403   0.588 -0.0531 -0.2329  0.7901
  788MPD2    C111668   0.391   3.351   0.591  0.9960 -0.0545 -0.1427
  788MPD2    C211669   0.282   3.434   0.596 -0.0556 -0.4770  0.4955
  788MPD2    C311670   0.304   3.573   0.587 -0.4089  0.5922 -0.3017
  788MPD2    C411671   0.438   3.620   0.592 -0.6263  0.3585 -0.4817
  788MPD2    C511672   0.544   3.535   0.607  0.2425  0.7618 -0.0970
  788MPD2     H11673   0.186   3.385   0.608 -0.6605  1.0502  1.9321
  788MPD2    H111674   0.449   3.727   0.586  0.0557  0.3388  0.3667
  788MPD2    H211675   0.601   3.335   0.601 -0.0019 -0.2525  0.3599
  788MPD2    H311676   0.648   3.564   0.617  0.2780  0.2412  1.0421
  788MPD2     N11677   0.200   3.664   0.551  0.8878 -0.0004  0.7395
  788MPD2    H511678   0.231   3.759   0.536 -2.0885  0.5271 -1.8896
  788MPD2    N111679   0.374   3.209   0.578 -0.1635  0.6189  0.4105
  788MPD2    H711680   0.461   3.158   0.567 -1.0460 -0.9540  0.6689
  789MPD2     C11681   0.373   3.062  16.118  0.3973 -0.1762 -0.6096
  789MPD2    C111682   0.334   2.997  16.235 -0.2736 -0.0606 -0.5520
  789MPD2    C211683   0.221   3.041  16.303  0.0281  0.5872  0.2694
  789MPD2    C311684   0.145   3.149  16.250 -0.4280  0.5703 -0.0233
  789MPD2    C411685   0.183   3.214  16.136  0.8883 -0.7305 -0.2819
  789MPD2    C511686   0.294   3.167  16.066 -0.4475 -0.6891  0.5329
  789MPD2     H11687   0.185   2.991  16.392  0.3119  1.1390  0.6947
  789MPD2    H111688   0.123   3.295  16.095 -0.4478 -0.9750  1.2144
  789MPD2    H211689   0.455   3.027  16.057  1.5989  0.1994  0.7809
  789MPD2    H311690   0.313   3.210  15.969 -1.8914 -1.0411  0.0948
  789MPD2     N11691   0.033   3.208  16.315 -0.0280  0.3391 -0.4182
  789MPD2    H511692   4.731   3.289  16.269  1.6880 -0.9408 -4.2256
  789MPD2    N111693   0.398   2.880  16.282  0.2787 -0.2919  0.0697
  789MPD2    H711694   0.366   2.845  16.372 -1.5019  2.5490  0.5434
  790MPD2     C11695   0.943   4.119  13.956 -0.3096 -0.3293 -0.5681
  790MPD2    C111696   0.971   4.039  13.849 -0.3986  0.0133 -0.0469
  790MPD2    C211697   0.870   4.034  13.746 -0.1803 -0.2875 -0.3559
  790MPD2    C311698   0.764   4.121  13.739  0.3782  0.2716  0.5688
  790MPD2    C411699   0.739   4.202  13.849  0.2427 -0.3498  0.3608
  790MPD2    C511700   0.825   4.193  13.954 -0.1726  0.0282 -0.4394
  790MPD2     H11701   0.879   3.954  13.673  3.2787 -0.7829  0.6044
  790MPD2    H111702   0.656   4.269  13.867 -1.3020 -2.2615  0.3611
  790MPD2    H211703   1.012   4.139  14.037  0.9183  2.5426 -2.3510
  790MPD2    H311704   0.808   4.251  14.044  0.0171  0.9321 -0.9789
  790MPD2     N11705   0.681   4.114  13.626 -0.4595 -0.3422  0.2813
  790MPD2    H511706   0.705   4.049  13.552 -0.6189  0.6678 -0.6464
  790MPD2    N111707   1.086   3.960  13.843 -0.5606  0.2461 -0.1987
  790MPD2    H711708   1.148   3.952  13.922  1.2106  1.2626 -1.4753
  791MPD2     C11709   4.636   4.150  13.282  0.2464 -0.7868  0.2176
  791MPD2    C111710   4.726   4.082  13.212 -0.8540 -0.4795 -0.1310
  791MPD2    C211711   4.695   3.991  13.118  0.4328 -0.1458  0.6351
  791MPD2    C311712   4.570   3.950  13.105 -0.2292  0.0101 -0.4829
  791MPD2    C411713   4.475   3.999  13.192 -0.4335 -0.3449  0.3724
  791MPD2    C511714   4.509   4.107  13.277 -0.3664 -0.0851  0.1251
  791MPD2     H11715   0.031   3.938  13.059  0.2863  0.8401 -0.4412
  791MPD2    H111716   4.376   3.955  13.194 -0.1872 -0.8817  0.9582
  791MPD2    H211717   4.662   4.222  13.358 -1.2834  1.7321 -1.6442
  791MPD2    H311718   4.437   4.150  13.345 -1.2289 -2.8001  0.9481
  791MPD2     N11719   4.544   3.841  13.022 -0.2706 -0.6741 -0.6184
  791MPD2    H511720   4.622   3.787  12.985  0.5233 -0.1578  0.3001
  791MPD2    N111721   0.123   4.102  13.235 -0.1892 -0.2464  0.0707
  791MPD2    H711722   0.176   4.032  13.183  0.2860  0.5381 -0.4874
  792MPD2     C11723   0.375   3.695  11.007  0.6213  0.0234  0.1317
  792MPD2    C111724   0.407   3.753  11.127  0.1064  0.3934 -0.0264
  792MPD2    C211725   0.350   3.713  11.245  0.4874 -0.6703 -0.9205
  792MPD2    C311726   0.268   3.603  11.247  0.2054  1.1927 -0.0538
  792MPD2    C411727   0.239   3.538  11.130 -0.3152  0.2193 -0.0291
  792MPD2    C511728   0.295   3.583  11.011  0.2727  0.3624 -0.2190
  792MPD2     H11729   0.374   3.769  11.334 -3.3442  1.3878 -1.1617
  792MPD2    H111730   0.173   3.452  11.124  0.4585 -0.2981 -1.1867
  792MPD2    H211731   0.414   3.736  10.915  0.9869  1.5035  0.9564
  792MPD2    H311732   0.273   3.537  10.916 -0.9451 -0.5427  0.5098
  792MPD2     N11733   0.182   3.575  11.352  0.2190 -0.7882  0.2152
  792MPD2    H511734   0.128   3.490  11.341 -3.6155  1.7158 -0.7236
  792MPD2    N111735   0.488   3.868  11.107 -0.3833  0.0836  0.4528
  792MPD2    H711736   0.483   3.920  11.021  1.4980 -0.3366  0.0869
  793MPD2     C11737   4.473   4.119  11.062  0.2911  0.3997  0.4103
  793MPD2    C111738   4.597   4.066  11.066 -0.7766 -0.1243 -0.5624
  793MPD2    C211739   4.633   3.972  11.167 -0.0968  0.0106 -0.4696
  793MPD2    C311740   4.540   3.942  11.267  0.2205  0.3872  0.1180
  793MPD2    C411741   4.408   3.997  11.256  0.4054  0.0449  0.6161
  793MPD2    C511742   4.382   4.092  11.160 -0.6216 -0.3447 -0.0432
  793MPD2     H11743   4.735   3.940  11.183 -0.8266 -2.1846 -0.2353
  793MPD2    H111744   4.329   3.972  11.325  0.5949 -0.7073  0.5546
  793MPD2    H211745   4.444   4.202  10.999  1.5517  1.8330  1.7301
  793MPD2    H311746   4.290   4.149  11.166 -1.3899 -1.6083  0.2284
  793MPD2     N11747   4.573   3.842  11.365  0.2958 -0.6192 -0.2251
  793MPD2    H511748   4.674   3.830  11.364  0.5898  1.7578  0.1848
  793MPD2    N111749   4.693   4.086  10.959 -0.1252 -0.0569  0.0835
  793MPD2    H711750   0.040   4.029  10.964  0.2301  0.3255 -1.6781
  794MPD2     C11751   1.065   3.890  16.884 -0.0359  0.5033 -1.0472
  794MPD2    C111752   0.975   3.882  16.992  0.4486 -0.5855  0.3941
  794MPD2    C211753   0.845   3.919  16.969  1.1483 -0.4736 -1.1314
  794MPD2    C311754   0.800   3.949  16.843  0.5102  0.0140  0.5710
  794MPD2    C411755   0.892   3.954  16.739 -0.6886 -0.0772 -0.2724
  794MPD2    C511756   1.026   3.931  16.765  0.0942  0.4533 -0.7067
  794MPD2     H11757   0.789   3.905  17.060 -1.2611  1.0450 -2.3986
  794MPD2    H111758   0.868   3.980  16.637 -0.8108  0.5683 -0.0802
  794MPD2    H211759   1.168   3.857  16.897 -0.6673 -0.4817  1.4290
  794MPD2    H311760   1.093   3.946  16.682  0.7885 -0.8992 -0.3978
  794MPD2     N11761   0.673   4.003  16.808  0.3789 -0.2448  0.7838
  794MPD2    H511762   0.667   4.036  16.713  0.1809  0.1832  0.9467
  794MPD2    N111763   1.012   3.859  17.125  0.0214 -0.8532  0.1104
  794MPD2    H711764   0.937   3.874  17.191  1.7003  1.1637  1.5980
  795MPD2     C11765   2.915   0.464  13.850 -0.2889 -0.2716 -0.1805
  795MPD2    C111766   2.899   0.524  13.725  0.7663 -0.0934 -0.9193
  795MPD2    C211767   3.009   0.542  13.652  0.8423  0.4913  0.1327
  795MPD2    C311768   3.128   0.477  13.685 -0.2013 -0.1258 -0.1814
  795MPD2    C411769   3.137   0.420  13.809  0.1367  0.3543 -0.2021
  795MPD2    C511770   3.030   0.420  13.899  0.6131 -0.3467  0.7579
  795MPD2     H11771   3.001   0.599  13.559  2.9357 -1.4732 -1.2538
  795MPD2    H111772   3.229   0.374  13.841  0.0757 -0.3225 -1.0185
  795MPD2    H211773   2.840   0.460  13.928 -1.1579  0.4673 -0.9812
  795MPD2    H311774   3.043   0.373  13.996  1.2275  0.7243  1.1951
  795MPD2     N11775   3.240   0.481  13.598 -0.0182 -0.1887  0.2421
  795MPD2    H511776   3.215   0.528  13.511  2.1508 -1.8661 -1.2784
  795MPD2    N111777   2.775   0.587  13.679 -0.1902 -0.3722  0.3229
  795MPD2    H711778   2.771   0.624  13.585  0.8700 -0.4543  0.2355
  796MPD2     C11779   2.407   2.234  16.328 -0.7066 -0.4150  0.2050
  796MPD2    C111780   2.454   2.318  16.435  1.2191 -0.1722 -0.3240
  796MPD2    C211781   2.442   2.454  16.413  0.3029 -0.2305 -0.1672
  796MPD2    C311782   2.391   2.514  16.298  0.3672 -0.0014 -0.3486
  796MPD2    C411783   2.356   2.428  16.200  0.5104 -0.2563 -0.5694
  796MPD2    C511784   2.356   2.290  16.214 -0.2908 -0.2676 -0.1403
  796MPD2     H11785   2.478   2.522  16.488 -2.9660  1.9558 -0.5759
  796MPD2    H111786   2.321   2.458  16.102  0.5094  0.1414 -0.4451
  796MPD2    H211787   2.422   2.128  16.342  0.7203 -0.3701 -1.0061
  796MPD2    H311788   2.319   2.228  16.133 -2.7029  0.4434  0.4302
  796MPD2     N11789   2.414   2.649  16.281 -0.6060  0.7897  0.2923
  796MPD2    H511790   2.454   2.698  16.361 -0.2781 -0.0812  0.6593
  796MPD2    N111791   2.513   2.256  16.547  0.1218 -0.1282  0.0649
  796MPD2    H711792   2.515   2.155  16.556 -1.1979 -0.1491  0.0637
  797MPD2     C11793   4.137   2.205  17.503 -0.3153 -0.3548  0.1379
  797MPD2    C111794   4.195   2.262  17.390 -0.5975 -0.5493 -0.2335
  797MPD2    C211795   4.141   2.242  17.265 -0.1538  0.1770  0.3467
  797MPD2    C311796   4.027   2.162  17.252  0.3542  0.1748  0.2327
  797MPD2    C411797   3.975   2.100  17.362  0.4643 -0.0565  0.8394
  797MPD2    C511798   4.031   2.118  17.483  0.5264 -0.0976  0.2924
  797MPD2     H11799   4.185   2.301  17.185 -0.1656  0.1336  0.3084
  797MPD2    H111800   3.897   2.027  17.345  0.7002 -0.1366  0.1366
  797MPD2    H211801   4.175   2.220  17.603  2.3564  3.4427 -1.4181
  797MPD2    H311802   3.991   2.061  17.566 -1.9083  2.5001  0.9268
  797MPD2     N11803   3.977   2.151  17.123 -0.1431 -0.0574 -0.2756
  797MPD2    H511804   4.038   2.183  17.049  1.2292  0.3946  1.0577
  797MPD2    N111805   4.303   2.350  17.400  0.2800 -0.1423  0.3462
  797MPD2    H711806   4.346   2.370  17.310 -0.9481 -0.3424 -0.2901
  798MPD2     C11807   4.215   2.740  16.774 -0.2232 -0.3989  0.2634
  798MPD2    C111808   4.191   2.622  16.848 -0.0111 -0.0326  0.5741
  798MPD2    C211809   4.263   2.606  16.961  0.5336 -0.0770 -0.8739
  798MPD2    C311810   4.352   2.698  17.009  1.2407  0.2841  0.4403
  798MPD2    C411811   4.361   2.818  16.945 -0.1837  0.0060 -0.6366
  798MPD2    C511812   4.298   2.833  16.830 -0.6782 -0.2671 -0.5426
  798MPD2     H11813   4.256   2.508  17.005  0.5044  0.1016 -0.4740
  798MPD2    H111814   4.439   2.890  16.968 -0.4105 -0.5401  1.8226
  798MPD2    H211815   4.166   2.764  16.680 -1.1227 -0.2636  0.7625
  798MPD2    H311816   4.321   2.921  16.771  0.4662 -1.5332 -1.9853
  798MPD2     N11817   4.407   2.670  17.132 -0.0120  0.8359  0.1310
  798MPD2    H511818   4.375   2.581  17.169  1.1172 -0.0178 -0.9253
  798MPD2    N111819   4.092   2.532  16.793  0.4732  0.5257  0.5747
  798MPD2    H711820   4.029   2.569  16.722  1.7850  1.7430  0.0480
  799MPD2     C11821   2.660   3.761  14.864  0.2391  0.1894  0.0193
  799MPD2    C111822   2.623   3.679  14.755 -0.3581  0.1115  0.1511
  799MPD2    C211823   2.563   3.733  14.645 -0.7953 -0.1036 -0.1666
  799MPD2    C311824   2.543   3.870  14.651 -0.3213  0.4564  0.4660
  799MPD2    C411825   2.568   3.948  14.759  0.4296 -0.0139  0.0783
  799MPD2    C511826   2.632   3.893  14.865 -0.0742 -0.4358 -0.0122
  799MPD2     H11827   2.551   3.682  14.550  1.4800  1.5489 -1.3370
  799MPD2    H111828   2.545   4.053  14.745 -0.4855 -0.2042  0.1766
  799MPD2    H211829   2.721   3.726  14.947 -0.4470  1.5979  1.1308
  799MPD2    H311830   2.655   3.941  14.959 -0.4055 -0.9178  0.3159
  799MPD2     N11831   2.502   3.946  14.539 -0.3937 -0.3291  0.2222
  799MPD2    H511832   2.521   4.045  14.548 -1.7211  0.0636 -1.2275
  799MPD2    N111833   2.642   3.540  14.755  0.1930  0.9793 -0.1231
  799MPD2    H711834   2.604   3.494  14.673  0.8168 -1.6049  1.0393
  800MPD2     C11835   3.216   4.556  14.669  0.4779 -0.0218 -0.5516
  800MPD2    C111836   3.284   4.623  14.575 -0.5881  0.3221 -0.7575
  800MPD2    C211837   3.232   4.637  14.446  0.4624 -0.0538  0.3422
  800MPD2    C311838   3.106   4.589  14.415  0.1732 -0.3436  0.1043
  800MPD2    C411839   3.032   4.533  14.520  0.0470 -0.0680 -0.3148
  800MPD2    C511840   3.091   4.505  14.637  0.1418  0.6074  0.1183
  800MPD2     H11841   3.278   4.687  14.362 -1.1274  0.4459 -0.2378
  800MPD2    H111842   2.938   4.482  14.501  0.9079 -2.3966  1.6421
  800MPD2    H211843   3.241   4.557  14.775 -0.5002 -1.4393 -0.3072
  800MPD2    H311844   3.035   4.462  14.719 -0.3815  0.2524 -0.4178
  800MPD2     N11845   3.055   4.589  14.281  0.0035  0.0166  0.6738
  800MPD2    H511846   3.095   4.647  14.207  0.8824  2.0411  2.7444
  800MPD2    N111847   3.401   4.684  14.624 -0.0315 -0.4968 -0.2046
  800MPD2    H711848   3.414   4.679  14.725 -1.3938 -2.9626 -0.1551
  801MPD2     C11849   3.330   0.688  14.715 -0.3030 -0.0624  0.3181
  801MPD2    C111850   3.329   0.561  14.781 -0.1876 -0.4343 -0.1483
  801MPD2    C211851   3.215   0.525  14.853 -0.0784 -0.7791 -0.5428
  801MPD2    C311852   3.103   0.615  14.858  0.2161 -0.6632  0.7363
  801MPD2    C411853   3.123   0.740  14.794  0.1035  0.2692 -0.3306
  801MPD2    C511854   3.229   0.769  14.718  0.5519 -0.1068  0.5211
  801MPD2     H11855   3.215   0.434  14.912  1.7338  0.2072  0.9797
  801MPD2    H111856   3.042   0.811  14.780 -0.2542  0.2495  1.6460
  801MPD2    H211857   3.415   0.709  14.651 -0.8601 -0.8334 -0.6859
  801MPD2    H311858   3.241   0.867  14.672  0.2384  0.1641  1.0107
  801MPD2     N11859   2.979   0.580  14.918  0.0552  0.0590 -0.2997
  801MPD2    H511860   2.905   0.647  14.898 -0.4686 -0.9337 -1.6720
  801MPD2    N111861   3.441   0.480  14.771 -0.2589 -0.3442 -0.1407
  801MPD2    H711862   3.524   0.517  14.725 -0.7318 -1.1959 -1.7030
  802MPD2     C11863   2.245   1.286  17.366 -0.2045 -0.2909 -0.7782
  802MPD2    C111864   2.314   1.236  17.473  0.2425  0.2836 -0.5595
  802MPD2    C211865   2.344   1.106  17.491  0.8209 -0.3795  0.2471
  802MPD2    C311866   2.303   1.013  17.391 -0.0706 -0.1928 -0.0826
  802MPD2    C411867   2.210   1.062  17.296  0.0747 -0.0428  0.1030
  802MPD2    C511868   2.180   1.203  17.283  0.3878  0.4632  0.3226
  802MPD2     H11869   2.416   1.077  17.566  0.2746 -2.1361  0.0912
  802MPD2    H111870   2.153   0.993  17.235 -1.1775  0.8878  0.2081
  802MPD2    H211871   2.223   1.392  17.353 -0.7390  0.0353  2.7012
  802MPD2    H311872   2.128   1.242  17.197  0.0923 -0.8773 -0.1071
  802MPD2     N11873   2.361   0.883  17.375 -0.1643 -0.8229 -0.8989
  802MPD2    H511874   2.434   0.853  17.438 -0.6987  2.8176  1.4687
  802MPD2    N111875   2.365   1.320  17.577 -0.0758 -0.0768 -0.3969
  802MPD2    H711876   2.402   1.280  17.663  0.2069  0.9785 -0.0288
  803MPD2     C11877   4.128   4.302  12.062 -0.1730 -0.2495  0.0050
  803MPD2    C111878   4.039   4.277  11.961 -0.3371 -0.0032 -0.2200
  803MPD2    C211879   3.953   4.167  11.984  0.8322  0.6216 -0.8720
  803MPD2    C311880   3.954   4.080  12.097 -1.1280  0.1390  0.3247
  803MPD2    C411881   4.048   4.112  12.195 -0.6665  0.3624 -0.3364
  803MPD2    C511882   4.134   4.222  12.172 -0.8785 -0.4909  0.9689
  803MPD2     H11883   3.887   4.139  11.902 -1.4899  0.7462  0.9312
  803MPD2    H111884   4.068   4.045  12.278 -0.4351  0.2824 -0.4586
  803MPD2    H211885   4.195   4.388  12.060 -1.6245  0.8840  0.0800
  803MPD2    H311886   4.220   4.245  12.234  1.3032 -0.4120 -2.0418
  803MPD2     N11887   3.868   3.967  12.113  0.3420  0.0665 -0.0647
  803MPD2    H511888   3.900   3.898  12.181 -0.3996  1.1597  1.3883
  803MPD2    N111889   4.053   4.340  11.832  0.1035  0.2207 -0.8638
  803MPD2    H711890   3.988   4.304  11.763  0.9264 -0.0618 -1.5055
  804MPD2     C11891   3.404   0.740  16.678 -0.2266 -0.7084 -0.0268
  804MPD2    C111892   3.377   0.733  16.815 -0.1492 -0.1464  0.2900
  804MPD2    C211893   3.434   0.830  16.900  0.0715 -0.1032  1.0486
  804MPD2    C311894   3.541   0.907  16.849  0.3812 -0.2328 -0.2413
  804MPD2    C411895   3.571   0.909  16.709  0.0178  0.0362 -0.3229
  804MPD2    C511896   3.498   0.832  16.626  0.1826 -0.3280 -0.1848
  804MPD2     H11897   3.402   0.835  17.003  1.2546  0.7887  1.3862
  804MPD2    H111898   3.650   0.969  16.664  0.0675  1.0977  1.1923
  804MPD2    H211899   3.350   0.692  16.598 -1.6496  0.9109 -0.0420
  804MPD2    H311900   3.526   0.833  16.521 -0.3130  1.0276 -0.3046
  804MPD2     N11901   3.605   1.003  16.928  0.7177 -1.1052  0.6437
  804MPD2    H511902   3.574   1.010  17.024  0.0781  1.0661  0.2711
  804MPD2    N111903   3.282   0.647  16.864 -0.6059  0.3615  1.0248
  804MPD2    H711904   3.269   0.656  16.964 -0.7993 -0.4308  1.0671
  805MPD2     C11905   2.350   4.057  15.316 -0.1854 -0.3574 -0.0019
  805MPD2    C111906   2.383   3.948  15.243  0.3646 -0.2963 -0.4448
  805MPD2    C211907   2.502   3.878  15.273 -0.0748 -0.0973  0.2992
  805MPD2    C311908   2.582   3.919  15.372  0.3217  0.6524  1.3368
  805MPD2    C411909   2.545   4.026  15.445 -0.9639 -0.1417  0.5641
  805MPD2    C511910   2.433   4.098  15.414  0.0141  0.3151 -0.2289
  805MPD2     H11911   2.509   3.788  15.211  1.5319  0.5521 -0.4555
  805MPD2    H111912   2.601   4.077  15.523  0.3716  1.0388 -1.1680
  805MPD2    H211913   2.270   4.122  15.283  1.0520  1.0215 -0.2676
  805MPD2    H311914   2.404   4.181  15.477  1.0458 -0.5221  1.3342
  805MPD2     N11915   2.692   3.840  15.390 -0.3212 -0.5392 -0.2456
  805MPD2    H511916   2.718   3.766  15.324 -0.8047 -0.5331 -0.4415
  805MPD2    N111917   2.319   3.916  15.120  0.3088  0.1392  0.5571
  805MPD2    H711918   2.364   3.839  15.072 -0.8340  0.3195 -0.8142
  806MPD2     C11919   3.089   3.299   0.669 -0.2138  0.6796  0.2203
  806MPD2    C111920   3.168   3.411   0.656  0.5502 -0.0533 -0.0945
  806MPD2    C211921   3.242   3.441   0.547 -0.0706  0.0945 -0.4531
  806MPD2    C311922   3.243   3.361   0.432  0.3361 -0.1581 -0.0928
  806MPD2    C411923   3.166   3.247   0.446 -0.0369  0.0844  0.2788
  806MPD2    C511924   3.088   3.221   0.555 -0.1723 -0.5593  0.1454
  806MPD2     H11925   3.300   3.533   0.545  1.2350 -0.7006  1.5046
  806MPD2    H111926   3.150   3.177   0.365  1.0793 -1.5416  1.4757
  806MPD2    H211927   3.035   3.266   0.757 -1.8388 -1.5213 -1.5917
  806MPD2    H311928   3.030   3.130   0.553 -0.9198 -0.0921  0.4175
  806MPD2     N11929   3.308   3.402   0.313 -0.1371 -0.3013 -0.5241
  806MPD2    H511930   3.361   3.488   0.312 -1.2690  0.4311  1.9580
  806MPD2    N111931   3.201   3.493   0.765 -0.2843  0.4134 -0.2295
  806MPD2    H711932   3.270   3.566   0.748  0.8568 -0.1444  2.0919
  807MPD2     C11933   3.007   3.677   1.584  0.5176  0.2972 -0.5129
  807MPD2    C111934   2.990   3.577   1.495  1.1556 -0.0258 -0.2524
  807MPD2    C211935   2.894   3.484   1.510  1.4584  0.6994 -0.6899
  807MPD2    C311936   2.819   3.484   1.629  0.2457 -0.0104  0.4316
  807MPD2    C411937   2.839   3.579   1.718  0.4916 -0.3900 -0.0130
  807MPD2    C511938   2.929   3.685   1.700  0.3424  0.5403  0.5732
  807MPD2     H11939   2.880   3.406   1.436  0.9364 -2.7176  2.9676
  807MPD2    H111940   2.785   3.587   1.811 -0.5013 -2.1470 -0.4362
  807MPD2    H211941   3.081   3.755   1.570  2.6709 -1.3273  1.8177
  807MPD2    H311942   2.942   3.758   1.779 -1.4573  2.8322 -1.2405
  807MPD2     N11943   2.722   3.383   1.647  0.3851 -0.6943  0.0082
  807MPD2    H511944   2.718   3.303   1.584 -0.3134  1.5404 -2.7799
  807MPD2    N111945   3.066   3.569   1.375 -0.4334  0.0301  0.5177
  807MPD2    H711946   3.047   3.507   1.297  0.3228 -1.2222  1.3279
  808MPD2     C11947   2.260   4.656  10.500 -0.3157 -0.5565 -0.1252
  808MPD2    C111948   2.299   4.653  10.367  0.8172 -0.1012 -0.5289
  808MPD2    C211949   2.359   0.031  10.318  0.6032  0.5422 -0.7700
  808MPD2    C311950   2.377   0.144  10.398  0.0264  0.3131  0.1068
  808MPD2    C411951   2.329   0.144  10.527  0.2217  0.0910  0.5908
  808MPD2    C511952   2.272   0.031  10.572 -0.2502  0.6162  0.4370
  808MPD2     H11953   2.397   0.030  10.217 -0.7486  0.4482 -1.2757
  808MPD2    H111954   2.350   0.228  10.593 -0.3590  0.2773  0.5346
  808MPD2    H211955   2.207   4.580  10.556 -0.1545  0.4609  1.4060
  808MPD2    H311956   2.213   0.036  10.663  0.2773  0.0072  0.8093
  808MPD2     N11957   2.447   0.263  10.358 -0.1908 -0.3155  0.5803
  808MPD2    H511958   2.452   0.331  10.433  1.0155  0.0707  0.1595
  808MPD2    N111959   2.288   4.543  10.278 -0.5285 -0.9693  0.7605
  808MPD2    H711960   2.346   4.556  10.196 -2.2829  0.1812 -0.2827
  809MPD2     C11961   2.894   0.503   9.483 -0.8733 -0.2813 -0.0012
  809MPD2    C111962   2.875   0.382   9.546  0.0575 -0.0958  0.5380
  809MPD2    C211963   2.836   0.383   9.680 -0.5078 -0.0674 -0.0938
  809MPD2    C311964   2.809   0.504   9.748 -0.3293 -0.0894 -0.6555
  809MPD2    C411965   2.823   0.629   9.688  0.0177  0.2863  0.2812
  809MPD2    C511966   2.879   0.621   9.559 -0.4202  0.0689  0.6332
  809MPD2     H11967   2.832   0.286   9.727 -1.5630  0.9245  1.9045
  809MPD2    H111968   2.805   0.723   9.738 -0.2247  0.5446 -0.2903
  809MPD2    H211969   2.914   0.519   9.378 -0.3984 -1.6752 -0.1327
  809MPD2    H311970   2.902   0.715   9.510 -0.6098  0.0199  0.4498
  809MPD2     N11971   2.775   0.500   9.888  0.1220 -0.1885 -0.2336
  809MPD2    H511972   2.777   0.407   9.929 -2.1307  0.1838  0.7047
  809MPD2    N111973   2.897   0.253   9.486 -0.3763  0.6448  0.0471
  809MPD2    H711974   2.854   0.174   9.534 -1.0255  1.3093  0.5562
  810MPD2     C11975   1.970   3.906  11.056  0.0697 -0.7915 -0.0122
  810MPD2    C111976   1.975   3.947  10.927  0.9923  0.2553  0.0602
  810MPD2    C211977   2.003   4.085  10.904  0.4371  0.3784 -0.3343
  810MPD2    C311978   2.041   4.163  11.006  0.0346 -0.4143 -0.7859
  810MPD2    C411979   2.050   4.120  11.133  0.0134 -0.3954 -1.1322
  810MPD2    C511980   2.008   3.988  11.158  0.4277 -0.5696  0.0582
  810MPD2     H11981   1.992   4.123  10.803  0.3720 -1.8951 -1.1777
  810MPD2    H111982   2.092   4.180  11.212 -0.5034  1.8358 -2.5690
  810MPD2    H211983   1.943   3.805  11.086  2.9318 -1.2527  1.0466
  810MPD2    H311984   2.002   3.957  11.262  1.9174  1.7018  0.8243
  810MPD2     N11985   2.067   4.296  10.982  0.9072 -0.5065 -0.0566
  810MPD2    H511986   2.064   4.316  10.883  1.8244  0.7498  0.1728
  810MPD2    N111987   1.944   3.858  10.825 -0.1574 -0.2605 -0.0011
  810MPD2    H711988   1.936   3.901  10.734 -0.2403  1.0841  0.6437
  811MPD2     C11989   1.594   3.758  10.072 -0.5059 -0.9887  0.4833
  811MPD2    C111990   1.655   3.826  10.174 -0.0646 -0.3927 -0.3255
  811MPD2    C211991   1.672   3.967  10.154 -0.4438  0.0573 -0.0094
  811MPD2    C311992   1.636   4.028  10.036 -0.6372  0.0142  0.3808
  811MPD2    C411993   1.561   3.950   9.950 -0.1210  0.1954  0.3570
  811MPD2    C511994   1.546   3.812   9.961 -1.2347 -0.0338  0.6763
  811MPD2     H11995   1.700   4.037  10.232 -0.9665  0.1546  0.0924
  811MPD2    H111996   1.523   3.995   9.859 -1.5812 -1.5273  0.1173
  811MPD2    H211997   1.584   3.650  10.076 -2.3053 -0.8188  0.5290
  811MPD2    H311998   1.506   3.754   9.879 -0.7097  0.3216  0.1707
  811MPD2     N11999   1.662   4.163  10.018 -0.9434 -0.2585  0.5836
  811MPD2    H512000   1.722   4.212  10.083 -0.3076  0.9228 -0.8954
  811MPD2    N112001   1.687   3.755  10.292  0.1108 -0.7992 -0.3282
  811MPD2    H712002   1.650   3.661  10.305 -1.2013 -0.4609 -1.5806
  812MPD2     C12003   0.873   3.600  12.699  0.3183 -0.4423 -0.4442
  812MPD2    C112004   0.993   3.648  12.652 -0.4283 -0.1712 -0.6930
  812MPD2    C212005   1.112   3.604  12.717 -0.2761  0.8312  0.3065
  812MPD2    C312006   1.099   3.518  12.819 -0.1126  0.9631  0.1374
  812MPD2    C412007   0.976   3.480  12.870 -0.4274 -0.3919  0.3450
  812MPD2    C512008   0.861   3.520  12.811  0.5030  0.0687 -0.2123
  812MPD2     H12009   1.213   3.633  12.688 -0.5804  0.6521 -0.9251
  812MPD2    H112010   0.967   3.418  12.958  0.7911 -1.4488 -0.2803
  812MPD2    H212011   0.784   3.652  12.666  0.9400  1.3181  0.6495
  812MPD2    H312012   0.766   3.492  12.854  0.8692 -1.7763 -0.5832
  812MPD2     N12013   1.216   3.483  12.885 -0.1163 -0.5715  0.6239
  812MPD2    H512014   1.299   3.538  12.865 -0.0263 -0.2906  1.7956
  812MPD2    N112015   0.986   3.747  12.551  0.0657 -0.0259 -0.1153
  812MPD2    H712016   0.895   3.766  12.512 -0.4348  3.0758  2.5970
  813MPD2     C12017   0.942   0.703  12.904 -0.0309 -0.4902 -0.4995
  813MPD2    C112018   0.886   0.822  12.859 -0.5507 -0.5202 -0.7090
  813MPD2    C212019   0.858   0.925  12.950 -0.0766  0.0050 -1.2784
  813MPD2    C312020   0.894   0.900  13.082  0.8375 -0.3374 -0.0772
  813MPD2    C412021   0.937   0.778  13.121  0.0249  0.4867  0.0956
  813MPD2    C512022   0.965   0.678  13.038 -0.1351  0.0245 -0.0086
  813MPD2     H12023   0.832   1.027  12.926 -1.0973  0.3939  1.5039
  813MPD2    H112024   0.959   0.758  13.225  0.8710  0.8354 -0.0211
  813MPD2    H212025   0.969   0.620  12.840  0.2591 -0.7218 -0.0783
  813MPD2    H312026   1.022   0.594  13.078 -0.0504  0.2160  0.2745
  813MPD2     N12027   0.862   1.010  13.173 -0.2397  0.8457  0.4637
  813MPD2    H512028   0.809   1.083  13.127 -0.0910 -0.4658 -1.7909
  813MPD2    N112029   0.881   0.839  12.723  0.3514  0.0494  0.3552
  813MPD2    H712030   0.934   0.774  12.665 -1.5380 -0.2093 -1.1015
  814MPD2     C12031   0.985   2.286  12.644 -0.3904  0.3340 -0.3520
  814MPD2    C112032   1.068   2.322  12.541  0.5671 -0.0557  0.2608
  814MPD2    C212033   1.168   2.415  12.563  0.9343 -0.8918  0.0015
  814MPD2    C312034   1.173   2.471  12.693  0.8445 -0.2385 -0.6002
  814MPD2    C412035   1.091   2.425  12.797 -0.8369 -0.7249 -0.3096
  814MPD2    C512036   0.995   2.334  12.768 -0.0637 -0.3058  0.3174
  814MPD2     H12037   1.226   2.447  12.477  1.7641  1.1078  1.3169
  814MPD2    H112038   1.105   2.462  12.898 -0.0969 -0.4940 -0.4970
  814MPD2    H212039   0.912   2.206  12.637 -2.1274  1.8419  0.5432
  814MPD2    H312040   0.939   2.286  12.847 -0.5400  1.1056  0.8458
  814MPD2     N12041   1.246   2.589  12.721  0.7919 -0.5986 -0.1206
  814MPD2    H512042   1.223   2.652  12.797 -0.0036  0.7480 -1.4645
  814MPD2    N112043   1.040   2.288  12.405 -0.2623 -0.7518  0.8091
  814MPD2    H712044   1.087   2.338  12.329 -1.4825 -1.6155 -0.5161
  815MPD2     C12045   1.023   0.281  12.139 -0.7469  0.0683 -0.5030
  815MPD2    C112046   0.963   0.229  12.027 -0.2996  0.1741  0.5877
  815MPD2    C212047   0.826   0.191  12.035 -0.8202 -0.1979 -1.3630
  815MPD2    C312048   0.761   0.194  12.152 -0.3985 -0.4565 -0.0113
  815MPD2    C412049   0.824   0.247  12.267 -0.5432 -0.1241 -0.4905
  815MPD2    C512050   0.951   0.301  12.253  0.2446  0.3724  0.1881
  815MPD2     H12051   0.773   0.155  11.948 -1.6022 -0.9140 -0.5861
  815MPD2    H112052   0.770   0.272  12.357 -2.4057 -0.7228 -1.4425
  815MPD2    H212053   1.126   0.308  12.117  0.1004 -2.7455  0.0150
  815MPD2    H312054   0.993   0.349  12.341 -0.1857 -1.1676  1.2505
  815MPD2     N12055   0.627   0.149  12.164  0.1983 -0.4096 -0.5239
  815MPD2    H512056   0.582   0.127  12.076 -1.5044 -2.6191  0.8894
  815MPD2    N112057   1.037   0.237  11.906 -0.0593  0.0903  0.0767
  815MPD2    H712058   1.127   0.284  11.913  0.8121 -1.1970 -2.5325
  816MPD2     C12059   1.752   0.024  17.315  0.5065 -0.3779 -0.3169
  816MPD2    C112060   1.742   0.148  17.256 -0.3752  0.5557 -0.1902
  816MPD2    C212061   1.798   0.168  17.130  0.2877  1.0042 -0.3391
  816MPD2    C312062   1.862   0.056  17.070  0.1617  0.2183 -0.2324
  816MPD2    C412063   1.871   4.676  17.134 -0.0037 -0.1539 -0.7279
  816MPD2    C512064   1.818   4.655  17.259 -0.4814 -0.4533 -0.2519
  816MPD2     H12065   1.794   0.259  17.071  0.9078  1.3674  0.1785
  816MPD2    H112066   1.919   4.591  17.087 -1.5189 -2.1852  1.4555
  816MPD2    H212067   1.705   4.733  17.409 -0.2122  0.5364 -0.4026
  816MPD2    H312068   1.827   4.566  17.320 -0.2501 -1.2721 -1.4975
  816MPD2     N12069   1.913   0.075  16.940  0.1120 -0.0345 -0.2011
  816MPD2    H512070   1.897   0.168  16.903 -0.6234  0.5502  1.5750
  816MPD2    N112071   1.670   0.246  17.327 -0.2259 -0.4890 -0.0230
  816MPD2    H712072   1.630   0.212  17.414 -0.1692  2.5085  1.1642
  817MPD2     C12073   0.522   1.619   9.572 -0.9543  0.4714 -0.0526
  817MPD2    C112074   0.581   1.711   9.658  0.9199  0.6147  0.1847
  817MPD2    C212075   0.511   1.829   9.688 -0.3525  0.5829 -0.5826
  817MPD2    C312076   0.382   1.845   9.638  0.0730  0.1877 -0.7647
  817MPD2    C412077   0.328   1.744   9.566 -0.3816  0.7535  0.5801
  817MPD2    C512078   0.396   1.632   9.523 -0.1647  0.1109  0.0569
  817MPD2     H12079   0.555   1.908   9.748 -1.7041  0.1091  1.0511
  817MPD2    H112080   0.231   1.766   9.522  0.6852  0.6717 -1.8340
  817MPD2    H212081   0.579   1.533   9.539 -1.2745  0.5590 -0.8285
  817MPD2    H312082   0.344   1.562   9.458  1.0983  1.1602 -2.0945
  817MPD2     N12083   0.313   1.959   9.687 -0.6197  0.3635  0.4525
  817MPD2    H512084   0.367   2.023   9.745 -1.7610  0.9561  0.8805
  817MPD2    N112085   0.702   1.691   9.729  0.1767  0.4035  0.1491
  817MPD2    H712086   0.731   1.770   9.785 -0.7118  1.7857 -1.3447
  818MPD2     C12087   4.714   1.506   9.899  0.0075  0.0381 -0.5301
  818MPD2    C112088   4.673   1.382   9.941  1.3880 -0.9690 -0.5946
  818MPD2    C212089   4.684   1.276   9.852 -0.3480 -0.3597 -0.4311
  818MPD2    C312090   0.013   1.288   9.734  0.1656 -0.0316 -0.8853
  818MPD2    C412091   0.079   1.406   9.703  0.3213  0.0581  0.3234
  818MPD2    C512092   0.045   1.516   9.778  0.4408  0.0176 -0.6736
  818MPD2     H12093   4.634   1.184   9.878 -2.0443  0.7270  0.1089
  818MPD2    H112094   0.141   1.423   9.616 -1.7662 -0.0402 -1.1908
  818MPD2    H212095   4.711   1.596   9.960  1.6453 -0.9454  1.0025
  818MPD2    H312096   0.085   1.610   9.742  1.4027 -0.4923 -0.9265
  818MPD2     N12097   0.023   1.177   9.650  0.2845 -0.5130 -0.0471
  818MPD2    H512098   0.079   1.194   9.567  1.4277 -0.3860  0.7564
  818MPD2    N112099   4.638   1.347  10.075  0.8147 -0.3502 -0.0430
  818MPD2    H712100   4.643   1.249  10.099  0.7674 -0.9094 -2.4052
  819MPD2     C12101   3.170   3.354  15.393  0.1426  0.5948 -0.1098
  819MPD2    C112102   3.106   3.319  15.510  0.0314 -0.3652  0.5693
  819MPD2    C212103   3.190   3.293  15.621  0.3749  0.1850 -0.3328
  819MPD2    C312104   3.324   3.303  15.614 -0.3969 -0.5948  0.1954
  819MPD2    C412105   3.386   3.347  15.500 -0.3692 -0.2546 -0.2231
  819MPD2    C512106   3.302   3.367  15.391 -0.1822 -0.7067 -0.1064
  819MPD2     H12107   3.151   3.237  15.705 -0.8526 -3.4618 -3.3087
  819MPD2    H112108   3.491   3.365  15.485 -0.0133 -0.2484  2.2938
  819MPD2    H212109   3.119   3.371  15.299  0.5725 -1.5711 -0.7372
  819MPD2    H312110   3.354   3.400  15.302  2.1637 -0.1941  1.4474
  819MPD2     N12111   3.399   3.251  15.730 -0.0986 -0.3506  0.0917
  819MPD2    H512112   3.351   3.205  15.807 -0.5190  0.4963  0.3347
  819MPD2    N112113   2.966   3.305  15.504 -0.0020  0.7369  0.7801
  819MPD2    H712114   2.924   3.307  15.412  2.0230  2.0960 -0.1179
  820MPD2     C12115   2.240   3.208  14.856  0.1544  0.3765  0.0654
  820MPD2    C112116   2.287   3.327  14.923 -0.0467  0.5302 -0.7137
  820MPD2    C212117   2.372   3.309  15.029 -0.6306  0.3185 -0.7157
  820MPD2    C312118   2.416   3.186  15.074 -0.2197  0.7058 -0.0321
  820MPD2    C412119   2.373   3.076  14.999 -0.2203  0.6696  0.8663
  820MPD2    C512120   2.289   3.087  14.895 -0.1405  0.5401  0.9655
  820MPD2     H12121   2.414   3.402  15.066  1.8457 -1.3048  0.4709
  820MPD2    H112122   2.411   2.978  15.024 -1.9827 -0.1184  0.4386
  820MPD2    H212123   2.165   3.210  14.777  0.7125  0.2777 -0.4668
  820MPD2    H312124   2.259   2.998  14.841 -1.2210  0.7668  1.1855
  820MPD2     N12125   2.508   3.162  15.180  0.2414 -0.0517 -0.2498
  820MPD2    H512126   2.525   3.067  15.211 -0.5658  0.0143  0.3985
  820MPD2    N112127   2.257   3.461  14.873  0.4949  0.1888  0.4252
  820MPD2    H712128   2.204   3.462  14.786 -0.4682  0.2532  1.0187
  821MPD2     C12129   2.514   4.222  13.726 -0.0743  0.1537  0.1187
  821MPD2    C112130   2.544   4.355  13.692 -0.3961 -0.1865  0.0783
  821MPD2    C212131   2.565   4.390  13.561  0.4688 -0.4128 -0.8598
  821MPD2    C312132   2.569   4.287  13.462  0.9310 -0.2969  0.4340
  821MPD2    C412133   2.522   4.158  13.492 -0.3542  0.2662  0.0656
  821MPD2    C512134   2.497   4.133  13.625  0.1166  0.2762  0.5497
  821MPD2     H12135   2.583   4.495  13.539  1.1219 -0.3575 -0.0486
  821MPD2    H112136   2.520   4.077  13.420 -0.7420 -3.1783  3.9305
  821MPD2    H212137   2.497   4.192  13.829  1.0336  1.6489  0.7351
  821MPD2    H312138   2.455   4.038  13.655  1.6403  0.1505  2.2586
  821MPD2     N12139   2.608   4.309  13.331  0.2369 -0.2570 -0.0260
  821MPD2    H512140   2.594   4.236  13.262  1.5033 -0.5200 -0.0138
  821MPD2    N112141   2.565   4.453  13.791  0.1605  0.3464 -0.0081
  821MPD2    H712142   2.574   4.547  13.752  1.8176 -0.3444 -1.2815
  822MPD2     C12143   3.967   4.704  15.830 -0.3087  0.7127  0.0764
  822MPD2    C112144   3.943   4.686  15.969 -0.6491 -0.0318  0.4497
  822MPD2    C212145   3.839   0.028  16.029 -0.2484 -0.5382  0.1568
  822MPD2    C312146   3.760   0.109  15.952  0.3485  0.2106 -0.2735
  822MPD2    C412147   3.768   0.107  15.812  0.1952 -0.0785  0.1939
  822MPD2    C512148   3.874   0.040  15.759 -0.4387  0.4534 -0.6991
  822MPD2     H12149   3.823   0.023  16.136 -2.1212  1.8282 -0.0306
  822MPD2    H112150   3.707   0.174  15.753  0.1546 -0.0499  0.2679
  822MPD2    H212151   4.052   4.659  15.780 -0.7282 -0.7995  0.7334
  822MPD2    H312152   3.880   0.045  15.650 -0.5528  0.4742 -0.7056
  822MPD2     N12153   3.671   0.196  16.018 -0.5389  0.0898  0.2183
  822MPD2    H512154   3.666   0.178  16.118 -0.6089  1.5502  0.4749
  822MPD2    N112155   4.028   4.631  16.064  0.5711 -0.0168 -0.3179
  822MPD2    H712156   3.993   4.631  16.159  2.0139  3.2495  0.2116
  823MPD2     C12157   3.710   0.517  16.642  0.6315 -0.5061 -0.0014
  823MPD2    C112158   3.603   0.437  16.604  0.7940  0.5821 -0.1020
  823MPD2    C212159   3.534   0.350  16.695 -1.0911 -0.8131  0.6464
  823MPD2    C312160   3.579   0.346  16.828 -0.2160  0.0191  0.1701
  823MPD2    C412161   3.694   0.417  16.856  0.0143  0.3293  0.1095
  823MPD2    C512162   3.758   0.499  16.769  0.1041  0.5706  0.6514
  823MPD2     H12163   3.449   0.290  16.663  0.4207 -3.2296  1.1599
  823MPD2    H112164   3.736   0.404  16.955  1.1879  0.1478 -0.4108
  823MPD2    H212165   3.758   0.586  16.574  2.5144 -0.5424  1.2812
  823MPD2    H312166   3.847   0.547  16.806  0.9299  1.4285 -2.4645
  823MPD2     N12167   3.522   0.263  16.926  0.2000  0.2146 -0.1312
  823MPD2    H512168   3.573   0.246  17.012  0.7607  3.1105  0.1100
  823MPD2    N112169   3.566   0.451  16.467  0.1017 -0.4168  0.1067
  823MPD2    H712170   3.616   0.522  16.414 -1.0259  0.2670 -0.0547
  824MPD2     C12171   4.619   3.981  16.404  0.0578 -0.1856  0.4694
  824MPD2    C112172   4.559   4.027  16.286 -0.4581  0.0802  0.5275
  824MPD2    C212173   4.606   3.971  16.167  0.3681  0.4321  0.6612
  824MPD2    C312174   4.720   3.894  16.166  0.0715  0.1553 -0.2354
  824MPD2    C412175   0.038   3.850  16.285 -0.3565 -0.3006 -0.1679
  824MPD2    C512176   4.723   3.894  16.399  0.0589 -0.5153 -0.5884
  824MPD2     H12177   4.569   4.010  16.072  0.0720 -2.4981 -0.4008
  824MPD2    H112178   0.108   3.767  16.291 -1.1274 -0.9373  0.0035
  824MPD2    H212179   4.575   3.996  16.501 -0.0753  3.7881 -0.1938
  824MPD2    H312180   0.012   3.845  16.491  2.5930 -0.0551 -1.0679
  824MPD2     N12181   0.034   3.841  16.044 -0.0594  0.2460 -0.9059
  824MPD2    H512182   4.723   3.875  15.961 -1.5045  0.3326 -0.0181
  824MPD2    N112183   4.459   4.126  16.295 -0.1946  0.0717  0.2134
  824MPD2    H712184   4.455   4.173  16.385 -3.2199 -0.1050  0.1809
  825MPD2     C12185   0.554   4.049  15.413 -0.0961 -0.6115 -0.0545
  825MPD2    C112186   0.429   4.079  15.470 -0.0849  0.0533  0.9363
  825MPD2    C212187   0.370   4.207  15.439 -0.2811 -1.0124 -0.2133
  825MPD2    C312188   0.428   4.292  15.342  0.1380  0.7731  0.1315
  825MPD2    C412189   0.553   4.256  15.295 -0.6706  0.4820 -0.7782
  825MPD2    C512190   0.617   4.137  15.331 -0.8177 -0.2661  0.0159
  825MPD2     H12191   0.268   4.223  15.472 -0.6938 -0.5105 -1.7461
  825MPD2    H112192   0.595   4.321  15.218 -0.5554 -0.8507 -1.8411
  825MPD2    H212193   0.603   3.953  15.422  0.0960 -0.4408  0.6705
  825MPD2    H312194   0.713   4.109  15.288 -1.3218  0.2182 -1.4312
  825MPD2     N12195   0.370   4.415  15.298  0.2724 -0.3431 -0.3786
  825MPD2    H512196   0.421   4.465  15.227 -1.3118 -0.6955 -1.7585
  825MPD2    N112197   0.368   3.981  15.550 -0.0719  0.3478  0.0230
  825MPD2    H712198   0.411   3.889  15.546  0.7326  0.7062  0.3587
  826MPD2     C12199   4.469   3.959  13.590  0.0379  0.9203 -0.1985
  826MPD2    C112200   4.560   4.059  13.627 -0.0529 -0.0638 -0.4648
  826MPD2    C212201   4.502   4.187  13.650  0.2519 -0.0691 -0.4234
  826MPD2    C312202   4.369   4.213  13.649  0.3097  0.4344 -0.5857
  826MPD2    C412203   4.289   4.104  13.631  0.0713 -0.4426  0.0408
  826MPD2    C512204   4.334   3.978  13.603  0.1943 -0.6953  0.0479
  826MPD2     H12205   4.572   4.270  13.661  0.8520 -0.6885  0.4224
  826MPD2    H112206   4.182   4.118  13.640  0.1010 -1.0646  1.2844
  826MPD2    H212207   4.509   3.863  13.558 -0.1251  1.3584 -1.7036
  826MPD2    H312208   4.264   3.901  13.574  0.3190 -0.3821 -1.0811
  826MPD2     N12209   4.316   4.346  13.667 -0.4499  0.3028  0.1429
  826MPD2    H512210   4.215   4.350  13.670 -0.3853  1.1070  1.1834
  826MPD2    N112211   4.701   4.027  13.631  0.3570 -0.1692  0.1402
  826MPD2    H712212   4.727   3.928  13.628 -2.4700 -0.8865 -0.3457
  827MPD2     C12213   0.356   0.353  10.047 -0.6641  0.4208  0.3922
  827MPD2    C112214   0.258   0.276  10.102  0.2086  0.7672  0.2117
  827MPD2    C212215   0.153   0.229  10.025 -0.4375 -0.5166  0.3675
  827MPD2    C312216   0.160   0.243   9.889  0.2169  0.0687 -0.5849
  827MPD2    C412217   0.261   0.326   9.836  0.9235 -0.3934 -0.0049
  827MPD2    C512218   0.360   0.381   9.914 -0.2518  0.2034  0.0741
  827MPD2     H12219   0.074   0.173  10.073 -0.2811 -1.6239 -0.6757
  827MPD2    H112220   0.278   0.346   9.731  2.7145 -2.7671 -0.1604
  827MPD2    H212221   0.429   0.401  10.110  0.1644 -3.2109  2.1678
  827MPD2    H312222   0.448   0.420   9.865  0.0880  1.3772  1.5972
  827MPD2     N12223   0.048   0.203   9.814  0.3832 -0.2033 -0.0361
  827MPD2    H512224   4.713   0.158   9.869  1.0001  1.8955  2.4639
  827MPD2    N112225   0.268   0.259  10.245 -0.2907  0.2053 -0.2247
  827MPD2    H712226   0.353   0.297  10.287 -0.2415  0.1445 -0.2690
  828MPD2     C12227   2.992   4.722  12.283  0.1920 -0.1289  0.4661
  828MPD2    C112228   3.025   0.115  12.269  0.0749  0.0512  0.6712
  828MPD2    C212229   3.156   0.142  12.248 -0.2730  0.5649 -0.0357
  828MPD2    C312230   3.252   0.045  12.227 -0.1521  0.3148  0.1056
  828MPD2    C412231   3.218   4.650  12.242 -0.3561  0.5058  0.0038
  828MPD2    C512232   3.085   4.629  12.273 -0.4519  0.2264 -0.3180
  828MPD2     H12233   3.187   0.245  12.235 -3.0621  1.3848 -0.1786
  828MPD2    H112234   3.280   4.563  12.224  2.2827  2.7255 -1.6669
  828MPD2    H212235   2.891   4.690  12.305 -0.3398  0.4599 -1.1102
  828MPD2    H312236   3.048   4.527  12.269 -1.0657  0.3679  1.9124
  828MPD2     N12237   3.382   0.083  12.186 -0.0466 -0.0563  0.1521
  828MPD2    H512238   3.448   0.007  12.175  1.1472  1.2275 -1.5339
  828MPD2    N112239   2.935   0.221  12.266  0.3978 -0.0994  0.8320
  828MPD2    H712240   2.971   0.315  12.248  3.8196 -1.7030 -0.8156
  829MPD2     C12241   3.079   0.928  11.867 -0.0603  0.2746 -0.2296
  829MPD2    C112242   2.946   0.919  11.832 -0.5661  0.4623  0.3794
  829MPD2    C212243   2.863   0.836  11.905 -0.8010 -0.3789 -0.3580
  829MPD2    C312244   2.918   0.755  12.003  1.2109  0.5618  0.0894
  829MPD2    C412245   3.049   0.771  12.039  0.9866  0.2118  0.4689
  829MPD2    C512246   3.131   0.857  11.969 -0.2727 -0.6619 -0.0370
  829MPD2     H12247   2.758   0.831  11.879 -0.8841  0.1106 -0.1221
  829MPD2    H112248   3.088   0.711  12.119  1.0192 -0.8427 -0.3370
  829MPD2    H212249   3.146   0.993  11.811 -1.2183  0.6588 -1.1819
  829MPD2    H312250   3.238   0.854  11.985 -0.6914 -0.5832  2.6755
  829MPD2     N12251   2.848   0.653  12.076 -0.3485 -0.4779 -0.4124
  829MPD2    H512252   2.902   0.597  12.142  0.6443 -0.2274 -1.0092
  829MPD2    N112253   2.905   0.989  11.716 -0.0290 -0.6051  0.0444
  829MPD2    H712254   2.975   1.050  11.676  0.5804  0.1023  2.2103
  830MPD2     C12255   4.087   2.856  15.933 -0.7502  0.4416 -0.4687
  830MPD2    C112256   3.975   2.901  15.856  0.5441  0.2329  0.1534
  830MPD2    C212257   4.000   2.950  15.733  0.4044 -0.4474 -0.3261
  830MPD2    C312258   4.127   2.985  15.689  0.3690 -0.2728  0.3232
  830MPD2    C412259   4.234   2.944  15.764 -0.2136  0.7093 -0.2255
  830MPD2    C512260   4.214   2.884  15.890  0.5126  0.2010 -0.6528
  830MPD2     H12261   3.915   2.988  15.677 -1.0107  0.8565  2.7302
  830MPD2    H112262   4.336   2.968  15.735  0.3079 -0.0199  0.9880
  830MPD2    H212263   4.064   2.799  16.022  2.4759 -0.5982 -0.2791
  830MPD2    H312264   4.299   2.852  15.948  1.4338 -1.7332 -3.0978
  830MPD2     N12265   4.150   3.060  15.570  0.3468  0.5605 -0.5140
  830MPD2    H512266   4.247   3.081  15.547 -0.2185  0.7502 -2.7944
  830MPD2    N112267   3.847   2.892  15.922  0.2582 -0.3259 -0.3548
  830MPD2    H712268   3.840   2.874  16.022 -1.6040 -0.9471 -0.6031
  831MPD2     C12269   4.040   0.204  16.592  0.2854  0.0771 -0.0828
  831MPD2    C112270   4.040   0.153  16.469 -0.7052  0.1254  0.6048
  831MPD2    C212271   3.959   0.047  16.438  0.4241 -0.1664  0.2631
  831MPD2    C312272   3.874   4.721  16.529 -0.0135  0.6146 -0.7872
  831MPD2    C412273   3.870   0.043  16.656  0.2516  0.0847  0.2425
  831MPD2    C512274   3.957   0.148  16.685  0.0016  0.1981  0.5127
  831MPD2     H12275   3.979   4.736  16.343 -0.9115 -2.3800  1.0975
  831MPD2    H112276   3.808   0.005  16.737  0.7581 -1.2682  0.0023
  831MPD2    H212277   4.102   0.290  16.618  0.4137  0.2848 -1.0449
  831MPD2    H312278   3.959   0.185  16.787  1.4027  1.6895 -0.0604
  831MPD2     N12279   3.806   4.599  16.510  0.1226  0.9385 -0.5186
  831MPD2    H512280   3.758   4.559  16.590 -0.4227  0.8254 -0.9034
  831MPD2    N112281   4.138   0.195  16.378 -0.0446 -0.3812 -0.1769
  831MPD2    H712282   4.226   0.237  16.405 -0.1857  0.6311 -1.2815
  832MPD2     C12283   2.568   1.028  17.058  0.2215  0.4140 -0.6554
  832MPD2    C112284   2.526   1.154  17.093  0.5794  0.0806 -0.1376
  832MPD2    C212285   2.414   1.212  17.030  0.0162  0.2960  0.5067
  832MPD2    C312286   2.329   1.129  16.965  0.7571  0.2250  0.0903
  832MPD2    C412287   2.359   1.001  16.932  0.3469 -0.1783 -0.0649
  832MPD2    C512288   2.487   0.959  16.968  0.0725  0.3389 -0.7520
  832MPD2     H12289   2.389   1.314  17.056  1.3780  0.2085  2.1733
  832MPD2    H112290   2.299   0.944  16.863  3.2219 -1.8573 -1.1966
  832MPD2    H212291   2.663   0.987  17.090 -0.6074 -0.5227  0.6094
  832MPD2    H312292   2.520   0.860  16.941 -0.9890  0.1139 -1.1971
  832MPD2     N12293   2.204   1.171  16.913  1.1594  0.0760  0.5106
  832MPD2    H512294   2.145   1.109  16.859 -3.2078  2.9718  1.9679
  832MPD2    N112295   2.606   1.222  17.189 -0.3561 -0.5565 -1.1631
  832MPD2    H712296   2.686   1.169  17.224 -1.1884 -0.9483  0.1231
  833MPD2     C12297   4.616   2.169  12.729  0.4552  1.0699  0.7300
  833MPD2    C112298   4.658   2.272  12.655 -0.6753  0.3514  0.0893
  833MPD2    C212299   0.034   2.257  12.580  0.1241 -0.2438  0.5353
  833MPD2    C312300   0.092   2.136  12.553  0.3005 -0.4251 -0.3816
  833MPD2    C412301   0.053   2.032  12.631  0.7416 -0.6541 -0.0791
  833MPD2    C512302   4.687   2.047  12.719  0.9504 -0.0789 -0.8864
  833MPD2     H12303   0.068   2.343  12.523  1.0817 -0.7966  0.2647
  833MPD2    H112304   0.098   1.933  12.634  3.1503  0.3824 -2.5330
  833MPD2    H212305   4.538   2.179  12.803  1.7783  1.1604  2.0990
  833MPD2    H312306   4.661   1.968  12.788  0.7835 -0.1955 -1.0811
  833MPD2     N12307   0.191   2.118  12.452  0.6098  0.0214 -0.7969
  833MPD2    H512308   0.219   2.021  12.446 -0.0308 -0.2845  1.4778
  833MPD2    N112309   4.587   2.396  12.642  0.5322 -0.4056  0.0998
  833MPD2    H712310   4.635   2.470  12.592  0.1405  0.2288  0.6666
  834MPD2     C12311   4.732   1.319  12.008 -0.8475 -0.0964  0.6932
  834MPD2    C112312   4.676   1.408  11.918  0.1621  0.3024  0.1180
  834MPD2    C212313   4.684   1.548  11.936 -0.4733  0.1006  0.7043
  834MPD2    C312314   0.028   1.594  12.041  0.1620  0.4606 -0.6386
  834MPD2    C412315   0.096   1.503  12.123  0.3783 -0.0771  0.4427
  834MPD2    C512316   0.067   1.371  12.112 -0.2852 -0.1746 -0.2315
  834MPD2     H12317   4.639   1.623  11.872  0.8516  1.1683  1.0327
  834MPD2    H112318   0.150   1.536  12.211  1.5404 -1.3011  0.1828
  834MPD2    H212319   4.721   1.212  12.001  1.8526 -0.1538 -2.9182
  834MPD2    H312320   0.102   1.294  12.179 -1.9573 -1.8364 -1.2931
  834MPD2     N12321   0.026   1.734  12.067 -0.0039  0.6254  0.2369
  834MPD2    H512322   4.712   1.790  12.000 -2.2698 -0.5845  0.9759
  834MPD2    N112323   4.597   1.358  11.804  0.7898  0.4050  0.8429
  834MPD2    H712324   4.588   1.257  11.797  1.0535  0.5552 -1.8728
  835MPD2     C12325   4.216   0.810  11.499 -0.3149  0.0797  0.1067
  835MPD2    C112326   4.154   0.899  11.578 -0.5649  0.0378  0.6840
  835MPD2    C212327   4.125   0.858  11.709  0.4335 -0.4013 -0.4054
  835MPD2    C312328   4.139   0.734  11.761 -0.1740  0.3443  0.1817
  835MPD2    C412329   4.214   0.647  11.685 -0.0157  0.4497 -0.1441
  835MPD2    C512330   4.256   0.693  11.561  0.8731  0.0577 -0.1916
  835MPD2     H12331   4.071   0.933  11.766  0.3875 -1.5201  1.0237
  835MPD2    H112332   4.251   0.553  11.724 -3.4005 -0.9226 -0.2199
  835MPD2    H212333   4.233   0.833  11.395 -0.1226  0.5324  0.2414
  835MPD2    H312334   4.314   0.622  11.501 -1.3230 -0.9599 -1.1055
  835MPD2     N12335   4.082   0.693  11.883 -0.1459  0.1274 -0.3920
  835MPD2    H512336   4.108   0.602  11.919  1.2094  1.0496  0.9979
  835MPD2    N112337   4.099   1.021  11.542  0.2520  0.0292 -0.1976
  835MPD2    H712338   4.085   1.086  11.618 -0.9343  0.8191 -1.0775
  836MPD2     C12339   3.389   0.994  12.180  0.0934  0.1791  0.3580
  836MPD2    C112340   3.442   0.894  12.258 -0.4982 -0.1812 -0.1729
  836MPD2    C212341   3.382   0.852  12.375 -0.6693 -0.6483  0.3135
  836MPD2    C312342   3.259   0.901  12.405  0.4957  0.2563 -0.5408
  836MPD2    C412343   3.199   0.991  12.319  0.3945  0.3310  0.0261
  836MPD2    C512344   3.263   1.034  12.207  0.1381  0.4156  0.0794
  836MPD2     H12345   3.442   0.791  12.442  0.7244 -1.0951 -1.3434
  836MPD2    H112346   3.108   1.046  12.341  1.4630  2.4447 -0.7842
  836MPD2    H212347   3.440   1.023  12.089  0.1019 -4.3231 -1.0838
  836MPD2    H312348   3.222   1.109  12.140 -0.8092  0.5922  0.8555
  836MPD2     N12349   3.199   0.874  12.523 -0.8943 -0.0502  0.5998
  836MPD2    H512350   3.121   0.934  12.549  0.1845  1.0409  1.3416
  836MPD2    N112351   3.559   0.830  12.205  0.1524 -0.1087 -0.0579
  836MPD2    H712352   3.597   0.868  12.119 -0.9047  1.5456  0.2063
  837MPD2     C12353   2.120   0.050  10.039  0.6465  0.5070  0.3050
  837MPD2    C112354   1.997   0.060  10.104  0.1321 -0.1430  0.0750
  837MPD2    C212355   1.957   0.184  10.151 -0.1557  1.0632 -0.9109
  837MPD2    C312356   2.025   0.292  10.129 -0.1853 -0.1648 -0.5731
  837MPD2    C412357   2.144   0.281  10.056 -0.0465  0.7790  0.5404
  837MPD2    C512358   2.194   0.166  10.012  0.0169 -0.4961  0.0800
  837MPD2     H12359   1.856   0.195  10.190 -0.7077 -1.5067 -1.6031
  837MPD2    H112360   2.214   0.364  10.047  2.0623 -0.8325  2.1713
  837MPD2    H212361   2.151   4.691  10.001 -1.2552  0.0989 -0.2349
  837MPD2    H312362   2.294   0.151   9.971  1.1112  1.1807  2.1129
  837MPD2     N12363   1.964   0.409  10.168 -0.1993 -0.1952  0.4176
  837MPD2    H512364   1.880   0.395  10.223 -1.3434 -1.4161 -1.6563
  837MPD2    N112365   1.906   4.694  10.121  0.6747  0.0971  0.4723
  837MPD2    H712366   1.830   4.706  10.188 -1.8092 -0.1015 -2.3448
  838MPD2     C12367   0.853   2.965  11.386 -0.7107  0.2338  1.0167
  838MPD2    C112368   0.858   2.848  11.462 -0.4047  1.1336 -0.7093
  838MPD2    C212369   0.810   2.850  11.590  0.1643 -0.2022 -0.0170
  838MPD2    C312370   0.780   2.977  11.652  0.0566 -0.4842 -0.3858
  838MPD2    C412371   0.787   3.091  11.571  0.9097 -0.6153 -0.2042
  838MPD2    C512372   0.819   3.083  11.443 -0.6060 -0.1542  0.7931
  838MPD2     H12373   0.800   2.758  11.646 -0.8687  0.2553  0.5656
  838MPD2    H112374   0.775   3.191  11.609  1.4452 -0.5014 -0.3367
  838MPD2    H212375   0.863   2.969  11.278 -2.8090  1.6289  0.8797
  838MPD2    H312376   0.823   3.173  11.381  1.7911 -0.2264  0.8166
  838MPD2     N12377   0.745   2.971  11.791 -0.5026 -0.4738  0.0061
  838MPD2    H512378   0.732   2.877  11.828  1.2515 -1.2932 -1.4722
  838MPD2    N112379   0.895   2.723  11.402  0.9726 -0.0333 -0.4168
  838MPD2    H712380   0.892   2.641  11.462 -0.3149 -1.1092 -1.9563
  839MPD2     C12381   0.453   1.955  10.930  0.4561 -0.0352 -0.4348
  839MPD2    C112382   0.488   1.967  11.061 -0.3092 -0.8176  0.9277
  839MPD2    C212383   0.581   2.063  11.099 -0.0038 -0.5141 -0.0948
  839MPD2    C312384   0.637   2.143  11.007 -0.0210  0.1390 -0.8078
  839MPD2    C412385   0.608   2.127  10.872 -0.0459 -0.2928  0.3270
  839MPD2    C512386   0.515   2.037  10.840 -0.8240  0.1049 -0.0942
  839MPD2     H12387   0.599   2.066  11.206 -3.2995  0.9868  0.4203
  839MPD2    H112388   0.647   2.183  10.788 -2.8912  0.5254 -0.4794
  839MPD2    H212389   0.378   1.882  10.900  0.9484 -1.2412  1.2287
  839MPD2    H312390   0.488   2.037  10.735 -0.0721  1.4957 -0.2887
  839MPD2     N12391   0.741   2.238  11.032  0.2373  0.8795 -0.4266
  839MPD2    H512392   0.775   2.296  10.956 -0.3569 -0.6930 -1.8677
  839MPD2    N112393   0.458   1.875  11.161  0.1487  0.2971  0.3787
  839MPD2    H712394   0.482   1.915  11.251 -1.8023  3.5168 -0.5432
  840MPD2     C12395   0.498   0.754  10.589 -0.2091 -0.2307  0.0532
  840MPD2    C112396   0.491   0.645  10.670  0.0332  0.2872 -0.2046
  840MPD2    C212397   0.571   0.656  10.781 -0.3045 -0.8256 -0.4548
  840MPD2    C312398   0.643   0.769  10.819  0.7105  0.4585 -0.2526
  840MPD2    C412399   0.628   0.883  10.744  0.0078 -0.5612  0.3864
  840MPD2    C512400   0.557   0.872  10.628  0.0582 -0.3994  0.3691
  840MPD2     H12401   0.587   0.568  10.842  0.9691  0.4391  1.0425
  840MPD2    H112402   0.677   0.976  10.771 -0.0530 -0.3058 -0.3885
  840MPD2    H212403   0.456   0.754  10.489 -2.9607 -1.9358  1.2054
  840MPD2    H312404   0.540   0.959  10.566 -0.7272 -0.6695  0.2018
  840MPD2     N12405   0.735   0.783  10.930  0.4834  0.3607  0.0777
  840MPD2    H512406   0.784   0.870  10.945  1.2373  0.2185 -1.5280
  840MPD2    N112407   0.430   0.526  10.630  0.0905 -0.4300  0.2909
  840MPD2    H712408   0.396   0.523  10.534  0.2249 -3.3536  0.3382
  841MPD2     C12409   0.766   0.492  14.912 -0.0766 -0.5059 -0.3368
  841MPD2    C112410   0.814   0.433  14.797  0.1588  0.8485  0.1340
  841MPD2    C212411   0.858   0.520  14.697 -0.0473 -0.6188 -0.1292
  841MPD2    C312412   0.874   0.656  14.722  0.5054  0.8167  0.3639
  841MPD2    C412413   0.827   0.709  14.839 -0.3617  0.6936 -0.0090
  841MPD2    C512414   0.756   0.626  14.921 -0.4018 -0.6280  0.2480
  841MPD2     H12415   0.900   0.480  14.606 -2.3664  0.3982 -1.6297
  841MPD2    H112416   0.827   0.815  14.862 -2.6469  0.9036 -0.9420
  841MPD2    H212417   0.717   0.434  14.989 -0.5334  0.2997 -0.0190
  841MPD2    H312418   0.709   0.671  15.007 -0.1101 -0.4431  0.3095
  841MPD2     N12419   0.947   0.734  14.625 -0.1671  0.0751  0.4186
  841MPD2    H512420   0.981   0.683  14.544 -0.7585  1.6212 -0.8088
  841MPD2    N112421   0.811   0.295  14.773 -0.1570 -0.2525  0.4145
  841MPD2    H712422   0.850   0.260  14.686 -1.8891  0.5129 -0.6726
  842MPD2     C12423   1.932   1.893  16.847 -0.1350  0.6935  0.1132
  842MPD2    C112424   1.824   1.815  16.881  0.4032  0.5479 -0.0380
  842MPD2    C212425   1.836   1.725  16.987 -0.8280  0.3384  0.1607
  842MPD2    C312426   1.955   1.709  17.049 -0.1891 -0.6528 -0.1217
  842MPD2    C412427   2.063   1.785  17.004 -0.2577 -0.3057 -0.5772
  842MPD2    C512428   2.049   1.878  16.911  0.9535  0.2736  0.5655
  842MPD2     H12429   1.755   1.681  17.044  0.6209 -1.2730  0.9851
  842MPD2    H112430   2.155   1.783  17.062  0.2428 -0.5580 -1.3790
  842MPD2    H212431   1.924   1.966  16.767  0.1073 -0.4693 -0.9819
  842MPD2    H312432   2.133   1.944  16.892  2.7710 -1.0349  4.0613
  842MPD2     N12433   1.988   1.620  17.156  0.7198 -0.2242 -0.6061
  842MPD2    H512434   2.089   1.606  17.163  0.7598  0.2363 -0.2581
  842MPD2    N112435   1.698   1.843  16.820 -0.0496 -0.4570 -1.0059
  842MPD2    H712436   1.700   1.924  16.760  0.5728  1.0125  1.0035
  843MPD2     C12437   3.890   2.486  17.198  0.3891  0.1756 -0.5917
  843MPD2    C112438   3.864   2.461  17.333  0.0789  0.2585 -0.3626
  843MPD2    C212439   3.939   2.534  17.425  0.1269 -0.0797  0.5708
  843MPD2    C312440   4.026   2.633  17.394  0.1913 -0.3608 -0.1705
  843MPD2    C412441   4.042   2.669  17.263 -0.3129 -0.1010 -0.0740
  843MPD2    C512442   3.979   2.589  17.163  0.0445 -0.8596 -0.2033
  843MPD2     H12443   3.934   2.489  17.524  0.8273  0.7887  1.0002
  843MPD2    H112444   4.094   2.760  17.235 -0.3885 -0.2121 -0.5735
  843MPD2    H212445   3.841   2.428  17.122  1.7275  1.1515 -2.1858
  843MPD2    H312446   3.989   2.614  17.058  1.1324 -0.9230 -0.1223
  843MPD2     N12447   4.096   2.710  17.485 -0.0685  0.5356 -0.1823
  843MPD2    H512448   4.155   2.783  17.447  2.0636 -0.3657  1.4136
  843MPD2    N112449   3.752   2.378  17.377 -0.4135 -0.1010 -0.2200
  843MPD2    H712450   3.724   2.305  17.312  0.1522 -1.6703  1.2988
  844MPD2     C12451   2.171   1.167  16.457  0.7737  0.4795 -0.2399
  844MPD2    C112452   2.291   1.117  16.407  0.7902  0.2462 -0.4800
  844MPD2    C212453   2.401   1.166  16.464 -0.2317 -1.0479  0.2302
  844MPD2    C312454   2.404   1.267  16.557  0.5556 -0.9045 -0.2713
  844MPD2    C412455   2.281   1.312  16.601 -0.3681  0.0012 -0.1826
  844MPD2    C512456   2.163   1.254  16.563 -0.1616  0.2734 -0.8002
  844MPD2     H12457   2.500   1.136  16.431  1.0803  0.9310  2.3699
  844MPD2    H112458   2.265   1.385  16.680  0.5960  1.9547 -1.7752
  844MPD2    H212459   2.080   1.120  16.421  1.1449 -1.2132  0.9999
  844MPD2    H312460   2.067   1.279  16.606 -0.4343  0.9463 -1.7898
  844MPD2     N12461   2.521   1.301  16.627 -0.3051 -0.1766 -0.1614
  844MPD2    H512462   2.610   1.264  16.596 -0.8082 -3.0351  1.8032
  844MPD2    N112463   2.289   1.018  16.305 -0.3192  0.0989  0.3416
  844MPD2    H712464   2.379   0.987  16.269 -1.8584 -2.9026 -0.9581
  845MPD2     C12465   2.702   2.070  17.254 -0.0690  0.6298  0.1566
  845MPD2    C112466   2.596   1.975  17.270 -0.9618 -0.4946 -0.2371
  845MPD2    C212467   2.597   1.865  17.181 -0.5236  0.4622  0.2880
  845MPD2    C312468   2.715   1.837  17.107 -0.4795  0.5698 -0.3878
  845MPD2    C412469   2.815   1.933  17.098  0.5486 -0.2307 -0.1673
  845MPD2    C512470   2.805   2.050  17.167 -0.4564  0.0079  0.0947
  845MPD2     H12471   2.506   1.808  17.173  1.6107 -2.6906 -1.8147
  845MPD2    H112472   2.906   1.922  17.040  0.6352 -0.0192 -0.0746
  845MPD2    H212473   2.695   2.170  17.296  0.9346  0.3743  0.9287
  845MPD2    H312474   2.884   2.124  17.154 -0.7033  0.6028  1.9103
  845MPD2     N12475   2.720   1.721  17.035 -0.2394 -0.1047 -0.4887
  845MPD2    H512476   2.637   1.663  17.031 -0.2681 -0.0377 -0.8455
  845MPD2    N112477   2.481   2.017  17.341  0.3102 -0.5820  0.2737
  845MPD2    H712478   2.488   2.112  17.376 -0.4039  0.0800 -1.3864
  846MPD2     C12479   3.630   2.206  13.703  0.0750 -0.2820 -0.3785
  846MPD2    C112480   3.591   2.335  13.731  0.6555 -0.2004 -0.2906
  846MPD2    C212481   3.553   2.376  13.862  0.7163  0.3786 -0.3347
  846MPD2    C312482   3.585   2.285  13.969 -0.2939  0.0633 -0.1439
  846MPD2    C412483   3.645   2.163  13.935 -0.1257 -0.0468  0.4245
  846MPD2    C512484   3.653   2.121  13.807  0.1340 -0.2939 -0.1015
  846MPD2     H12485   3.512   2.473  13.886 -0.5385 -1.1570  3.7180
  846MPD2    H112486   3.661   2.077  13.999 -0.7454 -0.3105  0.2188
  846MPD2    H212487   3.639   2.160  13.605 -0.7845 -2.1093  0.3997
  846MPD2    H312488   3.686   2.018  13.793  0.4909 -0.1561 -0.2795
  846MPD2     N12489   3.566   2.329  14.100  0.2959  0.3680 -0.4959
  846MPD2    H512490   3.511   2.413  14.110  0.3274  0.2700  0.5586
  846MPD2    N112491   3.570   2.434  13.634  0.0565  0.6651 -0.5016
  846MPD2    H712492   3.554   2.530  13.663 -0.0123  0.6285 -0.4202
  847MPD2     C12493   3.948   3.109  14.134 -0.4158 -0.7445  0.2026
  847MPD2    C112494   4.031   3.196  14.195 -0.6040 -0.9427 -0.3736
  847MPD2    C212495   4.120   3.152  14.288 -0.5376  0.5075 -0.0066
  847MPD2    C312496   4.122   3.021  14.324  0.1986 -0.1487  0.3041
  847MPD2    C412497   4.038   2.933  14.256 -0.2473 -0.0052 -0.3650
  847MPD2    C512498   3.950   2.976  14.155 -0.1802  0.2451 -0.4678
  847MPD2     H12499   4.188   3.226  14.330  0.4364 -0.3323 -0.1148
  847MPD2    H112500   4.044   2.827  14.279 -0.6303  1.0198  4.3178
  847MPD2    H212501   3.873   3.144  14.065  1.5663  2.0879 -0.4970
  847MPD2    H312502   3.884   2.906  14.108 -0.1435  1.4562 -2.3032
  847MPD2     N12503   4.194   2.984  14.439  0.2577  0.3557 -0.9018
  847MPD2    H512504   4.247   3.059  14.482  0.3060  0.1174 -0.5420
  847MPD2    N112505   4.030   3.334  14.175 -0.8289  0.1587  0.1006
  847MPD2    H712506   4.118   3.381  14.194  0.1423 -1.7013  0.2840
  848MPD2     C12507   1.661   1.657  16.497  0.2389  0.1067  0.0799
  848MPD2    C112508   1.790   1.656  16.553  0.8601 -0.5563 -0.5359
  848MPD2    C212509   1.889   1.752  16.529  0.0173  0.3742 -0.6886
  848MPD2    C312510   1.848   1.856  16.449  0.6093  0.0415 -0.4962
  848MPD2    C412511   1.724   1.856  16.387  0.3998  0.0679 -0.1260
  848MPD2    C512512   1.635   1.751  16.405 -0.1627  0.5002  0.3129
  848MPD2     H12513   1.989   1.752  16.572 -0.3793  1.7719  0.2443
  848MPD2    H112514   1.696   1.938  16.322 -0.5034 -0.8897 -0.9370
  848MPD2    H212515   1.590   1.582  16.527  0.7256 -0.4088 -0.0532
  848MPD2    H312516   1.535   1.747  16.364 -0.2758  0.6089  0.5818
  848MPD2     N12517   1.928   1.969  16.423 -0.1882  0.1501  0.4331
  848MPD2    H512518   1.896   2.035  16.352  0.6998 -1.4774 -1.4885
  848MPD2    N112519   1.831   1.563  16.649  0.4507  0.1122  0.5956
  848MPD2    H712520   1.920   1.580  16.696  0.2453  0.4056  0.8718
  849MPD2     C12521   0.960   1.586  13.755 -0.7363 -0.3617  0.2641
  849MPD2    C112522   1.080   1.604  13.694  0.2829 -0.4842  0.5095
  849MPD2    C212523   1.189   1.599  13.781 -0.4386 -0.0036  0.6457
  849MPD2    C312524   1.187   1.584  13.921 -0.1465 -0.3383  0.4341
  849MPD2    C412525   1.064   1.566  13.981  0.3303 -0.2220 -0.5528
  849MPD2    C512526   0.954   1.564  13.896 -0.0758 -0.6376  0.6306
  849MPD2     H12527   1.286   1.624  13.740 -1.2066  0.3331 -0.9823
  849MPD2    H112528   1.048   1.540  14.085  2.3755  1.0117  0.0825
  849MPD2    H212529   0.869   1.597  13.698 -1.1159  0.0196  0.9404
  849MPD2    H312530   0.858   1.551  13.945  0.0382 -0.2621  0.9588
  849MPD2     N12531   1.311   1.591  13.991  0.0617  0.0048 -0.5657
  849MPD2    H512532   1.390   1.610  13.931  0.4587  2.3419  0.6961
  849MPD2    N112533   1.092   1.636  13.559 -0.5633 -0.3100  0.0769
  849MPD2    H712534   1.008   1.626  13.504 -1.0254  0.1218  0.7048
  850MPD2     C12535   3.959   4.311  14.871 -0.1806 -0.9501  0.6287
  850MPD2    C112536   3.951   4.203  14.960 -0.1079  0.9146 -0.6903
  850MPD2    C212537   4.066   4.165  15.034 -0.1601  0.3921  0.3063
  850MPD2    C312538   4.184   4.234  15.019  0.2841 -0.3528 -0.5492
  850MPD2    C412539   4.190   4.330  14.919  0.6425 -0.2089 -0.3326
  850MPD2    C512540   4.079   4.357  14.840  0.4069 -0.1750 -0.4078
  850MPD2     H12541   4.060   4.085  15.108 -0.7754 -0.3329 -0.5311
  850MPD2    H112542   4.281   4.381  14.890  1.1792 -0.1511  1.4710
  850MPD2    H212543   3.870   4.344  14.818  0.9494  0.1344 -0.6068
  850MPD2    H312544   4.089   4.432  14.763  0.1183  1.1796  0.8847
  850MPD2     N12545   4.301   4.219  15.098  0.6356  0.1774 -0.2159
  850MPD2    H512546   4.378   4.282  15.078  2.7231 -2.0283  0.8890
  850MPD2    N112547   3.827   4.149  15.003  0.5015  0.1929 -0.5581
  850MPD2    H712548   3.831   4.076  15.074 -1.2002 -1.5146 -2.2205
  851MPD2     C12549   4.003   3.902  15.609  0.1431  0.2102 -0.4804
  851MPD2    C112550   3.959   3.870  15.482 -0.0716 -0.0754 -0.2924
  851MPD2    C212551   4.029   3.778  15.413 -0.1366  0.4442  0.2531
  851MPD2    C312552   4.139   3.713  15.460  0.6050  0.4312  0.8731
  851MPD2    C412553   4.181   3.740  15.585  0.2820  0.1134 -0.5209
  851MPD2    C512554   4.112   3.832  15.659 -0.1248  0.2515  0.4279
  851MPD2     H12555   3.989   3.725  15.327  0.4152  0.1996  0.1480
  851MPD2    H112556   4.268   3.695  15.632 -0.7480  1.6676  2.8860
  851MPD2    H212557   3.955   3.976  15.671  3.5056  2.6397 -0.7699
  851MPD2    H312558   4.151   3.858  15.757  1.3507 -1.0204  0.1779
  851MPD2     N12559   4.190   3.602  15.389  0.4215  0.0728  1.0036
  851MPD2    H512560   4.142   3.576  15.303  1.2223 -0.5936  0.7530
  851MPD2    N112561   3.845   3.932  15.432 -0.0608 -0.0548 -0.8639
  851MPD2    H712562   3.783   3.977  15.499  3.2673  0.7672  1.6310
  852MPD2     C12563   3.004   3.084  10.558 -0.2279  0.0372 -0.1333
  852MPD2    C112564   2.979   2.965  10.621 -0.1181  0.0482 -0.2005
  852MPD2    C212565   3.087   2.884  10.651  0.4333  0.4222 -0.1817
  852MPD2    C312566   3.218   2.918  10.634  0.0986  0.0747 -0.1952
  852MPD2    C412567   3.244   3.041  10.582  0.0855  0.0757  0.1608
  852MPD2    C512568   3.139   3.112  10.536  0.0397  0.5194 -0.2262
  852MPD2     H12569   3.062   2.784  10.685 -0.0974  1.7808  3.5004
  852MPD2    H112570   3.345   3.078  10.570  0.4940 -0.9881  0.2875
  852MPD2    H212571   2.923   3.151  10.532 -0.1608 -1.1646 -3.4493
  852MPD2    H312572   3.167   3.210  10.499 -0.2752 -0.1431 -2.2237
  852MPD2     N12573   3.310   2.816  10.647 -0.0623  0.2235  0.0048
  852MPD2    H512574   3.272   2.726  10.678 -1.3401  1.0676  0.9200
  852MPD2    N112575   2.849   2.920  10.643 -0.6814  0.3332 -0.0255
  852MPD2    H712576   2.838   2.829  10.686 -2.6972  1.3282  1.5844
  853MPD2     C12577   0.422   0.870  12.302  0.6373 -0.2276  0.1836
  853MPD2    C112578   0.310   0.945  12.278  0.7217 -0.6718 -0.5054
  853MPD2    C212579   0.271   0.964  12.147 -0.2680  0.3364 -0.5143
  853MPD2    C312580   0.336   0.888  12.041  0.6430 -0.3572  0.0609
  853MPD2    C412581   0.441   0.806  12.072 -0.2643 -0.2205  0.2009
  853MPD2    C512582   0.486   0.803  12.200 -0.4127  0.6018 -0.0396
  853MPD2     H12583   0.196   1.040  12.129  0.2117  0.5732 -1.4943
  853MPD2    H112584   0.492   0.755  11.991  0.7941  2.7356 -1.0164
  853MPD2    H212585   0.459   0.845  12.401  2.6630  1.0729 -0.2518
  853MPD2    H312586   0.579   0.752  12.222  0.0773  1.7408  0.4826
  853MPD2     N12587   0.294   0.897  11.907 -0.1522 -0.5825  0.1807
  853MPD2    H512588   0.348   0.841  11.840  0.5475 -0.7981  0.9231
  853MPD2    N112589   0.267   1.023  12.391  0.3035  0.2427  0.2862
  853MPD2    H712590   0.315   1.019  12.480  1.2689 -2.4799 -0.3409
  854MPD2     C12591   2.234   1.886  13.034  0.4362 -0.1023  0.2536
  854MPD2    C112592   2.244   1.852  12.903  0.0557 -0.2815 -0.0907
  854MPD2    C212593   2.288   1.722  12.873 -0.1169  0.7005  0.2508
  854MPD2    C312594   2.332   1.642  12.979  0.0075  0.1566  0.0640
  854MPD2    C412595   2.333   1.686  13.110  0.5130  0.5714  0.3611
  854MPD2    C512596   2.289   1.810  13.138 -0.5993  0.5205  0.9583
  854MPD2     H12597   2.284   1.697  12.768  0.8455  2.2430 -0.1413
  854MPD2    H112598   2.355   1.617  13.191  0.0615 -1.8108 -1.5466
  854MPD2    H212599   2.176   1.969  13.073 -0.7245 -0.2288 -1.1986
  854MPD2    H312600   2.289   1.830  13.244  0.3592  1.0346  0.8608
  854MPD2     N12601   2.376   1.503  12.969  0.3662 -0.1522  0.0601
  854MPD2    H512602   2.410   1.458  13.053 -0.3879 -1.7805 -0.5112
  854MPD2    N112603   2.192   1.950  12.821  0.5235 -0.3521 -0.4299
  854MPD2    H712604   2.152   2.032  12.865 -2.6855 -0.8537 -2.3995
  855MPD2     C12605   2.900   1.353  13.394 -0.3103 -0.2659  0.3097
  855MPD2    C112606   2.820   1.246  13.432  0.0290 -0.6445 -0.2354
  855MPD2    C212607   2.739   1.192  13.332  0.4716 -0.0849 -0.0462
  855MPD2    C312608   2.752   1.243  13.200 -0.2924  0.0421  0.7937
  855MPD2    C412609   2.836   1.348  13.168 -0.1057  0.2339  0.0011
  855MPD2    C512610   2.916   1.391  13.267 -0.1742 -1.0021 -0.0732
  855MPD2     H12611   2.667   1.115  13.357  0.7349 -0.4212 -0.3429
  855MPD2    H112612   2.851   1.379  13.065  1.6734  1.3267  0.6035
  855MPD2    H212613   2.967   1.402  13.464 -2.2198 -0.9435  2.6220
  855MPD2    H312614   2.972   1.482  13.253 -1.3113  0.0211  1.9925
  855MPD2     N12615   2.678   1.187  13.090 -0.0792 -1.2407  0.1441
  855MPD2    H512616   2.696   1.238  13.004  1.6187 -0.1386  1.1603
  855MPD2    N112617   2.809   1.193  13.567  0.0402  0.1608  0.3133
  855MPD2    H712618   2.758   1.107  13.582  0.8540 -0.3086  0.3772
  856MPD2     C12619   4.307   2.451  14.171 -0.0011  0.6827 -0.2314
  856MPD2    C112620   4.412   2.533  14.204  0.2598  0.1756 -0.0176
  856MPD2    C212621   4.418   2.660  14.147 -0.0941 -0.7083 -0.3178
  856MPD2    C312622   4.319   2.707  14.068 -0.4731 -0.3631  0.0748
  856MPD2    C412623   4.217   2.618  14.028  0.1053  0.6768 -0.0253
  856MPD2    C512624   4.211   2.494  14.089  0.4561  0.6368 -0.0834
  856MPD2     H12625   4.502   2.728  14.161 -0.8385 -0.0705  1.0916
  856MPD2    H112626   4.151   2.652  13.949  0.0990  0.4935 -0.0984
  856MPD2    H212627   4.296   2.351  14.211  0.8741 -0.3569 -2.5848
  856MPD2    H312628   4.133   2.426  14.058  0.5617 -0.9751  3.1565
  856MPD2     N12629   4.319   2.846  14.029  0.5524  0.0783 -0.0031
  856MPD2    H512630   4.232   2.877  13.988  0.9276  0.0715 -0.8020
  856MPD2    N112631   4.526   2.504  14.283 -0.2668  0.5658 -0.6204
  856MPD2    H712632   4.599   2.574  14.272 -0.5954  1.1892  1.3057
  857MPD2     C12633   1.084   0.032  12.942 -0.5440 -0.2620 -0.1861
  857MPD2    C112634   1.199   0.022  13.011  0.5662  0.6278  0.2611
  857MPD2    C212635   1.265   0.140  13.047  0.3236 -0.0051  0.5007
  857MPD2    C312636   1.209   0.269  13.021  0.4730 -0.1223 -0.6917
  857MPD2    C412637   1.092   0.277  12.960 -0.3389 -0.1278  0.0479
  857MPD2    C512638   1.035   0.157  12.917  0.9875  0.3111  0.0762
  857MPD2     H12639   1.359   0.131  13.099 -0.2243 -1.2731  1.2763
  857MPD2    H112640   1.039   0.369  12.940 -2.4498 -1.4265 -0.3642
  857MPD2    H212641   1.047   4.682  12.888 -4.5182  1.8570 -0.8718
  857MPD2    H312642   0.958   0.159  12.840 -2.9200  0.7658  3.9660
  857MPD2     N12643   1.285   0.382  13.060 -0.7553  0.0123 -0.3688
  857MPD2    H512644   1.346   0.361  13.138 -1.9288 -2.2590 -0.0578
  857MPD2    N112645   1.257   4.632  13.021  0.8044 -0.8694 -0.0383
  857MPD2    H712646   1.199   4.554  12.990  1.3152  0.1980 -3.6759
  858MPD2     C12647   2.173   4.217  16.664  0.0755 -1.2378 -0.3286
  858MPD2    C112648   2.259   4.126  16.725 -0.3848 -0.0914  0.1064
  858MPD2    C212649   2.326   4.162  16.838  0.1897  0.0429 -0.0238
  858MPD2    C312650   2.308   4.287  16.897 -0.3481  0.4292 -0.2536
  858MPD2    C412651   2.211   4.361  16.845  0.6196 -0.2150 -0.6590
  858MPD2    C512652   2.157   4.340  16.723 -0.1222 -0.8125  0.0193
  858MPD2     H12653   2.408   4.105  16.879  0.4261  0.3449 -0.0730
  858MPD2    H112654   2.177   4.451  16.895  0.4628 -0.1020 -0.9659
  858MPD2    H212655   2.128   4.187  16.570 -1.0115 -0.7993  0.0542
  858MPD2    H312656   2.080   4.406  16.683  1.2496  0.7332 -0.0406
  858MPD2     N12657   2.371   4.335  17.013  0.5317 -0.6910  0.2576
  858MPD2    H512658   2.331   4.416  17.059  1.6450 -0.1551  0.3017
  858MPD2    N112659   2.281   3.999  16.667 -0.4333  0.3001  0.7942
  858MPD2    H712660   2.248   3.981  16.572  2.7511  1.6522 -0.5731
  859MPD2     C12661   0.737   0.852  15.269  0.1228 -0.6720 -0.3870
  859MPD2    C112662   0.839   0.857  15.181  0.0807  0.7234 -0.7112
  859MPD2    C212663   0.914   0.740  15.160 -0.0603  0.2307 -0.5269
  859MPD2    C312664   0.890   0.627  15.231 -0.2639 -0.2856  0.9580
  859MPD2    C412665   0.780   0.617  15.304  0.3168  0.2160  0.7977
  859MPD2    C512666   0.708   0.728  15.332 -0.2632 -0.3805 -0.2816
  859MPD2     H12667   0.992   0.742  15.084  1.0852  0.3544  0.6499
  859MPD2    H112668   0.744   0.517  15.328  0.1325  0.1706  0.3397
  859MPD2    H212669   0.691   0.942  15.307  0.4556 -0.4428 -0.5342
  859MPD2    H312670   0.616   0.727  15.389 -0.0344 -0.7855  0.0773
  859MPD2     N12671   0.967   0.506  15.218  0.1474 -0.3629 -0.2880
  859MPD2    H512672   0.926   0.422  15.257 -3.5956  1.8359  0.5227
  859MPD2    N112673   0.880   0.978  15.119 -0.1768  0.0784  0.2627
  859MPD2    H712674   0.816   1.055  15.135 -0.3706 -0.4465  2.0512
  860MPD2     C12675   3.422   1.520  11.440 -0.0301 -0.2508  0.9788
  860MPD2    C112676   3.405   1.592  11.554  0.6232  0.2144 -0.0866
  860MPD2    C212677   3.278   1.601  11.612 -0.0636  0.3107 -0.6145
  860MPD2    C312678   3.172   1.530  11.564 -0.3922 -0.3973  0.1065
  860MPD2    C412679   3.190   1.472  11.441  0.4233  0.6581  0.0840
  860MPD2    C512680   3.318   1.450  11.393 -0.4268 -0.5681 -0.4635
  860MPD2     H12681   3.263   1.641  11.712  1.8361 -1.9950  0.5760
  860MPD2    H112682   3.116   1.405  11.399  1.2432  0.0814 -0.4257
  860MPD2    H212683   3.518   1.506  11.392 -0.7878  1.6245 -1.0891
  860MPD2    H312684   3.337   1.384  11.309 -0.5830  0.3056 -1.1776
  860MPD2     N12685   3.053   1.541  11.636  0.6297 -0.3533 -0.3753
  860MPD2    H512686   3.061   1.591  11.724 -3.8875  1.7773 -1.1478
  860MPD2    N112687   3.502   1.643  11.638  0.4222 -0.8121  0.0954
  860MPD2    H712688   3.464   1.704  11.710  1.1874 -0.4603  0.2020
  861MPD2     C12689   1.726   4.164  11.421  0.4371  0.0435  0.2513
  861MPD2    C112690   1.789   4.274  11.359  0.0318 -0.3088  0.1412
  861MPD2    C212691   1.746   4.296  11.228 -0.3798  0.4219  0.0124
  861MPD2    C312692   1.647   4.210  11.169  0.5061  0.1201  0.5806
  861MPD2    C412693   1.613   4.090  11.225  0.2915 -0.3899 -0.1988
  861MPD2    C512694   1.651   4.075  11.353  0.6137  0.0942  0.3394
  861MPD2     H12695   1.785   4.387  11.183 -0.1194 -0.3900 -1.4144
  861MPD2    H112696   1.541   4.024  11.179 -0.4011  1.6246 -2.0314
  861MPD2    H212697   1.739   4.139  11.525 -0.8636 -0.3965  0.3064
  861MPD2    H312698   1.614   3.991  11.411  0.3437 -0.0426 -0.0294
  861MPD2     N12699   1.592   4.223  11.041  0.4308  0.3936  0.2810
  861MPD2    H512700   1.530   4.146  11.022 -0.9505  2.0002 -1.6199
  861MPD2    N112701   1.891   4.354  11.413 -0.4129  0.5619  0.6436
  861MPD2    H712702   1.930   4.426  11.353 -0.3829 -1.1560 -1.4011
  862MPD2     C12703   1.042   4.035  10.565  0.3258  0.9117 -0.5393
  862MPD2    C112704   1.140   3.997  10.654 -0.2097  0.4532  0.3436
  862MPD2    C212705   1.152   3.861  10.689  0.0530 -0.1357 -0.2328
  862MPD2    C312706   1.065   3.771  10.631  0.1947 -0.7081 -0.2106
  862MPD2    C412707   0.981   3.816  10.530  0.2342  0.6013  0.6873
  862MPD2    C512708   0.957   3.946  10.511  0.6235  0.1314 -0.0404
  862MPD2     H12709   1.235   3.838  10.755  1.6597  0.8926 -1.8846
  862MPD2    H112710   0.925   3.746  10.469 -0.4839  1.4378  0.3958
  862MPD2    H212711   1.036   4.137  10.529 -0.6966  0.9895 -0.1590
  862MPD2    H312712   0.888   3.975  10.433 -2.0442  0.0327  2.2895
  862MPD2     N12713   1.051   3.626  10.659  0.3114  0.2061  0.5015
  862MPD2    H512714   0.998   3.565  10.597 -0.3369  1.4334 -0.1430
  862MPD2    N112715   1.236   4.084  10.711 -0.2727 -0.1816 -0.1564
  862MPD2    H712716   1.299   4.052  10.784  0.5237 -0.4843 -0.9853
  863MPD2     C12717   0.691   3.166  16.934 -0.1963  0.1214  0.2712
  863MPD2    C112718   0.793   3.253  16.898  0.0112  0.5826 -0.6478
  863MPD2    C212719   0.917   3.236  16.955 -0.2677  0.1936  0.0953
  863MPD2    C312720   0.943   3.125  17.037  0.4041 -0.5799  0.2520
  863MPD2    C412721   0.843   3.036  17.063 -0.2619  0.2139 -0.4267
  863MPD2    C512722   0.713   3.057  17.017 -0.3822 -0.9925  0.2049
  863MPD2     H12723   0.996   3.310  16.948 -1.0360  0.9127 -1.0903
  863MPD2    H112724   0.862   2.950  17.127  1.4206  1.0355  0.1706
  863MPD2    H212725   0.591   3.169  16.892 -0.6233  1.1412  1.3913
  863MPD2    H312726   0.643   2.976  17.032 -1.1551 -0.3289  0.1719
  863MPD2     N12727   1.071   3.101  17.085 -0.2083  0.0930  0.4371
  863MPD2    H512728   1.087   3.023  17.148 -0.5228 -1.1332 -1.0206
  863MPD2    N112729   0.755   3.361  16.809  0.6439 -0.0026  0.1625
  863MPD2    H712730   0.656   3.363  16.783  0.6112  1.2240  0.4282
  864MPD2     C12731   1.623   4.101  17.390 -0.5133 -0.2058 -0.2468
  864MPD2    C112732   1.628   4.063  17.258 -0.2496  0.0180 -0.4611
  864MPD2    C212733   1.646   4.160  17.154  0.0225  0.7411 -0.3113
  864MPD2    C312734   1.652   4.292  17.182  0.3568 -0.3105  0.2138
  864MPD2    C412735   1.650   4.329  17.314 -0.1146  0.0939 -0.5768
  864MPD2    C512736   1.628   4.235  17.415 -0.5479 -0.4395 -0.2379
  864MPD2     H12737   1.648   4.124  17.051 -1.6913 -4.6921  1.5550
  864MPD2    H112738   1.656   4.433  17.343 -3.2912 -0.1831  1.1905
  864MPD2    H212739   1.619   4.033  17.475  1.4456 -0.7654 -0.5966
  864MPD2    H312740   1.610   4.272  17.515 -1.8365 -1.4765 -0.0755
  864MPD2     N12741   1.662   4.392  17.081  0.3283 -0.0776 -0.6317
  864MPD2    H512742   1.657   4.488  17.115 -1.1011 -0.1368 -0.6592
  864MPD2    N112743   1.602   3.921  17.231 -0.7658  0.9317 -0.0668
  864MPD2    H712744   1.591   3.863  17.314 -1.4822  1.7454  0.4048
  865MPD2     C12745   1.209   4.428  16.691 -0.3298 -0.2873  0.0246
  865MPD2    C112746   1.310   4.469  16.616 -0.1380  0.2727  0.5318
  865MPD2    C212747   1.374   4.583  16.662 -0.5875  0.0210  0.6069
  865MPD2    C312748   1.328   4.652  16.774  0.7094 -0.7133  0.0971
  865MPD2    C412749   1.219   4.617  16.846  1.1654 -0.0126 -0.2915
  865MPD2    C512750   1.158   4.499  16.798 -0.1686  0.1748 -0.0457
  865MPD2     H12751   1.451   4.625  16.599  0.4152 -0.4057  1.5601
  865MPD2    H112752   1.172   4.674  16.926  0.1446  1.0362 -1.6484
  865MPD2    H212753   1.169   4.331  16.664 -1.5100  0.0164  0.6730
  865MPD2    H312754   1.062   4.465  16.835  1.1343 -1.1590  2.1193
  865MPD2     N12755   1.396   0.035  16.830  0.6778 -0.2701 -0.3194
  865MPD2    H512756   1.339   0.092  16.892 -1.0554 -2.8366  0.4283
  865MPD2    N112757   1.339   4.397  16.496  1.0361 -0.4462  0.5078
  865MPD2    H712758   1.285   4.314  16.474  2.7800 -1.7231  1.0474
  866MPD2     C12759   2.412   0.342  11.238  0.5938  0.1443  0.7673
  866MPD2    C112760   2.382   0.211  11.267 -0.1299  0.4981  1.0372
  866MPD2    C212761   2.251   0.163  11.252  0.2173  0.2600 -0.0041
  866MPD2    C312762   2.156   0.248  11.211 -0.2958  0.0597 -0.3522
  866MPD2    C412763   2.185   0.376  11.180  0.0426 -0.5399 -0.0987
  866MPD2    C512764   2.307   0.424  11.211  0.5293 -0.3961  0.6365
  866MPD2     H12765   2.227   0.057  11.261  1.7432 -0.0732  0.0789
  866MPD2    H112766   2.108   0.441  11.140  0.5243  0.2365  0.2526
  866MPD2    H212767   2.511   0.381  11.256  0.2884  0.8165  0.9978
  866MPD2    H312768   2.314   0.532  11.199 -0.3111 -0.3054  0.9727
  866MPD2     N12769   2.022   0.209  11.184  0.2517  0.0874  0.3598
  866MPD2    H512770   1.951   0.272  11.147  2.0236  0.8394 -1.7982
  866MPD2    N112771   2.492   0.134  11.302  0.4957  0.7000 -0.2333
  866MPD2    H712772   2.571   0.197  11.311  2.1496 -1.6982  2.1357
  867MPD2     C12773   0.102   4.677  16.906 -0.1508  0.8908 -0.9471
  867MPD2    C112774   0.222   4.612  16.917 -0.1624  1.1276 -0.1240
  867MPD2    C212775   0.335   4.690  16.955  0.2600  0.3014 -0.0734
  867MPD2    C312776   0.322   0.087  16.981 -0.0780 -0.0202 -0.4308
  867MPD2    C412777   0.197   0.142  16.985 -0.0310  0.3782 -0.6459
  867MPD2    C512778   0.096   0.067  16.943 -0.1930 -0.3681  0.2581
  867MPD2     H12779   0.436   4.650  16.957 -0.2532 -0.9786  0.2548
  867MPD2    H112780   0.179   0.243  17.022 -0.1440 -0.0139  0.3646
  867MPD2    H212781   0.009   4.629  16.876 -0.4687  0.4519  0.7694
  867MPD2    H312782   4.737   0.114  16.930 -0.7233 -1.4040  0.4032
  867MPD2     N12783   0.429   0.187  17.013  0.1042 -1.1568 -0.6728
  867MPD2    H512784   0.397   0.282  17.029  1.4249 -0.9556  0.7394
  867MPD2    N112785   0.216   4.481  16.886 -0.1361 -0.1834 -0.3915
  867MPD2    H712786   0.126   4.440  16.865 -0.2058  0.2385 -0.9033
  868MPD2     C12787   1.999   3.459  13.352  0.3269 -0.3376 -0.6604
  868MPD2    C112788   2.032   3.327  13.376  0.3934 -0.3877 -0.5984
  868MPD2    C212789   1.962   3.254  13.474 -0.2760  0.1539  0.4581
  868MPD2    C312790   1.868   3.314  13.553 -0.5323  0.0120  0.0121
  868MPD2    C412791   1.845   3.452  13.538 -0.0034 -0.8037 -0.4973
  868MPD2    C512792   1.904   3.518  13.433  0.0717 -0.3595 -0.2112
  868MPD2     H12793   1.989   3.150  13.493 -1.2805 -0.3194 -0.7244
  868MPD2    H112794   1.767   3.509  13.587 -0.5959 -1.7846 -0.2950
  868MPD2    H212795   2.042   3.523  13.275  0.9119  1.7544  1.4047
  868MPD2    H312796   1.878   3.623  13.420 -0.0223 -0.6092 -2.1195
  868MPD2     N12797   1.808   3.232  13.655 -0.1844 -0.3371 -0.4290
  868MPD2    H512798   1.832   3.133  13.652 -2.6716 -0.9045 -1.4865
  868MPD2    N112799   2.147   3.285  13.308  0.9586 -0.1412 -0.2507
  868MPD2    H712800   2.202   3.355  13.257 -0.5034  2.1009  1.2611
  869MPD2     C12801   3.260   1.076   0.292  0.1268 -0.5642  0.2187
  869MPD2    C112802   3.167   1.106   0.388  0.7247  0.1691 -0.5193
  869MPD2    C212803   3.188   1.212   0.474  0.5139  0.5799 -0.1440
  869MPD2    C312804   3.316   1.276   0.474  1.2730  0.2180 -1.0144
  869MPD2    C412805   3.400   1.249   0.373  0.4805 -0.4201  0.2175
  869MPD2    C512806   3.377   1.149   0.292 -0.2655 -0.5861 -0.3374
  869MPD2     H12807   3.120   1.246   0.552  1.3848 -1.4356  1.5107
  869MPD2    H112808   3.483   1.316   0.355 -0.9650  1.2210 -0.2642
  869MPD2    H212809   3.236   1.002   0.217  1.2077 -1.3126  0.6250
  869MPD2    H312810   3.450   1.134   0.214  2.9815 -1.6663  2.9350
  869MPD2     N12811   3.360   1.380   0.548  0.1288 -0.2644  0.7013
  869MPD2    H512812   3.449   1.421   0.519 -0.3245  0.6293  0.5755
  869MPD2    N112813   3.047   1.037   0.400  0.1352 -0.6302 -0.8611
  869MPD2    H712814   3.029   0.977   0.320  0.3918  0.6455 -1.8774
  870MPD2     C12815   2.832   0.907   1.412 -0.0144 -0.0894 -0.5915
  870MPD2    C112816   2.858   0.849   1.291 -0.4532  0.5520  0.1119
  870MPD2    C212817   2.756   0.844   1.193  0.3632  0.3726 -0.3718
  870MPD2    C312818   2.632   0.888   1.223  0.0349 -0.0385 -0.0293
  870MPD2    C412819   2.603   0.943   1.347  0.0359 -0.3841  0.5527
  870MPD2    C512820   2.711   0.955   1.437  0.4633 -0.3971 -0.0658
  870MPD2     H12821   2.775   0.804   1.094 -0.3980  0.6171 -0.6118
  870MPD2    H112822   2.509   0.985   1.380 -2.0542 -2.0413 -3.2734
  870MPD2    H212823   2.908   0.926   1.488 -1.5025 -2.5918  1.5429
  870MPD2    H312824   2.692   0.999   1.534  0.8942  4.2683 -2.0626
  870MPD2     N12825   2.529   0.874   1.134  0.6967 -0.4304 -0.5044
  870MPD2    H512826   2.551   0.832   1.045 -1.3003 -3.0083  0.2058
  870MPD2    N112827   2.989   0.802   1.269  0.2196  0.3579  0.3322
  870MPD2    H712828   3.062   0.815   1.338  0.4087  4.2502 -0.6043
  871MPD2     C12829   3.145   4.296  16.842  0.1584 -0.3102  0.4945
  871MPD2    C112830   3.274   4.328  16.886 -0.1622 -0.2365 -0.0080
  871MPD2    C212831   3.378   4.247  16.853 -0.5391  0.3138 -0.1551
  871MPD2    C312832   3.356   4.132  16.790 -0.4337 -0.0070 -0.1290
  871MPD2    C412833   3.224   4.091  16.767 -0.2015 -0.3993 -0.1864
  871MPD2    C512834   3.118   4.178  16.781 -0.8237 -0.5532  0.1696
  871MPD2     H12835   3.481   4.273  16.875  0.3569 -1.2801 -2.5338
  871MPD2    H112836   3.195   3.995  16.725 -0.6312  0.2272 -1.3386
  871MPD2    H212837   3.067   4.369  16.860  0.7089  0.7029 -1.2611
  871MPD2    H312838   3.026   4.138  16.741 -0.4340 -0.2442 -1.0635
  871MPD2     N12839   3.459   4.044  16.755 -0.4412  0.3426  0.1173
  871MPD2    H512840   3.430   3.953  16.721 -0.5503  0.8738 -1.2313
  871MPD2    N112841   3.285   4.448  16.956 -0.4898 -0.0579  0.0099
  871MPD2    H712842   3.198   4.500  16.964 -0.7092  0.1014 -3.2224
  872MPD2     C12843   4.665   1.526  13.966 -0.4723  0.4408 -0.2354
  872MPD2    C112844   4.631   1.662  13.960 -0.3634  0.1316  0.4778
  872MPD2    C212845   4.507   1.702  14.004  0.2304 -0.1247 -0.0921
  872MPD2    C312846   4.411   1.611  14.031  0.0511 -0.4610  1.0182
  872MPD2    C412847   4.443   1.478  14.033 -0.2138 -0.0942 -0.5491
  872MPD2    C512848   4.570   1.438  14.009  0.3496 -0.7894 -0.3640
  872MPD2     H12849   4.482   1.808  14.009 -1.3845 -0.5092 -0.1246
  872MPD2    H112850   4.369   1.414  14.082 -1.1049 -0.6501 -2.6333
  872MPD2    H212851   0.025   1.487  13.939 -0.0862  0.2579  1.4409
  872MPD2    H312852   4.591   1.332  14.017 -0.2337 -0.8904 -0.1484
  872MPD2     N12853   4.277   1.640  14.074  0.3069 -0.3578 -0.5772
  872MPD2    H512854   4.221   1.555  14.067 -0.9140  0.4180 -0.1440
  872MPD2    N112855   4.730   1.763  13.937  0.1247  0.2974  0.3073
  872MPD2    H712856   4.699   1.859  13.922 -0.7159 -0.4345 -2.5867
  873MPD2     C12857   1.285   2.361   1.050  0.4068  0.9326 -0.0530
  873MPD2    C112858   1.410   2.302   1.085  0.2966  0.3383 -0.8749
  873MPD2    C212859   1.475   2.219   0.991  0.5625  0.1692  0.1601
  873MPD2    C312860   1.408   2.192   0.877 -0.4839 -0.0225 -0.3513
  873MPD2    C412861   1.287   2.257   0.839 -0.4411  0.9394  0.0343
  873MPD2    C512862   1.225   2.335   0.928  0.5045 -0.1043  0.1840
  873MPD2     H12863   1.575   2.178   1.002 -0.3583 -2.1468 -0.1300
  873MPD2    H112864   1.253   2.262   0.737  0.6136 -1.3644 -0.4397
  873MPD2    H212865   1.244   2.426   1.127 -0.9032  0.0821 -0.0249
  873MPD2    H312866   1.139   2.391   0.893 -0.8027 -2.4610 -0.4371
  873MPD2     N12867   1.460   2.111   0.775  0.1060 -0.1581 -0.2144
  873MPD2    H512868   1.416   2.112   0.683 -0.6044  2.5265  0.1412
  873MPD2    N112869   1.470   2.357   1.199 -0.1372 -0.5036 -0.4477
  873MPD2    H712870   1.413   2.419   1.255  1.4377 -0.5546  1.2455
  874MPD2     C12871   1.473   2.040  16.140 -0.6686 -0.8174 -0.9810
  874MPD2    C112872   1.500   2.109  16.256 -0.3602  0.7058  1.0509
  874MPD2    C212873   1.599   2.205  16.265  0.3128 -0.8030  0.1953
  874MPD2    C312874   1.682   2.223  16.159 -0.0956  0.8262 -0.0212
  874MPD2    C412875   1.657   2.159  16.043  0.9788  0.5757  0.4629
  874MPD2    C512876   1.554   2.072  16.039 -0.2331 -0.2171  0.4215
  874MPD2     H12877   1.629   2.243  16.362  0.7903 -1.0182  0.1329
  874MPD2    H112878   1.720   2.172  15.956  1.2285 -0.4027  0.4973
  874MPD2    H212879   1.394   1.967  16.134  0.5614 -2.0503 -2.0387
  874MPD2    H312880   1.547   2.022  15.943 -0.9988  1.3731 -0.3613
  874MPD2     N12881   1.808   2.277  16.172  0.2336  0.3610 -0.2907
  874MPD2    H512882   1.862   2.282  16.085  0.6206 -2.3244 -0.2020
  874MPD2    N112883   1.432   2.054  16.370  0.0791 -0.0435  0.7620
  874MPD2    H712884   1.380   1.972  16.343  2.0914 -1.0751 -0.0166
  875MPD2     C12885   1.889   0.151  14.595 -0.3376  0.1394  0.2030
  875MPD2    C112886   1.905   0.245  14.488 -0.8363 -0.6761 -0.9825
  875MPD2    C212887   1.923   0.372  14.525 -0.4444 -0.6618  0.2100
  875MPD2    C312888   1.937   0.404  14.658 -0.4051  0.1876  0.2779
  875MPD2    C412889   1.923   0.316  14.757  0.0816 -0.5444  0.5972
  875MPD2    C512890   1.906   0.191  14.721  0.4808  0.2997  0.4232
  875MPD2     H12891   1.938   0.442  14.444 -1.8345 -0.3645  0.2123
  875MPD2    H112892   1.937   0.341  14.862  1.2042  0.8436  0.1247
  875MPD2    H212893   1.848   0.052  14.582  0.8691 -0.0763 -1.9667
  875MPD2    H312894   1.886   0.115  14.795 -1.6507 -0.3300 -0.8049
  875MPD2     N12895   1.963   0.537  14.704  0.1129 -0.0747 -0.0562
  875MPD2    H512896   1.984   0.533  14.803  0.6312 -2.9744 -0.2613
  875MPD2    N112897   1.869   0.223  14.353  0.1096 -0.6351 -0.2571
  875MPD2    H712898   1.863   0.307  14.295 -1.3232 -1.4191 -1.2696
  876MPD2     C12899   1.248   1.669  15.897 -0.6747 -0.2742 -0.8331
  876MPD2    C112900   1.372   1.664  15.833 -0.4430  0.2903  0.2387
  876MPD2    C212901   1.474   1.579  15.880  0.3761 -0.0554 -0.1065
  876MPD2    C312902   1.464   1.512  16.007  0.0842 -0.2812  0.3254
  876MPD2    C412903   1.339   1.524  16.074  0.8454 -0.0197  0.0641
  876MPD2    C512904   1.240   1.595  16.015 -0.6339  0.0030 -0.1487
  876MPD2     H12905   1.570   1.581  15.829  0.4280 -1.5072 -0.0546
  876MPD2    H112906   1.314   1.490  16.174  0.2869  1.5627  0.4703
  876MPD2    H212907   1.161   1.725  15.866  0.4820  1.1682 -1.4408
  876MPD2    H312908   1.155   1.602  16.083 -1.6889 -0.2227 -1.4391
  876MPD2     N12909   1.559   1.433  16.069 -0.0210  0.4152 -0.1814
  876MPD2    H512910   1.644   1.415  16.016  1.1932  2.1099  1.2061
  876MPD2    N112911   1.384   1.732  15.704 -0.3698 -0.5687  0.2214
  876MPD2    H712912   1.297   1.773  15.671  0.2016  0.7136  0.2742
  877MPD2     C12913   1.047   2.206  15.220 -0.6508 -0.0506  0.9075
  877MPD2    C112914   1.181   2.221  15.194  0.5512 -0.2466  0.6177
  877MPD2    C212915   1.227   2.300  15.092  0.0298 -0.4428  0.5522
  877MPD2    C312916   1.133   2.363  15.009  0.3185  0.1565  0.2762
  877MPD2    C412917   1.003   2.355  15.043 -0.3718 -0.1770  0.6111
  877MPD2    C512918   0.961   2.276  15.140  0.5412 -0.3221  0.2567
  877MPD2     H12919   1.331   2.306  15.062  0.2285 -1.8404  0.9612
  877MPD2    H112920   0.923   2.407  14.991  0.9001  0.9325 -0.2463
  877MPD2    H212921   1.007   2.143  15.299 -1.8937  0.9071  1.0389
  877MPD2    H312922   0.856   2.267  15.165  0.8018 -2.6345  0.5395
  877MPD2     N12923   1.160   2.439  14.895  0.1790 -0.7001  0.1519
  877MPD2    H512924   1.078   2.446  14.834  0.8190 -0.2010 -0.6516
  877MPD2    N112925   1.282   2.145  15.253  0.1327  0.1185 -0.0206
  877MPD2    H712926   1.379   2.159  15.227  0.2836  0.3292  0.6396
  878MPD2     C12927   1.224   0.979  12.901 -0.1057  0.2981 -0.7525
  878MPD2    C112928   1.244   1.084  12.816 -0.1173  0.4723 -0.5999
  878MPD2    C212929   1.266   1.215  12.869  0.9843 -0.1514 -0.7205
  878MPD2    C312930   1.243   1.232  13.004 -0.0079 -0.1108  0.0352
  878MPD2    C412931   1.221   1.127  13.086 -0.1645 -0.3452  0.2546
  878MPD2    C512932   1.210   0.996  13.037 -0.4246  0.0777 -0.1097
  878MPD2     H12933   1.263   1.300  12.802  0.0043 -0.6177 -1.2663
  878MPD2    H112934   1.189   1.136  13.189  1.5656  0.9845  0.6625
  878MPD2    H212935   1.210   0.877  12.868  2.6253 -0.3211 -0.0099
  878MPD2    H312936   1.178   0.917  13.104  2.1900 -1.6500 -0.9003
  878MPD2     N12937   1.245   1.373  13.046  0.2543 -0.4655 -0.0358
  878MPD2    H512938   1.295   1.441  12.989  0.6357 -1.1533 -0.5264
  878MPD2    N112939   1.204   1.050  12.681  0.2037 -0.2554 -0.7194
  878MPD2    H712940   1.181   0.953  12.659  0.0239  0.0345 -1.7950
  879MPD2     C12941   1.900   2.847  16.546 -0.0133  0.0435 -0.8323
  879MPD2    C112942   1.867   2.786  16.668  0.2993  0.0537  0.1549
  879MPD2    C212943   1.758   2.706  16.685 -0.0734  0.6724 -0.4296
  879MPD2    C312944   1.686   2.673  16.576 -0.3257  0.0315  0.9409
  879MPD2    C412945   1.720   2.732  16.460 -0.4048 -0.2805  0.7833
  879MPD2    C512946   1.823   2.819  16.442  0.2775  0.5564  0.0610
  879MPD2     H12947   1.728   2.661  16.779  1.9705 -1.1613 -0.6555
  879MPD2    H112948   1.679   2.702  16.364 -1.2487  1.0359  0.7313
  879MPD2    H212949   1.975   2.925  16.551 -0.1756  0.1530 -0.0525
  879MPD2    H312950   1.845   2.862  16.345 -2.6826 -1.4449 -1.5042
  879MPD2     N12951   1.576   2.583  16.574  0.2394 -0.0373 -0.0690
  879MPD2    H512952   1.528   2.569  16.485  0.2442 -0.9731  0.0742
  879MPD2    N112953   1.952   2.812  16.778  0.0047 -0.0174  0.4270
  879MPD2    H712954   2.032   2.869  16.751 -1.0815  3.1852  3.8794
  880MPD2     C12955   2.838   4.509   0.618  0.2624 -0.3295 -0.4308
  880MPD2    C112956   2.881   4.541   0.495  0.3087 -0.2514  0.0809
  880MPD2    C212957   2.980   4.460   0.437  0.1224 -0.4527  0.3094
  880MPD2    C312958   3.031   4.348   0.500  0.1574  0.3310  0.1505
  880MPD2    C412959   2.980   4.318   0.623 -0.5143  0.2412  0.1216
  880MPD2    C512960   2.874   4.395   0.675  0.2529  0.8359 -0.0405
  880MPD2     H12961   3.009   4.486   0.336  0.9817  1.1563  0.9734
  880MPD2    H112962   3.015   4.232   0.679  2.8766  0.4230 -1.6912
  880MPD2    H212963   2.757   4.564   0.664  0.9616  1.0193 -0.7992
  880MPD2    H312964   2.826   4.357   0.764 -3.3782  1.5566 -1.7088
  880MPD2     N12965   3.129   4.272   0.432 -0.1784 -0.5122 -0.3800
  880MPD2    H512966   3.147   4.293   0.334 -2.3887 -1.5795 -1.0160
  880MPD2    N112967   2.835   4.666   0.431 -0.5367  0.0861  0.1322
  880MPD2    H712968   2.767   4.722   0.480 -4.4925 -3.3039 -1.4517
  881MPD2     C12969   3.105   0.670  17.438  0.2337  0.2093 -0.9067
  881MPD2    C112970   3.019   0.573  17.387  0.4820  0.3091 -0.4808
  881MPD2    C212971   2.968   0.489  17.482 -0.4862 -0.0036  0.1329
  881MPD2    C312972   2.955   0.525  17.619  0.1699  0.1729 -0.0986
  881MPD2    C412973   3.020   0.639  17.660 -0.4435  0.0953 -0.1189
  881MPD2    C512974   3.096   0.713  17.571 -0.4801 -0.5427  0.0349
  881MPD2     H12975   2.914   0.402  17.447  0.2735 -0.2058 -0.5395
  881MPD2    H112976   3.006   0.687   0.008 -2.4599 -1.3208  0.2949
  881MPD2    H212977   3.161   0.731  17.367 -0.5130  1.2072 -0.6266
  881MPD2    H312978   3.144   0.801  17.610  0.7308 -1.3397  0.3464
  881MPD2     N12979   2.884   0.458  17.722  0.4025 -0.8434  0.2551
  881MPD2    H512980   2.867   0.513   0.058 -1.0607 -1.0987  0.1256
  881MPD2    N112981   3.019   0.541  17.249 -0.0883  0.0354  0.3850
  881MPD2    H712982   3.077   0.605  17.195 -0.8088 -1.2687 -1.9382
  882MPD2     C12983   0.831   2.466  14.262 -0.8301 -0.3390  0.1323
  882MPD2    C112984   0.889   2.395  14.371  0.0164  0.4019 -0.2747
  882MPD2    C212985   0.831   2.277  14.402 -0.3557 -0.6716 -0.3922
  882MPD2    C312986   0.714   2.227  14.335  0.2111 -0.0073  0.4639
  882MPD2    C412987   0.668   2.289  14.219 -0.6218 -0.1829 -0.0296
  882MPD2    C512988   0.725   2.409  14.194  1.3494  0.0172  0.1810
  882MPD2     H12989   0.883   2.239  14.489 -1.0968 -0.0522  0.3240
  882MPD2    H112990   0.581   2.253  14.165 -0.4121 -2.2426  1.0313
  882MPD2    H212991   0.882   2.557  14.231 -1.0171 -0.5549 -0.7891
  882MPD2    H312992   0.680   2.467  14.114  1.0720  1.0982  1.1172
  882MPD2     N12993   0.645   2.111  14.383 -0.3597  0.3753 -0.4995
  882MPD2    H512994   0.557   2.090  14.338 -2.2745  1.7103  2.5763
  882MPD2    N112995   1.010   2.430  14.437  0.1396 -0.4285  0.2677
  882MPD2    H712996   1.042   2.365  14.507 -2.2283 -0.6307  1.1404
  883MPD2     C12997   3.622   2.072  16.526  0.3088  0.1885 -0.4632
  883MPD2    C112998   3.661   2.116  16.410  0.2420 -0.2047  0.5703
  883MPD2    C212999   3.802   2.128  16.383  0.4404  0.0091  0.8486
  883MPD2    C313000   3.898   2.099  16.478  0.0685 -0.3343  0.5240
  883MPD2    C413001   3.851   2.064  16.607 -0.0078 -0.0449 -0.0144
  883MPD2    C513002   3.713   2.050  16.620 -0.0076 -0.4832 -0.6672
  883MPD2     H13003   3.827   2.152  16.281 -1.4143 -2.5831 -0.2198
  883MPD2    H113004   3.915   2.028  16.687 -0.2591 -1.8890 -0.6551
  883MPD2    H213005   3.519   2.060  16.555 -0.1849  2.1081 -1.4634
  883MPD2    H313006   3.673   2.034  16.719 -0.0136  0.8607 -0.4528
  883MPD2     N13007   4.030   2.114  16.445 -0.2904 -0.3377  0.2911
  883MPD2    H513008   4.057   2.125  16.348 -0.6618 -2.2896 -0.0273
  883MPD2    N113009   3.565   2.126  16.304 -0.3122  0.5284 -0.9647
  883MPD2    H713010   3.603   2.155  16.214  0.5919 -0.2293 -0.8253
  884MPD2     C13011   0.540   2.772  15.367 -0.4153 -0.0898  0.5802
  884MPD2    C113012   0.448   2.838  15.285 -0.6907  0.8610 -0.4224
  884MPD2    C213013   0.315   2.810  15.316  0.6162 -0.3565  0.1096
  884MPD2    C313014   0.277   2.725  15.421 -0.4691  0.0367 -0.7507
  884MPD2    C413015   0.382   2.670  15.496 -0.2798  0.3309  0.1645
  884MPD2    C513016   0.508   2.693  15.474 -0.3618 -0.7222  0.3679
  884MPD2     H13017   0.241   2.871  15.265  0.1531 -0.5178  0.5890
  884MPD2    H113018   0.360   2.609  15.583  0.8338  1.8805  1.5399
  884MPD2    H213019   0.645   2.793  15.351 -0.4505  1.1150  1.9881
  884MPD2    H313020   0.589   2.661  15.539  0.5391  3.3169  1.2638
  884MPD2     N13021   0.141   2.716  15.452 -0.2806  0.3424  0.2075
  884MPD2    H513022   0.084   2.734  15.370  0.2462  0.3379 -0.1603
  884MPD2    N113023   0.477   2.916  15.172 -0.2081  0.1551  0.2673
  884MPD2    H713024   0.395   2.960  15.131 -1.3809 -1.4136  0.9280
  885MPD2     C13025   3.517   2.927   0.068 -0.5284 -0.0781  0.3164
  885MPD2    C113026   3.594   3.037   0.088  0.2570  0.7409  0.0642
  885MPD2    C213027   3.583   3.139  17.733  0.1241 -0.2642 -0.0303
  885MPD2    C313028   3.509   3.120  17.617  1.0035 -0.1563 -0.4203
  885MPD2    C413029   3.446   3.001  17.605  0.5669 -0.6307 -0.0070
  885MPD2    C513030   3.444   2.912  17.705 -0.4188 -0.6895  0.0100
  885MPD2     H13031   3.646   3.227  17.732  0.4675 -0.5040  0.8892
  885MPD2    H113032   3.383   2.980  17.519 -0.2557  1.9026 -0.0334
  885MPD2    H213033   3.514   2.843   0.137  1.4668  0.8984  1.5864
  885MPD2    H313034   3.394   2.817  17.692 -0.3687 -0.8159  0.7661
  885MPD2     N13035   3.527   3.201  17.508 -0.3583  0.3211  0.0136
  885MPD2    H513036   3.588   3.283  17.509  2.4562 -1.7774 -1.2360
  885MPD2    N113037   3.661   3.054   0.214  0.5894 -0.4540  0.0970
  885MPD2    H713038   3.667   2.979   0.282 -0.6367 -2.1172 -1.6316
  886MPD2     C13039   4.730   1.514  15.924  0.3340 -0.0465  0.1114
  886MPD2    C113040   0.119   1.493  15.873 -0.4997  0.0277 -0.3463
  886MPD2    C213041   0.143   1.533  15.741 -0.1283  0.0329  0.9549
  886MPD2    C313042   0.047   1.601  15.660  0.2778  0.1614 -0.4491
  886MPD2    C413043   4.663   1.622  15.721 -0.7069  0.0304 -0.5931
  886MPD2    C513044   4.634   1.576  15.849  0.2112  0.0843 -0.6515
  886MPD2     H13045   0.234   1.511  15.686 -1.6149  0.5853 -1.6963
  886MPD2    H113046   4.582   1.674  15.670 -1.5686 -0.6036  0.1268
  886MPD2    H213047   4.707   1.503  16.029 -1.2618  0.0190 -0.2366
  886MPD2    H313048   4.539   1.590  15.900  0.4014 -3.4173  0.6925
  886MPD2     N13049   0.080   1.643  15.529 -0.5323 -0.5247 -0.4560
  886MPD2    H513050   0.164   1.607  15.484 -1.7037 -0.4865 -2.6891
  886MPD2    N113051   0.235   1.452  15.942 -0.2626 -0.6179  0.1344
  886MPD2    H713052   0.321   1.434  15.890 -0.3484  0.7450 -0.4824
  887MPD2     C13053   0.822   1.675  16.315 -0.4807 -0.0595 -0.0431
  887MPD2    C113054   0.787   1.656  16.182  0.2455  0.7783  0.1176
  887MPD2    C213055   0.825   1.754  16.095 -1.1205  0.4212 -0.2559
  887MPD2    C313056   0.905   1.863  16.133 -0.5576  0.1233  0.7644
  887MPD2    C413057   0.942   1.875  16.262  0.6453 -0.2733  0.5343
  887MPD2    C513058   0.894   1.787  16.351 -0.9308  0.1457 -1.0131
  887MPD2     H13059   0.798   1.742  15.991  1.7091 -0.7788 -0.8304
  887MPD2    H113060   1.005   1.950  16.307  1.6607 -1.4122  1.0271
  887MPD2    H213061   0.783   1.608  16.391 -2.3100 -0.3558 -1.2362
  887MPD2    H313062   0.914   1.793  16.457 -2.2540 -0.5315 -0.7248
  887MPD2     N13063   0.947   1.946  16.031  0.6774 -0.1766 -0.9965
  887MPD2    H513064   0.902   1.935  15.941 -0.3814  0.2545 -0.5187
  887MPD2    N113065   0.692   1.555  16.148 -0.3452 -0.1973 -0.6843
  887MPD2    H713066   0.637   1.574  16.065 -1.1982  0.9270  0.1402
  888MPD2     C13067   2.198   1.713  14.661 -0.8600  0.0450  0.5099
  888MPD2    C113068   2.195   1.697  14.800 -0.6445  0.0928  0.1853
  888MPD2    C213069   2.247   1.801  14.879  0.0777 -0.2656  0.1267
  888MPD2    C313070   2.313   1.905  14.816 -0.1052  0.4098  0.2700
  888MPD2    C413071   2.311   1.919  14.679  0.8607  0.2330 -0.3406
  888MPD2    C513072   2.259   1.820  14.602 -0.2825  0.0609 -0.2904
  888MPD2     H13073   2.244   1.791  14.987  1.6495  0.0678  0.2052
  888MPD2    H113074   2.363   1.999  14.627  1.6305 -0.1118 -0.1060
  888MPD2    H213075   2.176   1.633  14.591  1.7001 -0.5342  0.3473
  888MPD2    H313076   2.264   1.813  14.494  1.9156 -1.2278 -0.1002
  888MPD2     N13077   2.386   1.986  14.902  0.3045 -0.0542 -0.5634
  888MPD2    H513078   2.374   1.971  15.002 -0.5474 -2.6424 -1.0619
  888MPD2    N113079   2.145   1.580  14.860 -0.2282 -0.6215  0.7324
  888MPD2    H713080   2.156   1.580  14.961 -1.5408  0.9516  0.8804
  889MPD2     C13081   1.613   1.168  12.909  0.0374 -0.2499 -0.0876
  889MPD2    C113082   1.630   1.116  13.037 -0.6595 -0.3222  0.0381
  889MPD2    C213083   1.639   1.205  13.142  0.0263  0.1688 -0.2929
  889MPD2    C313084   1.665   1.339  13.125  0.7163  0.1859  0.5139
  889MPD2    C413085   1.659   1.393  12.998 -0.6394  0.0956 -0.3449
  889MPD2    C513086   1.637   1.306  12.891  0.7064 -0.2061 -0.0676
  889MPD2     H13087   1.673   1.166  13.237 -1.6252 -0.1006  0.1849
  889MPD2    H113088   1.670   1.499  12.978 -0.3564  0.1097 -0.1158
  889MPD2    H213089   1.609   1.103  12.823  3.8338 -1.0109  0.2836
  889MPD2    H313090   1.628   1.348  12.791  2.9741 -1.8758 -0.9789
  889MPD2     N13091   1.695   1.420  13.240  0.0743 -0.1308 -0.3640
  889MPD2    H513092   1.687   1.521  13.227  0.7943 -0.1667 -1.1045
  889MPD2    N113093   1.584   0.989  13.080  0.3158  0.0507  0.3420
  889MPD2    H713094   1.572   0.972  13.179 -2.5135 -0.9107 -0.1884
  890MPD2     C13095   1.051   2.998  14.573 -0.4275  0.2752 -0.7187
  890MPD2    C113096   1.163   3.079  14.585  0.2864 -0.3311 -0.2838
  890MPD2    C213097   1.252   3.046  14.684 -0.1301  0.1819 -0.0128
  890MPD2    C313098   1.227   2.944  14.777 -0.0243 -0.2366  0.5007
  890MPD2    C413099   1.104   2.875  14.771  0.2248 -0.1846 -0.2366
  890MPD2    C513100   1.020   2.902  14.666 -0.0968  0.2845  0.0909
  890MPD2     H13101   1.334   3.114  14.699 -0.3841  0.5285 -0.2038
  890MPD2    H113102   1.087   2.795  14.842  2.2156  2.4986  3.2804
  890MPD2    H213103   0.968   3.034  14.513 -0.4299  1.3480 -0.0835
  890MPD2    H313104   0.920   2.861  14.674 -0.4011  1.1709  0.8859
  890MPD2     N13105   1.334   2.915  14.866  0.4991 -0.3028  0.3248
  890MPD2    H513106   1.419   2.969  14.857  1.3785 -1.5939  0.7212
  890MPD2    N113107   1.173   3.197  14.505  0.3099  0.2792  0.4405
  890MPD2    H713108   1.093   3.219  14.446  1.6062 -0.6001 -1.6413
  891MPD2     C13109   4.451   1.602  16.178 -0.2734 -0.1515  0.3512
  891MPD2    C113110   4.401   1.551  16.295  0.3909  0.5599  0.0576
  891MPD2    C213111   4.452   1.583  16.416  0.7026 -0.2260 -0.2262
  891MPD2    C313112   4.557   1.674  16.431  0.5690 -0.4056  0.3010
  891MPD2    C413113   4.597   1.734  16.312 -0.7769  0.1578 -0.2324
  891MPD2    C513114   4.549   1.698  16.185 -0.3654 -0.0411  0.5015
  891MPD2     H13115   4.434   1.516  16.500 -2.9391 -0.5989 -1.3051
  891MPD2    H113116   4.689   1.792  16.312 -0.9732  0.4709 -0.3522
  891MPD2    H213117   4.410   1.582  16.080  2.1565  1.2332 -0.9430
  891MPD2    H313118   4.595   1.752  16.103 -1.6036  0.3834  0.0859
  891MPD2     N13119   4.623   1.694  16.558 -0.3200 -0.4169  0.2251
  891MPD2    H513120   4.587   1.648  16.641 -2.3663 -0.1742 -0.5324
  891MPD2    N113121   4.283   1.482  16.273  0.7892  0.4871  0.7228
  891MPD2    H713122   4.255   1.466  16.177 -1.0778  0.4611  1.2801
  892MPD2     C13123   0.255   2.023  15.291 -0.1842 -0.2549 -0.1445
  892MPD2    C113124   0.186   2.046  15.175  0.7286  0.1356 -0.0007
  892MPD2    C213125   0.242   2.010  15.056 -0.2882 -0.3489 -0.1883
  892MPD2    C313126   0.372   1.964  15.051 -0.6560 -0.7893  0.6299
  892MPD2    C413127   0.447   1.949  15.166  0.1132  0.2380  0.5836
  892MPD2    C513128   0.385   1.984  15.284 -0.1532 -0.6711  0.1100
  892MPD2     H13129   0.188   2.038  14.966  3.0620  0.2214 -2.0354
  892MPD2    H113130   0.546   1.907  15.159  1.1283  2.4547  1.6050
  892MPD2    H213131   0.219   2.034  15.393  0.2861 -0.9571  0.0992
  892MPD2    H313132   0.435   1.977  15.380  0.7686 -1.6422 -0.4417
  892MPD2     N13133   0.431   1.919  14.931  0.2082 -0.2284  0.1802
  892MPD2    H513134   0.530   1.898  14.930  0.9148  3.1037 -0.6377
  892MPD2    N113135   0.053   2.092  15.169 -0.3305 -0.4405  0.0482
  892MPD2    H713136   0.007   2.108  15.081  1.8283 -1.8922 -1.3451
  893MPD2     C13137   1.952   1.366   1.486  0.6257 -0.3567  0.2741
  893MPD2    C113138   2.058   1.343   1.572 -0.3250  1.0808  0.1549
  893MPD2    C213139   2.050   1.385   1.709  0.1187  0.1840 -0.1243
  893MPD2    C313140   1.937   1.449   1.758  0.2997  0.9604 -0.7407
  893MPD2    C413141   1.826   1.457   1.670 -0.4914 -0.9795 -0.4520
  893MPD2    C513142   1.836   1.423   1.534  0.5988 -0.4912 -0.4953
  893MPD2     H13143   2.139   1.383   1.772 -0.5639  0.3011  0.8465
  893MPD2    H113144   1.731   1.501   1.698 -0.2714  0.0700 -1.3712
  893MPD2    H213145   1.957   1.336   1.382  0.1231  2.2254 -0.4867
  893MPD2    H313146   1.752   1.445   1.469 -0.7017 -0.5184  1.1926
  893MPD2     N13147   1.928   1.503   1.888  0.0991  0.1414 -0.5535
  893MPD2    H513148   1.837   1.542   1.908 -0.9621 -1.9300 -1.3724
  893MPD2    N113149   2.175   1.295   1.511 -0.0602 -0.0669 -0.3234
  893MPD2    H713150   2.170   1.272   1.412 -0.2009 -1.0526 -0.0930
  894MPD2     C13151   0.911   3.306   0.650 -0.1587  0.4104 -0.0513
  894MPD2    C113152   0.908   3.372   0.772  0.4403  0.3111 -0.1358
  894MPD2    C213153   0.980   3.488   0.795  0.1547 -0.7544 -0.2649
  894MPD2    C313154   1.056   3.546   0.693  0.1160  0.3172 -0.0527
  894MPD2    C413155   1.059   3.481   0.572  0.5220 -0.1461 -0.0371
  894MPD2    C513156   0.994   3.364   0.555  0.8198  0.5297 -0.4090
  894MPD2     H13157   0.964   3.541   0.889 -1.7363  0.7788 -1.4463
  894MPD2    H113158   1.124   3.510   0.491  0.0307  0.6638 -0.1354
  894MPD2    H213159   0.850   3.221   0.624  0.5593  0.2304 -1.1793
  894MPD2    H313160   1.007   3.321   0.457 -1.0614 -0.3462 -0.2728
  894MPD2     N13161   1.137   3.664   0.720 -0.3145 -0.3732  0.5366
  894MPD2    H513162   1.123   3.705   0.812  0.2876 -0.7820  0.8123
  894MPD2    N113163   0.810   3.345   0.871 -0.2742 -0.2003 -0.4282
  894MPD2    H713164   0.813   3.401   0.955  0.1331  1.4820 -1.5743
  895MPD2     C13165   3.378   2.106  13.350  0.2145 -0.5404 -0.3216
  895MPD2    C113166   3.348   2.059  13.229  0.1407  0.5099  0.5285
  895MPD2    C213167   3.340   1.924  13.202 -0.1150  0.2834 -0.4870
  895MPD2    C313168   3.388   1.836  13.297  0.1848  0.4546  0.3798
  895MPD2    C413169   3.438   1.887  13.420  0.5652 -0.8413 -1.2594
  895MPD2    C513170   3.439   2.023  13.445  1.5266  0.1725  0.1803
  895MPD2     H13171   3.320   1.906  13.097  2.9888 -0.3150 -0.9506
  895MPD2    H113172   3.493   1.830  13.494 -1.5779  3.8071  3.9335
  895MPD2    H213173   3.381   2.214  13.363  0.6970 -0.7708  1.5712
  895MPD2    H313174   3.487   2.056  13.537 -1.5745  3.2790  0.6626
  895MPD2     N13175   3.378   1.695  13.279  0.3945 -0.4604  0.4652
  895MPD2    H513176   3.438   1.634  13.334 -0.4803 -0.3756  1.5139
  895MPD2    N113177   3.312   2.150  13.124  0.1142 -0.4357  0.4569
  895MPD2    H713178   3.300   2.110  13.032 -0.7941  0.0384  0.3676
  896MPD2     C13179   2.586   4.268   1.596  0.4995 -0.4903  0.6601
  896MPD2    C113180   2.548   4.231   1.469  0.3360  0.6629 -0.3084
  896MPD2    C213181   2.449   4.133   1.450 -0.9214  0.8408 -0.4251
  896MPD2    C313182   2.378   4.093   1.561  0.3144 -0.9338 -0.2555
  896MPD2    C413183   2.418   4.127   1.686 -0.5728 -0.1380  1.4262
  896MPD2    C513184   2.527   4.207   1.701 -0.6531 -0.0748 -0.0918
  896MPD2     H13185   2.405   4.101   1.357  0.2533  1.0031 -1.0368
  896MPD2    H113186   2.365   4.095   1.775 -0.9767  0.9770  1.5796
  896MPD2    H213187   2.656   4.346   1.622  1.5777 -1.3859  0.4580
  896MPD2    H313188   2.567   4.228   1.800 -0.4914 -0.9535  0.0268
  896MPD2     N13189   2.256   4.022   1.542 -0.3626 -0.4954  0.0953
  896MPD2    H513190   2.240   3.978   1.452  1.2467 -1.5132  0.3007
  896MPD2    N113191   2.602   4.306   1.361  0.2444 -1.3689 -0.1750
  896MPD2    H713192   2.650   4.395   1.373 -0.0827 -0.9568 -1.8240
  897MPD2     C13193   2.231   0.604  10.373  0.6007 -0.1368  0.1438
  897MPD2    C113194   2.274   0.734  10.399 -1.2596 -0.0186 -0.6594
  897MPD2    C213195   2.208   0.805  10.500  0.4717 -0.1579  0.0100
  897MPD2    C313196   2.099   0.760  10.567 -0.4712  0.4074  0.6947
  897MPD2    C413197   2.073   0.623  10.545 -0.7639  0.0466  0.7313
  897MPD2    C513198   2.127   0.558  10.441 -0.3123 -0.8104  0.7518
  897MPD2     H13199   2.238   0.909  10.501  1.6305 -0.5052  0.8263
  897MPD2    H113200   1.990   0.580  10.599  0.9367 -0.5065  2.9045
  897MPD2    H213201   2.282   0.540  10.302  1.1130 -1.0480  1.3444
  897MPD2    H313202   2.101   0.453  10.438 -1.8910 -0.3431 -1.6236
  897MPD2     N13203   2.021   0.836  10.662 -0.1275 -0.2706 -1.2243
  897MPD2    H513204   1.953   0.782  10.714  0.6481 -0.3638 -0.3127
  897MPD2    N113205   2.378   0.798  10.323  0.2119  0.1133  0.2362
  897MPD2    H713206   2.397   0.767  10.228 -2.4914  0.9548 -0.5918
  898MPD2     C13207   0.443   1.956  17.197  0.4055  0.3098  0.3772
  898MPD2    C113208   0.563   2.021  17.186 -0.3739 -0.8827 -0.1814
  898MPD2    C213209   0.561   2.144  17.116 -0.9069 -0.3477  0.4666
  898MPD2    C313210   0.444   2.205  17.087  0.2599 -0.0147  0.1580
  898MPD2    C413211   0.328   2.133  17.087  0.2833  0.7308  0.4113
  898MPD2    C513212   0.326   2.005  17.140 -0.3074  0.2510  0.0203
  898MPD2     H13213   0.645   2.212  17.108 -0.1391 -1.2123  1.2774
  898MPD2    H113214   0.235   2.183  17.058 -0.2682  0.2905  1.4286
  898MPD2    H213215   0.425   1.863  17.249  0.8556  0.6103  1.0632
  898MPD2    H313216   0.232   1.950  17.142 -0.6807  0.8639 -0.6209
  898MPD2     N13217   0.454   2.339  17.047 -0.1895 -0.1623 -0.2274
  898MPD2    H513218   0.549   2.367  17.024 -0.7009  1.0307 -0.8991
  898MPD2    N113219   0.694   1.967  17.227  0.5117 -0.2968 -0.3480
  898MPD2    H713220   0.774   2.027  17.206 -0.7729  1.3415 -0.5912
  899MPD2     C13221   1.175   2.627  17.436 -0.1602 -0.4709  0.4337
  899MPD2    C113222   1.224   2.742  17.500 -0.0943  0.4894  0.2896
  899MPD2    C213223   1.202   2.768  17.632 -0.4989  0.4521  0.3278
  899MPD2    C313224   1.122   2.681  17.709 -0.6806 -0.4038 -0.0182
  899MPD2    C413225   1.079   2.564  17.646  0.8463  0.1603 -0.4631
  899MPD2    C513226   1.116   2.533  17.512  0.3501 -0.3609 -0.2628
  899MPD2     H13227   1.244   2.850  17.688  1.8447  0.3941 -1.3613
  899MPD2    H113228   1.042   2.482  17.706 -1.0035  1.9940  0.9219
  899MPD2    H213229   1.195   2.609  17.331 -0.9411 -3.8338  0.8802
  899MPD2    H313230   1.090   2.442  17.458  0.2875  0.9302 -2.3669
  899MPD2     N13231   1.069   2.714   0.089 -0.3611  0.3389  0.3417
  899MPD2    H513232   1.021   2.637   0.134 -0.1443  0.1536  0.2539
  899MPD2    N113233   1.290   2.832  17.414  0.0302 -0.3206  0.5092
  899MPD2    H713234   1.296   2.811  17.315 -1.1881 -1.2449  0.6326
  900MPD2     C13235   4.709   3.443  12.416  0.0257 -0.2576  0.8637
  900MPD2    C113236   0.048   3.465  12.527  0.3437 -0.2216  0.5060
  900MPD2    C213237   0.046   3.587  12.593  0.0468 -0.2466  0.4973
  900MPD2    C313238   4.695   3.690  12.554  0.2404  0.2266 -0.2587
  900MPD2    C413239   4.614   3.661  12.439 -0.8540  0.1604  0.6813
  900MPD2    C513240   4.629   3.544  12.372  0.5861  0.2165  0.3663
  900MPD2     H13241   0.098   3.599  12.687 -1.4097  0.7717  1.1812
  900MPD2    H113242   4.542   3.723  12.387 -1.3843  0.0055  1.2246
  900MPD2    H213243   4.714   3.357  12.350 -0.9208  0.9224 -0.7461
  900MPD2    H313244   4.572   3.532  12.280  1.8492  1.3378 -0.5644
  900MPD2     N13245   4.693   3.804  12.633 -0.0239 -0.0781  0.0990
  900MPD2    H513246   0.023   3.804  12.709 -0.3543 -0.2827  0.3903
  900MPD2    N113247   0.127   3.357  12.569  0.4900  0.7282 -0.7872
  900MPD2    H713248   0.104   3.263  12.539  2.4512 -0.8701  2.7973
  901MPD2     C13249   0.126   2.386  12.895  0.7767 -0.2041  0.2714
  901MPD2    C113250   0.248   2.423  12.840 -0.1888  0.1369  0.1953
  901MPD2    C213251   0.283   2.558  12.816 -0.6353  0.3063 -0.0191
  901MPD2    C313252   0.195   2.660  12.846  0.8199 -0.1419  0.3890
  901MPD2    C413253   0.071   2.622  12.893  0.4774 -0.5444 -0.3139
  901MPD2    C513254   0.039   2.490  12.926 -0.3098  1.1949 -0.1129
  901MPD2     H13255   0.382   2.580  12.778 -0.3677  0.0870  0.5437
  901MPD2    H113256   4.730   2.693  12.914  1.4820  0.7801 -1.0608
  901MPD2    H213257   0.097   2.282  12.912  3.5288 -0.6136  2.5115
  901MPD2    H313258   4.685   2.472  12.982 -1.2028 -0.3690 -2.0745
  901MPD2     N13259   0.248   2.790  12.804  0.4831  0.6256  0.0679
  901MPD2    H513260   0.340   2.791  12.761 -0.5263 -2.6348 -2.1103
  901MPD2    N113261   0.342   2.329  12.799  0.1732 -0.0598  0.0137
  901MPD2    H713262   0.426   2.370  12.762 -0.1832 -0.0957 -0.8381
  902MPD2     C13263   3.700   1.711  13.073  0.3060 -0.6473 -0.1304
  902MPD2    C113264   3.826   1.751  13.087 -0.8578 -0.3620  0.0587
  902MPD2    C213265   3.930   1.654  13.059 -0.1686  0.4402  0.1870
  902MPD2    C313266   3.895   1.523  13.021 -0.0638  0.0330 -0.7487
  902MPD2    C413267   3.758   1.498  12.994  0.6734  0.9518 -0.1254
  902MPD2    C513268   3.665   1.588  13.028 -0.0387  0.4104  0.3784
  902MPD2     H13269   4.034   1.681  13.074  0.4201 -1.7609  0.0686
  902MPD2    H113270   3.727   1.404  12.950  0.5835  0.7608  0.3522
  902MPD2    H213271   3.619   1.783  13.079  1.0270 -0.2046  3.9751
  902MPD2    H313272   3.559   1.570  13.014  0.5092 -1.6551 -1.1334
  902MPD2     N13273   3.988   1.436  12.974  0.2515  0.1842  0.6286
  902MPD2    H513274   3.955   1.369  12.905 -1.2924 -0.7945  2.2907
  902MPD2    N113275   3.839   1.886  13.124  0.8089 -0.5769 -0.4192
  902MPD2    H713276   3.760   1.950  13.121  0.3617 -1.0281  1.7092
  903MPD2     C13277   4.382   1.322  12.223 -0.1689 -0.5352 -0.4166
  903MPD2    C113278   4.273   1.357  12.302 -0.2859  1.0123  0.2085
  903MPD2    C213279   4.160   1.402  12.240 -1.0002 -0.1951 -0.1029
  903MPD2    C313280   4.154   1.424  12.104 -0.7387 -0.1491  0.3287
  903MPD2    C413281   4.259   1.387  12.026  0.4975 -0.7995  0.5196
  903MPD2    C513282   4.370   1.333  12.086 -0.3519 -0.2001  0.1361
  903MPD2     H13283   4.071   1.423  12.298 -0.6777  1.6025 -0.2491
  903MPD2    H113284   4.258   1.410  11.920 -0.3206 -2.2969  0.2066
  903MPD2    H213285   4.470   1.266  12.252 -0.4171 -1.0030 -0.5662
  903MPD2    H313286   4.459   1.331  12.024 -0.3523 -0.0822  0.1320
  903MPD2     N13287   4.036   1.472  12.053 -0.3660 -0.0219  0.5679
  903MPD2    H513288   3.968   1.494  12.125 -1.2118  1.2262 -0.6100
  903MPD2    N113289   4.284   1.334  12.443 -0.3497 -0.7814 -0.2077
  903MPD2    H713290   4.372   1.291  12.469  0.5497  0.0870 -1.8364
  904MPD2     C13291   4.341   0.687  13.756 -0.2393 -0.4673 -0.0261
  904MPD2    C113292   4.294   0.759  13.864 -0.7541  0.2230  0.3608
  904MPD2    C213293   4.383   0.834  13.948 -0.1942  0.3529 -0.1127
  904MPD2    C313294   4.518   0.848  13.927  0.2932  0.1425 -0.2904
  904MPD2    C413295   4.560   0.786  13.810  0.1083  0.4632  0.0669
  904MPD2    C513296   4.474   0.714  13.723  0.1561  0.2456  0.3225
  904MPD2     H13297   4.328   0.872  14.034 -0.2589  0.3384 -0.1479
  904MPD2    H113298   4.664   0.790  13.780  0.6150 -0.3230  1.7293
  904MPD2    H213299   4.283   0.615  13.699 -0.5438  0.4545 -0.8851
  904MPD2    H313300   4.521   0.666  13.637 -1.1064 -0.3601 -0.0294
  904MPD2     N13301   4.604   0.906  14.029  0.2409 -0.2412  0.3038
  904MPD2    H513302   4.560   0.925  14.118 -0.0878  1.8478 -0.2886
  904MPD2    N113303   4.157   0.786  13.885 -0.0331 -0.6521 -0.7851
  904MPD2    H713304   4.146   0.868  13.944 -1.3222 -1.1599 -0.3143
  905MPD2     C13305   3.253   0.815  13.717  0.0411  0.1704 -0.9484
  905MPD2    C113306   3.365   0.881  13.672 -0.1979 -0.1917 -0.2916
  905MPD2    C213307   3.358   0.983  13.591 -0.6317  0.0437 -0.7433
  905MPD2    C313308   3.229   1.029  13.549 -0.4710 -0.1069 -0.6091
  905MPD2    C413309   3.119   0.953  13.582  0.2135  0.0613  0.3447
  905MPD2    C513310   3.135   0.853  13.669 -0.0162 -0.4239  1.3194
  905MPD2     H13311   3.443   1.038  13.551 -0.0394  0.1255  0.6402
  905MPD2    H113312   3.024   0.991  13.545 -0.9057 -2.0460  1.0456
  905MPD2    H213313   3.257   0.736  13.792  0.4969  0.1043 -1.0398
  905MPD2    H313314   3.050   0.800  13.710 -0.1335 -1.2942 -0.0404
  905MPD2     N13315   3.206   1.137  13.463 -0.3035  0.3676 -0.3396
  905MPD2    H513316   3.110   1.148  13.432 -0.0734  1.0515 -0.8082
  905MPD2    N113317   3.484   0.822  13.713 -0.1953  0.4963  0.3640
  905MPD2    H713318   3.478   0.736  13.766 -0.9827 -0.7904 -1.8077
  906MPD2     C13319   0.761   0.569  11.728 -0.2461  0.0524  0.1798
  906MPD2    C113320   0.770   0.508  11.610  0.4809 -0.8195 -0.2793
  906MPD2    C213321   0.710   0.386  11.597  0.2688  0.7084  0.0903
  906MPD2    C313322   0.644   0.327  11.706  0.2525  0.4024  0.3308
  906MPD2    C413323   0.642   0.391  11.829 -0.2145 -0.2321 -0.2245
  906MPD2    C513324   0.709   0.510  11.839  0.5183 -0.3120  0.3592
  906MPD2     H13325   0.713   0.337  11.500 -3.5785  2.7194 -1.0471
  906MPD2    H113326   0.573   0.359  11.907  1.3993 -0.8700  0.9450
  906MPD2    H213327   0.803   0.666  11.751 -0.2672  0.0054  0.4142
  906MPD2    H313328   0.694   0.578  11.922 -2.5548  2.0383 -2.1487
  906MPD2     N13329   0.556   0.221  11.683  0.1298  0.2683 -0.1089
  906MPD2    H513330   0.544   0.208  11.584 -1.8498  2.4408 -0.1511
  906MPD2    N113331   0.813   0.572  11.487  0.1263 -0.2070 -0.2716
  906MPD2    H713332   0.821   0.508  11.408  0.5752  0.6526 -0.9149
  907MPD2     C13333   4.605   0.286  15.526  0.0499 -0.1176  0.4241
  907MPD2    C113334   4.680   0.178  15.555 -0.3296 -0.2737 -0.6005
  907MPD2    C213335   4.734   0.157  15.683 -0.2908  0.1748 -0.1159
  907MPD2    C313336   4.719   0.249  15.784 -0.0791  0.2122 -0.3006
  907MPD2    C413337   4.632   0.362  15.761  0.4699  0.0621  0.3009
  907MPD2    C513338   4.588   0.373  15.636  0.0691  0.2065 -0.4601
  907MPD2     H13339   0.054   0.069  15.709  1.1673  0.9747 -0.6510
  907MPD2    H113340   4.612   0.440  15.833  2.3199 -0.0107  0.9032
  907MPD2    H213341   4.564   0.307  15.428  2.6281  1.9949 -0.2072
  907MPD2    H313342   4.526   0.460  15.616 -0.1276 -0.0096 -0.7983
  907MPD2     N13343   0.045   0.221  15.912  0.2560 -1.0916  0.5359
  907MPD2    H513344   0.090   0.132  15.929  2.8383 -0.2055 -1.5558
  907MPD2    N113345   4.731   0.098  15.452  0.1392 -0.5846  0.2892
  907MPD2    H713346   0.059   0.024  15.476  1.8685  0.8796  0.1548
  908MPD2     C13347   2.502   0.715   9.499 -0.6071  0.5491 -0.0516
  908MPD2    C113348   2.463   0.636   9.604 -0.5242 -0.5963 -0.4183
  908MPD2    C213349   2.481   0.688   9.733  0.2111  0.1181 -0.2214
  908MPD2    C313350   2.512   0.823   9.747 -0.8215  0.8619  0.9524
  908MPD2    C413351   2.549   0.897   9.636 -0.0349  0.0255  0.4339
  908MPD2    C513352   2.546   0.844   9.511 -0.2432  0.1154 -0.1628
  908MPD2     H13353   2.461   0.632   9.823  2.2005  1.8853  1.3396
  908MPD2    H113354   2.576   1.002   9.641  0.7908 -0.2258  1.2398
  908MPD2    H213355   2.472   0.681   9.400 -0.0475  1.4853 -0.5442
  908MPD2    H313356   2.570   0.902   9.423  1.9479  0.5024  0.6927
  908MPD2     N13357   2.526   0.871   9.875 -0.4196  0.2006  0.0122
  908MPD2    H513358   2.506   0.808   9.951  1.3440 -1.5445 -0.9807
  908MPD2    N113359   2.435   0.502   9.579  0.6925  0.4103  0.3601
  908MPD2    H713360   2.456   0.480   9.482 -0.8318  1.3460 -0.1738
  909MPD2     C13361   2.473   3.806  12.046 -0.5194  0.0328 -0.1053
  909MPD2    C113362   2.554   3.916  12.066 -0.6284  0.2661  0.3650
  909MPD2    C213363   2.547   3.992  12.182  0.3026  0.0668 -0.2409
  909MPD2    C313364   2.461   3.949  12.281 -0.1735  0.1605 -0.1946
  909MPD2    C413365   2.382   3.836  12.260 -0.0008 -1.1367  0.9941
  909MPD2    C513366   2.381   3.764  12.142  0.1062 -0.8859 -0.0366
  909MPD2     H13367   2.592   4.090  12.193  1.3755 -0.5452  0.9269
  909MPD2    H113368   2.314   3.790  12.331 -2.5872 -0.7796 -1.2830
  909MPD2    H213369   2.473   3.765  11.946 -2.3351 -1.4496  0.4804
  909MPD2    H313370   2.314   3.679  12.133  2.4147 -2.5640 -1.3970
  909MPD2     N13371   2.441   4.034  12.397  0.9246  0.8756  0.0321
  909MPD2    H513372   2.483   4.126  12.396  1.9714  0.3983 -1.3922
  909MPD2    N113373   2.639   3.971  11.968 -0.2481  0.0913 -0.1858
  909MPD2    H713374   2.685   4.060  11.986  0.2349 -0.0259 -0.8183
  910MPD2     C13375   4.246   0.511  16.397  0.2590  0.3193 -0.2430
  910MPD2    C113376   4.359   0.522  16.312  0.3709  0.8393  0.4142
  910MPD2    C213377   4.342   0.578  16.186  0.6093  0.2278  0.3617
  910MPD2    C313378   4.213   0.594  16.140  0.2036  0.1149 -0.6772
  910MPD2    C413379   4.108   0.584  16.232  0.0499 -0.3780 -0.2456
  910MPD2    C513380   4.127   0.560  16.363 -0.1517  0.1124  0.2828
  910MPD2     H13381   4.428   0.588  16.122  1.1983  3.7497  1.6902
  910MPD2    H113382   4.005   0.592  16.200  1.1900  1.6353 -3.4003
  910MPD2    H213383   4.263   0.460  16.491  0.2037 -1.6038 -1.2677
  910MPD2    H313384   4.035   0.542  16.419  0.2525 -1.6245  0.3949
  910MPD2     N13385   4.175   0.614  16.007 -0.1989 -0.2324  0.4232
  910MPD2    H513386   4.076   0.607  15.988 -0.4841 -1.0135  2.2313
  910MPD2    N113387   4.483   0.467  16.353  0.6442  0.4161  0.3884
  910MPD2    H713388   4.567   0.507  16.313 -0.3614  0.2972 -1.8754
  911MPD2     C13389   2.635   1.232  16.060  0.8343 -0.7528 -1.0310
  911MPD2    C113390   2.658   1.258  16.189  0.2802  0.2886 -0.4474
  911MPD2    C213391   2.584   1.365  16.243 -0.1105 -0.3358 -0.6098
  911MPD2    C313392   2.484   1.426  16.174 -0.4178  0.5713  0.1391
  911MPD2    C413393   2.467   1.399  16.041  0.2066 -0.9555  0.7185
  911MPD2    C513394   2.554   1.307  15.976 -0.2100 -0.0555  0.2618
  911MPD2     H13395   2.595   1.390  16.349  0.1077  2.0398 -1.1856
  911MPD2    H113396   2.400   1.459  15.980  2.3175  0.2750 -0.3537
  911MPD2    H213397   2.693   1.158  16.006  0.3615 -1.0160 -1.1688
  911MPD2    H313398   2.549   1.285  15.870 -1.8160  1.6028  0.0054
  911MPD2     N13399   2.384   1.501  16.236 -0.6528  0.4814  0.6105
  911MPD2    H513400   2.301   1.507  16.177 -2.0033 -1.6064  2.2992
  911MPD2    N113401   2.749   1.171  16.252  0.1971 -0.1136  0.0376
  911MPD2    H713402   2.799   1.110  16.187  0.2133 -0.1547  0.0886
  912MPD2     C13403   2.115   1.526  15.822  0.3619  0.3265 -0.2763
  912MPD2    C113404   2.106   1.479  15.952 -0.3499  0.6296  0.7595
  912MPD2    C213405   2.146   1.347  15.980  0.5652 -0.2032  0.1378
  912MPD2    C313406   2.186   1.259  15.885  0.9254 -0.5320 -0.4842
  912MPD2    C413407   2.203   1.311  15.761  0.3514 -0.0378 -0.2481
  912MPD2    C513408   2.165   1.438  15.724 -0.0369  0.4785 -1.0410
  912MPD2     H13409   2.145   1.308  16.082  2.7434 -0.5378  0.0371
  912MPD2    H113410   2.255   1.252  15.685  1.0891  0.8739 -0.4487
  912MPD2    H213411   2.084   1.625  15.791  1.3270  1.1478  1.3760
  912MPD2    H313412   2.182   1.455  15.619  1.3215 -2.1594 -1.2664
  912MPD2     N13413   2.228   1.134  15.927 -0.2312 -0.4596 -0.1349
  912MPD2    H513414   2.214   1.108  16.024 -0.4328 -2.6716 -0.7445
  912MPD2    N113415   2.067   1.577  16.054 -0.5867 -0.1204 -0.1636
  912MPD2    H713416   2.097   1.673  16.043  0.5991 -0.4511  0.2109
  913MPD2     C13417   2.242   2.190  10.563 -0.7006  0.0951 -0.3060
  913MPD2    C113418   2.201   2.309  10.629  0.3092  0.5892 -1.1342
  913MPD2    C213419   2.148   2.422  10.565  0.3892  0.1059 -0.9007
  913MPD2    C313420   2.130   2.422  10.428 -0.0650  0.2110  0.2891
  913MPD2    C413421   2.182   2.317  10.356  0.5273 -0.9753 -0.1917
  913MPD2    C513422   2.228   2.201  10.424 -0.4683 -0.7534  0.6047
  913MPD2     H13423   2.108   2.510  10.616  2.3445 -0.2262  1.1887
  913MPD2    H113424   2.187   2.318  10.248 -2.3373  0.0760 -0.3262
  913MPD2    H213425   2.292   2.110  10.618 -1.7359  0.3808  1.0580
  913MPD2    H313426   2.263   2.118  10.365 -0.1829  0.8147 -1.4100
  913MPD2     N13427   2.076   2.528  10.353 -0.4423 -0.3783  0.3645
  913MPD2    H513428   2.063   2.523  10.253 -0.2202 -0.8391  0.3601
  913MPD2    N113429   2.230   2.307  10.767  0.2002  0.0980 -0.6579
  913MPD2    H713430   2.275   2.221  10.799 -0.3484 -0.2407 -0.7940
  914MPD2     C13431   0.512   2.490  12.050 -0.0268  0.7994 -0.4403
  914MPD2    C113432   0.551   2.556  12.168  0.4680  0.0026 -0.5839
  914MPD2    C213433   0.581   2.488  12.283 -0.0766  0.1089  0.3203
  914MPD2    C313434   0.573   2.352  12.280  0.0250  0.2693  0.2263
  914MPD2    C413435   0.540   2.285  12.162  0.2981 -0.0704 -0.2301
  914MPD2    C513436   0.508   2.356  12.050 -0.3016  0.3126  0.0863
  914MPD2     H13437   0.604   2.544  12.373 -0.7539  1.2022 -0.1807
  914MPD2    H113438   0.544   2.179  12.143 -0.1219 -0.4751  2.0261
  914MPD2    H213439   0.491   2.550  11.962  1.7714 -0.5719 -1.7961
  914MPD2    H313440   0.485   2.299  11.961 -0.6041 -1.7915  1.5119
  914MPD2     N13441   0.590   2.284  12.401 -0.5353  0.5092 -0.0026
  914MPD2    H513442   0.614   2.334  12.485 -0.9699 -1.5093  1.3396
  914MPD2    N113443   0.579   2.696  12.153  0.1024  0.7378 -0.3266
  914MPD2    H713444   0.564   2.733  12.060  0.2061  2.7893  0.4775
  915MPD2     C13445   3.471   2.438  15.587  0.3530  0.5702 -0.8478
  915MPD2    C113446   3.345   2.436  15.633 -0.0762  0.0069  0.5769
  915MPD2    C213447   3.307   2.518  15.739  0.0265  0.3104 -0.0790
  915MPD2    C313448   3.406   2.581  15.806  0.4897 -0.1675  0.6161
  915MPD2    C413449   3.543   2.573  15.765 -0.1135  0.5642  0.2988
  915MPD2    C513450   3.571   2.506  15.652  0.0371 -0.1866 -0.0141
  915MPD2     H13451   3.204   2.520  15.774  0.7540 -0.4239  2.1021
  915MPD2    H113452   3.621   2.627  15.816 -0.7530  2.1268 -0.3830
  915MPD2    H213453   3.492   2.383  15.496 -1.6514  0.2571 -1.1261
  915MPD2    H313454   3.668   2.508  15.604  0.0320  0.7226  0.0068
  915MPD2     N13455   3.378   2.657  15.917 -0.3516 -0.3458 -0.2764
  915MPD2    H513456   3.281   2.684  15.929 -0.4850 -0.5761 -0.8618
  915MPD2    N113457   3.254   2.361  15.558  0.6178  0.7082  0.3411
  915MPD2    H713458   3.279   2.325  15.467  1.7574 -0.2295  1.0122
  916MPD2     C13459   1.624   0.692  16.106  0.0537  0.4847  0.0393
  916MPD2    C113460   1.696   0.791  16.043  0.0266  0.1806 -0.1858
  916MPD2    C213461   1.719   0.774  15.909 -0.2403  0.5192  0.2694
  916MPD2    C313462   1.679   0.656  15.845  0.5567 -0.5590  0.4106
  916MPD2    C413463   1.613   0.561  15.906  0.4889 -0.5347 -0.6831
  916MPD2    C513464   1.589   0.578  16.037  0.3361  0.2235 -0.7663
  916MPD2     H13465   1.767   0.853  15.854 -0.9645  1.5137  1.0588
  916MPD2    H113466   1.582   0.463  15.873  0.9903 -0.5719 -1.0358
  916MPD2    H213467   1.596   0.698  16.210  0.6156 -1.4939  0.3072
  916MPD2    H313468   1.529   0.498  16.080 -0.1830  0.3800 -1.2060
  916MPD2     N13469   1.729   0.642  15.708  0.1544 -0.2870  0.1557
  916MPD2    H513470   1.796   0.711  15.676 -1.8571  2.0841  1.1694
  916MPD2    N113471   1.740   0.899  16.126  0.5251  0.2834  0.5278
  916MPD2    H713472   1.722   0.886  16.225 -0.2768  2.3037  0.6478
  917MPD2     C13473   2.037   2.754  11.679  0.2929 -0.5409 -0.2778
  917MPD2    C113474   1.981   2.867  11.735 -0.3675 -0.2043  0.1305
  917MPD2    C213475   2.001   2.985  11.669 -0.1311 -0.3809  0.0694
  917MPD2    C313476   2.073   2.994  11.551  0.7333  0.7770 -0.2272
  917MPD2    C413477   2.132   2.881  11.499 -0.5354  0.1334  0.4823
  917MPD2    C513478   2.102   2.768  11.560 -0.4567  0.6153  0.7064
  917MPD2     H13479   1.953   3.076  11.705  0.2764  0.1446 -0.7089
  917MPD2    H113480   2.199   2.880  11.413 -2.2636 -0.1196 -0.8629
  917MPD2    H213481   2.018   2.657  11.722 -0.6104  0.3335  1.2876
  917MPD2    H313482   2.140   2.674  11.522  0.6494  1.7624 -1.0751
  917MPD2     N13483   2.097   3.115  11.486 -0.1543  0.1860  0.6056
  917MPD2    H513484   2.142   3.114  11.395  0.7312 -4.2296  1.1160
  917MPD2    N113485   1.914   2.861  11.860  0.3708 -0.0457 -0.2029
  917MPD2    H713486   1.874   2.774  11.894 -0.1089  0.5083  0.6459
  918MPD2     C13487   2.006   3.458  12.629 -0.3184 -0.5386  0.2653
  918MPD2    C113488   2.080   3.424  12.518 -0.0946  0.3126 -0.7291
  918MPD2    C213489   2.021   3.327  12.435 -0.0736  0.3221 -0.6384
  918MPD2    C313490   1.909   3.261  12.465  0.1245 -0.0362 -0.7188
  918MPD2    C413491   1.845   3.283  12.587  0.0618  0.7706  0.5327
  918MPD2    C513492   1.892   3.388  12.664 -0.0169 -0.2244 -0.2418
  918MPD2     H13493   2.087   3.288  12.357  1.5259 -1.1513  1.4564
  918MPD2    H113494   1.751   3.234  12.609  0.6163 -0.6864 -0.3199
  918MPD2    H213495   2.035   3.540  12.694 -1.0909 -1.7814  2.1854
  918MPD2    H313496   1.845   3.408  12.760 -0.2338  1.2408 -0.6476
  918MPD2     N13497   1.858   3.174  12.365  0.1411 -0.3488  0.3359
  918MPD2    H513498   1.895   3.167  12.271  0.8976 -0.8091  0.6652
  918MPD2    N113499   2.214   3.476  12.496  0.5012  0.3223 -0.4186
  918MPD2    H713500   2.239   3.537  12.574 -0.1553  0.2520 -0.1574
  919MPD2     C13501   2.017   2.354  11.478 -0.5491 -0.2493  0.8007
  919MPD2    C113502   2.033   2.212  11.469 -0.0538  0.7539  0.0370
  919MPD2    C213503   1.979   2.160  11.354  0.4741 -0.6658  0.4508
  919MPD2    C313504   1.911   2.237  11.263  0.6968 -0.2762  0.3852
  919MPD2    C413505   1.929   2.377  11.263  0.6030  0.7681 -0.3083
  919MPD2    C513506   1.992   2.433  11.365 -0.8130  0.4442  0.2393
  919MPD2     H13507   1.977   2.052  11.349 -0.4463 -0.6539  0.4695
  919MPD2    H113508   1.912   2.440  11.177  0.6236 -0.3009 -1.0874
  919MPD2    H213509   2.043   2.408  11.568  0.7910 -1.2605  1.0180
  919MPD2    H313510   1.980   2.541  11.359  0.8008  0.5494 -1.2706
  919MPD2     N13511   1.853   2.179  11.144  0.5040  1.0439  0.6113
  919MPD2    H513512   1.818   2.239  11.069  0.1588 -1.8414 -1.5319
  919MPD2    N113513   2.078   2.136  11.576 -0.3713  0.2110 -0.9149
  919MPD2    H713514   2.065   2.036  11.566 -2.8930  0.5317 -0.8215
  920MPD2     C13515   1.768   2.223  10.160 -0.5500  0.4705  0.3017
  920MPD2    C113516   1.643   2.184  10.199  0.7287  0.1051  0.5092
  920MPD2    C213517   1.629   2.134  10.324  0.5697 -0.2611  0.2451
  920MPD2    C313518   1.727   2.148  10.422  0.3659  0.7754  0.2560
  920MPD2    C413519   1.845   2.208  10.389 -0.8826  0.2716  0.3111
  920MPD2    C513520   1.864   2.237  10.258 -0.5485 -0.1960  0.1478
  920MPD2     H13521   1.533   2.096  10.356  0.3483  1.1133  1.1975
  920MPD2    H113522   1.924   2.229  10.460  0.5677  2.3017 -1.9027
  920MPD2    H213523   1.799   2.256  10.062 -1.5021  0.7623  0.0961
  920MPD2    H313524   1.961   2.279  10.234  0.4059 -0.3521  3.8243
  920MPD2     N13525   1.701   2.099  10.551 -0.0412  0.3455 -0.4564
  920MPD2    H513526   1.604   2.073  10.562 -0.1785  1.3954  0.9331
  920MPD2    N113527   1.528   2.179  10.117 -0.1188  0.0427  0.5728
  920MPD2    H713528   1.447   2.133  10.157 -0.6129  0.0158 -0.4648
  921MPD2     C13529   3.599   1.359  16.721 -0.6020  0.1079  0.7192
  921MPD2    C113530   3.610   1.289  16.602  0.1684  0.0388  1.3247
  921MPD2    C213531   3.500   1.219  16.558  0.2723 -0.4364  0.1185
  921MPD2    C313532   3.387   1.213  16.635  1.3321  0.1753 -0.2690
  921MPD2    C413533   3.376   1.279  16.752  0.3952  0.3765 -0.1034
  921MPD2    C513534   3.483   1.352  16.795  0.5016 -0.7294  0.8326
  921MPD2     H13535   3.501   1.171  16.460 -1.9601 -4.0492  1.8530
  921MPD2    H113536   3.282   1.264  16.804 -0.3018 -1.2064 -1.8188
  921MPD2    H213537   3.690   1.409  16.749  1.1737 -2.4095 -0.5565
  921MPD2    H313538   3.474   1.400  16.892 -2.7511 -1.4360  0.8878
  921MPD2     N13539   3.269   1.154  16.586  0.1999 -0.1864 -0.6855
  921MPD2    H513540   3.192   1.156  16.652 -0.4878 -1.1446 -1.4419
  921MPD2    N113541   3.726   1.309  16.524  0.4583  0.0451 -0.6434
  921MPD2    H713542   3.785   1.388  16.550  0.2200  0.0893 -0.2351
  922MPD2     C13543   0.096   4.197  17.146  0.0127 -0.0738  0.0905
  922MPD2    C113544   0.054   4.306  17.222 -0.1541  0.2162 -0.2992
  922MPD2    C213545   4.664   4.302  17.288  0.4978 -0.4206 -0.0794
  922MPD2    C313546   4.579   4.191  17.274 -0.0229 -0.1078  0.5947
  922MPD2    C413547   4.609   4.099  17.180  0.3696  0.5803 -0.0388
  922MPD2    C513548   4.737   4.101  17.129  0.3072  0.0423 -0.2087
  922MPD2     H13549   4.637   4.388  17.348 -0.5135 -1.4125  0.8849
  922MPD2    H113550   4.536   4.025  17.150 -2.3565  3.5706 -0.7827
  922MPD2    H213551   0.187   4.194  17.088 -1.1006 -0.0692 -1.6592
  922MPD2    H313552   0.023   4.018  17.064  1.2874  1.5619 -1.7890
  922MPD2     N13553   4.470   4.180  17.360 -0.2607  0.0505 -0.1206
  922MPD2    H513554   4.447   4.256  17.423 -2.1915  0.0442 -0.8220
  922MPD2    N113555   0.152   4.411  17.232 -0.1287 -0.2095  0.0756
  922MPD2    H713556   0.231   4.403  17.169  0.2234  1.1913  0.3428
  923MPD2     C13557   3.645   0.907   9.377 -0.2196 -0.2623  0.4151
  923MPD2    C113558   3.750   0.983   9.432  0.6928 -0.6255  0.2456
  923MPD2    C213559   3.855   1.021   9.352 -0.0398  0.0534  0.0344
  923MPD2    C313560   3.861   0.987   9.218 -0.6491 -0.5376  0.5762
  923MPD2    C413561   3.760   0.906   9.171  1.4048 -0.8747  0.0094
  923MPD2    C513562   3.646   0.877   9.242  0.6267 -0.1152 -0.4730
  923MPD2     H13563   3.943   1.065   9.400  0.2701  0.0912 -0.5711
  923MPD2    H113564   3.756   0.886   9.064 -2.1947 -0.7262  0.1045
  923MPD2    H213565   3.561   0.868   9.434 -0.9144 -0.9845 -1.0713
  923MPD2    H313566   3.566   0.826   9.190  1.2353 -0.1530 -1.3730
  923MPD2     N13567   3.962   1.046   9.142  0.1035 -0.3270  0.0439
  923MPD2    H513568   3.961   1.016   9.045 -0.5051 -0.5653  0.1213
  923MPD2    N113569   3.744   0.988   9.572 -0.1772  0.7368  0.4746
  923MPD2    H713570   3.682   0.921   9.617 -1.1323  2.3746  1.6205
  924MPD2     C13571   0.731   4.418  16.257  0.2732 -0.0463  0.2272
  924MPD2    C113572   0.760   4.548  16.274  0.7331  0.0321 -0.0742
  924MPD2    C213573   0.653   4.636  16.256  0.3695  0.1021 -0.8557
  924MPD2    C313574   0.523   4.597  16.226  0.2356 -0.6060 -0.4555
  924MPD2    C413575   0.498   4.465  16.207 -0.3329 -0.8249 -0.4815
  924MPD2    C513576   0.601   4.378  16.219 -0.6920  0.3221 -0.3461
  924MPD2     H13577   0.670   4.736  16.294 -1.4077  0.0400  0.1520
  924MPD2    H113578   0.396   4.431  16.189 -0.0388 -1.5333 -0.7780
  924MPD2    H213579   0.814   4.350  16.266  2.2203  2.4062  0.6616
  924MPD2    H313580   0.587   4.274  16.191 -1.9999  0.0832  1.2296
  924MPD2     N13581   0.428   4.692  16.235 -0.2351 -0.2076 -0.3040
  924MPD2    H513582   0.465   0.046  16.260  2.0356 -0.4338 -2.8275
  924MPD2    N113583   0.888   4.594  16.315  0.0785 -0.2807 -0.3836
  924MPD2    H713584   0.946   4.520  16.353  1.4174  0.5060 -0.9022
  925MPD2     C13585   3.492   1.965  14.471 -0.1255 -0.2530  0.5705
  925MPD2    C113586   3.611   1.902  14.490 -0.2707  0.7053 -0.0512
  925MPD2    C213587   3.641   1.839  14.615 -0.1410  0.3062  0.0232
  925MPD2    C313588   3.549   1.862  14.715  0.2500  0.0374  0.3482
  925MPD2    C413589   3.434   1.936  14.693  0.0747  0.8462 -0.2150
  925MPD2    C513590   3.405   1.992  14.571  0.0266  0.5597  0.7117
  925MPD2     H13591   3.731   1.783  14.637 -0.0167  1.6760  2.9874
  925MPD2    H113592   3.365   1.959  14.773  0.9781 -1.8317  1.3139
  925MPD2    H213593   3.458   2.007  14.376 -0.4570 -0.6544  0.5104
  925MPD2    H313594   3.309   2.039  14.551 -1.0756 -2.5869 -1.3916
  925MPD2     N13595   3.566   1.820  14.856  0.1719 -0.3598 -0.2410
  925MPD2    H513596   3.500   1.863  14.919 -0.7582 -0.8454 -0.8883
  925MPD2    N113597   3.708   1.899  14.385  0.3607 -0.0999  0.3807
  925MPD2    H713598   3.681   1.937  14.295  1.3207 -2.3625 -0.8614
  926MPD2     C13599   2.408   0.020  13.431 -0.4086  0.1297  0.3133
  926MPD2    C113600   2.389   0.152  13.477  0.7649 -0.4540  0.2290
  926MPD2    C213601   2.384   0.252  13.382 -0.2264 -0.4378 -0.2654
  926MPD2    C313602   2.421   0.220  13.254  0.6417  0.1496  0.0272
  926MPD2    C413603   2.450   0.095  13.209  0.2676  0.6803 -0.1088
  926MPD2    C513604   2.442   4.732  13.300 -0.4189 -0.1534 -0.8838
  926MPD2     H13605   2.364   0.352  13.418 -1.3228 -0.4496 -0.8309
  926MPD2    H113606   2.480   0.080  13.106  1.3735 -0.2798  0.3545
  926MPD2    H213607   2.407   4.679  13.507  0.5759  0.3587  0.5654
  926MPD2    H313608   2.456   4.631  13.264 -0.2397 -0.7518  0.8401
  926MPD2     N13609   2.428   0.319  13.149  0.2641 -0.3700 -0.7716
  926MPD2    H513610   2.500   0.298  13.080  0.3143  0.5354 -1.0075
  926MPD2    N113611   2.365   0.180  13.612  0.0837  0.5941  0.4377
  926MPD2    H713612   2.324   0.270  13.636  0.7067  0.7733  0.8248
  927MPD2     C13613   2.826   1.617   0.594 -0.0181 -0.2478 -0.5286
  927MPD2    C113614   2.767   1.676   0.486  0.1173 -0.5475 -0.1651
  927MPD2    C213615   2.849   1.764   0.410  0.3641 -0.5455 -0.1741
  927MPD2    C313616   2.975   1.792   0.451 -0.4654  0.2209  0.2823
  927MPD2    C413617   3.035   1.726   0.554 -1.1166 -1.1513  0.0176
  927MPD2    C513618   2.959   1.632   0.624  0.0511 -0.1127  0.0134
  927MPD2     H13619   2.793   1.809   0.328  0.9240  0.7520  0.1620
  927MPD2    H113620   3.133   1.741   0.596 -1.5899 -1.0817  1.1204
  927MPD2    H213621   2.769   1.548   0.656  0.5435  0.6597  1.0110
  927MPD2    H313622   3.006   1.574   0.702 -2.2951 -1.6520  0.2685
  927MPD2     N13623   3.039   1.903   0.384 -0.6666 -0.0691  0.4701
  927MPD2    H513624   3.003   1.949   0.301  0.5234  0.4732  0.2594
  927MPD2    N113625   2.625   1.674   0.473  0.3713  0.5804  0.2217
  927MPD2    H713626   2.575   1.636   0.553 -1.7972 -1.4031 -2.0639
  928MPD2     C13627   0.560   1.003   0.858  0.3832 -0.5659  0.5144
  928MPD2    C113628   0.572   1.126   0.792  0.0707 -0.0220 -0.2135
  928MPD2    C213629   0.675   1.145   0.704 -0.4255  0.2826 -0.5408
  928MPD2    C313630   0.778   1.055   0.691  0.0785  0.1113  0.2765
  928MPD2    C413631   0.761   0.932   0.757 -0.2462  0.0306 -0.9405
  928MPD2    C513632   0.659   0.904   0.843 -0.7785  0.2294 -0.1959
  928MPD2     H13633   0.674   1.237   0.645 -1.0604 -0.1009 -1.1263
  928MPD2    H113634   0.843   0.863   0.742 -1.1862 -1.0486 -1.0636
  928MPD2    H213635   0.474   0.981   0.919  0.4102 -1.2830  0.2949
  928MPD2    H313636   0.641   0.803   0.877  0.9480  1.1560  3.5310
  928MPD2     N13637   0.900   1.096   0.624  0.2739 -0.4344  0.5458
  928MPD2    H513638   0.975   1.028   0.626 -0.8109 -1.5611  2.0172
  928MPD2    N113639   0.457   1.209   0.796  0.1655  0.0465  0.2072
  928MPD2    H713640   0.403   1.204   0.882  2.8718 -2.5766  1.7503
  929MPD2     C13641   0.524   0.852   9.819 -0.3738  0.1275 -0.6164
  929MPD2    C113642   0.405   0.801   9.783 -0.1462 -0.5656 -0.3940
  929MPD2    C213643   0.361   0.826   9.650  0.4980  0.7595 -0.2549
  929MPD2    C313644   0.438   0.900   9.560 -0.3880 -0.1231  0.1355
  929MPD2    C413645   0.551   0.962   9.611 -0.3835 -0.2371  0.1906
  929MPD2    C513646   0.585   0.942   9.738  0.9520 -1.5191 -0.1030
  929MPD2     H13647   0.294   0.750   9.611  2.7933 -1.2180 -0.3261
  929MPD2    H113648   0.607   1.038   9.557 -0.5799 -0.8397 -0.8487
  929MPD2    H213649   0.570   0.826   9.914 -1.7502 -1.8026 -0.4803
  929MPD2    H313650   0.674   0.991   9.776  0.5401 -0.1942 -0.8714
  929MPD2     N13651   0.423   0.917   9.427 -0.4286 -0.5775 -0.3271
  929MPD2    H513652   0.509   0.932   9.374 -0.4897 -2.4190 -0.9543
  929MPD2    N113653   0.333   0.736   9.883 -0.2006  0.3739 -0.0453
  929MPD2    H713654   0.388   0.724   9.968  0.2870  0.1480 -0.3929
  930MPD2     C13655   2.155   3.292  14.159  0.1639  0.1767  0.0019
  930MPD2    C113656   2.250   3.317  14.061 -0.9518 -0.1165  0.2472
  930MPD2    C213657   2.250   3.242  13.950  0.5814  0.4858  0.5601
  930MPD2    C313658   2.145   3.156  13.921 -0.4828 -0.2427  0.1351
  930MPD2    C413659   2.049   3.133  14.017 -0.0469 -1.2331  0.0085
  930MPD2    C513660   2.058   3.202  14.136 -0.6892  0.2146  0.4695
  930MPD2     H13661   2.337   3.247  13.886  0.5105 -0.8407  0.3513
  930MPD2    H113662   1.960   3.073  14.008 -0.6160  0.1315 -3.2135
  930MPD2    H213663   2.161   3.342  14.255  0.9427  0.6219 -0.2766
  930MPD2    H313664   1.981   3.184  14.210 -0.5701 -0.2374  0.4830
  930MPD2     N13665   2.140   3.078  13.796 -0.5707  0.9000 -0.1616
  930MPD2    H513666   2.071   3.004  13.803 -0.7193  1.1068  0.5369
  930MPD2    N113667   2.347   3.424  14.084  0.2328  0.0204  0.3096
  930MPD2    H713668   2.335   3.470  14.174 -0.0155 -2.6308  1.6601
  931MPD2     C13669   2.045   1.590   1.018  0.3541 -0.4009  0.5716
  931MPD2    C113670   2.179   1.630   0.982 -0.6937 -0.0025  0.6664
  931MPD2    C213671   2.278   1.634   1.077 -1.1930 -0.5775  0.0242
  931MPD2    C313672   2.248   1.609   1.209 -0.1153 -0.6797  0.1250
  931MPD2    C413673   2.118   1.571   1.243 -0.4227 -0.1190 -0.4522
  931MPD2    C513674   2.026   1.553   1.145  0.2215  0.2647 -1.0766
  931MPD2     H13675   2.368   1.690   1.053 -0.5293 -2.6360 -2.3131
  931MPD2    H113676   2.088   1.561   1.347 -0.3166  3.0129 -0.1207
  931MPD2    H213677   1.968   1.572   0.944 -0.7825 -2.2876  2.2225
  931MPD2    H313678   1.926   1.520   1.169 -1.3281  1.9036 -5.4281
  931MPD2     N13679   2.339   1.621   1.315 -1.2707  0.0281  0.0059
  931MPD2    H513680   2.308   1.621   1.412  0.4519 -1.1581  0.5320
  931MPD2    N113681   2.207   1.681   0.850  0.1642  0.0619  0.3816
  931MPD2    H713682   2.138   1.721   0.787 -0.4154  1.2139  1.7498
  932MPD2     C13683   4.628   0.716  11.500  0.1395  0.7504  0.8006
  932MPD2    C113684   4.601   0.807  11.603  0.7799  0.1309  0.0353
  932MPD2    C213685   4.644   0.780  11.730 -0.1706 -0.0121 -0.3613
  932MPD2    C313686   4.719   0.672  11.759  0.5561  0.5661  0.4397
  932MPD2    C413687   0.012   0.586  11.657 -0.0264 -0.2174  0.0640
  932MPD2    C513688   4.704   0.608  11.529  0.3443  0.5037 -0.1251
  932MPD2     H13689   4.620   0.855  11.805  2.1168  0.4940 -0.1270
  932MPD2    H113690   0.069   0.498  11.685 -0.8031 -0.4076  1.0807
  932MPD2    H213691   4.592   0.724  11.398 -1.1390 -2.0394  1.0298
  932MPD2    H313692   4.708   0.527  11.457  0.3277 -0.4453  0.9630
  932MPD2     N13693   0.027   0.625  11.886  0.7720 -0.3655  0.5691
  932MPD2    H513694   0.074   0.536  11.889 -1.0629 -1.3422  0.2891
  932MPD2    N113695   4.546   0.935  11.592 -0.2490  0.0162  0.2883
  932MPD2    H713696   4.530   0.984  11.679 -1.4048 -1.7413  1.0742
  933MPD2     C13697   0.489   1.533   0.255  0.2166  0.0993  0.2335
  933MPD2    C113698   0.479   1.642   0.338  0.8169 -0.1582 -0.5158
  933MPD2    C213699   0.503   1.774   0.291 -1.1555  0.3819 -0.4297
  933MPD2    C313700   0.557   1.786   0.162  0.3398  0.5969 -0.0060
  933MPD2    C413701   0.558   1.680   0.081 -0.1774  0.9042  1.1685
  933MPD2    C513702   0.533   1.550   0.132 -0.4774  0.1771  0.6191
  933MPD2     H13703   0.497   1.864   0.351  2.1461  0.4248 -0.2123
  933MPD2    H113704   0.593   1.677  17.726 -1.0156  0.6749  0.8919
  933MPD2    H213705   0.459   1.431   0.280  3.3605 -1.0271 -0.6572
  933MPD2    H313706   0.549   1.470   0.061  0.4563 -0.0576  1.1052
  933MPD2     N13707   0.610   1.911   0.123  0.2092 -0.6748  0.8446
  933MPD2    H513708   0.604   1.983   0.194 -2.5855  0.1815 -0.2705
  933MPD2    N113709   0.426   1.610   0.464  0.3822 -0.0021 -0.1536
  933MPD2    H713710   0.414   1.513   0.491  0.6441  0.2911  1.0035
  934MPD2     C13711   2.281   3.763   1.800 -0.4033  0.5255 -0.0129
  934MPD2    C113712   2.322   3.677   1.701 -0.3247 -0.6561 -0.3190
  934MPD2    C213713   2.251   3.568   1.659 -0.2465  0.1870 -0.5367
  934MPD2    C313714   2.118   3.558   1.696  0.5953 -0.4720  0.3451
  934MPD2    C413715   2.074   3.644   1.795 -0.0600 -0.2664 -0.1721
  934MPD2    C513716   2.158   3.743   1.848 -0.2919 -0.0069 -0.2828
  934MPD2     H13717   2.284   3.514   1.571 -0.4640  0.8927 -1.0449
  934MPD2    H113718   1.975   3.639   1.838  0.4846 -1.1520  0.9850
  934MPD2    H213719   2.345   3.844   1.831  1.7507 -0.8431 -0.8728
  934MPD2    H313720   2.127   3.797   1.936 -2.2066  0.6587 -1.3629
  934MPD2     N13721   2.035   3.460   1.640 -0.1606 -0.0127 -0.0407
  934MPD2    H513722   1.937   3.453   1.666  0.1795  1.5820  1.7084
  934MPD2    N113723   2.448   3.685   1.630 -0.2121 -0.6772  0.4505
  934MPD2    H713724   2.463   3.614   1.559  0.7149 -0.8126  0.7756
  935MPD2     C13725   2.070   2.540   1.264 -0.4774  0.4781  0.7496
  935MPD2    C113726   1.985   2.604   1.178 -0.1053 -0.3247  0.6073
  935MPD2    C213727   1.955   2.732   1.202 -0.0917  0.6444  0.0720
  935MPD2    C313728   2.007   2.806   1.308 -0.3447 -0.2482  0.4588
  935MPD2    C413729   2.094   2.741   1.388 -0.1262 -0.8433 -0.0143
  935MPD2    C513730   2.126   2.608   1.368  0.0919 -0.7566 -0.3685
  935MPD2     H13731   1.872   2.773   1.147  1.8885 -0.6781 -3.8640
  935MPD2    H113732   2.140   2.791   1.473  0.0677  0.0992 -0.6783
  935MPD2    H213733   2.092   2.434   1.259 -0.4652  0.5220 -0.2611
  935MPD2    H313734   2.194   2.555   1.434  1.0886  1.8654  0.7480
  935MPD2     N13735   1.966   2.937   1.343 -0.3689 -0.1575 -0.3942
  935MPD2    H513736   2.020   2.970   1.422 -0.6954 -1.1476  0.2461
  935MPD2    N113737   1.934   2.545   1.062 -0.3853  0.5576  0.3236
  935MPD2    H713738   1.882   2.611   1.005 -0.0352 -0.5005 -1.2469
  936MPD2     C13739   3.766   3.758  12.483  0.1538  0.9438  0.4501
  936MPD2    C113740   3.729   3.890  12.442  0.0507 -0.4679  0.2915
  936MPD2    C213741   3.824   3.986  12.451 -0.4624 -0.1498 -0.3484
  936MPD2    C313742   3.936   3.961  12.542 -0.4396  0.4816 -0.2718
  936MPD2    C413743   3.968   3.829  12.583 -0.0501 -0.0707  0.0216
  936MPD2    C513744   3.885   3.726  12.543  0.6195  0.5525 -0.0877
  936MPD2     H13745   3.797   4.090  12.439 -1.7391 -0.5512 -0.9079
  936MPD2    H113746   4.045   3.810  12.656  2.2306  0.4640 -2.2557
  936MPD2    H213747   3.695   3.678  12.464 -1.4727  2.6937 -0.8870
  936MPD2    H313748   3.900   3.622  12.570 -2.1785 -0.3305 -1.8750
  936MPD2     N13749   4.011   4.068  12.595  0.2296 -0.1730  0.5957
  936MPD2    H513750   4.103   4.047  12.632  1.6112 -0.4449 -3.0235
  936MPD2    N113751   3.600   3.925  12.389 -0.0805 -0.0554 -0.0229
  936MPD2    H713752   3.593   4.021  12.358  2.6931 -0.4027 -1.6824
  937MPD2     C13753   2.439   1.510  11.611  0.8547 -0.3903 -0.3878
  937MPD2    C113754   2.474   1.642  11.597  0.6211  0.8875  0.0115
  937MPD2    C213755   2.576   1.687  11.513  0.0451  0.4952 -0.0589
  937MPD2    C313756   2.649   1.597  11.440  0.6133 -0.8812  0.3978
  937MPD2    C413757   2.619   1.463  11.462  0.8347 -0.0250  0.2404
  937MPD2    C513758   2.515   1.423  11.546 -0.2852  1.1052  0.4500
  937MPD2     H13759   2.604   1.792  11.509  2.5208 -0.0972  1.9193
  937MPD2    H113760   2.673   1.383  11.412  0.0639 -1.0026  0.9915
  937MPD2    H213761   2.344   1.476  11.650  0.1074 -2.6334 -4.2125
  937MPD2    H313762   2.488   1.319  11.540  0.5565  0.9436 -0.5258
  937MPD2     N13763   2.736   1.646  11.338 -0.5322  0.7678  0.2831
  937MPD2    H513764   2.763   1.743  11.325 -3.1123  1.3126 -1.0740
  937MPD2    N113765   2.388   1.742  11.647  0.2085 -0.2134 -0.4268
  937MPD2    H713766   2.405   1.838  11.619  3.2197  0.4965  3.9629
  938MPD2     C13767   1.296   3.195   0.526  0.2367 -0.2078  0.0627
  938MPD2    C113768   1.330   3.282   0.625 -0.5270 -1.1199  0.5723
  938MPD2    C213769   1.279   3.266   0.749 -0.4930  0.1084  0.1015
  938MPD2    C313770   1.195   3.158   0.772 -0.1768 -0.3359 -0.7854
  938MPD2    C413771   1.162   3.070   0.675 -0.1760  0.6723  0.1582
  938MPD2    C513772   1.211   3.087   0.551 -0.2301 -0.3553  0.3464
  938MPD2     H13773   1.298   3.336   0.829  0.4409  0.4582 -0.4214
  938MPD2    H113774   1.110   2.979   0.702  2.3679 -0.6953  0.5056
  938MPD2    H213775   1.334   3.208   0.425 -0.2700  1.3429  0.0803
  938MPD2    H313776   1.180   3.015   0.476 -1.3572  0.6054 -0.1017
  938MPD2     N13777   1.136   3.124   0.899  0.7537 -0.3858 -0.0689
  938MPD2    H513778   1.079   3.042   0.881 -0.3209  0.6550 -1.3834
  938MPD2    N113779   1.405   3.396   0.600 -0.1798 -0.2287 -0.0703
  938MPD2    H713780   1.437   3.450   0.679 -1.5881  0.4578  0.0210
  939MPD2     C13781   2.056   4.312   1.334  0.0515  0.6051  0.8067
  939MPD2    C113782   1.973   4.394   1.261 -0.1496 -0.5327  0.0633
  939MPD2    C213783   1.978   4.386   1.121  0.2933 -0.3494 -0.5200
  939MPD2    C313784   2.081   4.315   1.071 -0.0116 -0.0475 -0.7013
  939MPD2    C413785   2.176   4.248   1.149  0.1597  1.0135 -0.1828
  939MPD2    C513786   2.160   4.245   1.285 -0.2862 -0.4079  1.2899
  939MPD2     H13787   1.902   4.426   1.055  1.5724 -0.3158 -1.9798
  939MPD2    H113788   2.261   4.188   1.119  1.0946  0.8695  2.6906
  939MPD2    H213789   2.049   4.316   1.443  0.3764  0.6624  0.8248
  939MPD2    H313790   2.228   4.177   1.336 -1.0484 -2.3519 -0.2614
  939MPD2     N13791   2.094   4.327   0.934 -0.2926 -0.3242 -0.1361
  939MPD2    H513792   2.033   4.392   0.886  2.7926  2.5424 -0.1468
  939MPD2    N113793   1.895   4.481   1.339 -0.0476 -0.1505 -0.2121
  939MPD2    H713794   1.892   4.462   1.439 -0.0419 -0.8734 -0.3501
  940MPD2     C13795   0.373   4.592  13.293 -0.1236 -0.0517  0.6894
  940MPD2    C113796   0.500   4.531  13.285 -0.0253 -0.6734  0.3692
  940MPD2    C213797   0.537   4.465  13.171  0.4744 -0.4570 -0.0195
  940MPD2    C313798   0.450   4.465  13.053 -0.7232 -0.1087  0.2477
  940MPD2    C413799   0.328   4.527  13.070 -0.1369 -0.9017  0.1910
  940MPD2    C513800   0.291   4.592  13.186  0.3713 -0.6836 -0.6988
  940MPD2     H13801   0.628   4.405  13.168  1.5132  1.1966 -1.4424
  940MPD2    H113802   0.254   4.533  12.991 -0.7193 -2.1364  0.6472
  940MPD2    H213803   0.333   4.647  13.378 -3.5119 -1.9855  0.3673
  940MPD2    H313804   0.190   4.627  13.202  1.0239  2.5452 -3.4585
  940MPD2     N13805   0.476   4.392  12.936  0.1988  0.5447 -0.0737
  940MPD2    H513806   0.409   4.375  12.861  0.0644 -2.0956  0.6285
  940MPD2    N113807   0.598   4.537  13.390  0.2516  0.2330  0.2961
  940MPD2    H713808   0.692   4.504  13.369  0.0391  0.3569 -0.8041
  941MPD2     C13809   3.977   4.334  10.272  0.5458  0.6535  0.3145
  941MPD2    C113810   4.088   4.277  10.318  0.4671 -0.2734  0.3923
  941MPD2    C213811   4.088   4.162  10.391 -0.6040 -0.2017 -0.5830
  941MPD2    C313812   3.967   4.100  10.408 -0.2559  0.0780  0.1232
  941MPD2    C413813   3.850   4.158  10.353  0.1967  0.5582  0.4179
  941MPD2    C513814   3.857   4.271  10.278 -0.1410  0.1365 -0.1612
  941MPD2     H13815   4.178   4.118  10.433 -1.6303 -1.1368  0.6563
  941MPD2    H113816   3.754   4.109  10.365  0.8082 -0.5064  0.9666
  941MPD2    H213817   3.978   4.428  10.217 -1.4975  1.1467  1.1339
  941MPD2    H313818   3.778   4.337  10.246 -0.4044 -0.5044 -0.7966
  941MPD2     N13819   3.953   3.982  10.479 -0.5162  0.0168 -0.6765
  941MPD2    H513820   3.857   3.955  10.497 -0.8262  0.7811 -1.1833
  941MPD2    N113821   4.218   4.343  10.312 -0.6040  0.4774 -0.1174
  941MPD2    H713822   4.299   4.305  10.359 -1.8622 -2.4861 -0.3165
  942MPD2     C13823   4.335   1.110   9.534  0.5034  0.2981 -0.4808
  942MPD2    C113824   4.337   1.011   9.438 -0.0962 -0.6053  0.3027
  942MPD2    C213825   4.428   1.022   9.338 -0.7629  0.0131  0.5147
  942MPD2    C313826   4.521   1.127   9.332 -0.1866  0.0051  0.1939
  942MPD2    C413827   4.527   1.214   9.435 -0.1500 -0.7501 -0.5303
  942MPD2    C513828   4.425   1.207   9.532 -0.4961 -0.2155 -0.0678
  942MPD2     H13829   4.432   0.941   9.266  1.7576  0.1637  0.4850
  942MPD2    H113830   4.599   1.295   9.444 -0.4264 -0.5085 -0.4881
  942MPD2    H213831   4.263   1.105   9.615  0.5211  0.4637 -0.4559
  942MPD2    H313832   4.420   1.281   9.611 -1.1360  1.6151 -1.8206
  942MPD2     N13833   4.624   1.136   9.231  0.0700 -0.0944 -0.4477
  942MPD2    H513834   4.687   1.216   9.236 -0.6029  0.5623 -2.7625
  942MPD2    N113835   4.248   0.900   9.430  0.2171  0.1049 -0.1940
  942MPD2    H713836   4.258   0.846   9.345 -1.4054  0.6985 -0.7514
  943MPD2     C13837   2.646   4.281   9.887 -1.3229 -0.5555  0.6438
  943MPD2    C113838   2.578   4.200   9.975  0.2846 -0.3348 -0.4322
  943MPD2    C213839   2.561   4.259  10.097 -0.3620 -0.0736  0.1533
  943MPD2    C313840   2.608   4.383  10.136  0.0894  0.5413 -0.5472
  943MPD2    C413841   2.677   4.454  10.048  0.1750 -0.5753  0.3903
  943MPD2    C513842   2.695   4.405   9.921  0.3717 -0.1846 -0.1425
  943MPD2     H13843   2.502   4.206  10.172  1.4660 -2.8650 -0.3934
  943MPD2    H113844   2.717   4.553  10.066 -2.6100  0.6167 -0.1102
  943MPD2    H213845   2.663   4.254   9.783 -0.6133 -0.8259  0.8235
  943MPD2    H313846   2.733   4.471   9.844 -0.9861 -2.2270 -2.5804
  943MPD2     N13847   2.597   4.434  10.263  0.1486  0.1468  0.3677
  943MPD2    H513848   2.612   4.534  10.267  2.9106 -0.2837  0.8818
  943MPD2    N113849   2.533   4.074   9.933  0.3754  0.0761  0.1505
  943MPD2    H713850   2.570   4.037   9.846  1.3156 -0.2827  0.7078
  944MPD2     C13851   3.334   3.668  10.801 -0.2577  0.5096 -0.2751
  944MPD2    C113852   3.201   3.702  10.794  0.3077  0.1766 -0.5842
  944MPD2    C213853   3.131   3.703  10.913  0.0440 -0.0365 -0.0391
  944MPD2    C313854   3.182   3.655  11.031 -0.1153 -0.5273 -0.0492
  944MPD2    C413855   3.314   3.612  11.032  0.5087 -0.6210 -0.7997
  944MPD2    C513856   3.385   3.616  10.916 -0.0067  1.0219 -0.5846
  944MPD2     H13857   3.027   3.736  10.912  0.0896  0.1151  0.1675
  944MPD2    H113858   3.362   3.573  11.121 -1.2498  1.6929  1.1420
  944MPD2    H213859   3.399   3.680  10.714  1.2146 -1.0764  0.5939
  944MPD2    H313860   3.490   3.588  10.918  0.0407  1.2108 -0.4666
  944MPD2     N13861   3.100   3.647  11.144  0.1402  0.2459  0.2671
  944MPD2    H513862   3.015   3.703  11.149  0.9187  1.2037  2.8206
  944MPD2    N113863   3.155   3.756  10.674 -0.1590  0.6719  0.0264
  944MPD2    H713864   3.221   3.751  10.598 -0.6793 -3.1368 -0.1724
    1TMC1    C113865   1.595   4.291  14.517  0.5614 -0.1168 -0.3901
    1TMC1    C213866   1.473   4.228  14.479  0.6790 -0.2521  0.0958
    1TMC1    C313867   1.475   4.091  14.463 -0.4309  0.0172  0.5623
    1TMC1    C413868   1.701   4.212  14.558  0.0487 -0.2755 -0.6879
    1TMC1    C513869   1.696   4.076  14.534  0.1136  0.1582  0.7910
    1TMC1    C613870   1.585   4.020  14.486  0.3908  0.7675  0.5759
    1TMC1     C13871   1.598   4.432  14.553  0.3814 -0.6556  0.2171
    1TMC1     O13872   1.694   4.457  14.623  0.1127  0.1793 -0.0593
    1TMC1     H13873   1.386   4.292  14.469  0.0226 -1.2553 -0.4976
    1TMC1    H113874   1.792   4.266  14.582 -0.2604  0.5157 -1.2674
    1TMC1    H213875   1.589   3.916  14.454 -0.0829  1.5195 -1.9704
    1TMC1    C713876   1.814   3.999  14.572  0.2229 -0.1047 -0.0802
    1TMC1    C813877   1.352   4.021  14.419 -0.1848 -0.1866 -0.9041
    1TMC1    O113878   1.845   3.888  14.536  0.5202  0.0673  0.3497
    1TMC1    O213879   1.351   3.925  14.347  0.2178  0.2826 -0.4609
    1TMC1    O313880   1.861   4.050  14.687  0.4045 -0.1799 -0.2812
    1TMC1    H313881   1.818   4.131  14.721 -0.5490 -0.7162 -0.2302
    1TMC1    O513882   1.252   4.110  14.435  0.7475  0.4842 -0.0588
    1TMC1    H513883   1.270   4.173  14.508  1.5547  1.1961 -0.8709
    2MPD2     C13884   1.464   0.180  14.522  0.1579 -0.5313  0.8479
    2MPD2    C113885   1.435   0.120  14.404  0.0085  0.0242 -1.0725
    2MPD2    C213886   1.454   4.721  14.395  1.0090 -0.0526  0.4423
    2MPD2    C313887   1.498   4.654  14.500  0.0822 -0.1841  0.5381
    2MPD2    C413888   1.530   4.712  14.619 -0.0498  0.5023  0.6968
    2MPD2    C513889   1.515   0.110  14.627  0.1535  0.2945 -0.1825
    2MPD2     H13890   1.437   4.669  14.301  0.4074  1.3290 -0.2289
    2MPD2    H113891   1.560   4.656  14.706  1.2320  1.3345  0.7946
    2MPD2    H213892   1.448   0.287  14.523  1.9604 -0.2376 -1.2282
    2MPD2    H313893   1.533   0.165  14.719 -0.3861 -2.2085  1.4211
    2MPD2     N13894   1.518   4.516  14.481 -0.1837 -0.6059  0.2543
    2MPD2    H513895   1.472   4.479  14.398  0.9487 -1.4788  0.0154
    2MPD2    N113896   1.389   0.208  14.296  0.0235 -0.2300 -0.2485
    2MPD2    H713897   1.370   0.305  14.322  3.1715  0.0781  0.8610
    3TMC2    C113898   1.292   0.264  14.078 -0.0964  0.0675 -0.2249
    3TMC2    C213899   1.314   0.401  14.088  0.6901  0.2195 -0.2764
    3TMC2    C313900   1.255   0.472  13.987 -0.5323 -0.4767  0.3481
    3TMC2    C413901   1.232   0.207  13.970  0.2989  0.0572 -0.1584
    3TMC2    C513902   1.170   0.285  13.881 -0.6069 -1.0255 -0.1006
    3TMC2    C613903   1.187   0.420  13.884 -0.0479  0.0356 -0.2876
    3TMC2     C13904   1.344   0.163  14.172 -0.0982 -0.0263  0.2444
    3TMC2     O13905   1.311   0.047  14.147  0.2262 -0.0402 -0.0835
    3TMC2     H13906   1.378   0.447  14.162 -1.5724 -0.4326  2.0944
    3TMC2    H113907   1.208   0.101  13.963  1.1662 -0.1449 -0.0924
    3TMC2    H213908   1.129   0.491  13.826 -1.5514  0.5130  1.7975
    3TMC2    C713909   1.071   0.229  13.792 -0.6445  0.1074 -0.5929
    3TMC2    C813910   1.280   0.616  13.979 -0.3571  0.5869 -0.3832
    3TMC2    O113911   1.036   0.115  13.820 -0.8420 -0.3602  0.2845
    3TMC2    O213912   1.310   0.692  14.073  0.5872 -0.6264 -0.7673
    3TMC2    O513913   1.300   0.641  13.849 -0.0193 -1.0731 -0.7323
    3TMC2    H513914   1.279   0.556  13.805 -0.8929 -1.2035 -0.0752
    4TMC2    C113915   0.502   0.826  13.203  0.1523  0.1784 -0.2964
    4TMC2    C213916   0.475   0.754  13.091  0.6281  0.2852 -0.2762
    4TMC2    C313917   0.546   0.643  13.066  0.2284 -0.1845 -0.6429
    4TMC2    C413918   0.601   0.791  13.290  0.5421  0.3457 -0.2116
    4TMC2    C513919   0.679   0.684  13.259 -0.1706  0.2272  0.1770
    4TMC2    C613920   0.650   0.608  13.151  0.6977 -0.5975  0.5220
    4TMC2     C13921   0.421   0.938  13.232  0.3477  0.2016 -0.1877
    4TMC2     O13922   0.473   1.032  13.290  0.5074 -0.1762 -0.7601
    4TMC2     H13923   0.401   0.798  13.026  0.2051  1.0808  0.7504
    4TMC2    H113924   0.607   0.838  13.387  0.2651 -1.2484  0.5831
    4TMC2    H213925   0.717   0.529  13.119 -1.1370 -1.3460 -1.4869
    4TMC2    C713926   0.744   0.624  13.373 -0.6240 -0.4185 -0.8546
    4TMC2    C813927   0.515   0.572  12.945 -0.5867 -0.0718  0.1918
    4TMC2    O113928   0.812   0.685  13.453  0.3944  0.5850  0.0001
    4TMC2    O213929   0.589   0.485  12.896  0.0822  0.0072  0.1051
    4TMC2    O513930   0.393   0.605  12.891 -0.0247 -0.3918 -0.2054
    4TMC2    H513931   0.322   0.631  12.953  0.6105  1.4138 -0.2371
    5MPD2     C13932   4.688   1.170  13.289  0.4503  0.2107 -0.0180
    5MPD2    C113933   4.669   1.040  13.253  0.0270 -0.3372  0.1146
    5MPD2    C213934   0.040   0.957  13.223 -0.0091  0.0884 -0.4135
    5MPD2    C313935   0.175   0.996  13.243  0.2474 -0.0227 -0.0928
    5MPD2    C413936   0.193   1.127  13.283 -0.4582  1.0891  0.5183
    5MPD2    C513937   0.084   1.206  13.314 -0.1587  0.0249 -0.5928
    5MPD2     H13938   0.015   0.864  13.173 -1.6903  0.6885 -0.7018
    5MPD2    H113939   0.291   1.171  13.300 -0.4162  1.2822 -0.2229
    5MPD2    H213940   4.602   1.236  13.301  0.7511  0.6547 -0.2981
    5MPD2    H313941   0.098   1.308  13.345 -1.8356  0.4465 -1.2294
    5MPD2     N13942   0.283   0.912  13.213  1.0804 -0.2204  0.7265
    5MPD2    H513943   0.264   0.818  13.178  0.4756 -0.4531  1.6791
    5MPD2    N113944   4.534   1.006  13.229 -0.4397 -0.2533 -0.7492
    5MPD2    H713945   4.464   1.079  13.237 -0.4071 -0.3995  0.9783
    6MPD1     C13946   4.141   2.362  13.441 -0.2330  0.8904 -0.2807
    6MPD1    C113947   4.008   2.331  13.414 -0.0361  0.0596  0.0071
    6MPD1    C213948   3.959   2.210  13.465 -1.1043 -0.0476 -0.4875
    6MPD1    C313949   4.041   2.115  13.527  0.5957 -0.0882 -0.4099
    6MPD1    C413950   4.174   2.146  13.541 -0.0333  0.0853  0.2207
    6MPD1    C513951   4.222   2.269  13.510 -0.2161  0.4750  1.0213
    6MPD1     H13952   3.856   2.185  13.443 -1.0042 -0.5270 -0.4183
    6MPD1    H113953   4.247   2.074  13.576 -0.6413 -0.7006 -0.1337
    6MPD1    H213954   4.188   2.453  13.405 -1.7604  1.6088 -0.4455
    6MPD1    H313955   4.326   2.290  13.532 -0.2212  0.3582  1.1513
    6MPD1     N13956   4.000   1.987  13.563  0.2847 -0.2444  0.0455
    6MPD1    H513957   4.066   1.922  13.606  0.4651  0.9770  1.6086
    6MPD1    N113958   3.919   2.433  13.372 -0.2744  0.0537 -0.1823
    6MPD1    H613959   3.838   2.404  13.317 -0.4108  0.3949 -0.1577
    6MPD1    H713960   3.974   2.502  13.321 -1.8053  2.0324  0.8773
    7MPD2     C13961   4.282   1.313  13.736  0.2130 -0.5832  0.4708
    7MPD2    C113962   4.171   1.286  13.661 -0.3239 -0.1485 -0.0224
    7MPD2    C213963   4.156   1.166  13.592  0.3690  0.1831 -0.3103
    7MPD2    C313964   4.249   1.066  13.609 -0.3487 -0.3681 -0.0276
    7MPD2    C413965   4.363   1.088  13.678 -0.6243  0.3941  0.1036
    7MPD2    C513966   4.377   1.211  13.746  0.2783  0.1533 -0.8208
    7MPD2     H13967   4.069   1.149  13.529  0.0729  0.0084  0.1433
    7MPD2    H113968   4.440   1.015  13.697 -0.7517 -0.6181 -3.2635
    7MPD2    H213969   4.298   1.405  13.791  0.9993 -0.7332  0.4980
    7MPD2    H313970   4.459   1.233  13.813 -1.1454 -1.7256  1.5490
    7MPD2     N13971   4.240   0.937  13.547  0.0193  0.6560  0.3528
    7MPD2    H513972   4.321   0.875  13.555 -1.1653 -0.9037  0.1991
    7MPD2    N113973   4.062   1.378  13.645 -0.4190  0.5791  0.3633
    7MPD2    H713974   3.991   1.351  13.578  0.4691 -1.0085  0.0669
    8TMC3    C113975   4.165   0.796  13.369 -0.3146 -0.0563 -0.3139
    8TMC3    C213976   4.297   0.798  13.350  0.0594  0.5029 -0.3855
    8TMC3    C313977   4.342   0.868  13.243  0.1643  0.9062 -0.4035
    8TMC3    C413978   4.078   0.830  13.270  0.8452  0.3141  0.0193
    8TMC3    C513979   4.128   0.897  13.158  0.1704 -0.1217 -0.0641
    8TMC3    C613980   4.258   0.920  13.147 -0.7285  0.2830  0.0016
    8TMC3     C13981   4.133   0.894  13.477  0.4839  0.4289  0.5765
    8TMC3     O13982   4.019   0.945  13.476 -0.1482 -0.4047 -1.0348
    8TMC3     H13983   4.358   0.749  13.425 -0.4119 -0.5452 -0.6725
    8TMC3    H113984   3.974   0.808  13.290  0.3830  1.3475 -1.2351
    8TMC3    H213985   4.294   0.968  13.057  0.4995  0.4474  0.5800
    8TMC3    C713986   4.058   1.019  13.132  0.7253 -0.6192  0.8389
    8TMC3    C813987   4.484   0.880  13.229  0.1155  0.3620 -0.6774
    8TMC3    O113988   4.125   1.123  13.140  0.6610  0.1111  0.1660
    8TMC3    O213989   4.541   0.775  13.267 -0.1155  0.3208  0.3214
    9TMC3    C113990   3.855   1.782  13.563 -0.4258  0.2921 -0.3033
    9TMC3    C213991   3.756   1.718  13.490  0.4750  0.3656 -0.0808
    9TMC3    C313992   3.753   1.578  13.506  0.3550  0.8340  0.1731
    9TMC3    C413993   3.941   1.714  13.649  0.5249 -0.1961 -0.0489
    9TMC3    C513994   3.940   1.579  13.649 -0.1669 -0.2803 -0.1092
    9TMC3    C613995   3.849   1.503  13.575  0.2538  0.2409 -0.0962
    9TMC3     C13996   3.870   1.932  13.541 -0.6625  0.4212 -0.1954
    9TMC3     O13997   3.766   1.976  13.496  0.6157  0.0723  0.5664
    9TMC3     H13998   3.691   1.771  13.421  0.1916  0.5487  0.3263
    9TMC3    H113999   4.008   1.771  13.711  0.7375 -0.7627  0.2422
    9TMC3    H214000   3.827   1.398  13.594  0.5124  0.0977 -0.5674
    9TMC3    C714001   4.036   1.496  13.709  0.3008  0.4704  0.0200
    9TMC3    C814002   3.695   1.510  13.395 -0.0245  0.0458 -0.4580
    9TMC3    O114003   4.123   1.567  13.755 -0.5863 -0.3181  0.0574
    9TMC3    O214004   3.592   1.555  13.348  0.2288  0.0436 -0.0084
   10MPD2     C14005   3.691   1.062  13.140 -0.0732 -0.0829  0.4352
   10MPD2    C114006   3.823   1.100  13.151 -0.1271  0.4832 -0.3554
   10MPD2    C214007   3.850   1.220  13.215 -0.3470 -0.2331  0.3661
   10MPD2    C314008   3.750   1.300  13.262  0.1938  0.1947 -0.3123
   10MPD2    C414009   3.619   1.269  13.237  0.4242  0.5305 -0.0979
   10MPD2    C514010   3.593   1.154  13.168  0.0442  0.4734 -0.6164
   10MPD2     H14011   3.954   1.246  13.235 -0.8414  1.8183  0.2013
   10MPD2    H114012   3.535   1.333  13.257  0.5932  1.0821 -1.1815
   10MPD2    H214013   3.663   0.960  13.114  0.5965 -0.4881  1.3263
   10MPD2    H314014   3.488   1.138  13.145 -0.1938  1.3056 -0.0985
   10MPD2     N14015   3.780   1.412  13.344  0.2952  0.8417 -0.4435
   10MPD2    H514016   3.877   1.423  13.368  0.2304  0.2902  0.0764
   10MPD2    N114017   3.924   1.000  13.126 -0.3259 -0.1091  0.2629
   10MPD2    H714018   3.888   0.907  13.106  1.3188 -0.6314 -0.2629
   11MPD2     C14019   0.808   0.195  13.656 -0.3862  0.8141  0.3238
   11MPD2    C114020   0.886   0.304  13.634  0.7478 -0.7060 -0.0914
   11MPD2    C214021   0.855   0.403  13.548 -0.8763  0.1926  0.4376
   11MPD2    C314022   0.729   0.404  13.486 -0.6951  0.0257 -0.3148
   11MPD2    C414023   0.650   0.293  13.504 -0.2629 -0.4471 -0.4413
   11MPD2    C514024   0.695   0.188  13.581  0.1386 -0.3739 -0.0832
   11MPD2     H14025   0.928   0.483  13.539  0.4256 -0.6891  3.1182
   11MPD2    H114026   0.558   0.287  13.447  0.5697 -0.2078 -1.8005
   11MPD2    H214027   0.834   0.124  13.734 -0.4757 -1.5157 -1.7918
   11MPD2    H314028   0.625   0.106  13.599 -0.1461 -0.2579 -0.6504
   11MPD2     N14029   0.682   0.509  13.392 -0.1999  0.2514  0.0148
   11MPD2    H514030   0.591   0.497  13.349 -0.2119 -0.0340  0.1202
   11MPD2    N114031   1.008   0.316  13.702 -0.1811  0.3062  0.2557
   11MPD2    H714032   1.067   0.396  13.678 -1.5340  0.8503 -1.2155
    1MPD1     C14033   2.980   1.828  15.964 -0.1297 -0.0655 -1.3468
    1MPD1    C114034   3.002   1.788  16.095  0.0014  0.4708 -0.3393
    1MPD1    C214035   3.127   1.745  16.130 -0.0897  0.3964 -0.1582
    1MPD1    C314036   3.240   1.759  16.052  0.2954 -0.4629  0.0546
    1MPD1    C414037   3.217   1.817  15.932  0.2480  0.0753  0.0158
    1MPD1    C514038   3.088   1.841  15.888 -0.2644  0.0038 -0.1270
    1MPD1     H14039   3.136   1.691  16.224 -2.0437  0.8608  0.2866
    1MPD1    H114040   3.303   1.834  15.868 -0.8939 -1.8461 -2.0054
    1MPD1    H214041   2.882   1.848  15.923  0.6656  0.6958 -2.8812
    1MPD1    H314042   3.085   1.884  15.789  0.2890 -0.3289 -0.2901
    1MPD1     N14043   3.374   1.729  16.101  0.1815 -0.1477 -0.1682
    1MPD1    H514044   3.445   1.748  16.031 -0.6092  1.5356 -0.5250
    1MPD1    N114045   2.893   1.774  16.182 -0.0347 -0.5632  0.0056
    1MPD1    H614046   2.925   1.759  16.278  0.2132 -0.8993 -0.1286
    1MPD1    H714047   2.843   1.862  16.181 -1.0697 -1.1119  2.0986
    2MPD1     C14048   3.687   1.809  17.022 -0.9135  0.2251  0.5973
    2MPD1    C114049   3.573   1.838  16.951  0.0634 -0.1323 -0.0955
    2MPD1    C214050   3.570   1.805  16.816 -0.2206 -0.5756 -0.0927
    2MPD1    C314051   3.677   1.735  16.761 -0.0964 -0.8516 -0.3365
    2MPD1    C414052   3.788   1.706  16.830  0.5736 -0.2348  0.2503
    2MPD1    C514053   3.793   1.744  16.957 -0.1376  0.4535  0.6964
    2MPD1     H14054   3.483   1.836  16.760 -0.2719 -1.7117 -0.6532
    2MPD1    H114055   3.866   1.645  16.787 -0.2818 -0.7276 -0.6160
    2MPD1    H214056   3.702   1.844  17.124 -0.6894  1.7212  0.0489
    2MPD1    H314057   3.881   1.721  17.015 -0.5290  0.4353  1.2892
    2MPD1     N14058   3.669   1.714  16.620  0.8893  0.8815 -0.4028
    2MPD1    H514059   3.583   1.742  16.574 -0.6532 -0.9356  1.3934
    2MPD1    N114060   3.483   1.934  16.989  0.3035  0.0893  0.2941
    2MPD1    H614061   3.485   1.937  17.090  2.0183 -0.9697  0.2750
    2MPD1    H714062   3.388   1.923  16.953 -0.5004  0.1121  2.4343
    3TMC3    C114063   3.724   1.690  16.400  0.4807  0.3665  0.0942
    3TMC3    C214064   3.805   1.760  16.322  0.3295 -0.4760 -0.2544
    3TMC3    C314065   3.746   1.796  16.204  0.6172  0.2800 -0.1553
    3TMC3    C414066   3.594   1.654  16.374 -0.8823  0.4186  0.4859
    3TMC3    C514067   3.552   1.689  16.247 -0.4210  0.9104  0.5658
    3TMC3    C614068   3.624   1.758  16.162 -0.1724 -1.1931 -0.0701
    3TMC3     C14069   3.766   1.680  16.535 -0.7161 -0.4822  1.1985
    3TMC3     O14070   3.886   1.657  16.551 -0.4055  0.4697  0.3582
    3TMC3     H14071   3.902   1.797  16.355 -0.4152  0.8988  0.3379
    3TMC3    H114072   3.540   1.579  16.430  0.8093 -0.2368  1.2487
    3TMC3    H214073   3.589   1.820  16.080  0.6631  1.0273  1.2504
    3TMC3    C714074   3.409   1.688  16.226  1.3456 -0.8800 -0.2291
    3TMC3    C814075   3.811   1.909  16.126 -0.6948  0.5101  0.5439
    3TMC3    O114076   3.347   1.650  16.322  0.2175  0.1796 -0.0601
    3TMC3    O214077   3.738   1.991  16.068 -0.3349  0.2108 -0.2942
    4MPD1     C14078   4.212   2.178  15.963  0.2670 -0.3440  1.1977
    4MPD1    C114079   4.259   2.062  16.006  0.0984 -0.0328  0.1625
    4MPD1    C214080   4.166   1.984  16.077  0.0627 -0.6419 -0.2555
    4MPD1    C314081   4.031   2.010  16.094  0.4899 -0.7422 -0.7016
    4MPD1    C414082   3.986   2.132  16.049 -0.3497  0.0055  0.5516
    4MPD1    C514083   4.082   2.211  15.990 -0.0877  0.9720  0.1227
    4MPD1     H14084   4.210   1.890  16.109  0.8331 -0.1040  0.2789
    4MPD1    H114085   3.883   2.163  16.067  0.1958  0.4675  2.8429
    4MPD1    H214086   4.270   2.252  15.910 -1.5846  0.3174  0.1100
    4MPD1    H314087   4.042   2.308  15.964  0.5059  1.2732  0.3329
    4MPD1     N14088   3.947   1.912  16.149  0.1454 -1.2096  0.4432
    4MPD1    H514089   3.997   1.841  16.203 -0.4453 -1.6493  0.4069
    4MPD1    N114090   4.396   2.040  16.004 -0.0636 -0.1634 -0.5264
    4MPD1    H614091   4.411   1.940  16.013 -0.6709 -0.0728  1.3620
    4MPD1    H714092   4.429   2.064  15.911 -0.1329 -0.7047 -0.6891
    1TCq1    O114093   3.280   4.677  10.925  0.1816 -0.2398  0.0455
    1TCq1    C114094   3.272   4.623  11.052  0.3268 -0.3601 -0.7470
    1TCq1    O214095   3.196   4.651  11.144  0.1206 -0.1811  0.0658
    1TCq1    C214096   3.373   4.515  11.059  0.3656 -0.5079  0.7032
    1TCq1    C314097   3.377   4.444  11.172  0.0875  0.1434  0.5629
    1TCq1    C414098   3.454   4.337  11.183 -0.0573 -0.2602 -0.0358
    1TCq1    C514099   3.568   4.327  11.101  0.2221  0.1577  0.9308
    1TCq1    C614100   3.574   4.412  10.994 -0.2788 -0.5211  0.5933
    1TCq1    C714101   3.469   4.496  10.962  0.3724  0.1789 -0.5224
    1TCq1    C814102   3.693   4.412  10.910  0.8896 -0.3490 -0.7814
    1TCq1    O414103   3.690   4.478  10.808  0.2659  0.3151 -0.1240
    1TCq1    C914104   3.477   4.284  11.311  0.2708 -0.6578 -0.7480
    1TCq1    O514105   3.382   4.274  11.398 -0.1339 -0.2241 -0.1121
    1TCq1    O614106   3.598   4.275  11.348  0.6882  0.1770 -0.2990
    1TCq1    H114107   3.315   4.612  10.860  0.9338 -0.9669  1.1812
    1TCq1    H214108   3.291   4.456  11.237  0.2025  3.0896  0.1767
    1TCq1    H314109   3.640   4.250  11.124 -2.8322 -1.9423  3.4691
    1TCq1    H414110   3.479   4.559  10.874  2.1317  2.1162  1.0474
    2MPD1     C14111   4.139   4.178  10.793  1.1524 -0.1485  0.0254
    2MPD1    C114112   4.084   4.113  10.904  0.2132  0.4066 -0.3611
    2MPD1    C214113   3.958   4.159  10.957 -0.8493  0.2602  0.3312
    2MPD1    C314114   3.888   4.260  10.889  0.3861 -0.5459  0.1500
    2MPD1    C414115   3.946   4.318  10.778  1.0804  0.0321  0.0460
    2MPD1    C514116   4.066   4.277  10.731  0.1173  0.2413  0.3523
    2MPD1     H14117   3.922   4.123  11.052 -0.7177 -1.7911 -0.3995
    2MPD1    H114118   3.894   4.396  10.724 -0.3088 -1.2829 -0.5297
    2MPD1    H214119   4.239   4.155  10.758  2.3690  1.1217  2.6690
    2MPD1    H314120   4.112   4.333  10.651 -0.8676  0.0708 -0.3415
    2MPD1     N14121   3.775   4.308  10.950 -0.0748  0.0855 -0.0855
    2MPD1    H514122   3.750   4.274  11.043 -3.7485 -0.4260 -1.2620
    2MPD1    N114123   4.145   3.998  10.943 -0.0559  0.0507  0.2054
    2MPD1    H614124   4.245   3.993  10.924  0.2174  3.2697  0.7282
    2MPD1    H714125   4.134   3.989  11.044  1.4877 -0.1053  0.3598
    1TMC1    C114126   3.365   0.320   0.519  0.0431  0.0350  0.5608
    1TMC1    C214127   3.264   0.255   0.574  0.0373 -0.3505 -0.4506
    1TMC1    C314128   3.220   0.299   0.695  0.4216  0.8108 -0.0818
    1TMC1    C414129   3.438   0.417   0.586  0.0877  0.1381  0.1811
    1TMC1    C514130   3.377   0.471   0.689  0.2559  0.7171  0.3409
    1TMC1    C614131   3.270   0.410   0.751 -0.5548  0.3929  0.3368
    1TMC1     C14132   3.417   0.263   0.391 -0.7594  0.2463  0.2240
    1TMC1     O14133   3.369   0.157   0.359 -0.4663  1.0273  0.3621
    1TMC1     H14134   3.201   0.191   0.513  0.0688 -0.1256 -0.7207
    1TMC1    H114135   3.517   0.473   0.536  0.0816 -2.4087 -2.6881
    1TMC1    H214136   3.220   0.463   0.832 -0.3146  1.7541 -0.3945
    1TMC1    C714137   3.450   0.555   0.782 -0.3088 -0.0725  0.0034
    1TMC1    C814138   3.088   0.269   0.743 -0.3241  0.1740 -0.1098
    1TMC1    O114139   3.394   0.630   0.859 -0.0295 -0.0178 -0.4523
    1TMC1    O214140   3.028   0.350   0.810 -0.6953  0.0157 -0.5624
    1TMC1    O314141   3.572   0.500   0.800  1.0104  0.0908 -0.2709
    1TMC1    H314142   3.577   0.410   0.760  0.1736 -1.0420  2.1159
    1TMC1    O514143   3.044   0.146   0.693  0.5216 -0.4064 -0.1114
    1TMC1    H514144   3.113   0.094   0.646  3.3473  2.3245  0.9892
    2MPD1     C14145   3.652   0.296  17.695 -0.0987 -0.4498 -0.2186
    2MPD1    C114146   3.684   0.414   0.018  0.3850 -0.6359 -0.0668
    2MPD1    C214147   3.626   0.430   0.146 -0.6391 -0.1055 -0.2901
    2MPD1    C314148   3.563   0.323   0.203  0.4247 -0.9980  0.5241
    2MPD1    C414149   3.553   0.199   0.133  0.0950 -0.9436  0.7330
    2MPD1    C514150   3.603   0.188   0.003 -0.6425 -0.2618 -0.1594
    2MPD1     H14151   3.618   0.525   0.198 -0.8023 -0.5793  0.5432
    2MPD1    H114152   3.508   0.110   0.173  2.1736 -1.9891  0.7689
    2MPD1    H214153   3.685   0.284  17.593  0.7529 -0.6991  0.0880
    2MPD1    H314154   3.588   0.102  17.687 -0.4080  0.8443 -1.7249
    2MPD1     N14155   3.505   0.348   0.329  0.7133  0.9428  0.7435
    2MPD1    H514156   3.525   0.436   0.376 -1.1976  1.5196  0.4807
    2MPD1    N114157   3.747   0.518  17.694  0.2806  0.1678 -0.3158
    2MPD1    H614158   3.787   0.591   0.005  0.6699  0.7211 -1.2534
    2MPD1    H714159   3.814   0.477  17.630  0.9179 -0.6506  0.8773
    1MPD1     C14160   2.005   0.878  11.176 -0.0407  0.3170  0.5377
    1MPD1    C114161   2.092   0.826  11.257  0.0345  1.5477 -0.8819
    1MPD1    C214162   2.052   0.774  11.379  0.1772 -0.4519 -0.6948
    1MPD1    C314163   1.926   0.793  11.424 -0.2280 -0.1391 -0.4851
    1MPD1    C414164   1.835   0.858  11.347  0.1923  0.2356  0.6381
    1MPD1    C514165   1.872   0.891  11.220  0.0280 -0.7057 -0.1205
    1MPD1     H14166   2.123   0.716  11.436  0.0613 -0.0604 -0.1464
    1MPD1    H114167   1.731   0.873  11.371  0.8056  1.8617  2.2204
    1MPD1    H214168   2.032   0.908  11.076  0.4589 -0.5794  0.4029
    1MPD1    H314169   1.812   0.953  11.155 -2.6747  0.0509  3.1063
    1MPD1     N14170   1.893   0.736  11.548  0.1221 -0.1196 -0.1139
    1MPD1    H514171   1.968   0.685  11.593  1.4574  2.2389  0.3408
    1MPD1    N114172   2.218   0.797  11.201 -0.4373 -0.6173 -0.0526
    1MPD1    H614173   2.283   0.765  11.272  0.4418  0.0104 -0.5764
    1MPD1    H714174   2.249   0.869  11.136  2.5532 -0.1519  1.9202
    2MPD1     C14175   0.838   1.153  11.386  0.0092 -0.2810 -0.0448
    2MPD1    C114176   0.861   1.220  11.265 -0.9402  1.1400 -0.0620
    2MPD1    C214177   0.982   1.273  11.243  0.0868  0.5406 -0.0894
    2MPD1    C314178   1.086   1.282  11.336  0.2691  0.1870  0.4709
    2MPD1    C414179   1.054   1.232  11.463 -0.8049  0.2905 -0.2745
    2MPD1    C514180   0.938   1.154  11.482  0.1183  1.2700  0.0582
    2MPD1     H14181   1.004   1.322  11.148  0.0231  0.1788 -0.2896
    2MPD1    H114182   1.125   1.226  11.545  0.9572  1.8673 -1.6801
    2MPD1    H214183   0.746   1.097  11.397  1.0259 -2.3010 -1.7222
    2MPD1    H314184   0.917   1.103  11.575 -0.8888  0.2740 -0.7189
    2MPD1     N14185   1.211   1.356  11.318  0.6369  0.3078 -0.3703
    2MPD1    H514186   1.269   1.369  11.400  0.2981 -2.0350  0.2454
    2MPD1    N114187   0.761   1.229  11.163  0.9873  0.0152  0.3645
    2MPD1    H614188   0.787   1.307  11.103  3.5693 -0.8148  0.4239
    2MPD1    H714189   0.670   1.239  11.209  0.0731  0.9699 -1.6729
    3MPD1     C14190   1.824   1.638  10.524  0.2711  0.2815  0.0518
    3MPD1    C114191   1.747   1.523  10.537  0.0243  0.4129 -0.9778
    3MPD1    C214192   1.674   1.515  10.649 -0.2786  0.1008  0.0986
    3MPD1    C314193   1.709   1.584  10.767 -0.0023  0.5799  0.0560
    3MPD1    C414194   1.802   1.681  10.761  0.1700 -0.9573  0.1694
    3MPD1    C514195   1.866   1.699  10.642  0.2625 -0.0391  0.5623
    3MPD1     H14196   1.587   1.451  10.661 -1.4041  1.2988 -1.6369
    3MPD1    H114197   1.838   1.744  10.841  0.1321  0.4284 -0.9146
    3MPD1    H214198   1.873   1.668  10.432  2.2542  3.1481  2.0575
    3MPD1    H314199   1.925   1.789  10.634 -1.0786  0.8029  0.1428
    3MPD1     N14200   1.639   1.551  10.890  0.1265 -0.0893 -0.6276
    3MPD1    H514201   1.564   1.484  10.875  1.0873 -1.2057 -0.4279
    3MPD1    N114202   1.719   1.445  10.427 -0.2262  0.0582 -0.3023
    3MPD1    H614203   1.685   1.350  10.438  1.6777 -0.8711 -2.5649
    3MPD1    H714204   1.784   1.444  10.349 -0.0873 -0.3799 -0.1819
    4MPD2     C14205   1.284   0.897  12.043 -0.0821 -0.0813 -0.1288
    4MPD2    C114206   1.424   0.911  12.059 -0.7512 -0.9298 -0.4682
    4MPD2    C214207   1.473   1.033  12.098 -0.5136  0.4890  0.5229
    4MPD2    C314208   1.389   1.134  12.125  0.0420 -0.8197  0.5175
    4MPD2    C414209   1.255   1.127  12.106  0.0901  0.2022  0.0521
    4MPD2    C514210   1.204   1.003  12.084 -0.9060  0.0186  0.5432
    4MPD2     H14211   1.581   1.036  12.100 -0.3856 -2.8382 -1.4789
    4MPD2    H114212   1.198   1.219  12.108 -1.7745 -0.9498 -0.1105
    4MPD2    H214213   1.233   0.805  12.019 -2.5598  1.7059 -1.7431
    4MPD2    H314214   1.098   0.985  12.070 -1.2869  0.5714  2.7673
    4MPD2     N14215   1.448   1.263  12.168  0.1742  0.0186  0.5163
    4MPD2    H514216   1.381   1.339  12.175  0.3010  0.0209  1.6524
    4MPD2    N114217   1.528   0.820  12.026 -0.0624 -0.3612 -0.2212
    4MPD2    H714218   1.623   0.845  12.052 -0.8885  2.0645  0.5234
    5TMC3    C114219   1.636   0.642  11.916  0.5521 -0.1983 -0.1335
    5TMC3    C214220   1.661   0.636  11.783 -0.4549  0.4031 -0.5162
    5TMC3    C314221   1.780   0.676  11.733 -0.0128  0.8215  0.3177
    5TMC3    C414222   1.735   0.675  12.004  0.7307 -0.2247  0.0751
    5TMC3    C514223   1.857   0.719  11.959  0.7176 -0.5604 -0.0548
    5TMC3    C614224   1.877   0.722  11.822  0.6603 -0.3127  0.0552
    5TMC3     C14225   1.510   0.709  11.943  0.4300 -0.7889 -0.1239
    5TMC3     O14226   1.409   0.682  11.884  0.1419 -0.0439  0.3093
    5TMC3     H14227   1.573   0.614  11.723 -1.8525  0.9461  1.3583
    5TMC3    H114228   1.706   0.674  12.108  1.4406  0.0751  0.2787
    5TMC3    H214229   1.974   0.753  11.786  0.4969 -1.0073 -0.9842
    5TMC3    C714230   1.897   0.831  12.041 -0.4544 -0.0238 -0.6941
    5TMC3    C814231   1.771   0.732  11.603 -0.0638 -0.6780  0.5324
    5TMC3    O114232   1.823   0.857  12.134 -0.9782 -0.3579  0.4440
    5TMC3    O214233   1.665   0.785  11.569 -0.3755  0.1057 -0.0274
    6TMC3    C114234   1.381   1.477  11.203  0.0444  0.2816  0.2035
    6TMC3    C214235   1.466   1.493  11.098 -0.6037 -0.1089 -0.5797
    6TMC3    C314236   1.596   1.533  11.120  0.3918 -0.6163 -0.4376
    6TMC3    C414237   1.418   1.533  11.326  0.1481 -0.0679  0.4041
    6TMC3    C514238   1.548   1.569  11.345 -0.1898  0.1046 -0.0431
    6TMC3    C614239   1.639   1.575  11.246  0.4622 -0.1352 -0.1758
    6TMC3     C14240   1.268   1.378  11.196  0.2953  0.2558  0.4804
    6TMC3     O14241   1.238   1.331  11.088  0.1249 -0.4148 -0.1340
    6TMC3     H14242   1.445   1.465  10.995  0.1636 -1.8924 -0.2439
    6TMC3    H114243   1.342   1.547  11.402  0.8667  0.3901  1.0414
    6TMC3    H214244   1.741   1.604  11.271  0.5975  0.3131 -1.2528
    6TMC3    C714245   1.576   1.624  11.475  0.3853 -0.2305 -0.2819
    6TMC3    C814246   1.687   1.577  11.017  0.1645 -0.6091  0.3507
    6TMC3    O114247   1.507   1.574  11.562  0.2697 -0.2893 -0.8320
    6TMC3    O214248   1.776   1.651  11.047 -0.0149 -0.4910 -0.0088
    7MPD2     C14249   2.152   1.250  12.172  0.2438 -0.3047  0.8514
    7MPD2    C114250   2.014   1.220  12.166  0.4652 -0.0669 -0.0583
    7MPD2    C214251   1.971   1.102  12.120 -0.4034  0.2971 -0.2689
    7MPD2    C314252   2.061   1.013  12.067  0.5625 -0.1748  0.2358
    7MPD2    C414253   2.198   1.046  12.056 -0.1833  0.8590 -0.4212
    7MPD2    C514254   2.244   1.159  12.125 -0.2099 -0.0927  0.0599
    7MPD2     H14255   1.864   1.089  12.104  0.1275 -0.6035 -2.9975
    7MPD2    H114256   2.265   0.973  12.013  1.7210  2.7611 -0.6832
    7MPD2    H214257   2.192   1.333  12.228 -1.6758  2.7808 -2.3320
    7MPD2    H314258   2.352   1.171  12.131 -0.2441  0.2483 -0.0012
    7MPD2     N14259   2.019   0.889  12.009 -0.0258  0.3582  0.1404
    7MPD2    H514260   2.086   0.837  11.954 -0.7324  1.2469 -1.5592
    7MPD2    N114261   1.919   1.314  12.217 -0.1820 -0.1997 -0.0519
    7MPD2    H714262   1.824   1.278  12.221 -0.3207  0.0264 -1.4687
    8TMC3    C114263   1.829   1.504  12.283  0.4475 -0.4046 -0.4905
    8TMC3    C214264   1.800   1.591  12.187  0.4068 -1.0326 -0.3480
    8TMC3    C314265   1.681   1.597  12.119 -0.2613 -0.1146  0.0701
    8TMC3    C414266   1.728   1.418  12.322 -1.0028  0.1708 -0.1979
    8TMC3    C514267   1.610   1.417  12.255 -0.1730 -0.2393 -0.0589
    8TMC3    C614268   1.586   1.502  12.146 -0.2624 -0.2839 -0.5246
    8TMC3     C14269   1.950   1.440  12.240  0.1277  0.6220  0.5518
    8TMC3     O14270   2.044   1.509  12.203 -0.2250  0.3376  0.2561
    8TMC3     H14271   1.879   1.655  12.150 -3.0905  2.8892 -1.1080
    8TMC3    H114272   1.745   1.338  12.393  1.7526  1.6215  0.7752
    8TMC3    H214273   1.492   1.496  12.093 -0.7947  0.4161  0.3256
    8TMC3    C714274   1.574   1.281  12.220 -0.3592 -0.8970  0.0667
    8TMC3    C814275   1.690   1.618  11.977  0.1299 -0.1529 -0.1989
    8TMC3    O114276   1.670   1.206  12.226  0.2910  0.0894  0.7897
    8TMC3    O214277   1.645   1.534  11.901  0.3403  0.4489  1.0641
    9MPD2     C14278   1.802   1.923  11.802  0.2645  0.1487 -0.6830
    9MPD2    C114279   1.757   1.791  11.816 -0.1155 -0.6194  0.4427
    9MPD2    C214280   1.709   1.731  11.705 -0.0221  0.1351 -0.0857
    9MPD2    C314281   1.714   1.791  11.581  0.1071  0.5892  0.1480
    9MPD2    C414282   1.755   1.913  11.565  0.4702 -0.0873 -0.5363
    9MPD2    C514283   1.786   1.986  11.676 -0.0712 -0.2123 -0.1534
    9MPD2     H14284   1.674   1.628  11.710  1.0080 -0.3126 -1.8304
    9MPD2    H114285   1.761   1.963  11.469 -0.6621 -1.0067 -1.0915
    9MPD2    H214286   1.849   1.984  11.878 -0.5701 -0.2398  0.1398
    9MPD2    H314287   1.842   2.077  11.657 -0.4127  0.3010  1.2772
    9MPD2     N14288   1.664   1.732  11.469 -0.0002 -0.0652  0.0860
    9MPD2    H514289   1.688   1.768  11.378 -2.5251 -0.0903 -0.5741
    9MPD2    N114290   1.746   1.739  11.944 -0.2294  0.0441 -0.3138
    9MPD2    H714291   1.763   1.800  12.023 -1.9618 -1.3346  1.1382
    1MPD1     C14292   2.417   0.156  16.234  0.4249  0.3077 -0.1274
    1MPD1    C114293   2.342   0.254  16.172 -0.7531  0.2655 -1.2484
    1MPD1    C214294   2.297   0.357  16.246  0.5647  0.0046  0.1986
    1MPD1    C314295   2.313   0.355  16.382 -0.2430 -0.8428 -0.2012
    1MPD1    C414296   2.384   0.252  16.446 -0.1053 -0.5244  0.8835
    1MPD1    C514297   2.435   0.151  16.362 -0.5649  0.3865 -0.0121
    1MPD1     H14298   2.234   0.431  16.199  0.6666 -0.3564 -0.5008
    1MPD1    H114299   2.400   0.251  16.553 -0.7604 -1.9724  0.9692
    1MPD1    H214300   2.464   0.079  16.174  1.5210  1.9777 -1.4199
    1MPD1    H314301   2.493   0.072  16.408  1.0326  0.9812 -1.0415
    1MPD1     N14302   2.246   0.451  16.463 -0.1389  0.1936  0.0668
    1MPD1    H514303   2.259   0.430  16.561 -3.0730  1.0868  0.6413
    1MPD1    N114304   2.357   0.262  16.031  0.3590  0.5664 -0.2647
    1MPD1    H614305   2.280   0.308  15.982  0.2240  1.5873  0.9258
    1MPD1    H714306   2.373   0.169  15.993  1.7769  1.4983 -1.9673
    2TMC2    C114307   1.849   0.667  16.577  0.2504  0.0426  0.0315
    2TMC2    C214308   1.854   0.606  16.700  0.2390 -0.1828 -0.0204
    2TMC2    C314309   1.956   0.529  16.729 -0.1852 -0.9779 -0.6055
    2TMC2    C414310   1.956   0.663  16.496 -0.6226 -0.5318  0.8256
    2TMC2    C514311   2.062   0.586  16.534 -0.0842  0.3121 -0.4917
    2TMC2    C614312   2.064   0.520  16.649 -0.1892  0.4316  0.0127
    2TMC2     C14313   1.728   0.729  16.524  0.5026  0.2623 -0.1118
    2TMC2     O14314   1.735   0.793  16.421 -0.2256 -0.2708 -0.1305
    2TMC2     H14315   1.771   0.600  16.770  0.5688 -0.8673  0.3140
    2TMC2    H114316   1.951   0.718  16.402 -0.9123  0.0279  1.1706
    2TMC2    H214317   2.129   0.435  16.665 -2.1615 -1.1892 -0.4939
    2TMC2    C714318   2.149   0.544  16.423  0.9884 -0.3465  0.4321
    2TMC2    C814319   1.957   0.447  16.843 -0.1743  0.1514 -0.0364
    2TMC2    O114320   2.146   0.592  16.311  0.0517  0.1585  0.1981
    2TMC2    O214321   1.892   0.346  16.860 -0.7774 -0.1621  0.4342
    2TMC2    O514322   2.075   0.468  16.904  0.4743 -0.2137  0.0728
    2TMC2    H514323   2.127   0.545  16.874 -0.5361 -0.4950 -2.3902
    3MPD1     C14324   1.228   0.767  16.479 -0.0037  0.0676  0.1821
    3MPD1    C114325   1.254   0.677  16.586 -0.4752 -0.0765 -0.3875
    3MPD1    C214326   1.385   0.656  16.617  0.0371 -0.0407  0.0959
    3MPD1    C314327   1.487   0.726  16.554 -0.4471  0.5789  0.4437
    3MPD1    C414328   1.450   0.827  16.465  0.1435  0.1044  0.5504
    3MPD1    C514329   1.318   0.859  16.436 -0.0893  0.3574  0.5406
    3MPD1     H14330   1.409   0.591  16.700  1.4337 -0.1729 -0.4070
    3MPD1    H114331   1.525   0.887  16.415  0.0872 -2.3917 -2.5358
    3MPD1    H214332   1.126   0.774  16.443 -1.0188 -2.4386  2.5623
    3MPD1    H314333   1.296   0.937  16.364 -0.0739 -0.7617 -0.6880
    3MPD1     N14334   1.617   0.695  16.595  0.2475 -0.2807 -0.2726
    3MPD1    H514335   1.628   0.637  16.678 -0.4242  1.1293  0.8134
    3MPD1    N114336   1.150   0.595  16.643 -0.6141 -0.0142  0.5700
    3MPD1    H614337   1.179   0.555  16.732 -0.0540  1.8180  1.1927
    3MPD1    H714338   1.056   0.633  16.642 -1.3029 -1.6920  1.2566
    1TMC1    C114339   3.708   0.039  12.969 -0.2596  0.0549  0.4999
    1TMC1    C214340   3.606   4.687  12.984 -0.0752  0.1533  0.4570
    1TMC1    C314341   3.478   0.002  12.969 -0.6398 -0.2277  0.4693
    1TMC1    C414342   3.696   0.171  12.944 -0.3081  0.6814 -0.2248
    1TMC1    C514343   3.568   0.213  12.923  0.3409 -0.6460 -0.2123
    1TMC1    C614344   3.454   0.135  12.931  0.4755 -0.1001 -0.6114
    1TMC1     C14345   3.839   4.720  12.991 -0.4721  0.5947 -0.5057
    1TMC1     O14346   3.844   4.598  12.979  0.0841  0.0255  0.0661
    1TMC1     H14347   3.624   4.583  13.011 -0.3363 -0.5812 -2.2088
    1TMC1    H114348   3.778   0.241  12.932 -0.0723  0.5189  0.4565
    1TMC1    H214349   3.354   0.176  12.929 -0.9178 -3.5284 -1.0148
    1TMC1    C714350   3.545   0.358  12.905  0.2943 -1.4016  0.1607
    1TMC1    C814351   3.383   4.636  12.975  0.2151  0.1476  0.0548
    1TMC1    O114352   3.440   0.413  12.871  0.2786  0.1039 -0.0861
    1TMC1    O214353   3.408   4.516  12.985  0.4329 -0.3115 -0.1162
    1TMC1    O314354   3.615   0.416  13.008 -0.0999  0.0037 -0.4283
    1TMC1    H314355   3.690   0.362  13.042 -0.6689 -0.0699  0.7154
    1TMC1    O514356   3.272   4.687  13.027  0.0054  0.7339  0.4009
    1TMC1    H514357   3.271   0.048  13.036  0.1119  0.5088  2.7299
    2MPD2     C14358   4.121   4.653  13.091 -0.8063  0.2796 -0.6676
    2MPD2    C114359   4.073   0.043  13.069  0.5220  0.3574 -0.3021
    2MPD2    C214360   4.151   0.153  13.080  0.5266  0.4543 -1.5471
    2MPD2    C314361   4.285   0.139  13.095 -0.0635  0.5458 -0.3640
    2MPD2    C414362   4.337   0.012  13.109  0.2801 -0.7267  0.4780
    2MPD2    C514363   4.257   4.638  13.108  0.0891 -0.3942  0.0593
    2MPD2     H14364   4.115   0.254  13.063 -2.5090 -0.6171 -1.4650
    2MPD2    H114365   4.442   4.728  13.126  0.0252 -1.7117  0.7854
    2MPD2    H214366   4.061   4.563  13.097  0.2230 -0.3204  0.5800
    2MPD2    H314367   4.298   4.538  13.118  2.4461  0.5652  0.0855
    2MPD2     N14368   4.362   0.255  13.093  0.1178  0.0053  0.2264
    2MPD2    H514369   4.318   0.345  13.075  0.1336  0.0775  0.5385
    2MPD2    N114370   3.933   0.071  13.043  0.1187  0.4818 -0.1056
    2MPD2    H714371   3.909   0.169  13.058  2.1671  0.9172  0.3394
    3TCq1    O114372   4.532   0.672  12.757  0.6140  0.2614 -0.2094
    3TCq1    C114373   4.468   0.696  12.875 -0.4833  0.4034 -0.1525
    3TCq1    O214374   4.352   0.720  12.891  0.3620 -0.2591  0.5985
    3TCq1    C214375   4.535   0.619  12.975 -0.4233  0.4248 -0.6598
    3TCq1    C314376   4.662   0.648  13.013 -0.0326 -0.2022  0.5337
    3TCq1    C414377   4.735   0.551  13.077  0.0356  0.1943  0.0038
    3TCq1    C514378   4.681   0.424  13.098  0.2531  0.2440 -0.0575
    3TCq1    C614379   4.549   0.406  13.075 -0.3197 -0.7710  0.1758
    3TCq1    C714380   4.478   0.505  13.011 -0.4792  0.0479  0.5248
    3TCq1    C814381   4.500   0.271  13.105  0.2679  0.3838  0.9072
    3TCq1    O414382   4.582   0.190  13.147 -0.3116  0.3855 -0.4711
    3TCq1    C914383   0.137   0.573  13.103  0.3862 -0.6312  0.5220
    3TCq1    O514384   0.194   0.674  13.052  0.0122  0.7405  0.4552
    3TCq1    O614385   0.192   0.472  13.149  0.1487  0.0961 -0.2689
    3TCq1    H114386   4.617   0.627  12.777  0.1992 -1.4449 -2.3106
    3TCq1    H214387   4.709   0.745  13.002  2.4875 -1.4912 -0.1206
    3TCq1    H314388   0.008   0.349  13.141  1.2823  1.6222  0.8036
    3TCq1    H414389   4.380   0.489  12.968  0.0221  0.5262 -0.7941
    1MPD2     C14390   3.831   0.530  15.022 -0.1552 -0.1885  0.1968
    1MPD2    C114391   3.835   0.394  15.018  0.4857  0.2983  0.1168
    1MPD2    C214392   3.934   0.331  14.957 -0.3713  0.8130 -0.4085
    1MPD2    C314393   4.033   0.400  14.903  0.2191 -0.0736 -0.1164
    1MPD2    C414394   4.033   0.538  14.907 -0.0494 -0.0511 -0.0501
    1MPD2    C514395   3.926   0.601  14.966 -0.0814 -0.4180  0.1465
    1MPD2     H14396   3.940   0.223  14.953  0.4106  0.8023  0.9819
    1MPD2    H114397   4.111   0.601  14.865 -0.6156  1.0578  0.5564
    1MPD2    H214398   3.748   0.586  15.063  0.9585  1.8016 -0.2785
    1MPD2    H314399   3.925   0.709  14.969  1.3958 -0.3464 -1.4727
    1MPD2     N14400   4.132   0.318  14.843  0.2498 -0.4314 -0.5825
    1MPD2    H514401   4.118   0.217  14.845 -2.1041 -0.1316 -1.6535
    1MPD2    N114402   3.730   0.327  15.092 -0.2410  0.3178  0.1539
    1MPD2    H714403   3.650   0.381  15.124 -0.2533  0.8864 -0.8125
    2TMC3    C114404   3.628   0.133  15.200  0.5082 -0.4966 -0.2210
    2TMC3    C214405   3.628   0.005  15.163  0.1641 -0.1602 -0.8785
    2TMC3    C314406   3.516   4.681  15.107 -0.3600 -0.0042 -0.0517
    2TMC3    C414407   3.510   0.195  15.206  0.9424  0.5583  0.3472
    2TMC3    C514408   3.396   0.124  15.176 -0.4142 -0.4467  0.4804
    2TMC3    C614409   3.392   4.735  15.127 -0.0067 -0.4083 -0.3341
    2TMC3     C14410   3.733   0.192  15.113 -0.2457 -0.2540  0.4453
    2TMC3     O14411   3.814   0.105  15.081 -0.5317  0.1291  0.9002
    2TMC3     H14412   3.712   4.674  15.168  1.8020  2.1627  4.0804
    2TMC3    H114413   3.516   0.287  15.263  1.1219  0.5305  0.3742
    2TMC3    H214414   3.301   4.696  15.083  1.0959 -1.9385 -1.2500
    2TMC3    C714415   3.268   0.184  15.204 -0.1420 -0.4546  1.0549
    2TMC3    C814416   3.539   4.626  14.971  0.3174  0.1113  0.3398
    2TMC3    O114417   3.177   0.107  15.217 -0.0894  0.1389  0.1429
    2TMC3    O214418   3.442   4.611  14.897 -0.2613  0.4505 -0.0343
    3TCq1    O114419   2.699   1.082  14.940  0.0213  0.5401 -0.0929
    3TCq1    C114420   2.820   1.102  14.880 -0.6740  0.2745  0.4114
    3TCq1    O214421   2.859   1.059  14.772  0.0161  0.6349 -0.4412
    3TCq1    C214422   2.927   1.110  14.976  0.2301  0.5885  0.3725
    3TCq1    C314423   3.050   1.128  14.919 -0.2815 -0.0361  0.2627
    3TCq1    C414424   3.158   1.069  14.981 -0.1361 -0.9686 -0.3171
    3TCq1    C514425   3.146   0.983  15.087 -0.6495  0.4534  0.8076
    3TCq1    C614426   3.023   0.969  15.145 -1.1879 -0.1343 -0.3839
    3TCq1    C714427   2.916   1.036  15.093 -0.2945  0.5406  0.3929
    3TCq1    C814428   2.999   0.854  15.221  0.0846  0.1167 -0.7316
    3TCq1    O414429   2.886   0.836  15.269 -0.1923 -0.9828  1.1097
    3TCq1    C914430   3.290   1.095  14.926  0.0814  0.2152  0.3249
    3TCq1    O514431   3.295   1.195  14.845  0.3694 -0.1892 -0.2352
    3TCq1    O614432   3.376   1.007  14.958 -0.2388  0.6817 -0.1767
    3TCq1    H114433   2.697   1.135  15.023 -0.2161 -1.1284  0.9683
    3TCq1    H214434   3.070   1.185  14.829  0.7620 -0.4693  0.2143
    3TCq1    H314435   3.236   0.944  15.132 -0.2441 -0.1397 -0.5070
    3TCq1    H414436   2.820   1.023  15.141 -0.0745 -0.1350  0.6503
    4MPD2     C14437   2.992   0.586  15.349 -1.0318 -0.1688 -0.1484
    4MPD2    C114438   3.090   0.628  15.260 -0.1881 -0.8648 -0.1652
    4MPD2    C214439   3.186   0.540  15.229 -0.2984 -0.2512 -0.2556
    4MPD2    C314440   3.185   0.405  15.256  0.3567  0.6465  0.5483
    4MPD2    C414441   3.078   0.365  15.334 -0.2731 -0.2199 -0.0693
    4MPD2    C514442   2.979   0.455  15.373 -0.8552  0.2837  0.2815
    4MPD2     H14443   3.262   0.582  15.164 -1.1796  1.7203 -0.0172
    4MPD2    H114444   3.075   0.260  15.360 -0.8685 -0.5195 -1.3716
    4MPD2    H214445   2.918   0.653  15.392 -0.6564 -0.1896  0.5287
    4MPD2    H314446   2.894   0.420  15.431 -0.3855 -2.3805 -0.6362
    4MPD2     N14447   3.284   0.322  15.215 -0.3280  0.1208  0.1125
    4MPD2    H514448   3.370   0.364  15.181 -1.0667  0.4416 -1.3565
    4MPD2    N114449   3.097   0.755  15.212 -0.4095 -0.0652 -0.4636
    4MPD2    H714450   3.176   0.784  15.155  0.5875 -0.1467  0.8466
    5TMC2    C114451   4.275   0.020  14.676 -0.6390  0.0713 -0.1554
    5TMC2    C214452   4.395   4.717  14.744  0.3490 -0.2709  0.2223
    5TMC2    C314453   4.459   0.068  14.822 -0.0130 -0.2980 -0.8160
    5TMC2    C414454   4.238   0.150  14.677 -0.0365 -0.0502 -0.3456
    5TMC2    C514455   4.320   0.237  14.750 -0.4390  0.2089  0.1433
    5TMC2    C614456   4.429   0.202  14.828  0.6030 -0.0412 -0.1793
    5TMC2     C14457   4.159   4.687  14.733  0.5910 -0.0569 -0.6780
    5TMC2     O14458   4.168   4.658  14.847 -0.2685  0.2431  0.4551
    5TMC2     H14459   4.426   4.613  14.740 -0.3098 -0.3573 -2.4959
    5TMC2    H114460   4.151   0.176  14.618 -0.6536 -0.2715  0.4726
    5TMC2    H214461   4.494   0.270  14.882 -1.0343  1.8199 -0.5387
    5TMC2    C714462   4.251   0.355  14.785 -0.2091 -0.5580  0.7097
    5TMC2    C814463   4.601   0.032  14.860  1.0082  0.1797  0.2753
    5TMC2    O114464   4.312   0.458  14.807  0.0376  0.3872 -0.2461
    5TMC2    O214465   4.690   0.113  14.871 -0.6664 -0.8540  0.6651
    5TMC2    O514466   4.623   4.635  14.852  0.2618  0.2239  0.1866
    5TMC2    H514467   4.555   4.565  14.845 -2.0954  2.4151  0.9998
    6MPD2     C14468   3.664   4.527  14.719 -0.7715 -0.2967 -0.4129
    6MPD2    C114469   3.727   4.602  14.820 -0.4810  0.1721 -0.1409
    6MPD2    C214470   3.859   4.639  14.798 -0.0997 -0.1078  0.0649
    6MPD2    C314471   3.921   4.629  14.674  0.1721  0.0465  0.6520
    6MPD2    C414472   3.838   4.593  14.567  0.5730  0.1144  0.5723
    6MPD2    C514473   3.721   4.537  14.595  0.7668 -0.4067  0.4809
    6MPD2     H14474   3.911   4.684  14.882  0.5152  1.9703 -1.4159
    6MPD2    H114475   3.870   4.598  14.464 -0.4403 -1.3456  0.1777
    6MPD2    H214476   3.564   4.486  14.725 -0.6764 -0.7603 -1.9334
    6MPD2    H314477   3.679   4.480  14.513 -0.8139  0.9341  0.3715
    6MPD2     N14478   4.053   4.672  14.648  0.6683  0.3346  0.0779
    6MPD2    H514479   4.060   4.698  14.550  0.7497 -0.7637 -0.2021
    6MPD2    N114480   3.666   4.640  14.942  0.0223  0.3029  0.1229
    6MPD2    H714481   3.724   4.696  15.003  0.7394  1.2318 -1.4168
  945NH3     N114482   2.241   4.244  16.346  0.7684 -0.0094  0.1990
  945NH3     H214483   2.141   4.250  16.364  0.4149  0.3856 -1.9693
  945NH3     H314484   2.275   4.309  16.416  1.1475 -2.5772  2.4167
  945NH3     H414485   2.247   4.297  16.260  1.5141 -0.1991  0.1424
  946SOD     NA14486   0.251   0.278  13.160 -0.2112  0.4268 -0.2429
  947SOD     NA14487   1.720   2.552  13.063 -0.1991  0.3746  0.3542
  948SOD     NA14488   1.251   4.049   3.853  0.3610  0.1088  0.1108
  949SOD     NA14489   0.353   0.520   5.946 -0.3339  0.2520 -0.0318
  950SOD     NA14490   2.358   3.089  11.045 -0.2174  0.1765  0.1462
  951SOD     NA14491   2.602   3.197  12.056  0.5138  0.3656 -0.3379
  952SOD     NA14492   4.580   0.390  15.137 -0.1474  0.1244 -0.1647
  953SOD     NA14493   1.173   3.322  16.722  0.0211  0.2481  0.1105
  954SOL     OW14494   0.941   4.308   0.981  0.0541  0.0499 -0.3195
  954SOL    HW114495   1.031   4.313   1.013  0.1813 -0.9122 -0.5425
  954SOL    HW214496   0.901   4.290   1.066  2.0543  0.3672  0.6912
  955SOL     OW14497   2.655   4.266   2.965 -0.3026  0.3934 -0.4260
  955SOL    HW114498   2.678   4.355   2.939 -0.1794  0.2707 -0.7358
  955SOL    HW214499   2.589   4.241   2.899  0.0747  0.6020 -0.8760
  956SOL     OW14500   2.579   1.184   7.219 -0.3294  0.5978  0.0725
  956SOL    HW114501   2.618   1.102   7.248  1.3906  1.1927 -0.5688
  956SOL    HW214502   2.655   1.242   7.222  1.0450 -1.2337  0.9689
  957SOL     OW14503   4.292   0.477   6.707  0.2484 -0.2914  0.3123
  957SOL    HW114504   4.301   0.571   6.690 -3.2381 -0.2923 -1.6391
  957SOL    HW214505   4.372   0.445   6.665 -0.4035 -0.4385 -0.8298
  958SOL     OW14506   4.713   2.183   1.848  0.2362 -0.5403  0.2613
  958SOL    HW114507   4.732   2.111   1.788 -1.8340 -1.9402  1.2638
  958SOL    HW214508   0.060   2.227   1.842  0.5104 -0.9185  1.3969
  959SOL     OW14509   4.154   2.291   6.162 -0.3202 -0.6957 -0.5365
  959SOL    HW114510   4.099   2.327   6.232  1.1359  0.0914  0.1805
  959SOL    HW214511   4.237   2.317   6.201 -1.1303 -0.8381  1.2926
  960SOL     OW14512   4.026   4.222   1.802  0.2453  1.1317 -0.1967
  960SOL    HW114513   3.983   4.147   1.762  0.9275  0.1990  0.8147
  960SOL    HW214514   3.964   4.261   1.863  0.4911 -1.2298  1.5639
  961SOL     OW14515   1.252   2.663  12.382  0.2269 -0.1821  0.3729
  961SOL    HW114516   1.323   2.627  12.435 -0.2820 -1.3107  0.2777
  961SOL    HW214517   1.299   2.729  12.331  0.9965 -1.0329 -0.0127
  962SOL     OW14518   2.836   1.124   8.135  0.3681  0.0664  0.2738
  962SOL    HW114519   2.871   1.051   8.083  0.7500  1.6347 -1.6822
  962SOL    HW214520   2.916   1.173   8.150 -0.1096  0.1987  2.3052
  963SOL     OW14521   0.489   1.354   4.239  0.3794  0.9226 -0.0059
  963SOL    HW114522   0.417   1.384   4.295 -0.3303 -0.4927 -0.1469
  963SOL    HW214523   0.440   1.307   4.171 -0.5009  3.0303 -0.8265
  964SOL     OW14524   1.890   2.568  17.210  0.1321  0.1579 -0.6080
  964SOL    HW114525   1.883   2.617  17.128  1.1669 -0.1525 -0.8899
  964SOL    HW214526   1.949   2.493  17.201 -1.8879 -1.5719  0.5602
  965SOL     OW14527   1.133   2.264   6.701 -0.0601  0.6545  0.1320
  965SOL    HW114528   1.119   2.210   6.779  2.5629 -0.3137 -0.0364
  965SOL    HW214529   1.203   2.323   6.729  0.0074  1.4546 -1.7391
  966SOL     OW14530   2.929   1.583  13.720  0.3380 -0.1877 -0.4995
  966SOL    HW114531   3.003   1.641  13.700  0.4658 -0.5697 -1.1145
  966SOL    HW214532   2.966   1.496  13.709  0.8508  0.4161 -3.4809
  967SOL     OW14533   1.954   0.891   1.953  0.0551 -0.4149  0.0036
  967SOL    HW114534   2.018   0.928   1.893  0.1370 -0.6174 -0.0324
  967SOL    HW214535   1.957   0.956   2.024 -2.8405  0.4957 -0.6900
  968SOL     OW14536   1.182   4.037   2.702  0.0047  0.7504 -0.5121
  968SOL    HW114537   1.220   4.066   2.785  0.6132 -2.3579  0.3250
  968SOL    HW214538   1.202   4.119   2.657 -0.2735  0.3671 -1.3288
  969SOL     OW14539   1.546   4.564   3.556 -0.2058 -0.3228 -0.1779
  969SOL    HW114540   1.498   4.573   3.639 -1.1232 -1.2984 -0.6070
  969SOL    HW214541   1.634   4.586   3.585  0.3435 -1.3443 -1.0821
  970SOL     OW14542   1.306   2.498   1.899  0.1942  0.4772  0.2960
  970SOL    HW114543   1.235   2.530   1.844  0.9059  0.1944 -0.7925
  970SOL    HW214544   1.334   2.419   1.852 -4.0238  0.2669 -1.8766
  971SOL     OW14545   3.149   3.053   8.999  0.2848  0.2039 -0.5747
  971SOL    HW114546   3.115   3.142   8.996 -0.5060 -0.0453  1.2006
  971SOL    HW214547   3.066   3.007   8.999  0.6923 -0.5322 -0.7002
  972SOL     OW14548   2.146   4.434   8.329 -0.2596 -0.0395 -0.4753
  972SOL    HW114549   2.058   4.470   8.340 -1.0968 -2.4333  0.6131
  972SOL    HW214550   2.113   4.347   8.307 -1.3539  0.1414  0.4927
  973SOL     OW14551   4.587   2.473   7.737  0.3335  0.3160  0.2425
  973SOL    HW114552   4.660   2.469   7.675  0.6624 -0.6086  0.6943
  973SOL    HW214553   4.623   2.416   7.805  2.9049  0.2683 -1.1528
  974SOL     OW14554   1.086   4.692   2.512 -0.3219 -0.0777  0.2221
  974SOL    HW114555   1.133   0.033   2.482 -0.4775 -0.0042  0.1725
  974SOL    HW214556   1.137   4.637   2.452 -0.2669  1.6779 -1.3465
  975SOL     OW14557   1.098   4.425   3.227 -0.1616 -0.4864 -0.2661
  975SOL    HW114558   1.121   4.334   3.242  0.4808 -0.1330  0.8904
  975SOL    HW214559   1.036   4.432   3.299  0.5576  0.0079  0.3064
  976SOL     OW14560   2.091   1.489   5.849 -0.5320  0.6973 -0.2550
  976SOL    HW114561   2.024   1.522   5.909 -1.8202 -1.0909 -0.7290
  976SOL    HW214562   2.132   1.573   5.826  1.9179 -0.6640 -0.8639
  977SOL     OW14563   4.129   2.140   5.912  0.1166 -0.6092 -0.5139
  977SOL    HW114564   4.169   2.213   5.865  0.0361 -1.8056 -2.4152
  977SOL    HW214565   4.125   2.174   6.002 -2.0573 -3.5074  0.4996
  978SOL     OW14566   0.953   3.893   0.330 -0.5170  0.0762  0.0978
  978SOL    HW114567   0.931   3.986   0.338  0.4603  0.2772  0.4870
  978SOL    HW214568   1.002   3.897   0.247 -2.4028 -1.2313 -1.0741
  979SOL     OW14569   3.449   3.070   8.066 -0.2077  0.3993 -0.2238
  979SOL    HW114570   3.374   3.088   8.009 -0.5586  1.7423  0.6627
  979SOL    HW214571   3.439   2.983   8.103 -1.2120  0.5950 -0.0360
  980SOL     OW14572   0.099   0.261   6.893 -0.4531  0.3844  0.5680
  980SOL    HW114573   0.119   0.171   6.918 -1.6919  0.1093  0.5737
  980SOL    HW214574   0.053   0.297   6.969 -0.3181 -0.6840  1.1536
  981SOL     OW14575   1.724   0.605   3.682 -0.2682  0.1572 -0.0656
  981SOL    HW114576   1.679   0.685   3.707  0.3073  0.5062 -0.1602
  981SOL    HW214577   1.677   0.532   3.722  0.9977 -0.6655 -0.0622
  982SOL     OW14578   1.089   0.969   9.056  0.1149 -0.5096  0.3727
  982SOL    HW114579   1.136   1.018   9.124 -2.1082  2.2513 -0.1012
  982SOL    HW214580   1.144   0.998   8.983 -1.7170  1.7292 -0.1017
  983SOL     OW14581   0.787   0.496   9.585 -0.0290 -0.0561 -0.1884
  983SOL    HW114582   0.799   0.403   9.566 -0.8870 -0.1349 -0.3454
  983SOL    HW214583   0.721   0.507   9.517 -0.4634 -0.6052  0.1467
  984SOL     OW14584   2.911   0.001  10.122  0.3155  0.0916 -0.5626
  984SOL    HW114585   2.951   4.656  10.094  1.3590  0.7901 -1.1393
  984SOL    HW214586   2.984   0.042  10.169 -0.1841  0.6596 -0.2783
  985SOL     OW14587   3.823   4.563   2.385  0.2582  0.3738 -0.2118
  985SOL    HW114588   3.856   4.619   2.456 -0.0430  1.1781 -0.6999
  985SOL    HW214589   3.734   4.595   2.368  0.6995  0.8914 -1.5048
  986SOL     OW14590   0.620   1.163   6.655 -0.0345 -0.1487 -0.1374
  986SOL    HW114591   0.655   1.183   6.742 -1.1818  1.6056 -0.0757
  986SOL    HW214592   0.562   1.237   6.637 -0.5040 -0.8075 -1.3224
  987SOL     OW14593   1.265   2.264   8.896  0.7335  0.0083  0.3745
  987SOL    HW114594   1.324   2.321   8.847 -1.2222  0.7551 -1.0843
  987SOL    HW214595   1.284   2.305   8.981  0.9074 -0.3058  0.4872
  988SOL     OW14596   4.182   4.011  11.574 -0.2842 -0.3239 -0.4890
  988SOL    HW114597   4.159   3.921  11.596  0.7072 -1.2135 -3.1148
  988SOL    HW214598   4.264   4.036  11.617 -1.2238  1.4725  0.2525
  989SOL     OW14599   2.160   1.604  15.162 -0.6210  0.5479 -0.0721
  989SOL    HW114600   2.206   1.634  15.240 -0.1218 -1.4730  0.3921
  989SOL    HW214601   2.071   1.633  15.181 -0.9740 -0.7660  0.2020
  990SOL     OW14602   4.080   4.273   3.311  0.7290  0.5657  0.7960
  990SOL    HW114603   3.998   4.319   3.328 -0.8714 -2.8922  2.3968
  990SOL    HW214604   4.146   4.339   3.289  0.0280  1.3067  0.9015
  991SOL     OW14605   1.593   1.853   7.803  0.0313  0.2964 -0.1611
  991SOL    HW114606   1.673   1.855   7.855 -0.4835 -0.9072  0.6605
  991SOL    HW214607   1.618   1.832   7.713 -1.4448  0.5929 -0.6537
  992SOL     OW14608   2.608   2.726   2.510 -0.2748 -0.7252 -0.2414
  992SOL    HW114609   2.556   2.778   2.449  1.9148 -1.0933 -2.3979
  992SOL    HW214610   2.675   2.704   2.445  0.4019 -2.6271  1.0976
  993SOL     OW14611   1.792   4.050   8.597  0.4199 -0.2145  0.6365
  993SOL    HW114612   1.724   4.012   8.653 -0.2457 -0.6634 -0.4730
  993SOL    HW214613   1.735   4.120   8.564  1.8025  1.0583  0.9886
  994SOL     OW14614   2.678   0.707   1.625 -0.0735 -0.0608 -0.3490
  994SOL    HW114615   2.595   0.687   1.669  0.5802 -2.4074 -0.1653
  994SOL    HW214616   2.650   0.748   1.543  1.4889 -0.1793 -0.9416
  995SOL     OW14617   0.854   1.939  13.662 -0.3513 -0.6802  0.0524
  995SOL    HW114618   0.847   1.861  13.606  0.0334  0.4504 -1.5793
  995SOL    HW214619   0.771   1.985  13.650  0.4677  1.0918  1.2351
  996SOL     OW14620   2.731   0.389  13.323  0.0947  0.4174  0.3995
  996SOL    HW114621   2.651   0.441  13.328  1.4676  2.4811  0.9843
  996SOL    HW214622   2.703   0.301  13.349 -0.6663  0.6417  0.3313
  997SOL     OW14623   0.804   2.720   5.340 -0.1424  0.0812 -0.3050
  997SOL    HW114624   0.842   2.758   5.419  0.2978  0.7748 -0.8505
  997SOL    HW214625   0.847   2.780   5.279  1.1205 -0.6256 -0.0969
  998SOL     OW14626   3.319   4.491   3.718  0.1777  0.0803 -0.5442
  998SOL    HW114627   3.294   4.473   3.809 -0.9445  1.5021 -0.5616
  998SOL    HW214628   3.252   4.434   3.680  0.8276  0.4255 -2.1552
  999SOL     OW14629   2.107   1.618  17.465  0.5601  0.5877  0.2607
  999SOL    HW114630   2.189   1.582  17.432  0.1547 -0.8171  0.7862
  999SOL    HW214631   2.045   1.561  17.419  1.8781 -1.8325  1.4924
 1000SOL     OW14632   1.286   3.473   9.935  0.1472 -0.2742 -0.1084
 1000SOL    HW114633   1.366   3.486   9.883 -0.7429  1.5308 -1.0341
 1000SOL    HW214634   1.265   3.388   9.895  1.2721 -0.9735  0.7713
 1001SOL     OW14635   2.833   4.110   9.033 -0.3247  0.0322 -0.1559
 1001SOL    HW114636   2.849   4.018   9.054  1.8674  0.5431  0.4664
 1001SOL    HW214637   2.902   4.115   8.967  0.8318 -0.3984  0.9906
 1002SOL     OW14638   2.741   1.095   4.778 -0.4378 -0.3825  0.1483
 1002SOL    HW114639   2.810   1.030   4.792  0.8699  1.0088  0.2149
 1002SOL    HW214640   2.767   1.148   4.702  1.1282 -0.5293  0.5929
 1003SOL     OW14641   3.608   0.964  15.529 -0.6636 -0.5785  0.7418
 1003SOL    HW114642   3.568   1.009  15.455 -1.0329  0.7485  1.7259
 1003SOL    HW214643   3.669   0.901  15.490 -0.8347 -1.0387  1.2199
 1004SOL     OW14644   3.189   4.730   6.140  0.1695  0.1624  0.3577
 1004SOL    HW114645   3.228   4.643   6.139 -3.5179 -1.5001  0.0455
 1004SOL    HW214646   3.198   0.010   6.233 -0.5610 -1.6884  0.7662
 1005SOL     OW14647   4.319   4.411   9.239  0.0237 -0.2354  0.4519
 1005SOL    HW114648   4.245   4.351   9.247  1.4836 -1.9098  1.3648
 1005SOL    HW214649   4.391   4.355   9.210  0.3813 -0.4096  1.6835
 1006SOL     OW14650   2.295   0.307   1.585  0.0638 -0.0063 -0.0612
 1006SOL    HW114651   2.246   0.228   1.605  0.5035 -0.2167  0.1825
 1006SOL    HW214652   2.326   0.289   1.496 -0.1357  2.6426 -0.6713
 1007SOL     OW14653   4.567   0.905   2.220 -0.4202  0.3187  0.2667
 1007SOL    HW114654   4.568   1.001   2.220 -0.1934  0.3221 -2.3403
 1007SOL    HW214655   4.640   0.881   2.277 -0.8220  1.9917  1.5043
 1008SOL     OW14656   4.679   4.488   6.983 -0.2768 -0.1922  0.3944
 1008SOL    HW114657   4.651   4.498   6.892  1.8283  0.0653 -0.2218
 1008SOL    HW214658   0.031   4.469   6.953 -0.0612  1.3631  0.0540
 1009SOL     OW14659   0.871   4.576  17.642  0.5502 -0.6066  0.7272
 1009SOL    HW114660   0.891   4.624  17.722 -0.0196  1.8117 -0.5895
 1009SOL    HW214661   0.776   4.588  17.637  0.6534 -0.2462 -0.4982
 1010SOL     OW14662   3.237   3.317   1.371  0.5256 -0.1100  0.3986
 1010SOL    HW114663   3.145   3.302   1.350  0.5827 -0.6216  0.5349
 1010SOL    HW214664   3.276   3.238   1.334 -0.3427 -1.3705  2.1913
 1011SOL     OW14665   3.125   0.767   9.091 -0.3936 -0.1450 -0.0913
 1011SOL    HW114666   3.116   0.752   8.997  0.8143  1.0746 -0.3913
 1011SOL    HW214667   3.114   0.673   9.105  0.3927 -0.0763  0.9665
 1012SOL     OW14668   3.790   1.691   9.032 -0.4812 -0.3681 -0.5726
 1012SOL    HW114669   3.752   1.605   9.052 -1.1637  0.0433 -0.1092
 1012SOL    HW214670   3.768   1.732   9.115  1.7898 -0.3256 -0.0055
 1013SOL     OW14671   3.383   0.342   5.022  0.0736  0.1282  0.5541
 1013SOL    HW114672   3.367   0.356   5.116  1.3681  0.0832  0.7834
 1013SOL    HW214673   3.309   0.284   5.004  0.6241  0.0806 -1.5210
 1014SOL     OW14674   4.133   3.830   8.002  0.1002  0.1598 -0.0729
 1014SOL    HW114675   4.041   3.809   8.018  0.3895  0.6187  2.1121
 1014SOL    HW214676   4.159   3.753   7.951 -1.0744 -0.2721 -0.0126
 1015SOL     OW14677   1.555   2.139   4.963  0.0472 -0.0069  0.6926
 1015SOL    HW114678   1.608   2.080   4.910  0.4523 -0.5315  1.6787
 1015SOL    HW214679   1.472   2.094   4.980 -1.3303  2.6897  1.0422
 1016SOL     OW14680   3.779   3.282   2.756 -0.0190  0.9441 -0.0179
 1016SOL    HW114681   3.832   3.323   2.688  1.5994 -0.4470  0.4138
 1016SOL    HW214682   3.689   3.280   2.723 -0.8074 -0.2283  2.1609
 1017SOL     OW14683   1.912   3.715   8.415 -1.4504  0.0505 -0.1562
 1017SOL    HW114684   1.913   3.627   8.452  1.0066 -0.5097 -1.5314
 1017SOL    HW214685   1.897   3.684   8.325  0.6883 -0.3449 -0.3830
 1018SOL     OW14686   0.927   2.728  10.883 -0.2605 -0.1649  0.4351
 1018SOL    HW114687   0.946   2.639  10.855  1.7576 -0.7406  3.6576
 1018SOL    HW214688   0.832   2.723  10.895 -0.7194  0.4041 -2.9407
 1019SOL     OW14689   3.551   2.477   9.504  0.4825  0.0306  0.3546
 1019SOL    HW114690   3.568   2.537   9.431 -1.1396 -1.5894 -1.3375
 1019SOL    HW214691   3.465   2.450   9.473  1.9467 -1.0607 -2.7025
 1020SOL     OW14692   2.621   1.604   9.672  0.2969 -0.2699  0.0655
 1020SOL    HW114693   2.631   1.699   9.668 -1.5093 -0.1313 -1.4621
 1020SOL    HW214694   2.699   1.584   9.723  1.4597  0.5349 -1.4068
 1021SOL     OW14695   0.597   0.137   0.293  0.1723 -0.5353  0.1261
 1021SOL    HW114696   0.633   0.071   0.352  1.6403 -1.0069 -1.3048
 1021SOL    HW214697   0.657   0.212   0.304 -0.4754 -0.1376  0.9568
 1022SOL     OW14698   0.248   3.895   6.429 -0.1063 -0.0576  0.0990
 1022SOL    HW114699   0.241   3.829   6.498  0.3269  0.9422  1.0995
 1022SOL    HW214700   0.155   3.917   6.416 -0.3807 -0.5049  1.2862
 1023SOL     OW14701   2.722   3.159  11.472  0.2634  0.4326 -0.1796
 1023SOL    HW114702   2.769   3.121  11.547 -0.4473 -0.8461 -0.3819
 1023SOL    HW214703   2.791   3.212  11.433  0.7715 -0.4676 -0.5009
 1024SOL     OW14704   2.085   2.245   4.040  0.5874 -0.8353  0.5350
 1024SOL    HW114705   2.017   2.244   4.108 -0.2359  0.3115 -0.2676
 1024SOL    HW214706   2.131   2.161   4.046  1.8853 -0.2271 -0.9308
 1025SOL     OW14707   2.635   2.929   6.551  0.4470 -0.4153  0.8460
 1025SOL    HW114708   2.639   2.846   6.503  0.3866  0.0947 -0.0293
 1025SOL    HW214709   2.720   2.966   6.527 -0.5587  0.6673 -1.0155
 1026SOL     OW14710   2.420   0.358  15.664 -0.4156 -0.4043 -0.4468
 1026SOL    HW114711   2.468   0.383  15.742 -2.1407  0.9906  0.1647
 1026SOL    HW214712   2.326   0.366  15.685 -0.4091  1.2612 -1.0159
 1027SOL     OW14713   3.005   3.561   5.677 -0.0968 -0.1055  0.2448
 1027SOL    HW114714   3.082   3.617   5.674 -0.5225  0.4046 -1.1167
 1027SOL    HW214715   3.048   3.481   5.708  0.7909  0.7226  1.1719
 1028SOL     OW14716   2.015   1.942   4.906 -1.1696  0.1621 -0.2815
 1028SOL    HW114717   2.030   1.959   4.813 -3.1523  0.2394 -0.5787
 1028SOL    HW214718   1.971   1.857   4.906  0.9357 -0.9304 -1.3260
 1029SOL     OW14719   3.930   2.230   5.251 -0.3807  0.7269  0.0377
 1029SOL    HW114720   3.893   2.148   5.283 -0.0815  0.7865  0.5445
 1029SOL    HW214721   3.924   2.225   5.156  2.0556 -1.1573 -0.0288
 1030SOL     OW14722   4.718   4.428   7.382  0.9129 -0.6693  0.7016
 1030SOL    HW114723   4.665   4.448   7.459 -1.2265  1.7052 -1.3654
 1030SOL    HW214724   4.735   4.334   7.381 -1.1628 -1.0275 -0.9266
 1031SOL     OW14725   2.266   1.762   3.179  0.2090 -0.5807  0.3836
 1031SOL    HW114726   2.249   1.692   3.116  2.0201  2.0192 -3.0210
 1031SOL    HW214727   2.288   1.706   3.253 -1.2931  1.0915  2.1252
 1032SOL     OW14728   1.610   2.549   4.813 -0.4984 -0.1290 -0.3470
 1032SOL    HW114729   1.646   2.471   4.772  0.7612  0.4971 -0.4424
 1032SOL    HW214730   1.623   2.600   4.733  1.3343  0.7155  0.4624
 1033SOL     OW14731   2.261   0.884   2.215 -0.2462 -0.6880 -0.2021
 1033SOL    HW114732   2.251   0.856   2.306  1.1094 -1.6414 -0.3554
 1033SOL    HW214733   2.271   0.979   2.220  1.3116 -0.9414  1.3218
 1034SOL     OW14734   1.614   2.918   7.183 -0.4616 -0.1778 -0.2343
 1034SOL    HW114735   1.706   2.930   7.208 -0.3967 -0.6133 -0.2501
 1034SOL    HW214736   1.569   2.941   7.264 -1.5205 -2.8283 -0.0637
 1035SOL     OW14737   3.923   0.374   4.091 -0.3602  0.5928  0.0363
 1035SOL    HW114738   3.860   0.440   4.061  0.0939  1.6269  1.3501
 1035SOL    HW214739   3.897   0.296   4.043  1.7660 -0.2728  0.2899
 1036SOL     OW14740   2.047   1.959   3.510 -0.1516  0.2668  0.0656
 1036SOL    HW114741   1.954   1.979   3.518 -0.6361 -1.8988 -0.1169
 1036SOL    HW214742   2.087   2.042   3.535 -2.0815  0.9071  1.0606
 1037SOL     OW14743   0.370   2.636   7.247  0.3220  0.7002 -0.2761
 1037SOL    HW114744   0.357   2.607   7.156 -0.2333 -0.6326  0.2264
 1037SOL    HW214745   0.284   2.673   7.267  0.2132  1.1929 -1.6323
 1038SOL     OW14746   4.485   0.775   3.021  0.1106 -0.4696 -0.2121
 1038SOL    HW114747   4.472   0.757   2.928  2.0867  0.9021 -0.7385
 1038SOL    HW214748   4.580   0.772   3.026  0.0327 -0.6931  1.2653
 1039SOL     OW14749   3.262   3.128   1.905  0.4006 -0.1449 -0.1332
 1039SOL    HW114750   3.229   3.168   1.825 -1.5980  1.1875  1.3630
 1039SOL    HW214751   3.198   3.157   1.970 -0.2928 -1.1923 -0.3430
 1040SOL     OW14752   2.675   1.616  13.183 -0.4457 -0.0816  0.0431
 1040SOL    HW114753   2.625   1.657  13.112  0.0667  1.0571  0.3496
 1040SOL    HW214754   2.764   1.644  13.159 -0.4577  1.3709  1.7457
 1041SOL     OW14755   4.412   3.236   7.002 -0.4706 -0.0190  0.2861
 1041SOL    HW114756   4.455   3.156   6.969  1.2786  1.0900 -0.1544
 1041SOL    HW214757   4.325   3.202   7.019 -0.2799 -1.1643 -0.9731
 1042SOL     OW14758   1.649   2.483   2.865  0.1984  0.0662  0.2035
 1042SOL    HW114759   1.616   2.539   2.935  0.3164  1.3810 -0.8091
 1042SOL    HW214760   1.565   2.462   2.822 -0.4962  0.8855  1.1652
 1043SOL     OW14761   0.608   0.851  10.253 -0.1663 -0.5344 -0.5956
 1043SOL    HW114762   0.685   0.886  10.297  1.0787 -2.3925 -1.2801
 1043SOL    HW214763   0.583   0.922  10.195  0.2649 -0.6589 -0.9316
 1044SOL     OW14764   4.407   4.607   6.391  0.3030 -0.7280 -0.0688
 1044SOL    HW114765   4.475   4.672   6.376 -0.1339 -0.1577  0.3984
 1044SOL    HW214766   4.429   4.539   6.328 -2.6482 -1.2084 -0.5663
 1045SOL     OW14767   3.662   4.274   4.946  0.2028 -0.4751 -0.2590
 1045SOL    HW114768   3.700   4.326   4.875  0.9106 -0.8782 -0.1730
 1045SOL    HW214769   3.739   4.268   5.003 -0.6818  1.6201  1.1905
 1046SOL     OW14770   1.132   2.254   5.822 -0.1668 -0.1355 -0.0582
 1046SOL    HW114771   1.120   2.280   5.730  0.0754 -1.1271 -0.3638
 1046SOL    HW214772   1.196   2.318   5.852  2.0597 -1.6338 -1.6734
 1047SOL     OW14773   3.378   2.667  15.225  0.0129 -0.2912 -0.3704
 1047SOL    HW114774   3.450   2.699  15.280 -2.0547 -0.8886  2.6863
 1047SOL    HW214775   3.380   2.735  15.158 -2.6533 -0.6577 -0.8139
 1048SOL     OW14776   1.742   3.047   6.074 -0.3565  0.3158  0.4990
 1048SOL    HW114777   1.803   3.081   6.008 -0.2278  0.4339  0.6785
 1048SOL    HW214778   1.666   3.033   6.018 -1.2440  0.4684  1.6661
 1049SOL     OW14779   2.591   3.709  16.919 -0.2621 -0.5927  0.1280
 1049SOL    HW114780   2.664   3.748  16.872 -0.6066  1.5112  1.3134
 1049SOL    HW214781   2.518   3.762  16.887  0.2081 -2.0217 -3.3142
 1050SOL     OW14782   3.124   3.620   9.044 -0.4562 -0.1667 -0.0654
 1050SOL    HW114783   3.108   3.668   9.125 -0.0613 -3.0731  1.7559
 1050SOL    HW214784   3.212   3.587   9.063  0.6104  2.4577 -0.4071
 1051SOL     OW14785   3.220   1.158   2.759 -0.9322  0.1751  0.3364
 1051SOL    HW114786   3.303   1.115   2.776 -0.9180  0.0238 -0.1153
 1051SOL    HW214787   3.237   1.251   2.778  0.9214 -0.4802  1.8537
 1052SOL     OW14788   0.316   3.813   6.980 -0.1273 -0.4786 -0.5407
 1052SOL    HW114789   0.229   3.808   7.020  0.1527  0.7056  0.2368
 1052SOL    HW214790   0.352   3.729   7.008 -0.6443 -0.0509  1.4436
 1053SOL     OW14791   3.410   3.150  11.305 -0.0952  0.2921  0.0702
 1053SOL    HW114792   3.441   3.209  11.235  2.8314 -1.7660 -0.3881
 1053SOL    HW214793   3.491   3.098  11.309 -0.2760 -0.0123 -0.2831
 1054SOL     OW14794   3.954   3.962   8.984  0.0552 -0.2404  0.5215
 1054SOL    HW114795   3.967   4.021   8.909  0.5657 -1.7951 -0.6109
 1054SOL    HW214796   3.874   3.994   9.026  0.6389 -0.3958  1.7396
 1055SOL     OW14797   3.583   3.080  13.250  0.0074  0.2111 -0.2501
 1055SOL    HW114798   3.508   3.094  13.309 -1.5279 -1.4327 -1.8001
 1055SOL    HW214799   3.589   3.168  13.213  2.3403  1.0502  2.1383
 1056SOL     OW14800   0.942   4.261   4.407  0.2105 -0.1702 -0.0736
 1056SOL    HW114801   0.891   4.310   4.472 -0.1719 -0.2247 -0.3325
 1056SOL    HW214802   0.941   4.332   4.343 -0.4276 -1.2220 -1.2370
 1057SOL     OW14803   2.012   1.920   3.246  0.4752 -0.6850 -0.3298
 1057SOL    HW114804   2.026   1.925   3.341  3.2196 -2.7847 -0.6374
 1057SOL    HW214805   2.095   1.888   3.211  1.7073  2.4496 -0.2776
 1058SOL     OW14806   2.646   3.377   5.133  0.1098 -0.4852  0.3792
 1058SOL    HW114807   2.685   3.449   5.182  2.7435 -2.2234  0.8181
 1058SOL    HW214808   2.701   3.389   5.056 -1.1552  1.1185 -0.2988
 1059SOL     OW14809   3.418   2.242  14.968  0.3125 -0.1392 -0.3441
 1059SOL    HW114810   3.459   2.247  15.054 -0.3513  1.2021 -0.1062
 1059SOL    HW214811   3.480   2.300  14.924  1.5903  0.3302  2.0515
 1060SOL     OW14812   4.614   1.137  11.023 -0.6781  0.2842  0.3762
 1060SOL    HW114813   4.542   1.170  11.077 -1.6980 -2.4911  0.6782
 1060SOL    HW214814   4.636   1.054  11.065 -3.2465 -0.1248  0.9022
 1061SOL     OW14815   2.311   0.858  11.580  0.0791  0.1191  0.3350
 1061SOL    HW114816   2.340   0.800  11.509  0.7284 -1.2799  1.7606
 1061SOL    HW214817   2.390   0.874  11.631  0.3476 -1.9411  0.5490
 1062SOL     OW14818   2.071   2.708  14.746 -0.1541 -0.1867  0.4092
 1062SOL    HW114819   1.982   2.741  14.758 -1.0891 -2.3632 -0.5043
 1062SOL    HW214820   2.131   2.750  14.808  0.5473  0.2974 -0.5897
 1063SOL     OW14821   2.680   1.517   4.940  0.2532  0.3951 -0.3086
 1063SOL    HW114822   2.768   1.528   4.903  0.6879 -1.9252  0.0154
 1063SOL    HW214823   2.672   1.423   4.925  1.7228 -0.0771  2.0257
 1064SOL     OW14824   2.979   1.035  10.960 -0.2501  0.0686  0.4651
 1064SOL    HW114825   2.978   0.985  10.879 -1.1847  0.5794  0.1689
 1064SOL    HW214826   2.983   0.969  11.029  1.3845  2.3041  2.5045
 1065SOL     OW14827   1.259   3.252   9.786  0.7671  0.4059 -0.0405
 1065SOL    HW114828   1.308   3.288   9.713  0.4592 -1.1230 -1.0061
 1065SOL    HW214829   1.320   3.192   9.828  1.2396  0.0610 -1.2221
 1066SOL     OW14830   3.376   2.620  17.197 -0.1245 -0.6716  0.2738
 1066SOL    HW114831   3.415   2.708  17.193 -0.7705 -0.2344  3.2104
 1066SOL    HW214832   3.399   2.593  17.108  1.0690 -0.0422  0.3807
 1067SOL     OW14833   3.575   3.550   4.038  0.0427 -0.3343  0.4653
 1067SOL    HW114834   3.623   3.476   4.074 -0.9789 -2.5401 -2.7544
 1067SOL    HW214835   3.612   3.633   4.067 -0.6841  0.1101  0.1285
 1068SOL     OW14836   3.359   1.660   7.444  0.3915  0.8807  0.0513
 1068SOL    HW114837   3.451   1.642   7.465  0.6815  0.2205 -1.8154
 1068SOL    HW214838   3.355   1.681   7.351 -2.9080  0.6033  0.1266
 1069SOL     OW14839   4.283   4.695   2.417 -0.0928 -0.6305  0.1318
 1069SOL    HW114840   4.373   4.719   2.395 -1.0426  2.1301 -0.7129
 1069SOL    HW214841   4.266   4.633   2.346 -0.1872 -1.6122  1.0051
 1070SOL     OW14842   0.693   1.889   6.168  0.4514 -0.2452  0.3135
 1070SOL    HW114843   0.676   1.873   6.075  0.1657 -0.5669  0.4208
 1070SOL    HW214844   0.787   1.908   6.178  0.2640  0.6623  0.3877
 1071SOL     OW14845   1.414   4.293   1.698  0.5354  0.3922 -0.2495
 1071SOL    HW114846   1.480   4.227   1.676  0.9054  0.2961  1.1189
 1071SOL    HW214847   1.338   4.245   1.731 -0.1684  1.6055 -0.1253
 1072SOL     OW14848   3.757   2.890   3.817 -0.2739 -0.4839  0.1366
 1072SOL    HW114849   3.715   2.816   3.774 -1.9314  0.2028  0.6009
 1072SOL    HW214850   3.815   2.931   3.752 -2.2133  1.0662 -0.6122
 1073SOL     OW14851   3.499   1.840  12.325 -0.5677  0.3607 -0.2852
 1073SOL    HW114852   3.587   1.869  12.301 -0.0445 -0.9221  0.0775
 1073SOL    HW214853   3.505   1.750  12.295 -0.7486  0.3171 -0.1893
 1074SOL     OW14854   1.549   3.043  15.616  0.9759  0.3373  0.3103
 1074SOL    HW114855   1.603   3.078  15.687  0.3620 -0.4083  1.1572
 1074SOL    HW214856   1.536   3.121  15.563 -0.0670 -0.1677 -0.1785
 1075SOL     OW14857   3.579   4.248   6.431 -0.1547  0.2329  0.3446
 1075SOL    HW114858   3.609   4.225   6.343 -0.3150 -2.0141  0.8686
 1075SOL    HW214859   3.577   4.343   6.436  0.3348  0.1271  2.3001
 1076SOL     OW14860   0.385   3.606   5.755  0.4411 -0.0539  0.9965
 1076SOL    HW114861   0.462   3.556   5.729 -0.6988 -0.8473 -0.8252
 1076SOL    HW214862   0.399   3.631   5.847 -2.3863  0.7374  1.2309
 1077SOL     OW14863   0.135   4.459   2.720 -0.3289  0.3613  0.0945
 1077SOL    HW114864   0.137   4.438   2.814  0.5262  0.8445  0.1925
 1077SOL    HW214865   0.209   4.521   2.716  0.4112 -0.5602 -0.3959
 1078SOL     OW14866   3.457   3.227   3.320  0.0238 -0.1974  0.3185
 1078SOL    HW114867   3.432   3.162   3.386 -0.2082  1.3234  1.7222
 1078SOL    HW214868   3.413   3.298   3.366  0.8200 -0.1544  1.0252
 1079SOL     OW14869   4.179   1.262   7.785  0.2189 -0.1066  0.1513
 1079SOL    HW114870   4.105   1.215   7.823  1.3684 -2.0321  0.0146
 1079SOL    HW214871   4.223   1.309   7.856  2.6421 -1.0553 -0.7055
 1080SOL     OW14872   3.548   2.022   4.318 -0.2663  0.3311  0.5763
 1080SOL    HW114873   3.545   1.929   4.296 -2.3679 -0.4157  3.8868
 1080SOL    HW214874   3.567   2.063   4.234 -1.7627 -0.7428 -0.2832
 1081SOL     OW14875   0.252   0.623  10.941 -0.0050 -0.0990 -0.1593
 1081SOL    HW114876   0.221   0.587  11.025  4.4233 -2.6268  0.3940
 1081SOL    HW214877   0.329   0.577  10.910 -1.6669 -2.0734 -1.3913
 1082SOL     OW14878   3.327   4.235   1.162  0.0045 -0.0503 -0.3561
 1082SOL    HW114879   3.336   4.163   1.225 -3.2050  0.4928  0.7469
 1082SOL    HW214880   3.374   4.303   1.210 -1.1679 -0.3728  1.2448
 1083SOL     OW14881   3.386   1.471   5.696  0.1100  0.0785 -0.2743
 1083SOL    HW114882   3.373   1.478   5.791  2.4620 -0.2177  0.0518
 1083SOL    HW214883   3.432   1.388   5.685  1.5143  0.9493 -0.9445
 1084SOL     OW14884   4.091   0.910  17.086 -0.2424  0.3638  0.3144
 1084SOL    HW114885   4.152   0.946  17.022 -1.7972 -0.4057 -1.6134
 1084SOL    HW214886   4.047   0.843  17.034  2.3865 -0.9567 -0.1568
 1085SOL     OW14887   2.048   3.359   5.225  0.6677 -0.3367  0.5092
 1085SOL    HW114888   2.060   3.286   5.286 -1.1240 -1.4338 -0.4809
 1085SOL    HW214889   1.997   3.316   5.157  0.2308  0.8982  0.0606
 1086SOL     OW14890   2.397   3.637  12.896  0.0522  0.5734  0.2623
 1086SOL    HW114891   2.480   3.610  12.858 -1.0249 -0.6043 -1.2671
 1086SOL    HW214892   2.332   3.640  12.825  0.1796  0.3601  0.1354
 1087SOL     OW14893   2.748   1.713   1.752  0.0799 -0.2075 -0.5655
 1087SOL    HW114894   2.798   1.636   1.777 -3.6194 -1.9471  1.4006
 1087SOL    HW214895   2.694   1.726   1.830  0.3781 -2.0597 -0.0539
 1088SOL     OW14896   2.897   3.939  15.995  0.7675 -0.2115 -0.1358
 1088SOL    HW114897   2.917   3.855  15.955  0.1934 -0.8119  0.8519
 1088SOL    HW214898   2.967   3.994  15.961  1.3454 -1.9748 -1.7945
 1089SOL     OW14899   0.858   2.638  14.827 -0.0454  0.9630  0.0053
 1089SOL    HW114900   0.882   2.669  14.914 -0.9784 -0.4034  0.7407
 1089SOL    HW214901   0.785   2.588  14.862  1.8518 -0.1786  2.3361
 1090SOL     OW14902   0.736   0.996   6.225 -0.2733  0.5253  0.5068
 1090SOL    HW114903   0.704   0.920   6.177  0.9585  0.5944 -0.4382
 1090SOL    HW214904   0.653   1.038   6.246 -1.2401 -1.9386  1.5615
 1091SOL     OW14905   2.545   0.521   5.159  0.4897 -0.0538  0.6062
 1091SOL    HW114906   2.468   0.576   5.168 -1.6029 -3.1319  1.6418
 1091SOL    HW214907   2.586   0.531   5.244  0.5061 -2.6029  0.9176
 1092SOL     OW14908   0.978   4.038  11.676  0.2560 -0.0457  0.0975
 1092SOL    HW114909   0.967   4.131  11.659 -0.5345 -0.7049 -3.1358
 1092SOL    HW214910   0.895   4.003  11.642 -1.6078  1.8251  2.7317
 1093SOL     OW14911   2.558   1.248   2.657 -0.2000  0.1854 -0.6923
 1093SOL    HW114912   2.622   1.246   2.586  0.0057  1.9076 -0.5565
 1093SOL    HW214913   2.483   1.292   2.616  0.8170  2.2403 -0.3744
 1094SOL     OW14914   4.286   3.622  13.455  0.2997 -0.1069  0.3658
 1094SOL    HW114915   4.209   3.604  13.508 -0.2052  1.4614  0.1832
 1094SOL    HW214916   4.349   3.635  13.526  1.1350  3.4652 -0.9874
 1095SOL     OW14917   0.264   1.670   7.616 -0.3472  0.1306 -0.2082
 1095SOL    HW114918   0.272   1.757   7.579 -2.5303  0.8728  1.0178
 1095SOL    HW214919   0.357   1.659   7.631  0.2357  1.6234 -2.7369
 1096SOL     OW14920   1.827   3.785   3.154 -0.0837 -0.1795 -0.3894
 1096SOL    HW114921   1.861   3.873   3.171  1.5185 -0.7277 -0.7792
 1096SOL    HW214922   1.910   3.737   3.154 -0.9458 -1.6774  0.9336
 1097SOL     OW14923   4.235   1.801   9.255 -0.8312  0.4666 -0.1012
 1097SOL    HW114924   4.326   1.829   9.245 -1.2441  1.2926 -1.5538
 1097SOL    HW214925   4.248   1.707   9.271  1.4958  0.7029 -0.4855
 1098SOL     OW14926   3.665   1.215  15.958 -0.0131  0.5029 -0.0237
 1098SOL    HW114927   3.621   1.170  15.886  1.4894  1.9202 -1.7981
 1098SOL    HW214928   3.614   1.189  16.035 -0.9371 -1.5905 -1.3255
 1099SOL     OW14929   3.804   2.151   4.439 -0.9292  0.6083  0.0777
 1099SOL    HW114930   3.870   2.159   4.370 -0.0693  1.7467  1.0293
 1099SOL    HW214931   3.735   2.100   4.397  0.6311  0.6087 -2.4789
 1100SOL     OW14932   4.516   2.966   4.419 -0.1891  0.3033 -0.4014
 1100SOL    HW114933   4.543   2.876   4.435  0.1305  0.6889  1.1700
 1100SOL    HW214934   4.522   2.977   4.324  0.5417  0.8227 -0.2958
 1101SOL     OW14935   4.016   3.902   3.379 -0.0477 -0.0490  0.1135
 1101SOL    HW114936   3.981   3.826   3.331  0.0759 -0.4081  0.5879
 1101SOL    HW214937   4.109   3.894   3.357 -0.1410 -1.2429  0.1336
 1102SOL     OW14938   4.548   2.707   2.822 -0.7936 -0.2007 -0.3144
 1102SOL    HW114939   4.488   2.648   2.776  0.3536  0.1852 -2.3227
 1102SOL    HW214940   4.602   2.733   2.747 -0.1515 -1.0716 -0.1596
 1103SOL     OW14941   4.495   0.061   1.473  0.0396 -0.6872  0.4133
 1103SOL    HW114942   4.454   0.032   1.392  0.7349 -0.5374  0.0133
 1103SOL    HW214943   4.506   4.716   1.522  0.0670 -0.3761  0.9321
 1104SOL     OW14944   2.181   1.465   7.150 -0.3735 -0.1064 -0.0680
 1104SOL    HW114945   2.251   1.428   7.205  0.1411  2.2546  0.8650
 1104SOL    HW214946   2.235   1.528   7.102  0.3999 -0.3764  0.4501
 1105SOL     OW14947   3.035   3.960   5.051 -0.5572 -0.0167 -0.5700
 1105SOL    HW114948   3.110   3.926   5.002 -0.8746 -1.6882  0.1058
 1105SOL    HW214949   2.980   3.978   4.975 -1.4359  0.5259  0.1930
 1106SOL     OW14950   3.506   2.468   5.241  0.2756  0.9124  0.2578
 1106SOL    HW114951   3.417   2.473   5.277  0.3370  2.5921  0.1791
 1106SOL    HW214952   3.569   2.426   5.300 -0.6934  0.7558  1.1844
 1107SOL     OW14953   1.048   3.839   8.398  0.2804 -0.0366  0.0405
 1107SOL    HW114954   1.106   3.825   8.323 -0.9687 -1.0457 -0.7551
 1107SOL    HW214955   1.052   3.753   8.441  0.6416 -0.2527 -0.4241
 1108SOL     OW14956   1.689   1.112   3.330  0.2609 -0.2002 -0.0472
 1108SOL    HW114957   1.735   1.195   3.322 -0.5580  0.2113 -0.4750
 1108SOL    HW214958   1.712   1.066   3.249 -1.3695 -1.1851  0.0526
 1109SOL     OW14959   4.648   2.184   2.869 -0.2149  0.0767  0.1029
 1109SOL    HW114960   4.565   2.195   2.823  0.0768 -0.8559 -0.6350
 1109SOL    HW214961   4.654   2.089   2.857 -2.9810  0.1909 -2.2114
 1110SOL     OW14962   2.425   2.586   9.442 -0.1131 -0.2564  0.1164
 1110SOL    HW114963   2.458   2.544   9.363  2.0196 -1.2975  1.5638
 1110SOL    HW214964   2.503   2.603   9.494 -1.2324  2.0143  1.0878
 1111SOL     OW14965   3.945   0.752   6.473  0.1448  0.3109 -0.1201
 1111SOL    HW114966   3.851   0.771   6.469 -0.0334 -0.5792 -0.4252
 1111SOL    HW214967   3.991   0.811   6.414  1.3436 -0.9339 -0.4184
 1112SOL     OW14968   2.842   1.104   7.760  0.1514  0.6042 -0.8067
 1112SOL    HW114969   2.918   1.059   7.724 -2.3783 -2.1653 -2.6135
 1112SOL    HW214970   2.768   1.048   7.738  1.5045 -1.2158 -0.7364
 1113SOL     OW14971   0.891   3.298   2.080  0.0132 -0.8317  0.2993
 1113SOL    HW114972   0.975   3.335   2.107  0.1036 -0.2535 -0.7614
 1113SOL    HW214973   0.893   3.309   1.984  1.2188  1.0615  0.5255
 1114SOL     OW14974   0.721   0.565   2.481  0.5840  0.2852  0.0868
 1114SOL    HW114975   0.718   0.639   2.541  0.2554  0.9864 -0.7943
 1114SOL    HW214976   0.680   0.489   2.522  1.0608 -0.4554 -0.8219
 1115SOL     OW14977   1.412   4.400   2.812 -0.6106  0.0155  0.2520
 1115SOL    HW114978   1.364   4.368   2.735 -2.1319  0.1670  1.1247
 1115SOL    HW214979   1.342   4.457   2.844  0.2390  1.3706 -0.3022
 1116SOL     OW14980   3.339   3.891   7.647  0.1243 -0.0439  0.2126
 1116SOL    HW114981   3.411   3.828   7.657  1.8907  1.5863 -2.2416
 1116SOL    HW214982   3.339   3.897   7.551 -0.3006 -0.8870  0.1593
 1117SOL     OW14983   0.986   0.553  11.983 -0.0233  0.4169  0.2345
 1117SOL    HW114984   1.060   0.538  12.042 -0.6420 -0.9292  0.6749
 1117SOL    HW214985   0.932   0.479  12.011 -1.5388  0.3240 -2.9304
 1118SOL     OW14986   4.346   3.023   7.825 -0.1932  0.0368 -0.1652
 1118SOL    HW114987   4.339   3.111   7.790  1.3644  0.8449  1.5352
 1118SOL    HW214988   4.440   3.007   7.825  0.0033  1.1901 -1.2924
 1119SOL     OW14989   2.962   4.012   6.002 -0.4689 -0.2307  0.0374
 1119SOL    HW114990   2.951   4.093   5.951  1.3923  0.6930  1.0753
 1119SOL    HW214991   3.046   4.034   6.042  0.0234 -3.3753  0.7306
 1120SOL     OW14992   3.569   0.788   2.053  0.7658  0.7479 -0.0631
 1120SOL    HW114993   3.636   0.743   2.001  0.3900 -1.9042  1.7564
 1120SOL    HW214994   3.492   0.743   2.018  0.5196  0.8936  0.2893
 1121SOL     OW14995   2.721   2.901   8.774  0.1526 -0.0903 -0.4706
 1121SOL    HW114996   2.773   2.825   8.748  0.9380 -0.2258  1.5083
 1121SOL    HW214997   2.638   2.864   8.803  1.2727 -1.5807  0.8314
 1122SOL     OW14998   4.412   3.276   3.368  0.8046  0.1203 -0.1710
 1122SOL    HW114999   4.455   3.190   3.370  1.6944  0.5369 -1.1037
 1122SOL    HW215000   4.389   3.287   3.460 -1.9440  0.8133 -0.9307
 1123SOL     OW15001   2.908   0.492   4.670  0.7930 -0.1421 -0.1866
 1123SOL    HW115002   2.888   0.579   4.635  3.0731  0.1997 -0.6679
 1123SOL    HW215003   2.905   0.436   4.592  0.6002 -0.3183 -0.0510
 1124SOL     OW15004   2.402   2.488   0.492 -0.4245 -0.7567 -0.0767
 1124SOL    HW115005   2.351   2.495   0.572  1.0810 -1.4420  0.9399
 1124SOL    HW215006   2.469   2.557   0.495 -1.2674 -0.0506  2.6444
 1125SOL     OW15007   1.535   0.207   5.071  0.0075 -0.3530 -0.0331
 1125SOL    HW115008   1.598   0.279   5.059 -2.1792  1.5061 -0.4102
 1125SOL    HW215009   1.536   0.208   5.167  2.0562  0.5614 -0.0527
 1126SOL     OW15010   1.604   4.729   6.449  0.4841 -0.3171  0.1677
 1126SOL    HW115011   1.560   4.686   6.376 -2.4547 -0.3279  1.9424
 1126SOL    HW215012   1.686   4.679   6.447  0.6834  0.0522 -0.6365
 1127SOL     OW15013   2.947   1.892   9.102  0.1794  0.3693  0.3792
 1127SOL    HW115014   3.024   1.851   9.142 -0.7595  0.1658  1.9519
 1127SOL    HW215015   2.883   1.847   9.156 -1.4077 -1.3047 -2.9181
 1128SOL     OW15016   0.273   2.272   1.222 -0.1360  0.5823  0.0348
 1128SOL    HW115017   0.211   2.218   1.172 -0.4716 -1.1254  2.2437
 1128SOL    HW215018   0.237   2.274   1.311 -0.1652 -2.0111  0.0774
 1129SOL     OW15019   0.744   0.622   8.409 -0.2611  0.0264  0.4056
 1129SOL    HW115020   0.753   0.717   8.399 -3.5636  0.4914  2.1417
 1129SOL    HW215021   0.834   0.602   8.383 -0.3612 -0.0742  0.1280
 1130SOL     OW15022   1.549   2.237   6.817  0.4792 -0.0526 -0.2356
 1130SOL    HW115023   1.511   2.314   6.859 -0.2653 -1.2845  1.3254
 1130SOL    HW215024   1.522   2.166   6.875  0.0913  0.3776  0.1016
 1131SOL     OW15025   4.104   3.117   2.518  0.2793 -0.0841  0.1371
 1131SOL    HW115026   4.133   3.148   2.432 -3.0305 -1.6124 -1.5605
 1131SOL    HW215027   4.078   3.196   2.566  1.6433  0.5667 -0.2221
 1132SOL     OW15028   3.879   2.779  16.198  0.5937 -0.1163 -0.5745
 1132SOL    HW115029   3.929   2.748  16.273 -0.5013  0.4704  0.3897
 1132SOL    HW215030   3.841   2.698  16.165 -0.9239  0.6113 -0.6197
 1133SOL     OW15031   0.360   1.052   7.517  0.2196  0.5961 -0.3704
 1133SOL    HW115032   0.282   1.011   7.479  0.0460  1.0609 -0.5200
 1133SOL    HW215033   0.328   1.143   7.513  1.0795  0.9050 -0.2511
 1134SOL     OW15034   0.947   3.803   8.738  0.6644 -0.3315  0.5231
 1134SOL    HW115035   1.015   3.796   8.806  3.5076  0.3162 -2.2665
 1134SOL    HW215036   0.948   3.899   8.737 -0.0029 -0.3321 -0.0997
 1135SOL     OW15037   2.892   0.548   5.485  0.3006  0.5989 -0.3732
 1135SOL    HW115038   2.802   0.542   5.453 -0.5909  1.1920  2.0821
 1135SOL    HW215039   2.900   0.644   5.489 -0.4907  0.6930 -1.1119
 1136SOL     OW15040   2.686   1.944   2.887  0.1885 -0.2762 -0.2048
 1136SOL    HW115041   2.735   1.974   2.811 -2.4252 -1.8948 -2.5344
 1136SOL    HW215042   2.669   2.025   2.936  2.0090  0.5714 -0.9837
 1137SOL     OW15043   2.921   3.578   4.962  0.1664  0.4025  0.5252
 1137SOL    HW115044   2.921   3.488   4.931  0.0014  0.4645  0.3494
 1137SOL    HW215045   2.881   3.577   5.049  0.8268  0.5194  0.8283
 1138SOL     OW15046   1.515   1.333  10.179  0.2075  0.3813  0.2819
 1138SOL    HW115047   1.516   1.276  10.257  0.4005  0.9686  0.7081
 1138SOL    HW215048   1.607   1.359  10.180 -0.2065  1.8350 -1.0231
 1139SOL     OW15049   2.218   1.175   5.453  0.3773 -0.2668 -0.1747
 1139SOL    HW115050   2.173   1.227   5.520 -1.6610 -0.2541 -1.5406
 1139SOL    HW215051   2.311   1.194   5.466  0.7007 -1.8716 -0.1636
 1140SOL     OW15052   4.323   1.453   3.674 -0.5184 -0.2485  0.2642
 1140SOL    HW115053   4.412   1.479   3.651 -0.8348 -0.4704 -1.2079
 1140SOL    HW215054   4.263   1.522   3.644  0.6324 -0.6652 -2.8953
 1141SOL     OW15055   3.806   4.235  17.117  0.1257  0.1250  0.3168
 1141SOL    HW115056   3.821   4.232  17.212 -2.6652 -1.2748  0.7064
 1141SOL    HW215057   3.753   4.156  17.111 -0.3433  0.5492 -1.1620
 1142SOL     OW15058   3.212   3.295   6.321  0.6898  0.3410  0.3352
 1142SOL    HW115059   3.307   3.310   6.325  0.9769 -0.9882 -1.0075
 1142SOL    HW215060   3.212   3.207   6.282 -0.7654 -0.1109  1.3823
 1143SOL     OW15061   0.868   1.529   4.285 -0.1474 -0.0199 -0.1926
 1143SOL    HW115062   0.831   1.458   4.233  1.7282 -0.9997 -0.1523
 1143SOL    HW215063   0.792   1.587   4.294 -2.3152 -2.6590 -1.4214
 1144SOL     OW15064   2.143   3.197   8.912  0.1886  0.6588  0.1608
 1144SOL    HW115065   2.093   3.146   8.976  0.9104  0.3596  0.4807
 1144SOL    HW215066   2.184   3.270   8.957 -1.4808  2.1759 -0.7540
 1145SOL     OW15067   3.619   0.772   8.831 -0.0558  0.0369  0.1450
 1145SOL    HW115068   3.575   0.775   8.746 -0.0329 -2.0734  0.0515
 1145SOL    HW215069   3.585   0.855   8.865  0.4408 -0.5872  2.1614
 1146SOL     OW15070   0.941   1.397   5.439  0.7556 -0.4796 -0.1887
 1146SOL    HW115071   0.937   1.406   5.344  3.1912 -1.7772 -0.3934
 1146SOL    HW215072   0.983   1.312   5.446  1.0211 -0.2491  0.9837
 1147SOL     OW15073   3.731   3.492   5.669 -0.1459  0.5597  0.3949
 1147SOL    HW115074   3.690   3.510   5.584 -1.2794 -0.0995  0.7986
 1147SOL    HW215075   3.797   3.560   5.665  0.6729 -0.3515 -1.9490
 1148SOL     OW15076   2.760   0.607   7.906  0.3685 -0.3917  0.5384
 1148SOL    HW115077   2.848   0.570   7.914  0.7151  0.6607  1.6303
 1148SOL    HW215078   2.722   0.530   7.864 -1.3868  0.8712 -0.1359
 1149SOL     OW15079   1.412   1.101   8.015  0.0348 -0.0111 -0.0766
 1149SOL    HW115080   1.478   1.057   7.960  0.2931  1.1210 -0.6749
 1149SOL    HW215081   1.339   1.082   7.956  0.1215  0.6394 -0.3863
 1150SOL     OW15082   2.386   4.365   6.978  0.4724  0.0549  0.2070
 1150SOL    HW115083   2.380   4.335   7.068  1.1012 -2.0497 -0.4708
 1150SOL    HW215084   2.424   4.453   6.971 -1.7250  1.2959  4.2067
 1151SOL     OW15085   0.181   4.588  15.635 -0.4335 -0.2370  0.1741
 1151SOL    HW115086   0.167   4.529  15.561 -2.7911  0.5097  0.0366
 1151SOL    HW215087   0.188   4.528  15.709 -1.7383  0.7024  1.0582
 1152SOL     OW15088   1.549   3.323   6.020 -0.6051  0.0700 -0.3077
 1152SOL    HW115089   1.561   3.404   5.971  0.9113  0.2907  0.4110
 1152SOL    HW215090   1.599   3.346   6.099 -0.0751  0.1145 -0.6602
 1153SOL     OW15091   2.706   2.597   2.737  0.4609  0.2041 -0.0729
 1153SOL    HW115092   2.699   2.673   2.794 -0.1380 -0.6702  1.0285
 1153SOL    HW215093   2.654   2.625   2.661 -1.7070 -0.8071  1.0150
 1154SOL     OW15094   4.050   3.136   7.401 -0.0147  0.3868 -0.5263
 1154SOL    HW115095   4.126   3.080   7.392 -0.4371 -0.2044 -0.3936
 1154SOL    HW215096   3.986   3.074   7.436  0.5843  1.8231  3.0899
 1155SOL     OW15097   0.624   1.069   2.983 -0.2652 -0.0845  0.5317
 1155SOL    HW115098   0.639   1.046   3.074 -2.4438  0.3774  0.9944
 1155SOL    HW215099   0.652   0.991   2.934 -1.6865  0.8921 -1.8487
 1156SOL     OW15100   1.401   1.321   2.258 -0.7908  0.4629  0.6166
 1156SOL    HW115101   1.468   1.334   2.190 -1.5900  0.0724 -0.2492
 1156SOL    HW215102   1.462   1.327   2.332 -0.2237 -0.8506  0.2673
 1157SOL     OW15103   4.241   2.387   8.955 -0.9698 -0.0878 -0.5611
 1157SOL    HW115104   4.242   2.315   9.018  0.1374  0.7953  0.4343
 1157SOL    HW215105   4.294   2.456   8.994 -0.8082 -0.9547  0.7578
 1158SOL     OW15106   3.766   4.050   3.980  0.2088  0.3161  0.0401
 1158SOL    HW115107   3.844   4.100   3.956  0.0968  0.1586 -0.6714
 1158SOL    HW215108   3.750   4.012   3.894 -1.4325 -2.3326  1.5074
 1159SOL     OW15109   4.349   0.690  12.058 -0.0066  0.0041  0.0696
 1159SOL    HW115110   4.436   0.695  12.019 -0.2333  2.1711 -0.1683
 1159SOL    HW215111   4.358   0.622  12.124  5.4357  0.4260 -0.3033
 1160SOL     OW15112   1.391   3.955  10.951  0.0161 -0.4496 -0.2925
 1160SOL    HW115113   1.461   3.906  10.994 -0.1160  1.2912  1.8841
 1160SOL    HW215114   1.338   3.976  11.028  2.7658  0.6850  1.2984
 1161SOL     OW15115   0.494   0.529   6.779 -0.2300  0.6944 -0.7555
 1161SOL    HW115116   0.490   0.580   6.860  2.1923  0.4433 -0.4939
 1161SOL    HW215117   0.574   0.554   6.733  0.5857 -0.5415 -0.0183
 1162SOL     OW15118   4.002   0.096  10.382 -0.1678 -0.2180 -0.6040
 1162SOL    HW115119   4.037   0.183  10.365 -2.1474  0.3850 -1.5759
 1162SOL    HW215120   3.926   0.110  10.325  0.5607 -0.5778 -1.6594
 1163SOL     OW15121   1.009   1.833   4.605 -0.6275  0.1372  0.0637
 1163SOL    HW115122   1.029   1.740   4.612 -1.1214  0.1484  1.6043
 1163SOL    HW215123   0.914   1.840   4.602 -0.5578  1.1992  0.1312
 1164SOL     OW15124   0.106   0.657   1.506 -0.6242 -0.0610 -0.4953
 1164SOL    HW115125   0.075   0.744   1.530 -0.9337  0.4457 -2.7170
 1164SOL    HW215126   0.028   0.612   1.474 -1.8231 -0.5812  3.2395
 1165SOL     OW15127   0.414   1.175  10.466 -0.0267  0.2722 -0.1101
 1165SOL    HW115128   0.505   1.202  10.456 -0.2408  0.7432 -0.8647
 1165SOL    HW215129   0.388   1.131  10.384 -2.2585 -0.2356  0.8617
 1166SOL     OW15130   0.773   2.276  16.392  0.7201  0.1427 -0.4570
 1166SOL    HW115131   0.864   2.300  16.409  0.7465 -1.1141  1.1876
 1166SOL    HW215132   0.736   2.358  16.361  1.5619  1.0702  1.0041
 1167SOL     OW15133   2.445   3.433  17.213 -0.3835 -0.4226 -0.4936
 1167SOL    HW115134   2.508   3.476  17.270 -0.0475 -0.4201 -0.8669
 1167SOL    HW215135   2.395   3.511  17.188  1.1754  0.8471  0.3463
 1168SOL     OW15136   3.910   0.616   2.809  0.6997 -0.0620  0.4391
 1168SOL    HW115137   3.939   0.570   2.730 -1.3830 -0.8500  0.1465
 1168SOL    HW215138   3.824   0.635   2.772 -0.9478 -2.3035  3.1405
 1169SOL     OW15139   3.487   3.991   3.206 -0.5748  0.1193  0.5337
 1169SOL    HW115140   3.430   3.940   3.264  2.5829 -1.7793  1.9401
 1169SOL    HW215141   3.571   3.980   3.250  0.4429 -0.1162 -1.4854
 1170SOL     OW15142   3.463   1.392  16.175  0.3182  0.0335 -0.7784
 1170SOL    HW115143   3.452   1.297  16.163 -0.9813  0.2110 -1.0276
 1170SOL    HW215144   3.380   1.412  16.217  0.3023 -1.9329  0.1507
 1171SOL     OW15145   0.368   1.720   8.325 -0.1453  0.4925 -0.5103
 1171SOL    HW115146   0.395   1.720   8.416 -2.1462  1.0127  0.0838
 1171SOL    HW215147   0.451   1.691   8.286  0.1131  1.5744 -0.7657
 1172SOL     OW15148   1.753   1.963   3.165 -0.2207  0.5626 -0.1404
 1172SOL    HW115149   1.846   1.956   3.186 -0.2511 -0.4840 -0.3880
 1172SOL    HW215150   1.726   2.037   3.219 -2.9459 -1.4189  1.1971
 1173SOL     OW15151   1.865   2.411   7.669  0.1594  0.0593  0.1866
 1173SOL    HW115152   1.930   2.397   7.601  0.5661  1.8873  0.1882
 1173SOL    HW215153   1.818   2.328   7.665  1.7737 -0.7995 -0.9324
 1174SOL     OW15154   0.815   2.432   8.712  0.2019 -0.0985 -0.1032
 1174SOL    HW115155   0.845   2.518   8.741 -1.1089 -0.1357  1.3654
 1174SOL    HW215156   0.896   2.381   8.722  1.2271  1.1714 -1.8757
 1175SOL     OW15157   0.920   1.946   8.696 -0.3978  0.2333  0.1194
 1175SOL    HW115158   0.932   2.031   8.654  2.7603 -1.8423 -3.2862
 1175SOL    HW215159   0.894   1.890   8.622 -0.7631 -1.0146  1.2019
 1176SOL     OW15160   3.324   1.060  17.646  0.4637  0.2805 -0.1275
 1176SOL    HW115161   3.350   0.971  17.668  2.8855  1.3476  1.3803
 1176SOL    HW215162   3.392   1.121  17.676 -0.7984  1.1358  1.0027
 1177SOL     OW15163   0.849   4.017  15.540  0.0229  0.0328 -0.1100
 1177SOL    HW115164   0.830   4.076  15.467  3.0763  0.1053 -0.8499
 1177SOL    HW215165   0.938   3.989  15.518  0.0935 -0.3767  0.7009
 1178SOL     OW15166   3.716   3.130   8.099  0.2856  0.0506 -0.3208
 1178SOL    HW115167   3.627   3.096   8.089  0.1569  0.9007 -2.0282
 1178SOL    HW215168   3.756   3.055   8.144 -1.1120 -2.3390 -3.0293
 1179SOL     OW15169   4.702   2.739   1.620  0.0088  0.1861 -0.1067
 1179SOL    HW115170   0.015   2.768   1.695  1.3865 -0.3029 -0.8540
 1179SOL    HW215171   4.737   2.780   1.541 -0.8716 -0.3278 -0.7713
 1180SOL     OW15172   1.313   0.405   4.985 -0.0543  0.3041  0.4719
 1180SOL    HW115173   1.341   0.357   5.063  0.6651 -1.4439 -0.8737
 1180SOL    HW215174   1.387   0.463   4.967  0.0639  0.2633  0.8270
 1181SOL     OW15175   4.584   2.289   1.014 -0.6747 -0.0423  0.2456
 1181SOL    HW115176   4.586   2.323   0.924  0.9436  1.6349  0.9221
 1181SOL    HW215177   4.498   2.326   1.036 -0.3974  1.2205 -0.7637
 1182SOL     OW15178   3.039   3.759   2.834 -0.1326 -0.6222 -0.4299
 1182SOL    HW115179   2.986   3.718   2.902 -0.0610  1.5487  0.9226
 1182SOL    HW215180   3.002   3.716   2.757 -0.1377 -0.2929 -0.6100
 1183SOL     OW15181   0.779   2.263   5.426  1.1160  0.1991  0.1812
 1183SOL    HW115182   0.734   2.345   5.407 -1.4743 -0.7043  2.3023
 1183SOL    HW215183   0.698   2.213   5.440  0.3304  0.7728 -2.3425
 1184SOL     OW15184   0.762   3.884   0.088 -0.5319 -0.5586  0.3845
 1184SOL    HW115185   0.719   3.837   0.159 -0.3569  0.0532  0.8842
 1184SOL    HW215186   0.813   3.950   0.135  0.1865 -1.6715  1.1786
 1185SOL     OW15187   1.172   3.078   4.223 -0.4732 -0.3951 -0.2084
 1185SOL    HW115188   1.248   3.065   4.280  1.2058  2.3484 -1.8558
 1185SOL    HW215189   1.203   3.032   4.145 -0.8775  1.2791 -1.3467
 1186SOL     OW15190   0.503   2.824   2.046  0.3757  0.3562 -0.0501
 1186SOL    HW115191   0.462   2.910   2.042  2.0550  1.1108 -0.7893
 1186SOL    HW215192   0.538   2.814   1.958  0.7285  1.6059 -0.0402
 1187SOL     OW15193   0.693   2.789   4.751 -0.1233 -0.1569 -0.4979
 1187SOL    HW115194   0.658   2.796   4.839 -0.6053 -0.9874 -0.6278
 1187SOL    HW215195   0.735   2.705   4.770 -0.5977 -0.3488 -0.3104
 1188SOL     OW15196   3.573   0.614   6.142  0.2188 -0.5094 -0.1156
 1188SOL    HW115197   3.592   0.536   6.089  0.4794  0.2343 -1.1242
 1188SOL    HW215198   3.518   0.670   6.088 -0.6719 -0.1756  1.1409
 1189SOL     OW15199   2.865   1.851   4.281  0.2155  0.1424 -0.4704
 1189SOL    HW115200   2.897   1.855   4.371 -0.3746  0.4458 -0.2787
 1189SOL    HW215201   2.777   1.887   4.280 -0.6427 -2.0179 -1.3176
 1190SOL     OW15202   1.717   0.262   6.201 -0.1190  0.6302 -0.6360
 1190SOL    HW115203   1.770   0.337   6.226  1.6997 -0.3520 -1.5200
 1190SOL    HW215204   1.755   0.185   6.243  1.7682  1.4726 -0.8203
 1191SOL     OW15205   3.767   0.286   9.414  0.1822  0.0332  0.3722
 1191SOL    HW115206   3.804   0.249   9.334 -0.4622  0.4764 -0.1356
 1191SOL    HW215207   3.845   0.284   9.470  0.2819  1.8299  0.3191
 1192SOL     OW15208   3.288   0.898   9.714 -0.0259 -0.1438 -0.5496
 1192SOL    HW115209   3.238   0.943   9.782  0.4382 -1.1349  0.4475
 1192SOL    HW215210   3.373   0.886   9.756  0.1262 -2.0039 -1.3838
 1193SOL     OW15211   3.989   4.651   8.617  0.0648 -0.4085 -0.2539
 1193SOL    HW115212   4.048   4.581   8.644  1.2208  1.3882  1.9838
 1193SOL    HW215213   3.910   4.634   8.668  0.9037  2.8294  2.1623
 1194SOL     OW15214   4.629   2.143  16.103 -0.4441  0.4873  0.2700
 1194SOL    HW115215   4.692   2.074  16.081  0.2385  0.8585  1.1070
 1194SOL    HW215216   4.545   2.111  16.068  0.3011  2.3298 -3.1847
 1195SOL     OW15217   3.653   0.746   4.132 -0.6532 -0.1407 -0.4485
 1195SOL    HW115218   3.691   0.696   4.204  1.5642  0.5326 -1.1528
 1195SOL    HW215219   3.566   0.753   4.171 -0.4768 -0.5335  0.0134
 1196SOL     OW15220   2.474   4.430   5.399  0.0655  0.3877  0.4075
 1196SOL    HW115221   2.448   4.441   5.308  0.0708 -3.5876 -0.0838
 1196SOL    HW215222   2.537   4.499   5.422  1.2285 -0.1111 -1.2291
 1197SOL     OW15223   4.313   3.186   0.410  0.5640 -0.2127  0.3349
 1197SOL    HW115224   4.375   3.188   0.483 -0.1027  0.8370  0.8678
 1197SOL    HW215225   4.277   3.275   0.408 -0.1660 -0.4905  1.3616
 1198SOL     OW15226   1.373   2.392  11.917  0.2858 -0.3848  0.3611
 1198SOL    HW115227   1.285   2.384  11.881  0.7693 -2.0635 -0.4762
 1198SOL    HW215228   1.373   2.477  11.961  2.6097 -0.4322  0.4290
 1199SOL     OW15229   3.421   2.457  16.287 -0.1548  0.2721  0.5482
 1199SOL    HW115230   3.396   2.487  16.374 -0.2406 -0.3824  0.7483
 1199SOL    HW215231   3.348   2.490  16.234 -1.0394 -0.3679  1.3749
 1200SOL     OW15232   1.674   3.732   7.843  0.4645 -0.3127 -0.0272
 1200SOL    HW115233   1.749   3.708   7.789  0.3608 -0.7136  0.0005
 1200SOL    HW215234   1.609   3.671   7.807 -0.1241  0.1219  0.3090
 1201SOL     OW15235   2.445   4.071   8.237 -0.7144 -0.3425  0.7533
 1201SOL    HW115236   2.398   4.081   8.320 -1.0780  0.2183  0.4734
 1201SOL    HW215237   2.493   3.988   8.247 -0.0163 -0.1851 -1.4522
 1202SOL     OW15238   3.079   3.618   3.700  0.6010 -0.4244 -0.1648
 1202SOL    HW115239   3.153   3.574   3.742  0.1056 -1.3656 -0.2714
 1202SOL    HW215240   3.004   3.591   3.752  1.0002 -1.0230  0.1065
 1203SOL     OW15241   0.457   4.464   2.802  0.3580 -0.4508  0.3584
 1203SOL    HW115242   0.459   4.429   2.891  0.5386 -1.4059 -0.0137
 1203SOL    HW215243   0.462   4.383   2.751 -0.3779 -1.1580  1.4049
 1204SOL     OW15244   2.075   0.536   7.183 -0.6324  0.4560  0.8066
 1204SOL    HW115245   2.037   0.515   7.097  0.5072  0.5995  0.2660
 1204SOL    HW215246   2.076   0.631   7.190  1.5967  0.6244 -1.8576
 1205SOL     OW15247   3.223   1.519   0.200  0.0999 -0.2674 -0.0470
 1205SOL    HW115248   3.286   1.585   0.226  0.4488 -0.8730  0.6611
 1205SOL    HW215249   3.194   1.462   0.272  0.7359 -1.7807 -0.9981
 1206SOL     OW15250   2.731   0.878  15.972  0.4344  0.1442  0.3938
 1206SOL    HW115251   2.805   0.868  16.031  2.4941  2.2021 -1.8034
 1206SOL    HW215252   2.779   0.862  15.890 -0.7197  0.5170 -0.3522
 1207SOL     OW15253   1.006   0.427   5.227 -0.4005 -0.0602  0.2777
 1207SOL    HW115254   1.087   0.428   5.278 -0.4663  0.2188  0.3740
 1207SOL    HW215255   0.950   0.362   5.269 -1.1598  1.4760  1.5979
 1208SOL     OW15256   0.439   2.423   8.096 -0.1012 -0.7423  0.7796
 1208SOL    HW115257   0.356   2.436   8.051 -0.5989  0.2172  1.9827
 1208SOL    HW215258   0.400   2.414   8.183 -0.5073  2.0168  0.8746
 1209SOL     OW15259   4.504   2.261   4.499 -0.1104 -0.5713  0.1005
 1209SOL    HW115260   4.473   2.319   4.430  0.0226 -1.5769 -0.7957
 1209SOL    HW215261   4.422   2.234   4.542  0.5936 -0.4946  1.5046
 1210SOL     OW15262   0.762   4.417   6.827 -0.4464  0.3054 -0.6428
 1210SOL    HW115263   0.729   4.507   6.825 -0.2964  0.3801  0.1541
 1210SOL    HW215264   0.797   4.419   6.739 -0.2302  0.0671 -0.5596
 1211SOL     OW15265   3.734   0.854   5.794 -0.4430  0.2276  0.0326
 1211SOL    HW115266   3.640   0.852   5.775 -1.0154 -1.1193  2.9602
 1211SOL    HW215267   3.741   0.942   5.831  3.0816  0.8587 -2.1068
 1212SOL     OW15268   1.634   0.708  12.382 -0.1572  0.2071  0.1990
 1212SOL    HW115269   1.662   0.795  12.354 -1.0736  0.6879  0.7647
 1212SOL    HW215270   1.700   0.645  12.354 -0.6001 -0.4965  0.7314
 1213SOL     OW15271   0.823   0.897   5.408 -0.1791  0.1793 -0.2232
 1213SOL    HW115272   0.734   0.930   5.413 -0.2456  0.0523 -0.5618
 1213SOL    HW215273   0.833   0.928   5.318  1.8421  1.7739  0.5588
 1214SOL     OW15274   1.050   4.462   9.746  0.0773 -0.3286 -0.3000
 1214SOL    HW115275   1.006   4.482   9.663  0.6128  0.3390 -0.4257
 1214SOL    HW215276   1.144   4.475   9.732  0.2804 -1.8630 -0.3410
 1215SOL     OW15277   1.757   0.511   1.051 -0.1692 -0.6847 -0.0726
 1215SOL    HW115278   1.698   0.577   1.015 -0.3710 -0.4631  0.6702
 1215SOL    HW215279   1.837   0.522   0.999 -0.2867 -2.2524 -0.6073
 1216SOL     OW15280   3.031   2.789   8.943  0.0337 -0.1803 -0.0950
 1216SOL    HW115281   2.964   2.771   9.009  0.1257 -2.0638 -0.5200
 1216SOL    HW215282   2.977   2.758   8.870 -0.7546 -0.4181  0.5975
 1217SOL     OW15283   1.518   4.639   2.487 -0.2146 -0.7604 -0.0273
 1217SOL    HW115284   1.445   4.577   2.495 -0.0631 -0.9856 -0.4244
 1217SOL    HW215285   1.565   4.614   2.408  1.9019 -0.2725  1.0704
 1218SOL     OW15286   2.055   0.048   8.411 -0.3159  0.0547  0.4685
 1218SOL    HW115287   1.966   0.053   8.377 -0.1922  1.1940  0.3355
 1218SOL    HW215288   2.034   0.004   8.494 -1.3024  3.0197  1.7777
 1219SOL     OW15289   2.729   1.768   5.120  0.1017 -0.4001 -0.2862
 1219SOL    HW115290   2.728   1.732   5.208 -1.1123  1.7967  0.5870
 1219SOL    HW215291   2.754   1.697   5.061 -0.2039 -0.5853 -0.1970
 1220SOL     OW15292   2.078   3.149   7.493  0.4384 -0.2022 -0.1772
 1220SOL    HW115293   2.028   3.168   7.572  1.1698  0.8682  0.0337
 1220SOL    HW215294   2.164   3.179   7.524  0.9978  1.0693 -2.9693
 1221SOL     OW15295   3.965   1.944   1.733 -0.1419  0.0391 -0.0968
 1221SOL    HW115296   3.979   2.024   1.683 -1.3911 -1.1854 -2.3964
 1221SOL    HW215297   4.021   1.953   1.810  1.8949 -1.4017 -1.4048
 1222SOL     OW15298   1.806   3.819   7.260 -0.4644 -0.2022  0.0802
 1222SOL    HW115299   1.851   3.800   7.177 -1.8783  0.1686 -0.7638
 1222SOL    HW215300   1.764   3.896   7.223  0.0043 -0.6403 -1.3569
 1223SOL     OW15301   3.821   0.435  12.640 -0.0826  0.1932 -0.0930
 1223SOL    HW115302   3.749   0.499  12.644 -0.2031  0.1285 -1.2341
 1223SOL    HW215303   3.874   0.479  12.574 -0.9803  1.8936  0.3113
 1224SOL     OW15304   2.840   1.102   3.762 -0.6047 -0.1032 -0.2029
 1224SOL    HW115305   2.851   1.136   3.674  3.4684 -0.1623  0.2969
 1224SOL    HW215306   2.926   1.090   3.802 -1.5206 -3.7996  0.7296
 1225SOL     OW15307   0.120   4.409   6.470 -0.2842  0.3920 -0.3563
 1225SOL    HW115308   0.075   4.325   6.459 -0.5101  0.1542  2.3838
 1225SOL    HW215309   0.198   4.380   6.518  0.3907  1.6188 -0.7200
 1226SOL     OW15310   0.673   0.715   1.888 -0.7500  0.7107 -0.6073
 1226SOL    HW115311   0.760   0.756   1.884 -0.1133 -0.4964  1.1139
 1226SOL    HW215312   0.641   0.723   1.798 -0.0071 -2.7457 -1.2015
 1227SOL     OW15313   2.182   2.037   5.570  0.6188 -0.0090 -0.4897
 1227SOL    HW115314   2.237   2.004   5.641 -0.0083  0.3634  0.1712
 1227SOL    HW215315   2.130   2.106   5.612 -0.1171 -1.2631  0.6983
 1228SOL     OW15316   3.807   1.751   5.816 -0.1950 -0.1362 -0.1812
 1228SOL    HW115317   3.718   1.765   5.849 -0.0538 -2.3818  1.1654
 1228SOL    HW215318   3.830   1.670   5.862 -0.7975  0.1359  0.6053
 1229SOL     OW15319   4.386   1.196   8.227  0.0082  0.2137  0.5783
 1229SOL    HW115320   4.457   1.185   8.290 -0.0191 -0.7522  0.4440
 1229SOL    HW215321   4.401   1.114   8.180  0.8640  1.0255 -0.5533
 1230SOL     OW15322   0.945   4.263  16.568  0.2255  0.2889 -0.0456
 1230SOL    HW115323   1.003   4.294  16.498  0.1937  0.2352 -0.0950
 1230SOL    HW215324   0.898   4.341  16.598 -0.9458 -0.4703  0.0862
 1231SOL     OW15325   1.874   0.343   2.488 -0.3867  0.5647  0.1513
 1231SOL    HW115326   1.867   0.250   2.466 -2.5062  0.3590  1.6670
 1231SOL    HW215327   1.868   0.391   2.405 -3.0701  1.3715  0.7944
 1232SOL     OW15328   0.854   0.650   7.824 -0.4057 -0.0212  0.2891
 1232SOL    HW115329   0.889   0.601   7.750  0.4600  0.8829  0.0963
 1232SOL    HW215330   0.789   0.709   7.785 -1.6923 -1.7024 -0.1037
 1233SOL     OW15331   4.506   1.764  14.359 -0.1053  0.1383  0.4398
 1233SOL    HW115332   4.466   1.688  14.401  1.3652 -0.2131  1.2375
 1233SOL    HW215333   4.430   1.819  14.342  1.2100  2.3611  1.6038
 1234SOL     OW15334   2.629   0.536   6.869 -0.1831  0.4918  0.0018
 1234SOL    HW115335   2.629   0.441   6.864  0.1797  0.4977 -0.1202
 1234SOL    HW215336   2.720   0.563   6.854  0.1268 -2.3899 -3.2651
 1235SOL     OW15337   3.454   3.694   1.595 -0.1760 -0.0657 -0.0518
 1235SOL    HW115338   3.372   3.726   1.558 -0.5510 -2.6206 -1.4400
 1235SOL    HW215339   3.451   3.600   1.575  0.2498 -0.0897 -0.0201
 1236SOL     OW15340   2.843   4.317   8.137 -0.0106 -0.3367 -0.1671
 1236SOL    HW115341   2.750   4.295   8.126  0.3782 -1.2732 -1.4315
 1236SOL    HW215342   2.886   4.280   8.060  1.4344 -1.0793  1.0029
 1237SOL     OW15343   0.581   3.080  13.627 -0.0322 -0.4091  0.5570
 1237SOL    HW115344   0.578   2.987  13.604  3.3613  0.1050 -1.9330
 1237SOL    HW215345   0.671   3.097  13.654  0.2347  1.5522 -1.5146
 1238SOL     OW15346   3.778   3.377   5.183 -0.9213 -0.0351  0.3166
 1238SOL    HW115347   3.850   3.425   5.225  0.6342 -1.7832 -0.3679
 1238SOL    HW215348   3.741   3.452   5.136 -0.0389 -1.6645 -2.9444
 1239SOL     OW15349   2.023   3.506   5.541  0.1040 -0.4766  0.0729
 1239SOL    HW115350   2.028   3.550   5.626  4.2142 -0.3286 -0.2424
 1239SOL    HW215351   1.960   3.439   5.566  0.2937 -0.8321 -0.4176
 1240SOL     OW15352   3.675   2.590   1.916  0.2612  0.4436  0.6276
 1240SOL    HW115353   3.590   2.575   1.874  2.2435 -2.5262 -2.2771
 1240SOL    HW215354   3.696   2.680   1.894  0.2734  0.0948 -0.7812
 1241SOL     OW15355   4.568   2.073   7.957  0.2495  0.2639  0.6498
 1241SOL    HW115356   4.554   1.981   7.936 -1.7830  0.4824  1.0151
 1241SOL    HW215357   4.653   2.064   8.000  0.8605  2.7889  0.0167
 1242SOL     OW15358   4.621   3.664  14.778  0.3185 -0.5210  0.4405
 1242SOL    HW115359   4.648   3.573  14.767  3.9929  0.7231 -0.7470
 1242SOL    HW215360   4.699   3.711  14.809 -1.5688  2.9507 -0.0997
 1243SOL     OW15361   2.665   0.693  14.282  0.0082  0.5219  0.2843
 1243SOL    HW115362   2.753   0.727  14.292 -0.9722  3.2101 -0.0690
 1243SOL    HW215363   2.655   0.723  14.191 -0.7256  0.9390  0.4957
 1244SOL     OW15364   3.710   0.542   7.740 -0.3157  0.1367  0.3769
 1244SOL    HW115365   3.706   0.473   7.674 -0.3108 -2.8603  3.4933
 1244SOL    HW215366   3.792   0.584   7.714  0.1655 -0.8332  0.3267
 1245SOL     OW15367   0.666   2.964  15.613  0.0134 -0.3383  0.3220
 1245SOL    HW115368   0.664   2.893  15.549 -0.0182  1.4945 -1.6993
 1245SOL    HW215369   0.620   2.913  15.680  0.8951 -1.7721 -0.1539
 1246SOL     OW15370   0.192   4.322   9.669  0.0051  0.0709 -0.3071
 1246SOL    HW115371   0.255   4.261   9.630 -1.4251 -1.0225 -0.8828
 1246SOL    HW215372   0.109   4.287   9.637 -0.2095  1.0841 -0.8685
 1247SOL     OW15373   2.389   2.009  16.600 -0.4746  0.2495  1.0682
 1247SOL    HW115374   2.420   1.921  16.581 -2.1517  0.1665 -1.2922
 1247SOL    HW215375   2.295   1.998  16.614  0.1213 -3.6943  1.9671
 1248SOL     OW15376   4.001   0.137   5.737  0.2295  0.3673 -0.1086
 1248SOL    HW115377   3.997   0.220   5.691 -0.4727 -0.6171 -1.8405
 1248SOL    HW215378   3.982   0.082   5.660 -0.8820  0.4382  0.1080
 1249SOL     OW15379   0.286   0.935   0.044  0.1206  0.3096  0.1584
 1249SOL    HW115380   0.369   0.983   0.042  0.3689 -0.2475 -2.6499
 1249SOL    HW215381   0.283   0.922   0.139  2.0913  0.1972  0.2108
 1250SOL     OW15382   4.500   3.369   4.892  0.5129  0.3486 -0.1247
 1250SOL    HW115383   4.541   3.415   4.965  1.3605 -2.1252  0.9336
 1250SOL    HW215384   4.508   3.279   4.923 -2.5071 -0.0243 -0.4095
 1251SOL     OW15385   3.920   4.533  13.996 -0.5060 -0.0071 -0.4857
 1251SOL    HW115386   3.910   4.541  13.902 -1.3908  0.0468 -0.3891
 1251SOL    HW215387   3.843   4.479  14.016  0.6005 -1.3959  0.0029
 1252SOL     OW15388   3.820   3.015  12.184 -0.0653 -0.3361  0.0043
 1252SOL    HW115389   3.773   2.954  12.127 -0.0387  0.3951 -0.8014
 1252SOL    HW215390   3.834   2.965  12.264  0.0834 -3.7920 -2.2093
 1253SOL     OW15391   0.282   2.988   3.086  0.3172 -0.0572 -0.5596
 1253SOL    HW115392   0.269   2.921   3.019 -0.7812  0.0603 -0.4747
 1253SOL    HW215393   0.224   3.054   3.047  1.5755  1.3754 -0.0169
 1254SOL     OW15394   2.673   1.676   6.870  0.7304 -0.2341  0.3917
 1254SOL    HW115395   2.671   1.581   6.885  2.5701 -0.6017 -1.6205
 1254SOL    HW215396   2.673   1.677   6.774  0.7646 -0.4435  0.3903
 1255SOL     OW15397   2.873   2.917   5.467 -0.1388 -0.5511 -0.1184
 1255SOL    HW115398   2.947   2.978   5.465 -0.8542  0.4318  2.4081
 1255SOL    HW215399   2.902   2.849   5.528 -2.5420 -0.3071  1.2988
 1256SOL     OW15400   2.595   4.562   3.618 -0.2389 -0.5814 -0.0305
 1256SOL    HW115401   2.638   4.647   3.622  0.2072 -0.8162  0.1182
 1256SOL    HW215402   2.526   4.572   3.552  1.8153  1.3655 -1.8481
 1257SOL     OW15403   2.730   0.260   6.544  0.3213 -0.0160 -0.5702
 1257SOL    HW115404   2.700   0.285   6.456  0.3184  1.2547 -0.2025
 1257SOL    HW215405   2.777   0.342   6.560 -2.3734  1.4115 -0.0744
 1258SOL     OW15406   0.935   4.017  13.429 -0.2339  0.1469  0.2967
 1258SOL    HW115407   0.963   3.940  13.478  2.2035  0.2767 -0.9119
 1258SOL    HW215408   0.997   4.080  13.467 -0.1974 -0.7168  1.6624
 1259SOL     OW15409   4.262   3.013  13.359 -0.1201  0.8474  0.5828
 1259SOL    HW115410   4.299   2.934  13.398  0.6237  0.9011 -0.0128
 1259SOL    HW215411   4.171   2.992  13.379 -0.1213  0.5285  0.2602
 1260SOL     OW15412   1.959   0.493   2.264  0.5356  0.4102  0.1435
 1260SOL    HW115413   1.879   0.543   2.249 -0.9115 -2.1386 -0.6866
 1260SOL    HW215414   2.019   0.560   2.231 -0.7688  0.4254 -2.2013
 1261SOL     OW15415   4.091   0.711   6.896 -0.1009 -0.5531  0.4877
 1261SOL    HW115416   4.152   0.732   6.826 -0.4002  0.1631  0.4415
 1261SOL    HW215417   4.037   0.650   6.845  1.3837 -0.7891 -0.7929
 1262SOL     OW15418   3.416   3.703   0.682  0.2027 -0.3030  0.2580
 1262SOL    HW115419   3.370   3.767   0.736  1.5384 -0.7846  1.9669
 1262SOL    HW215420   3.503   3.736   0.658  0.6739 -0.7807  1.3069
 1263SOL     OW15421   3.872   3.282  15.694  0.1370  0.3374 -0.4140
 1263SOL    HW115422   3.776   3.289  15.690  0.0689  0.5866  1.6552
 1263SOL    HW215423   3.888   3.210  15.632  0.8285  1.5391 -1.6290
 1264SOL     OW15424   1.523   3.549   1.894  0.8194  0.4875 -0.3403
 1264SOL    HW115425   1.558   3.538   1.982 -0.1029 -0.5435 -0.1048
 1264SOL    HW215426   1.471   3.629   1.893 -0.9484 -0.6759  0.0935
 1265SOL     OW15427   3.241   4.193  14.577 -0.6634 -0.4581 -0.2941
 1265SOL    HW115428   3.157   4.161  14.609 -0.1151 -1.5000  0.1200
 1265SOL    HW215429   3.209   4.271  14.534  0.8930 -0.7831 -2.0311
 1266SOL     OW15430   4.405   4.691   6.658 -0.3870  0.6287  0.1280
 1266SOL    HW115431   4.361   4.661   6.578  0.5748  1.6287 -0.7700
 1266SOL    HW215432   4.416   4.612   6.710 -2.4656 -0.7926 -1.6047
 1267SOL     OW15433   3.957   2.651   3.730 -0.2910 -0.5707 -0.1635
 1267SOL    HW115434   3.876   2.675   3.686 -0.1096 -0.6329 -0.5303
 1267SOL    HW215435   3.991   2.585   3.670  0.8076 -1.5587  1.5473
 1268SOL     OW15436   2.351   1.824   1.820  0.0281 -0.1263 -0.0269
 1268SOL    HW115437   2.417   1.764   1.855 -0.3860 -1.3015 -1.2612
 1268SOL    HW215438   2.410   1.898   1.803  0.1635 -0.5029 -1.1918
 1269SOL     OW15439   1.835   2.900   0.575 -0.8372 -0.0495  0.1205
 1269SOL    HW115440   1.883   2.880   0.655  0.4773 -2.2391 -1.2209
 1269SOL    HW215441   1.744   2.890   0.604 -0.2319  0.2061  2.1219
 1270SOL     OW15442   4.112   2.189   3.808  0.5165 -0.0023 -0.0100
 1270SOL    HW115443   4.138   2.111   3.759 -1.5433  0.2126 -1.4570
 1270SOL    HW215444   4.051   2.229   3.745 -0.1059  0.8680  1.1598
 1271SOL     OW15445   0.609   2.574   5.635  0.2285  0.1965  0.2500
 1271SOL    HW115446   0.662   2.545   5.709  1.5890 -2.3816 -1.7123
 1271SOL    HW215447   0.626   2.668   5.633 -1.0908  0.4183 -0.7416
 1272SOL     OW15448   3.684   2.580   6.477  0.3751 -0.7173 -0.3153
 1272SOL    HW115449   3.659   2.632   6.553  0.3003  2.0236 -2.2186
 1272SOL    HW215450   3.644   2.631   6.407 -0.4244 -0.7228  0.1362
 1273SOL     OW15451   2.868   0.759   5.765  0.0110  0.1695 -0.0986
 1273SOL    HW115452   2.831   0.818   5.830 -1.1101 -1.5553  0.8148
 1273SOL    HW215453   2.817   0.682   5.788  0.0026  0.9386  2.4256
 1274SOL     OW15454   1.362   4.683   7.030 -0.4634 -0.4785  0.2382
 1274SOL    HW115455   1.284   4.627   7.027  0.1994 -1.3290 -1.2334
 1274SOL    HW215456   1.370   4.681   7.125  1.6291 -0.3980  0.0543
 1275SOL     OW15457   2.183   0.473   3.552 -0.1828  0.3217  0.3588
 1275SOL    HW115458   2.099   0.515   3.530 -0.0253  0.5808  0.2471
 1275SOL    HW215459   2.187   0.415   3.476 -1.4665  1.2492 -0.4275
 1276SOL     OW15460   1.626   1.161   2.889  0.0779 -0.1874 -0.1883
 1276SOL    HW115461   1.641   1.233   2.828  5.0666 -0.9311  0.1757
 1276SOL    HW215462   1.552   1.201   2.935  0.9511 -0.3728  1.3828
 1277SOL     OW15463   2.778   0.945   5.114  0.0464 -0.3742  0.6454
 1277SOL    HW115464   2.809   1.035   5.126  1.5583 -0.8938  0.6326
 1277SOL    HW215465   2.740   0.958   5.028  0.0213 -2.2128  0.3780
 1278SOL     OW15466   3.310   3.052  15.398 -0.2596  0.3457 -0.4085
 1278SOL    HW115467   3.349   3.116  15.458 -0.8189 -0.7304  1.0966
 1278SOL    HW215468   3.325   3.093  15.313 -0.2540 -2.7601 -1.9012
 1279SOL     OW15469   1.498   0.983  12.562 -0.2408 -0.5258 -0.4974
 1279SOL    HW115470   1.502   0.951  12.652 -0.1291  0.7580 -0.0452
 1279SOL    HW215471   1.586   0.965  12.531 -0.1563  1.9348 -1.6414
 1280SOL     OW15472   0.335   3.041   3.781  0.2122  0.1638  0.1231
 1280SOL    HW115473   0.330   2.963   3.836  0.9871  0.9563  1.3210
 1280SOL    HW215474   0.315   3.103   3.851  0.2069  0.0435  0.2289
 1281SOL     OW15475   4.188   0.250   4.144 -0.2385 -0.2650  0.1572
 1281SOL    HW115476   4.094   0.269   4.142  0.0013  1.0267  1.3245
 1281SOL    HW215477   4.212   0.276   4.233  0.3823  1.2042 -0.4351
 1282SOL     OW15478   2.622   1.954   4.230  0.0946 -0.0284  0.3927
 1282SOL    HW115479   2.541   1.992   4.266 -1.0857 -1.3813 -0.8305
 1282SOL    HW215480   2.651   2.033   4.184 -2.9509  0.6186 -0.4583
 1283SOL     OW15481   2.036   1.500  11.909 -0.4080 -0.2122 -0.0602
 1283SOL    HW115482   2.043   1.491  12.004 -0.8376 -2.6325 -0.2455
 1283SOL    HW215483   2.125   1.534  11.898  0.1025 -1.2075  0.9461
 1284SOL     OW15484   2.898   4.318  12.377 -0.2285  0.1373 -0.0537
 1284SOL    HW115485   2.911   4.393  12.435  1.2036 -0.3055  0.1980
 1284SOL    HW215486   2.987   4.322  12.342 -0.4251  1.9881 -0.3776
 1285SOL     OW15487   2.521   0.581   6.463  0.2315  0.2362 -0.7185
 1285SOL    HW115488   2.528   0.592   6.558  0.1041  0.5191 -0.7416
 1285SOL    HW215489   2.551   0.668   6.437  0.0668  0.8646  1.2080
 1286SOL     OW15490   0.881   0.951   5.916 -0.1140  0.4405 -0.3389
 1286SOL    HW115491   0.853   0.884   5.978  0.7487 -0.5947 -1.0679
 1286SOL    HW215492   0.851   0.932   5.827 -0.0636  1.0231 -0.4796
 1287SOL     OW15493   1.754   1.691   2.744  0.0603 -0.0831 -0.0907
 1287SOL    HW115494   1.829   1.737   2.782 -0.5505  1.4992 -0.7804
 1287SOL    HW215495   1.685   1.730   2.797 -0.8486 -0.9250 -0.6400
 1288SOL     OW15496   4.453   1.436   4.927  0.4851  0.3307 -0.3988
 1288SOL    HW115497   4.379   1.485   4.964  0.4145 -0.1553  0.0911
 1288SOL    HW215498   4.462   1.477   4.840 -1.9160  0.8177 -0.4050
 1289SOL     OW15499   4.432   4.145   9.618 -0.5596 -0.3435 -0.3764
 1289SOL    HW115500   4.386   4.167   9.699 -1.4790  1.7940 -1.4804
 1289SOL    HW215501   4.514   4.191   9.635 -1.5062  0.1937  2.7649
 1290SOL     OW15502   3.022   2.542   5.962  0.2547  0.4305 -0.1151
 1290SOL    HW115503   2.942   2.505   5.998  1.5102 -1.1984  1.0186
 1290SOL    HW215504   2.986   2.609   5.904  0.8953  0.1128 -0.8882
 1291SOL     OW15505   3.254   1.089   8.890  0.3116  0.1848 -0.1680
 1291SOL    HW115506   3.331   1.044   8.856  0.0575  0.6709 -1.3667
 1291SOL    HW215507   3.278   1.182   8.887  0.1951  0.2600  1.1062
 1292SOL     OW15508   1.533   3.341  17.549  0.3979  0.4108  0.1078
 1292SOL    HW115509   1.483   3.416  17.517  0.3633  0.0680 -0.6259
 1292SOL    HW215510   1.599   3.335  17.480 -1.4369  0.7671 -1.6769
 1293SOL     OW15511   0.313   4.571   9.665 -0.5634 -0.1000  0.0303
 1293SOL    HW115512   0.271   4.486   9.670  0.7342 -0.5959  2.6506
 1293SOL    HW215513   0.395   4.551   9.710  1.1120  0.6124 -2.6965
 1294SOL     OW15514   4.564   0.793   0.819  0.3137  0.7796  0.1366
 1294SOL    HW115515   4.525   0.857   0.879 -2.0985  0.3498 -0.9862
 1294SOL    HW215516   4.645   0.776   0.867  0.0326 -2.1932 -0.4658
 1295SOL     OW15517   0.886   2.531   1.864  0.4281  0.4331  0.0640
 1295SOL    HW115518   0.808   2.517   1.812 -1.5663  2.7583  2.4338
 1295SOL    HW215519   0.885   2.474   1.941  0.3984  0.6309  0.2127
 1296SOL     OW15520   1.435   1.293  10.819  0.1630 -0.2281  0.1350
 1296SOL    HW115521   1.456   1.227  10.754 -0.9983  1.8062 -2.2917
 1296SOL    HW215522   1.377   1.244  10.877 -0.2187 -2.0709 -1.8185
 1297SOL     OW15523   0.966   2.859   5.518  0.1146  0.1437 -0.2401
 1297SOL    HW115524   1.040   2.807   5.485 -0.5881  0.7193 -2.7592
 1297SOL    HW215525   1.008   2.944   5.523  0.2963 -0.0296  1.1445
 1298SOL     OW15526   2.097   3.613   3.912 -0.2504  0.8629  0.4749
 1298SOL    HW115527   2.155   3.592   3.985  1.3249 -1.1673 -1.3477
 1298SOL    HW215528   2.156   3.638   3.840 -1.1541  0.6015 -0.3471
 1299SOL     OW15529   1.486   4.434  12.579  0.0006 -0.1813  0.2508
 1299SOL    HW115530   1.576   4.458  12.600 -0.7278  1.6161  1.3002
 1299SOL    HW215531   1.481   4.339  12.588 -0.9264 -0.0537  1.1139
 1300SOL     OW15532   2.014   2.812  13.412  0.3473 -0.0944  0.3756
 1300SOL    HW115533   1.997   2.793  13.320 -0.6898 -0.2303  0.5913
 1300SOL    HW215534   2.057   2.897  13.405  0.2779  0.1195  2.2954
 1301SOL     OW15535   4.682   4.005  11.773  0.1305  0.2022 -0.1895
 1301SOL    HW115536   0.018   3.946  11.792  0.3139  0.4578 -0.0879
 1301SOL    HW215537   4.722   4.086  11.805 -0.2814  0.9262 -1.5333
 1302SOL     OW15538   1.658   1.964   4.788 -0.2000 -0.1053  0.1535
 1302SOL    HW115539   1.728   1.898   4.786  1.1211  1.2414  2.0180
 1302SOL    HW215540   1.600   1.928   4.721 -0.3670 -1.1350  0.8537
 1303SOL     OW15541   4.353   2.543   9.289  0.0913 -0.1472 -0.1728
 1303SOL    HW115542   4.315   2.631   9.286  1.9576  0.6942  0.6787
 1303SOL    HW215543   4.383   2.543   9.198  1.0561  0.3455  0.1393
 1304SOL     OW15544   0.708   3.848   2.530 -0.1838 -0.2080  0.3270
 1304SOL    HW115545   0.772   3.834   2.600 -0.6317 -0.1610  0.7403
 1304SOL    HW215546   0.738   3.934   2.501  1.3353  0.1882  3.0882
 1305SOL     OW15547   1.387   2.903   2.322  0.2208 -0.6449 -0.1128
 1305SOL    HW115548   1.338   2.941   2.249  1.5046 -0.9856 -1.1448
 1305SOL    HW215549   1.405   2.822   2.274 -1.2251 -1.7285  1.1440
 1306SOL     OW15550   1.065   0.673   2.807 -0.0263  0.0013  0.0875
 1306SOL    HW115551   1.050   0.669   2.712 -0.9723  1.0022  0.1960
 1306SOL    HW215552   1.121   0.596   2.819 -1.1526 -0.6511  1.0072
 1307SOL     OW15553   3.295   3.137  13.278 -0.5337 -0.4367 -0.4780
 1307SOL    HW115554   3.226   3.201  13.266 -0.9157 -0.2893  2.5177
 1307SOL    HW215555   3.331   3.175  13.358 -2.0519  1.7966 -0.8697
 1308SOL     OW15556   4.486   1.388   1.760 -0.0743 -0.4614 -0.0469
 1308SOL    HW115557   4.436   1.306   1.766 -2.0741  0.8582  1.1416
 1308SOL    HW215558   4.486   1.387   1.664 -1.5010  0.9926 -0.0534
 1309SOL     OW15559   0.458   2.644   9.324  0.1561  0.3748 -0.5329
 1309SOL    HW115560   0.540   2.599   9.306 -0.0907  0.2437 -1.3311
 1309SOL    HW215561   0.459   2.706   9.252  1.0632  0.3758 -0.5227
 1310SOL     OW15562   1.308   1.040  11.735  0.1044 -0.0290  0.2131
 1310SOL    HW115563   1.317   0.990  11.816  0.1117  3.1369  2.1916
 1310SOL    HW215564   1.401   1.058  11.721  0.3945 -1.1152  0.7587
 1311SOL     OW15565   0.124   4.265   5.424  0.3337  0.0793  0.0082
 1311SOL    HW115566   0.167   4.350   5.433 -0.3244  0.1250  2.8309
 1311SOL    HW215567   0.035   4.269   5.460  0.0017 -0.2494 -0.7625
 1312SOL     OW15568   1.471   0.606   8.690  0.4237 -0.3564  0.9740
 1312SOL    HW115569   1.420   0.677   8.728  1.3992  0.9165 -0.0754
 1312SOL    HW215570   1.427   0.591   8.607 -2.4149  1.9152  2.0731
 1313SOL     OW15571   1.924   3.180   9.784 -0.3291  0.8960  0.4430
 1313SOL    HW115572   1.950   3.088   9.792  0.5946  1.1397  0.2519
 1313SOL    HW215573   1.983   3.219   9.848  0.1226  1.6327 -0.4343
 1314SOL     OW15574   1.118   4.654   7.528 -0.3195  0.3184 -0.1856
 1314SOL    HW115575   1.042   4.694   7.571  0.6635  1.1624  0.7399
 1314SOL    HW215576   1.124   4.575   7.582  0.2714  1.0146  0.7630
 1315SOL     OW15577   4.107   1.058  16.478 -0.6272  0.7056 -0.4129
 1315SOL    HW115578   4.146   0.985  16.527  0.7302  2.4444  1.1134
 1315SOL    HW215579   4.017   1.051  16.511 -0.6917 -0.9635 -0.9692
 1316SOL     OW15580   4.500   0.788   8.362 -1.0324  0.3877  0.1912
 1316SOL    HW115581   4.535   0.707   8.325 -1.3548  0.2606  0.1642
 1316SOL    HW215582   4.526   0.780   8.453  2.9412  0.8496 -0.9250
 1317SOL     OW15583   2.983   0.351   1.325  0.1515 -0.7687 -0.2165
 1317SOL    HW115584   2.975   0.291   1.399  0.7336 -2.6614 -1.6805
 1317SOL    HW215585   2.890   0.369   1.313  0.4805  1.3041  0.3757
 1318SOL     OW15586   0.890   2.271   8.306 -0.2577 -0.6067  0.1778
 1318SOL    HW115587   0.827   2.225   8.251 -2.6537  0.2263  2.2152
 1318SOL    HW215588   0.883   2.358   8.266  0.0278 -1.3992 -1.5769
 1319SOL     OW15589   0.317   2.706   4.657 -0.2649 -0.1821 -0.0682
 1319SOL    HW115590   0.400   2.739   4.621 -0.2739  1.2816  1.2505
 1319SOL    HW215591   0.256   2.705   4.584 -0.5306 -0.3412  0.1555
 1320SOL     OW15592   0.939   4.037   8.881 -0.1932 -0.4540 -0.3649
 1320SOL    HW115593   0.953   4.088   8.960  2.4971  1.5436 -2.1332
 1320SOL    HW215594   1.030   4.030   8.851 -0.4838 -0.2090 -1.2877
 1321SOL     OW15595   3.373   3.997   8.383  0.1221 -0.0728  0.1643
 1321SOL    HW115596   3.421   3.961   8.457 -0.1099  0.7135  0.6920
 1321SOL    HW215597   3.296   3.940   8.386  1.2227 -1.6922 -1.8275
 1322SOL     OW15598   0.856   1.045  17.736  0.5930  0.0992  0.3778
 1322SOL    HW115599   0.770   1.016  17.705  1.3543 -0.5587 -1.1288
 1322SOL    HW215600   0.917   0.986  17.690  0.4781 -0.3942  0.8550
 1323SOL     OW15601   2.793   1.143   2.931  0.3132 -0.1263 -0.2877
 1323SOL    HW115602   2.700   1.121   2.929 -0.0444  1.4545 -0.8021
 1323SOL    HW215603   2.812   1.144   2.837 -0.2552  0.8148 -0.3902
 1324SOL     OW15604   3.132   3.850   4.584 -0.7252  1.1140 -0.3365
 1324SOL    HW115605   3.075   3.926   4.573 -1.1560  1.4134  4.2282
 1324SOL    HW215606   3.160   3.833   4.494  1.9487  1.3900  0.4362
 1325SOL     OW15607   4.246   1.496   6.100 -0.2714  0.2865 -0.6556
 1325SOL    HW115608   4.325   1.452   6.068 -0.4796  1.8199 -3.2809
 1325SOL    HW215609   4.270   1.518   6.190 -1.6524  0.0723 -0.2356
 1326SOL     OW15610   2.247   3.611  11.639  0.0245  0.2159 -0.2009
 1326SOL    HW115611   2.255   3.559  11.559  2.5070 -1.6252  1.2416
 1326SOL    HW215612   2.341   3.615  11.658 -0.1131  1.6761  0.1862
 1327SOL     OW15613   0.935   0.817   6.460 -0.5842 -0.0326 -0.0642
 1327SOL    HW115614   0.927   0.912   6.450 -0.3358  0.0881  0.8009
 1327SOL    HW215615   0.852   0.792   6.500  0.5879 -0.2792  2.2555
 1328SOL     OW15616   3.128   2.115   1.634  0.3119 -0.2711  0.6683
 1328SOL    HW115617   3.076   2.036   1.644 -1.3905  0.7780  0.1445
 1328SOL    HW215618   3.063   2.185   1.630 -0.1619 -0.5858  2.7115
 1329SOL     OW15619   0.844   2.433   5.726 -0.7093 -0.3427  0.3051
 1329SOL    HW115620   0.908   2.499   5.752  0.1973 -0.7917 -0.7993
 1329SOL    HW215621   0.890   2.352   5.702  1.4652  1.2137 -0.7439
 1330SOL     OW15622   2.974   0.150   1.532  0.2015  0.3507  0.1400
 1330SOL    HW115623   2.972   0.056   1.512  0.8847  0.4946 -0.5990
 1330SOL    HW215624   2.957   0.162   1.626  0.9002 -0.5836  0.3839
 1331SOL     OW15625   2.585   4.473   4.819 -0.4082 -0.5486 -0.3726
 1331SOL    HW115626   2.534   4.391   4.815 -1.6823  0.2999 -1.7839
 1331SOL    HW215627   2.674   4.439   4.830  0.3449  2.0774  1.5881
 1332SOL     OW15628   0.696   0.007   8.040  0.5865 -0.3404 -0.5347
 1332SOL    HW115629   0.669   4.653   8.030 -2.0471  0.3604  0.0699
 1332SOL    HW215630   0.628   0.048   7.986  1.3649  0.1157 -1.1564
 1333SOL     OW15631   3.287   1.455   7.649  0.0748 -0.4082 -0.1069
 1333SOL    HW115632   3.349   1.463   7.721  0.7389 -1.8111 -0.5188
 1333SOL    HW215633   3.309   1.521   7.583 -0.1995 -0.6770 -0.4667
 1334SOL     OW15634   4.526   3.630  10.078 -0.2891  0.3191  1.0909
 1334SOL    HW115635   4.466   3.696  10.042  0.8429  0.7192 -0.0629
 1334SOL    HW215636   4.475   3.600  10.153  0.4440 -2.4261  0.4986
 1335SOL     OW15637   4.684   4.155  13.943 -0.2560 -0.4571  0.3014
 1335SOL    HW115638   4.616   4.218  13.970  0.4367  0.1094  0.7195
 1335SOL    HW215639   4.692   4.173  13.850 -0.3031  0.8018  0.5340
 1336SOL     OW15640   1.809   1.732   4.750 -0.1137 -0.6248  1.2637
 1336SOL    HW115641   1.851   1.762   4.669  1.1102 -2.1416  1.3447
 1336SOL    HW215642   1.792   1.640   4.729 -1.7992  0.4097 -1.9723
 1337SOL     OW15643   0.052   4.482   5.181  0.3178 -0.2267  0.0783
 1337SOL    HW115644   4.711   4.433   5.156  0.1235 -0.0189  0.2837
 1337SOL    HW215645   0.117   4.411   5.174 -0.8013 -1.3800  1.3838
 1338SOL     OW15646   0.066   1.646   2.560  0.4219 -0.1566  0.3206
 1338SOL    HW115647   0.146   1.593   2.557  0.4830 -0.1872  3.1877
 1338SOL    HW215648   0.069   1.707   2.633 -1.1350  0.0741  0.1984
 1339SOL     OW15649   0.885   2.591   7.073 -0.4465  0.0331  0.8661
 1339SOL    HW115650   0.803   2.619   7.033 -0.8893  0.1357  1.8368
 1339SOL    HW215651   0.875   2.496   7.063 -0.5791  0.0440  0.8882
 1340SOL     OW15652   2.631   1.119  10.814 -0.3226  0.0234  0.3551
 1340SOL    HW115653   2.545   1.088  10.784 -1.7277  3.9205  0.3488
 1340SOL    HW215654   2.683   1.076  10.746 -0.3825  2.3583 -1.1737
 1341SOL     OW15655   3.159   2.803   6.048 -0.0285  0.0720  0.0660
 1341SOL    HW115656   3.176   2.708   6.050 -1.0469 -0.0684  2.0024
 1341SOL    HW215657   3.105   2.808   5.969 -0.9755  1.3040  0.8026
 1342SOL     OW15658   3.002   0.594   4.335  0.3137  0.0937 -0.5452
 1342SOL    HW115659   2.964   0.573   4.249  2.5705  1.8844 -1.9663
 1342SOL    HW215660   2.919   0.614   4.379  1.3143  0.0174  1.3661
 1343SOL     OW15661   1.643   1.018   8.740  0.0020 -0.5400 -0.1490
 1343SOL    HW115662   1.721   1.070   8.762 -0.9653  0.6726  0.4593
 1343SOL    HW215663   1.688   0.934   8.746 -0.6152 -0.7553  1.5841
 1344SOL     OW15664   4.515   2.671   4.426  0.5018  0.7255  0.3803
 1344SOL    HW115665   4.446   2.708   4.481 -1.1123  0.2746 -1.2990
 1344SOL    HW215666   4.489   2.580   4.413  1.9698  0.5437 -1.2302
 1345SOL     OW15667   0.237   2.571   1.192  0.1065 -0.1647  0.1858
 1345SOL    HW115668   0.144   2.560   1.215  0.2072 -0.3611  0.4978
 1345SOL    HW215669   0.269   2.483   1.213  0.4549 -0.4959 -1.7080
 1346SOL     OW15670   4.433   1.348   5.868 -0.0705  0.4737  0.6549
 1346SOL    HW115671   4.445   1.432   5.824 -0.8807 -1.6821 -3.6845
 1346SOL    HW215672   4.519   1.319   5.900 -0.1260  0.1562  0.5144
 1347SOL     OW15673   4.510   2.168   9.130 -0.4864 -0.0627  0.1671
 1347SOL    HW115674   4.426   2.214   9.141 -1.3995 -1.6611 -0.1352
 1347SOL    HW215675   4.561   2.218   9.194 -0.0407 -0.2445 -0.0486
 1348SOL     OW15676   2.173   4.547  17.112  0.0020 -0.5222 -0.4751
 1348SOL    HW115677   2.112   4.569  17.040 -3.4438 -1.1743  2.2346
 1348SOL    HW215678   2.214   4.628  17.142  0.5643 -1.2339  0.6690
 1349SOL     OW15679   4.672   0.038   4.937 -0.5135 -0.1199  0.0726
 1349SOL    HW115680   4.698   0.070   5.024 -0.0455 -0.7691  0.1666
 1349SOL    HW215681   0.013   0.068   4.892  1.6363 -2.0250  2.5928
 1350SOL     OW15682   3.346   0.556   4.878  0.1274  0.3870  0.1482
 1350SOL    HW115683   3.354   0.481   4.936 -1.3911 -0.1569 -0.3280
 1350SOL    HW215684   3.254   0.579   4.892  0.4869  0.6248  2.1773
 1351SOL     OW15685   4.206   0.598   5.222 -0.2551 -0.6312  0.6684
 1351SOL    HW115686   4.229   0.651   5.298 -1.2233 -1.4868  1.5702
 1351SOL    HW215687   4.289   0.556   5.203  0.2213  1.1708 -1.2341
 1352SOL     OW15688   4.733   0.338   7.139 -0.3867  0.0596  0.4438
 1352SOL    HW115689   4.725   0.273   7.208 -0.5089 -1.9485 -1.4575
 1352SOL    HW215690   0.067   0.393   7.172 -0.4575 -0.0966  0.8519
 1353SOL     OW15691   4.157   0.590   7.124 -0.0654  0.1313  0.0452
 1353SOL    HW115692   4.192   0.515   7.075  2.3283  2.2239 -1.4863
 1353SOL    HW215693   4.127   0.636   7.045  0.0713  0.0685 -0.0443
 1354SOL     OW15694   3.743   2.964   2.919 -0.4238 -0.5187  0.5056
 1354SOL    HW115695   3.670   2.944   2.978 -0.0862  0.7498  1.3469
 1354SOL    HW215696   3.800   2.892   2.945 -1.0656 -0.5150  1.9135
 1355SOL     OW15697   0.048   2.249  14.094 -0.5640  0.1231  0.4239
 1355SOL    HW115698   0.018   2.204  14.015 -0.1734  0.3325  0.1556
 1355SOL    HW215699   0.010   2.336  14.078 -1.9647 -0.5175  0.2898
 1356SOL     OW15700   3.002   0.863   9.932 -0.3073  0.0802 -0.2290
 1356SOL    HW115701   2.926   0.812   9.903 -0.5825 -0.1767  0.9151
 1356SOL    HW215702   3.037   0.810  10.003 -0.8980  0.6136  0.4634
 1357SOL     OW15703   3.562   3.222   0.585 -0.2652  0.7671  0.4260
 1357SOL    HW115704   3.581   3.131   0.609 -3.0372 -0.2374 -1.1780
 1357SOL    HW215705   3.486   3.209   0.530 -0.6048  1.4488  0.7371
 1358SOL     OW15706   3.814   1.443  17.680  0.1763  0.0042 -0.0213
 1358SOL    HW115707   3.803   1.486   0.017 -0.2843  5.4248 -2.8102
 1358SOL    HW215708   3.789   1.353  17.703  0.1955  0.4248  1.6779
 1359SOL     OW15709   2.464   0.592   4.458 -0.0787  0.7725  0.0806
 1359SOL    HW115710   2.389   0.624   4.407 -2.3306 -2.2926  1.4969
 1359SOL    HW215711   2.442   0.511   4.504  0.8515  0.7962  0.5599
 1360SOL     OW15712   1.208   3.956   3.019 -0.1058  0.3289  0.2090
 1360SOL    HW115713   1.250   3.916   2.943  1.1668  2.8853 -0.4414
 1360SOL    HW215714   1.246   3.904   3.090 -0.3623  0.9393  0.7892
 1361SOL     OW15715   3.656   2.228   4.654 -0.3476 -0.1891 -0.0193
 1361SOL    HW115716   3.697   2.216   4.568  0.0344 -1.8593  0.4009
 1361SOL    HW215717   3.577   2.177   4.639 -1.3932  1.2842  0.4186
 1362SOL     OW15718   4.725   1.219  17.711 -0.2233 -0.2542 -0.8994
 1362SOL    HW115719   4.732   1.218  17.616  1.5452 -0.2506 -0.7752
 1362SOL    HW215720   0.029   1.304  17.727 -0.2335 -0.2991 -0.6359
 1363SOL     OW15721   1.361   2.578   4.895 -0.6608  0.4509  0.0348
 1363SOL    HW115722   1.363   2.487   4.923  1.1815  1.1691  2.2216
 1363SOL    HW215723   1.455   2.589   4.877 -0.5808 -0.0110  0.1858
 1364SOL     OW15724   3.610   3.282  13.076  0.2218 -0.2731 -0.1117
 1364SOL    HW115725   3.566   3.361  13.105 -0.4953  0.0886 -2.1976
 1364SOL    HW215726   3.626   3.294  12.983 -0.1087  2.1123  0.1544
 1365SOL     OW15727   1.677   4.272   2.175  0.4977 -0.7022 -0.4075
 1365SOL    HW115728   1.654   4.188   2.136 -1.5299 -0.1256 -0.4802
 1365SOL    HW215729   1.755   4.244   2.222 -0.4165 -0.9983  0.9141
 1366SOL     OW15730   4.224   3.154  11.504 -0.4349 -0.0222 -0.2838
 1366SOL    HW115731   4.307   3.191  11.535 -0.8794  0.5984  0.1845
 1366SOL    HW215732   4.223   3.208  11.425  1.3723  1.3130  0.5903
 1367SOL     OW15733   3.566   4.617  15.972  0.0299  0.3953 -0.4174
 1367SOL    HW115734   3.617   4.608  15.892  1.0768 -1.5529  0.4820
 1367SOL    HW215735   3.494   4.675  15.946  0.6402  1.3544  0.0026
 1368SOL     OW15736   3.165   4.696   6.917 -1.2196  0.0357 -0.4823
 1368SOL    HW115737   3.239   4.690   6.857 -1.6777 -1.7394 -0.8779
 1368SOL    HW215738   3.101   4.645   6.867 -0.8923 -1.0384  0.2083
 1369SOL     OW15739   2.702   4.697  12.576 -0.4835  0.2817  0.5874
 1369SOL    HW115740   2.680   0.029  12.638 -0.0931  0.4979  0.4833
 1369SOL    HW215741   2.712   0.013  12.498  0.3429  0.9831  1.1756
 1370SOL     OW15742   3.628   1.647   3.810  0.3039 -0.3220  1.0362
 1370SOL    HW115743   3.569   1.629   3.883 -0.9361  0.4239  0.2159
 1370SOL    HW215744   3.638   1.562   3.769 -0.5005  0.8041 -1.5146
 1371SOL     OW15745   1.533   2.443   7.980 -0.0397 -0.1483 -0.0805
 1371SOL    HW115746   1.462   2.379   7.986 -0.8697  0.7893  0.0609
 1371SOL    HW215747   1.510   2.491   8.059  1.6901  0.1653  0.2214
 1372SOL     OW15748   3.067   0.126   5.595 -0.3624 -0.1232  0.6080
 1372SOL    HW115749   3.035   0.209   5.558 -0.0036 -0.4491 -0.4225
 1372SOL    HW215750   3.065   0.075   5.514  0.5556 -1.8298  1.6711
 1373SOL     OW15751   0.876   2.974   3.934 -0.0888  0.4261 -0.2854
 1373SOL    HW115752   0.822   3.014   3.866  0.6493  1.9097 -0.0060
 1373SOL    HW215753   0.810   2.966   4.002 -0.9152  0.0991 -1.1222
 1374SOL     OW15754   0.191   2.656   7.038 -0.1764 -0.5043 -0.4169
 1374SOL    HW115755   0.119   2.595   7.021 -0.8032  0.3114 -0.6966
 1374SOL    HW215756   0.250   2.626   6.969 -0.0924 -1.3253  0.0171
 1375SOL     OW15757   1.564   1.214   7.617  0.1525 -0.6838 -0.2693
 1375SOL    HW115758   1.518   1.147   7.568 -2.5037  1.6243 -0.9510
 1375SOL    HW215759   1.653   1.209   7.583  0.1347 -1.5103 -0.1809
 1376SOL     OW15760   1.611   2.429   7.534 -0.9012  0.6011 -0.3643
 1376SOL    HW115761   1.692   2.402   7.576 -1.0819  1.5635  0.5933
 1376SOL    HW215762   1.564   2.459   7.612  0.2860 -2.2224  1.4165
 1377SOL     OW15763   2.875   4.714   6.311  0.2428 -0.4423 -0.2673
 1377SOL    HW115764   2.968   4.715   6.330 -0.2721  1.3765  2.1737
 1377SOL    HW215765   2.861   0.071   6.304  0.3456 -0.5312 -1.6590
 1378SOL     OW15766   0.812   3.378  14.041  0.5447 -0.4112  0.3312
 1378SOL    HW115767   0.884   3.319  14.017 -0.6864 -1.1162 -1.6013
 1378SOL    HW215768   0.831   3.399  14.133 -0.5753 -0.2438  0.5255
 1379SOL     OW15769   1.192   4.261   1.034  0.3209 -0.4668 -0.3878
 1379SOL    HW115770   1.226   4.184   1.079  2.3964  0.5094 -0.2893
 1379SOL    HW215771   1.241   4.278   0.954  1.7424  2.3295  1.0692
 1380SOL     OW15772   0.041   3.608   4.755  0.7034 -0.2494  0.0457
 1380SOL    HW115773   0.088   3.547   4.812 -0.8421 -2.6714 -1.2775
 1380SOL    HW215774   4.726   3.551   4.698  1.2227 -1.3972  0.6966
 1381SOL     OW15775   2.445   1.579   9.262  0.1368  0.7268  0.5711
 1381SOL    HW115776   2.500   1.588   9.184 -0.4568  0.2631  0.1012
 1381SOL    HW215777   2.485   1.513   9.319  1.6820  2.1043  1.0991
 1382SOL     OW15778   3.244   2.898   4.508  0.1548 -0.2611  0.2238
 1382SOL    HW115779   3.331   2.863   4.488 -0.0205 -0.7181  0.2491
 1382SOL    HW215780   3.259   2.929   4.597 -0.2376  1.1818 -0.2103
 1383SOL     OW15781   2.037   2.410   5.934  0.2876 -0.1419 -0.0754
 1383SOL    HW115782   2.022   2.502   5.911  0.3302  0.1393  0.9966
 1383SOL    HW215783   1.952   2.385   5.969  0.3606 -2.2111 -1.4012
 1384SOL     OW15784   2.856   0.005   8.983 -0.2071  0.0786 -0.2466
 1384SOL    HW115785   2.827   0.090   9.016 -1.4984 -0.1811 -0.7104
 1384SOL    HW215786   2.773   4.695   8.973 -0.7277  0.7004  1.0995
 1385SOL     OW15787   1.689   1.429   2.694 -0.3628 -0.2036  0.1615
 1385SOL    HW115788   1.741   1.510   2.691  0.4974 -0.7843 -0.6720
 1385SOL    HW215789   1.624   1.449   2.761 -0.5540  1.4993 -0.5300
 1386SOL     OW15790   2.481   3.912   6.063 -0.5566 -0.4232 -0.3735
 1386SOL    HW115791   2.532   3.882   6.138 -1.0055  3.6961  1.5869
 1386SOL    HW215792   2.461   3.830   6.018 -2.2217 -1.3493  2.0225
 1387SOL     OW15793   2.941   1.514   1.762  0.1150  0.4364  0.3940
 1387SOL    HW115794   3.001   1.530   1.689 -1.3663  3.4084 -0.1819
 1387SOL    HW215795   2.887   1.447   1.723 -0.6237  1.9652 -1.1971
 1388SOL     OW15796   2.558   3.712   7.860 -0.0731  0.0305 -0.6823
 1388SOL    HW115797   2.560   3.748   7.948 -1.8754 -1.7389  0.0886
 1388SOL    HW215798   2.547   3.621   7.887 -2.4252  0.4529 -0.2369
 1389SOL     OW15799   2.502   3.833   3.776  0.1500 -0.4731 -0.0415
 1389SOL    HW115800   2.557   3.858   3.850  0.5645  0.1259 -0.5418
 1389SOL    HW215801   2.536   3.893   3.709  0.2035  1.6124  1.8690
 1390SOL     OW15802   2.567   4.076   6.503 -0.5392  0.0069  0.6972
 1390SOL    HW115803   2.654   4.096   6.470 -1.5028  2.8277 -0.1884
 1390SOL    HW215804   2.592   3.999   6.553  2.6408  1.6634  1.6346
 1391SOL     OW15805   2.408   3.192  16.402  0.1344  0.3545 -0.2637
 1391SOL    HW115806   2.346   3.120  16.415  0.5568  0.1499  0.5959
 1391SOL    HW215807   2.493   3.148  16.413  0.2014  0.3281 -0.8794
 1392SOL     OW15808   1.330   0.474   2.266  0.2720  0.3422 -0.0171
 1392SOL    HW115809   1.296   0.560   2.290  0.7718  0.7013 -0.5831
 1392SOL    HW215810   1.313   0.492   2.173 -3.4476  1.3916  0.8608
 1393SOL     OW15811   3.034   3.673   2.142 -0.1627  0.3536 -0.2082
 1393SOL    HW115812   3.083   3.592   2.150 -0.8884 -0.1760 -1.1511
 1393SOL    HW215813   2.999   3.663   2.054 -1.4843 -1.8486  0.5731
 1394SOL     OW15814   0.681   2.581   2.860  0.3935 -0.1535  0.5593
 1394SOL    HW115815   0.754   2.583   2.922  0.1988  0.4920  0.7734
 1394SOL    HW215816   0.606   2.591   2.918 -0.0851 -0.7892  0.0467
 1395SOL     OW15817   3.057   0.532   1.548  0.0190 -0.1682  0.2304
 1395SOL    HW115818   3.055   0.474   1.471 -1.7071  2.8984 -2.0071
 1395SOL    HW215819   2.968   0.565   1.534 -0.6106 -2.0345 -0.3119
 1396SOL     OW15820   1.074   0.211   7.845  0.1141 -0.0698 -0.4249
 1396SOL    HW115821   1.117   0.153   7.909  0.0876  1.0419  0.6054
 1396SOL    HW215822   1.048   0.283   7.903  1.2297  0.6511 -0.8320
 1397SOL     OW15823   4.734   2.300   3.091 -0.1862  0.5778  0.1037
 1397SOL    HW115824   0.035   2.378   3.052  0.0972 -0.6398 -2.0255
 1397SOL    HW215825   4.695   2.276   3.007 -3.3853  0.9560  1.4508
 1398SOL     OW15826   3.923   0.579   6.697  0.0573 -0.3690 -0.1428
 1398SOL    HW115827   3.947   0.633   6.621 -1.9076  0.8726  0.0965
 1398SOL    HW215828   3.931   0.490   6.663 -1.0156  0.1995 -1.9156
 1399SOL     OW15829   2.143   1.296   3.025 -0.1445 -0.8058  0.9270
 1399SOL    HW115830   2.221   1.352   3.020 -0.6173 -0.3895 -1.7012
 1399SOL    HW215831   2.096   1.313   2.943 -0.3746 -0.9515  1.0276
 1400SOL     OW15832   3.217   3.031   9.856  0.5025  0.3146  0.4025
 1400SOL    HW115833   3.185   3.009   9.944  0.0244  0.7561  0.3415
 1400SOL    HW215834   3.131   3.060   9.825 -0.1873 -0.6535  1.4080
 1401SOL     OW15835   4.651   2.488  16.448 -0.6167  0.1147  0.8170
 1401SOL    HW115836   4.665   2.574  16.408  1.9794 -1.1355 -0.9505
 1401SOL    HW215837   4.644   2.500  16.543 -0.6890  0.4111  0.7752
 1402SOL     OW15838   3.808   1.762   7.312  0.2155 -0.6096  0.1236
 1402SOL    HW115839   3.737   1.783   7.251 -0.6564 -0.1642  1.2831
 1402SOL    HW215840   3.884   1.764   7.254 -0.5351  0.0914 -0.8163
 1403SOL     OW15841   3.807   0.358   8.588  0.2044  0.3731 -0.0184
 1403SOL    HW115842   3.868   0.415   8.634 -1.1798  1.5494  0.3822
 1403SOL    HW215843   3.847   0.375   8.503 -1.1772  1.4096 -0.4582
 1404SOL     OW15844   2.114   3.569   4.695 -0.0947 -0.2488  0.3127
 1404SOL    HW115845   2.141   3.607   4.611 -0.4534  0.0786  0.3445
 1404SOL    HW215846   2.166   3.489   4.695 -0.4167 -0.4383 -1.3416
 1405SOL     OW15847   0.870   3.038   2.011  0.4978 -0.1917  0.5790
 1405SOL    HW115848   0.860   3.128   2.042 -0.5269  0.4553 -1.6436
 1405SOL    HW215849   0.793   3.031   1.955  1.6329  2.1784 -1.2598
 1406SOL     OW15850   4.503   3.108   6.396 -0.2647  0.1389  0.1537
 1406SOL    HW115851   4.527   3.124   6.487  0.9178 -1.5185  0.1424
 1406SOL    HW215852   4.491   3.013   6.390 -1.1418  0.2128  0.7209
 1407SOL     OW15853   2.937   3.413   6.061 -0.2358  0.3137  0.5001
 1407SOL    HW115854   2.861   3.416   6.003 -0.1297 -0.6572  0.3147
 1407SOL    HW215855   3.001   3.481   6.041  0.1165 -0.6547 -1.6152
 1408SOL     OW15856   2.783   2.531  16.388 -0.0154 -0.0619 -0.5313
 1408SOL    HW115857   2.798   2.463  16.454  0.1473  0.8715  0.3915
 1408SOL    HW215858   2.706   2.581  16.417  0.5290  0.7330 -0.4809
 1409SOL     OW15859   1.598   0.366  16.489 -0.4894 -0.2212  0.0381
 1409SOL    HW115860   1.566   0.389  16.402 -0.5256 -0.5602 -0.0402
 1409SOL    HW215861   1.693   0.361  16.493 -0.5722  0.3590  2.6099
 1410SOL     OW15862   0.356   3.081   6.563 -0.2648  0.7947 -0.2354
 1410SOL    HW115863   0.350   2.996   6.606  0.3873  0.8396 -0.0451
 1410SOL    HW215864   0.277   3.087   6.511  0.0451 -1.0043 -0.9147
 1411SOL     OW15865   0.772   2.825  14.429 -0.0417  0.2855  0.4088
 1411SOL    HW115866   0.700   2.798  14.372  0.7060  2.9301 -1.7604
 1411SOL    HW215867   0.766   2.746  14.483 -1.6756  0.8236  0.9833
 1412SOL     OW15868   2.624   1.255   6.375 -0.5261  0.0763 -0.1126
 1412SOL    HW115869   2.616   1.349   6.392 -2.1456 -0.1052  0.0766
 1412SOL    HW215870   2.682   1.219   6.443 -1.7488 -0.8431  0.4424
 1413SOL     OW15871   0.590   2.508   1.865  1.0278 -0.3758 -0.3001
 1413SOL    HW115872   0.495   2.510   1.875  1.1120 -1.8174  0.9320
 1413SOL    HW215873   0.626   2.504   1.954  1.6685 -1.8797 -0.6115
 1414SOL     OW15874   4.499   3.054   1.593 -0.1592  0.0607 -0.4463
 1414SOL    HW115875   4.564   2.986   1.612  0.1513  0.6739  0.6779
 1414SOL    HW215876   4.432   3.033   1.658  0.3781  1.7519  0.6298
 1415SOL     OW15877   1.499   1.863   8.524 -0.5652  0.1202 -0.0591
 1415SOL    HW115878   1.426   1.817   8.483 -0.5850 -0.8011  0.9983
 1415SOL    HW215879   1.532   1.791   8.579  0.1110  0.6909  0.2912
 1416SOL     OW15880   2.422   3.528   5.080  0.6990 -0.0055 -0.1514
 1416SOL    HW115881   2.494   3.467   5.092  1.0608  0.6855  1.1363
 1416SOL    HW215882   2.374   3.469   5.021  3.0954 -1.4553 -0.6385
 1417SOL     OW15883   1.738   0.436   8.606 -0.4661  0.3982 -0.0007
 1417SOL    HW115884   1.701   0.495   8.541 -1.8905  0.7866  1.1656
 1417SOL    HW215885   1.665   0.387   8.644  0.6320 -1.7969 -0.6947
 1418SOL     OW15886   3.738   0.639   4.641 -0.9920 -0.1580 -0.2701
 1418SOL    HW115887   3.679   0.688   4.698  1.3575 -0.4498  2.4177
 1418SOL    HW215888   3.789   0.706   4.594 -1.7556 -0.0037 -0.8803
 1419SOL     OW15889   0.593   3.780   3.528 -0.0052  0.0916 -0.2323
 1419SOL    HW115890   0.509   3.823   3.538 -0.3378 -0.2876 -1.4598
 1419SOL    HW215891   0.615   3.794   3.436 -2.7844  0.0757 -0.8998
 1420SOL     OW15892   4.568   2.067   2.404  0.1262  0.2504 -0.2984
 1420SOL    HW115893   4.614   2.138   2.360 -0.1315 -0.4750 -1.7398
 1420SOL    HW215894   4.509   2.118   2.459  0.5802  1.4133 -0.8904
 1421SOL     OW15895   0.865   1.845  15.770 -0.4448  0.3751 -0.1373
 1421SOL    HW115896   0.921   1.768  15.785 -0.8854  0.0189 -0.3261
 1421SOL    HW215897   0.878   1.867  15.678 -1.3940 -0.6063 -0.5052
 1422SOL     OW15898   3.240   0.930   7.739 -0.5239  0.1512  0.1848
 1422SOL    HW115899   3.179   0.904   7.808 -0.1826  0.8982  0.7653
 1422SOL    HW215900   3.209   1.012   7.699 -2.8631 -1.1583 -0.6701
 1423SOL     OW15901   2.895   4.109   3.547  0.3291 -0.1506 -0.2677
 1423SOL    HW115902   2.888   4.199   3.580  2.0124 -0.6122  1.3382
 1423SOL    HW215903   2.865   4.127   3.457 -0.3052  1.3904  0.2520
 1424SOL     OW15904   2.828   0.852   8.048 -1.2073  0.4824 -0.1817
 1424SOL    HW115905   2.802   0.760   8.057  0.1438  0.0412 -0.8367
 1424SOL    HW215906   2.842   0.871   8.141  0.5358  0.9148 -0.5296
 1425SOL     OW15907   3.960   2.699  11.772  0.4871 -0.9346  0.2742
 1425SOL    HW115908   3.866   2.685  11.788  1.1487 -0.9885  4.1581
 1425SOL    HW215909   3.969   2.664  11.683  1.4793 -0.8977  0.3621
 1426SOL     OW15910   2.099   0.825   8.014  0.0991 -0.3630  0.7087
 1426SOL    HW115911   2.188   0.858   7.999 -0.1411 -0.5347 -1.2063
 1426SOL    HW215912   2.061   0.827   7.926 -2.5687  1.9455  1.9260
 1427SOL     OW15913   1.210   4.124  16.523  0.2171 -0.5457  0.3226
 1427SOL    HW115914   1.132   4.155  16.570  0.1091 -1.4374  0.7433
 1427SOL    HW215915   1.167   4.050  16.479  0.2944  0.4268 -1.3803
 1428SOL     OW15916   1.882   0.891   8.446  0.2977 -0.1814  0.4983
 1428SOL    HW115917   1.967   0.866   8.410  0.4766 -0.5051  1.1490
 1428SOL    HW215918   1.911   0.932   8.528 -0.3521  0.6499  0.3166
 1429SOL     OW15919   4.215   3.616   8.776  0.0272 -0.7209 -0.2378
 1429SOL    HW115920   4.124   3.644   8.786 -0.0605 -0.7473 -0.9595
 1429SOL    HW215921   4.256   3.698   8.802 -3.7331  1.4589 -1.2243
 1430SOL     OW15922   1.970   1.728   9.136 -0.4382  0.1483 -0.1153
 1430SOL    HW115923   1.919   1.689   9.206  0.3946 -0.3842  0.1938
 1430SOL    HW215924   2.054   1.685   9.156  0.8626  2.2836 -0.9716
 1431SOL     OW15925   0.097   3.461   7.025  0.0510 -0.4866 -0.1864
 1431SOL    HW115926   0.155   3.392   6.991  1.4474  0.6956 -0.2054
 1431SOL    HW215927   0.041   3.423   7.093 -0.4493  2.2215  0.9125
 1432SOL     OW15928   2.419   0.260  15.414  0.7549 -0.1788 -0.7655
 1432SOL    HW115929   2.432   0.332  15.352 -1.1394  0.9405  0.1411
 1432SOL    HW215930   2.416   0.317  15.491 -2.2835 -0.8700 -0.3475
 1433SOL     OW15931   0.401   3.652  10.195 -0.4779 -0.5620  0.0785
 1433SOL    HW115932   0.333   3.594  10.228 -1.0301 -0.2767 -0.5532
 1433SOL    HW215933   0.482   3.644  10.245  0.7874 -1.6852 -2.1423
 1434SOL     OW15934   3.826   2.776   4.515 -0.2313  0.0767 -0.2307
 1434SOL    HW115935   3.793   2.827   4.440 -0.8602  1.0410  0.7019
 1434SOL    HW215936   3.776   2.821   4.583  1.4357 -0.0434  1.0773
 1435SOL     OW15937   2.828   3.911   7.950 -0.6249 -0.2616  0.6258
 1435SOL    HW115938   2.779   3.937   7.872 -1.2008 -1.2844  0.6397
 1435SOL    HW215939   2.769   3.846   7.989 -0.5323 -0.2840  0.7273
 1436SOL     OW15940   2.632   3.453   3.499  0.2096  0.8717  1.0173
 1436SOL    HW115941   2.597   3.454   3.588 -2.7800 -0.3788 -0.1359
 1436SOL    HW215942   2.689   3.377   3.514  1.5810  1.3600 -1.7476
 1437SOL     OW15943   0.472   3.910   9.276 -0.3318 -0.1759  0.8918
 1437SOL    HW115944   0.424   3.947   9.350 -1.1995  0.4644 -0.0039
 1437SOL    HW215945   0.544   3.868   9.324  0.4608  0.0139 -0.1470
 1438SOL     OW15946   0.286   4.375   1.613  0.0227 -0.1657  0.2432
 1438SOL    HW115947   0.253   4.455   1.654  1.9129 -0.3427  2.0854
 1438SOL    HW215948   0.230   4.372   1.535  1.5108 -1.8986 -0.7688
 1439SOL     OW15949   2.561   1.281   4.906 -0.1344 -0.6110  0.0483
 1439SOL    HW115950   2.475   1.258   4.873 -0.0875 -2.2716  1.0752
 1439SOL    HW215951   2.621   1.225   4.857  0.7318  1.0568 -0.8095
 1440SOL     OW15952   3.035   3.310   4.098  0.2952  0.3057 -0.4450
 1440SOL    HW115953   2.953   3.350   4.068 -0.4147  0.1442  1.2974
 1440SOL    HW215954   3.063   3.355   4.177 -0.0654  0.6723 -0.5265
 1441SOL     OW15955   1.347   1.744   3.366 -0.1826 -0.4945 -0.0587
 1441SOL    HW115956   1.297   1.811   3.320 -1.7910 -0.2091  2.0833
 1441SOL    HW215957   1.373   1.805   3.436  0.4984 -1.4206  0.5038
 1442SOL     OW15958   2.613   3.184   7.098 -0.0342  0.0233  0.1322
 1442SOL    HW115959   2.547   3.125   7.135  0.1523 -1.2570 -1.5880
 1442SOL    HW215960   2.659   3.226   7.170 -0.5254  0.9164 -0.0802
 1443SOL     OW15961   0.459   4.479   8.420 -0.0820  0.5939 -0.4896
 1443SOL    HW115962   0.396   4.460   8.350 -0.6552 -0.8274  0.4118
 1443SOL    HW215963   0.438   4.569   8.445  1.8712  0.1377  2.8818
 1444SOL     OW15964   4.221   1.959  13.816  0.7471 -0.0366  0.1018
 1444SOL    HW115965   4.131   1.986  13.801  0.5571 -1.6261 -1.5988
 1444SOL    HW215966   4.243   1.997  13.902  0.4046 -2.7385  1.3799
 1445SOL     OW15967   3.183   1.544  10.078  0.0081  0.2879  0.0812
 1445SOL    HW115968   3.251   1.478  10.084  0.5960  1.0658  2.0068
 1445SOL    HW215969   3.115   1.499  10.028  1.5762 -0.3938 -1.3996
 1446SOL     OW15970   1.231   3.755   3.259 -0.6037 -0.6456  0.0422
 1446SOL    HW115971   1.176   3.781   3.332 -1.1611 -0.1482 -0.5635
 1446SOL    HW215972   1.201   3.664   3.265 -3.8656  0.4731  0.4887
 1447SOL     OW15973   2.661   1.831   7.646  0.0362 -0.0127  0.1068
 1447SOL    HW115974   2.743   1.790   7.617  1.2701  0.9628  2.1990
 1447SOL    HW215975   2.692   1.884   7.719  2.8988  0.9237 -1.7594
 1448SOL     OW15976   4.055   3.791   4.597  0.2266 -0.3477 -0.0234
 1448SOL    HW115977   4.143   3.773   4.564  0.0637  3.3806 -2.5821
 1448SOL    HW215978   4.062   3.804   4.691  1.6405 -0.1671 -0.1593
 1449SOL     OW15979   3.380   1.786   5.962 -0.1020 -0.2064 -0.1056
 1449SOL    HW115980   3.465   1.799   6.004 -0.2467  0.1320  0.0853
 1449SOL    HW215981   3.325   1.841   6.019  1.2009 -0.1437  1.0943
 1450SOL     OW15982   2.849   0.107  15.921 -0.2553 -0.0919  0.0884
 1450SOL    HW115983   2.843   0.192  15.878 -1.0700  0.2563  0.8786
 1450SOL    HW215984   2.790   0.050  15.870 -0.4231 -0.8452  1.1129
 1451SOL     OW15985   0.550   4.518   3.785  0.3034  0.1574  0.2701
 1451SOL    HW115986   0.470   4.563   3.757  0.7049  1.5763  1.3521
 1451SOL    HW215987   0.570   4.566   3.866 -1.2066  0.6970  0.3138
 1452SOL     OW15988   2.989   0.850   3.621 -0.5451 -0.2761  0.1402
 1452SOL    HW115989   2.971   0.915   3.553  1.7127  0.8130  0.6023
 1452SOL    HW215990   2.953   0.878   3.705  0.6056  0.0585  0.5136
 1453SOL     OW15991   3.197   4.157   7.481  0.4167 -0.1614 -0.6450
 1453SOL    HW115992   3.153   4.196   7.557  0.3821  1.0986 -1.3005
 1453SOL    HW215993   3.126   4.133   7.422  0.2199 -0.9985 -0.0579
 1454SOL     OW15994   2.922   2.847   4.228 -0.3463  0.5161  0.2445
 1454SOL    HW115995   2.962   2.934   4.226 -0.7231  0.7250  1.7828
 1454SOL    HW215996   2.871   2.850   4.309 -2.0508  0.5082 -0.8177
 1455SOL     OW15997   1.775   2.857  14.585  0.2015  0.0057  0.9241
 1455SOL    HW115998   1.726   2.791  14.538  0.9998 -0.0694  0.1874
 1455SOL    HW215999   1.792   2.927  14.521 -1.7559  0.0014  0.4026
 1456SOL     OW16000   3.383   1.659  14.516  0.5234 -0.3687 -0.0140
 1456SOL    HW116001   3.416   1.745  14.491 -1.0637 -0.0601 -1.1068
 1456SOL    HW216002   3.391   1.613  14.432  1.0676  1.0049 -0.7091
 1457SOL     OW16003   4.627   2.888   7.409  0.2584  0.2573  0.8027
 1457SOL    HW116004   4.648   2.938   7.488 -0.3993  0.1628  1.0356
 1457SOL    HW216005   4.569   2.954   7.371  1.3772 -1.1154 -3.2618
 1458SOL     OW16006   2.875   0.809   2.803 -0.9029 -0.1810 -0.3485
 1458SOL    HW116007   2.795   0.820   2.854 -1.2825  1.4301 -1.2857
 1458SOL    HW216008   2.897   0.896   2.769  0.8407 -0.1278  0.8908
 1459SOL     OW16009   1.328   1.126   7.725  0.3225  0.1478  0.0101
 1459SOL    HW116010   1.410   1.172   7.740  0.9250 -1.2844  1.2016
 1459SOL    HW216011   1.291   1.203   7.681 -2.2086 -1.1854 -0.2379
 1460SOL     OW16012   3.913   2.631   1.058 -0.3804 -0.0999 -0.3837
 1460SOL    HW116013   3.857   2.708   1.049  2.2056  1.7999 -0.3436
 1460SOL    HW216014   3.846   2.563   1.063  0.8978 -1.4935 -2.4270
 1461SOL     OW16015   4.715   4.428   5.719 -0.1422  0.3922  0.1346
 1461SOL    HW116016   0.018   4.483   5.786 -1.0948 -1.0086  1.8550
 1461SOL    HW216017   0.055   4.421   5.662  0.6510  0.0163  1.2545
 1462SOL     OW16018   0.824   1.044  10.962  0.4119  0.1545  0.0621
 1462SOL    HW116019   0.782   1.109  10.905 -0.4026  0.3507  0.8857
 1462SOL    HW216020   0.809   1.084  11.048  0.5252 -1.4495  0.8270
 1463SOL     OW16021   2.899   1.542   1.072 -0.6659 -0.4473 -0.2444
 1463SOL    HW116022   2.825   1.586   1.028 -0.3567 -0.8663 -1.1831
 1463SOL    HW216023   2.907   1.598   1.149  0.3923 -1.0021  0.0367
 1464SOL     OW16024   2.892   2.930   8.293 -0.0948 -0.0930  0.2804
 1464SOL    HW116025   2.860   2.847   8.257  0.9155 -1.9469  3.6959
 1464SOL    HW216026   2.972   2.943   8.242 -0.4472 -0.7554 -0.4506
 1465SOL     OW16027   3.783   0.726  12.771  0.0046 -0.3351  0.0793
 1465SOL    HW116028   3.708   0.703  12.716  0.0477 -1.4565  0.4893
 1465SOL    HW216029   3.843   0.724  12.696 -1.1283 -2.2932 -0.7768
 1466SOL     OW16030   4.619   2.195   7.023  0.1805  0.1966 -0.3611
 1466SOL    HW116031   4.600   2.221   7.113  1.7184 -0.5571  0.1918
 1466SOL    HW216032   4.606   2.101   7.033 -0.4762  0.4196  0.8040
 1467SOL     OW16033   4.636   3.715   5.804  0.0394 -0.1460  0.7333
 1467SOL    HW116034   4.653   3.623   5.782  3.0377  0.0872  2.1268
 1467SOL    HW216035   4.724   3.754   5.804  0.5125 -1.1851  3.5986
 1468SOL     OW16036   3.263   2.991   4.779  0.5818  0.2439 -0.6246
 1468SOL    HW116037   3.221   3.076   4.769 -1.0885 -0.3685  1.0248
 1468SOL    HW216038   3.328   2.999   4.849 -1.6607  4.0511  1.0385
 1469SOL     OW16039   2.840   0.231  14.439  0.6369 -0.3029  0.5285
 1469SOL    HW116040   2.909   0.275  14.489  0.7626  0.4452 -0.3165
 1469SOL    HW216041   2.820   0.158  14.498 -1.3550 -1.3929 -1.5182
 1470SOL     OW16042   2.397   0.308   4.539 -0.1265  0.2250 -0.4277
 1470SOL    HW116043   2.451   0.264   4.474  1.0684  1.0990 -0.0178
 1470SOL    HW216044   2.324   0.247   4.551 -0.3014  0.2716 -1.2678
 1471SOL     OW16045   3.926   1.989   7.712  0.3220 -0.0544  0.1582
 1471SOL    HW116046   3.994   2.055   7.700  0.2909  0.0756  0.6838
 1471SOL    HW216047   3.853   2.044   7.743  0.3979  0.4432 -0.5568
 1472SOL     OW16048   2.537   0.450  15.920  0.5789 -0.2825 -0.4691
 1472SOL    HW116049   2.486   0.391  15.977 -1.9440  0.9613 -1.4384
 1472SOL    HW216050   2.605   0.487  15.976  1.0291 -1.1373 -0.4449
 1473SOL     OW16051   1.260   2.741   7.189 -0.7129  0.5765  0.4514
 1473SOL    HW116052   1.256   2.834   7.212  0.0405  0.3272  1.5891
 1473SOL    HW216053   1.338   2.714   7.238 -0.2937  0.0199 -0.5167
 1474SOL     OW16054   0.571   1.489   4.611  0.3196  0.0071  0.5693
 1474SOL    HW116055   0.617   1.446   4.539 -0.8755  0.2712 -0.3724
 1474SOL    HW216056   0.480   1.463   4.597  0.3267  0.4254 -0.2691
 1475SOL     OW16057   1.387   3.610   8.895 -0.2423 -0.3701  0.1075
 1475SOL    HW116058   1.450   3.680   8.876  1.9967 -2.4273 -0.1754
 1475SOL    HW216059   1.414   3.596   8.986 -0.1745  1.9125  0.4400
 1476SOL     OW16060   1.096   2.335  14.112  0.1838 -0.0102 -0.3187
 1476SOL    HW116061   1.079   2.287  14.193  1.4560 -0.3866 -0.2741
 1476SOL    HW216062   1.190   2.324  14.095 -0.0777  0.6360 -2.1719
 1477SOL     OW16063   0.689   0.858   9.343 -0.3584  0.2665 -0.4820
 1477SOL    HW116064   0.734   0.825   9.265  2.9317 -3.3426  2.8892
 1477SOL    HW216065   0.764   0.856   9.402 -0.8474  2.0168  0.1984
 1478SOL     OW16066   3.072   3.855   6.802 -0.0701  0.0072 -0.1342
 1478SOL    HW116067   3.070   3.842   6.707  0.3927  3.9112 -0.6616
 1478SOL    HW216068   3.127   3.781   6.827  0.7637 -0.1624 -2.4237
 1479SOL     OW16069   0.853   4.678  15.959 -0.1040  0.0050 -0.2855
 1479SOL    HW116070   0.760   4.671  15.937 -0.9215  0.9178  2.9454
 1479SOL    HW216071   0.867   0.006  16.027  2.3095 -1.4144  0.5912
 1480SOL     OW16072   2.837   3.806  17.680 -0.2938  0.5190 -0.2036
 1480SOL    HW116073   2.812   3.714  17.689 -0.9060  0.6179 -0.8713
 1480SOL    HW216074   2.866   3.820  17.590 -0.3044  0.0334 -0.2830
 1481SOL     OW16075   2.007   4.289   6.865 -0.3286 -0.2053 -1.2831
 1481SOL    HW116076   1.988   4.292   6.771  1.8230  0.5386 -1.6817
 1481SOL    HW216077   1.924   4.321   6.900 -0.3733  0.4624 -1.9822
 1482SOL     OW16078   0.790   3.605  17.093 -0.1709 -0.0688 -0.1360
 1482SOL    HW116079   0.729   3.546  17.049 -0.1972 -0.6292  0.6570
 1482SOL    HW216080   0.743   3.639  17.169  3.1027 -0.7490  2.2087
 1483SOL     OW16081   4.453   1.870   0.611 -0.1476 -0.0557 -0.1572
 1483SOL    HW116082   4.487   1.799   0.556 -2.0430 -1.7098  0.7927
 1483SOL    HW216083   4.484   1.849   0.699 -1.3319  1.2069  0.5494
 1484SOL     OW16084   0.827   4.327  13.299  0.1525  0.9797  1.0287
 1484SOL    HW116085   0.889   4.297  13.366  1.3049 -1.3074 -1.0747
 1484SOL    HW216086   0.875   4.389  13.244 -1.2795 -1.0101 -2.4705
 1485SOL     OW16087   1.858   0.520   5.280 -0.1409 -0.4062  0.0820
 1485SOL    HW116088   1.802   0.584   5.324  1.7649  1.9878 -0.9745
 1485SOL    HW216089   1.942   0.567   5.286  0.2318 -1.1812  0.8614
 1486SOL     OW16090   0.701   3.617   1.902 -0.3357 -0.3277 -0.4055
 1486SOL    HW116091   0.757   3.543   1.877 -0.3625 -0.4660 -0.0621
 1486SOL    HW216092   0.646   3.623   1.825 -0.8818  0.8781  0.0781
 1487SOL     OW16093   1.455   3.159   5.743  0.2560  0.4744 -0.4441
 1487SOL    HW116094   1.374   3.204   5.720  0.0807  1.1494  1.4730
 1487SOL    HW216095   1.506   3.232   5.778  1.4799 -0.0420 -1.1428
 1488SOL     OW16096   0.804   1.743   9.412  0.2282  0.0165  0.2811
 1488SOL    HW116097   0.866   1.675   9.434 -1.0117 -2.0222 -2.4228
 1488SOL    HW216098   0.862   1.815   9.389 -1.4328  1.5565  0.8626
 1489SOL     OW16099   1.436   0.412   7.546 -1.4088  0.7138  0.8943
 1489SOL    HW116100   1.457   0.500   7.578 -0.1591  0.9569 -0.5566
 1489SOL    HW216101   1.378   0.378   7.614  0.4308 -1.1667  1.5103
 1490SOL     OW16102   4.564   1.899   8.517  0.1350  0.0551  0.2826
 1490SOL    HW116103   4.532   1.809   8.529  0.8259 -0.0009  1.6178
 1490SOL    HW216104   4.605   1.919   8.601  0.3809  1.7918 -0.2647
 1491SOL     OW16105   4.730   3.384   8.088 -0.3936 -0.1092 -0.3076
 1491SOL    HW116106   0.058   3.414   8.151 -1.2607  1.1076  0.0043
 1491SOL    HW216107   0.026   3.414   8.003  0.6718  2.0593  0.8911
 1492SOL     OW16108   1.585   1.895   3.524  0.2927 -0.0262  0.1361
 1492SOL    HW116109   1.506   1.944   3.545 -1.5158 -2.3569 -1.1675
 1492SOL    HW216110   1.570   1.815   3.574 -1.6975  0.0682 -0.3038
 1493SOL     OW16111   2.397   4.195   4.805  0.0008 -0.4301 -0.6089
 1493SOL    HW116112   2.377   4.202   4.899 -1.4178  2.8939 -1.1535
 1493SOL    HW216113   2.365   4.107   4.784 -1.3982 -0.4888  1.7584
 1494SOL     OW16114   1.761   1.763   3.358  0.6153  0.2770 -0.4359
 1494SOL    HW116115   1.709   1.819   3.416  0.7730  1.2026 -1.1974
 1494SOL    HW216116   1.752   1.808   3.274  0.1071 -0.5485 -0.8321
 1495SOL     OW16117   2.405   1.419   4.253  0.5491  0.8948 -0.1540
 1495SOL    HW116118   2.461   1.466   4.191  1.6352  0.3835  0.4400
 1495SOL    HW216119   2.472   1.414   4.321 -0.4437  0.6409  0.8199
 1496SOL     OW16120   0.262   0.376   0.717  0.2299  0.1582 -0.3662
 1496SOL    HW116121   0.261   0.340   0.806  1.7235  0.1356 -0.3628
 1496SOL    HW216122   0.223   0.302   0.672 -0.4020 -0.0332  0.4990
 1497SOL     OW16123   4.108   0.950   4.334 -0.3139  0.2848  0.3377
 1497SOL    HW116124   4.138   0.976   4.421 -0.8156  3.0339 -0.3059
 1497SOL    HW216125   4.030   1.005   4.324 -0.1881  0.0344 -2.0901
 1498SOL     OW16126   0.163   1.299  15.249 -0.6330  0.2735 -0.2464
 1498SOL    HW116127   0.243   1.352  15.250  1.4248 -2.8258 -0.4956
 1498SOL    HW216128   0.191   1.218  15.290  1.6027 -0.6958 -3.6390
 1499SOL     OW16129   2.996   3.533   9.662  0.1592 -0.1607 -0.6161
 1499SOL    HW116130   3.016   3.607   9.718 -1.7540  0.4233 -0.6984
 1499SOL    HW216131   3.070   3.478   9.688 -0.1951  0.4689  1.7231
 1500SOL     OW16132   4.162   0.105  15.148  0.8616 -1.0019  0.4182
 1500SOL    HW116133   4.126   0.019  15.125 -2.0127 -0.1230  1.6590
 1500SOL    HW216134   4.082   0.155  15.160  0.7805 -0.9970 -0.1237
 1501SOL     OW16135   0.552   2.105   9.872  0.2490 -0.4553  0.1085
 1501SOL    HW116136   0.603   2.046   9.928 -1.1091 -0.0585  1.7522
 1501SOL    HW216137   0.581   2.193   9.897  2.1961 -0.7397 -1.1551
 1502SOL     OW16138   3.259   4.277   4.879 -0.7503 -0.9119  0.1528
 1502SOL    HW116139   3.338   4.229   4.906  1.7347  1.6897 -2.4701
 1502SOL    HW216140   3.210   4.300   4.957  0.3134  3.3720 -0.4686
 1503SOL     OW16141   1.235   2.991   3.944 -0.5101  0.2473  0.0791
 1503SOL    HW116142   1.183   3.071   3.951 -0.3960  0.1409  2.0154
 1503SOL    HW216143   1.179   2.956   3.875  0.0197  0.4528 -0.4552
 1504SOL     OW16144   0.650   4.725  10.999 -0.1012  0.4471  0.7028
 1504SOL    HW116145   0.708   0.046  11.048  2.2895 -2.1341  0.9635
 1504SOL    HW216146   0.686   4.636  11.006  1.2010  1.0628  1.6934
 1505SOL     OW16147   4.089   3.525   1.988 -0.0051 -0.3515 -0.4015
 1505SOL    HW116148   4.099   3.540   2.082 -1.3942 -1.1271 -0.1279
 1505SOL    HW216149   4.138   3.444   1.990 -0.3096 -0.4580  2.4354
 1506SOL     OW16150   2.023   2.595   9.853  0.2233 -0.2838 -0.0182
 1506SOL    HW116151   2.082   2.590   9.777 -2.6117 -2.0306 -2.0730
 1506SOL    HW216152   2.001   2.689   9.849  2.9228  0.2262 -2.8077
 1507SOL     OW16153   2.974   3.208   7.216  0.0985  0.0208 -0.0924
 1507SOL    HW116154   3.021   3.288   7.237  1.3966 -0.4704 -1.1316
 1507SOL    HW216155   3.030   3.166   7.150 -0.0498  0.4236 -0.4709
 1508SOL     OW16156   3.361   3.578   3.594  0.2553 -0.3796  0.5698
 1508SOL    HW116157   3.444   3.586   3.640  1.4833 -0.2095 -1.6359
 1508SOL    HW216158   3.303   3.534   3.656 -2.1194  0.4456 -1.0376
 1509SOL     OW16159   0.045   3.651  10.183  0.2719  0.0258 -0.0809
 1509SOL    HW116160   0.060   3.733  10.137  2.1691 -1.3905 -2.0209
 1509SOL    HW216161   4.694   3.632  10.153 -0.1570 -2.0779  2.4598
 1510SOL     OW16162   0.272   0.681  15.668  0.0675 -0.1523  0.2038
 1510SOL    HW116163   0.228   0.628  15.601  2.1033 -1.1910 -0.3016
 1510SOL    HW216164   0.215   0.758  15.673  1.3726  0.8870 -0.9516
 1511SOL     OW16165   3.464   1.099   7.216  0.0912  0.5518 -0.1669
 1511SOL    HW116166   3.394   1.038   7.196  0.6476  0.6484 -2.3503
 1511SOL    HW216167   3.486   1.083   7.308 -0.0658  0.4013 -0.1554
 1512SOL     OW16168   1.662   3.361   9.604  0.4851 -0.3446  0.2133
 1512SOL    HW116169   1.706   3.331   9.683 -2.1421  0.2318  1.8777
 1512SOL    HW216170   1.730   3.336   9.542  0.3098 -0.2056 -0.0394
 1513SOL     OW16171   1.024   0.752  17.281 -0.0482  0.0610  0.1690
 1513SOL    HW116172   1.009   0.664  17.314 -0.8031  0.6808  1.4931
 1513SOL    HW216173   1.109   0.738  17.239  1.0551  0.0046  2.3948
 1514SOL     OW16174   3.996   0.056   6.715  0.0711  0.3489 -0.5246
 1514SOL    HW116175   4.069   4.732   6.709 -2.3456 -2.5933  0.3482
 1514SOL    HW216176   3.973   0.046   6.807  2.6273  1.1914  0.2007
 1515SOL     OW16177   4.551   0.764   7.397 -0.0179 -0.6811 -0.4310
 1515SOL    HW116178   4.480   0.709   7.365 -1.5741  1.9528 -1.5166
 1515SOL    HW216179   4.553   0.830   7.327  0.8881  1.1177  1.2985
 1516SOL     OW16180   2.521   0.142   3.313 -0.3184  0.0011  0.0451
 1516SOL    HW116181   2.518   0.195   3.234  2.8163  1.2507  0.7749
 1516SOL    HW216182   2.503   0.203   3.384  2.1034  2.2566 -1.3076
 1517SOL     OW16183   3.967   2.883  11.518  0.4043 -0.1656  0.2984
 1517SOL    HW116184   3.985   2.899  11.611  2.8247  1.7605 -0.4861
 1517SOL    HW216185   3.972   2.788  11.513 -1.3960 -0.2158 -0.2101
 1518SOL     OW16186   3.380   1.888   3.754 -0.6212 -0.4558  0.8268
 1518SOL    HW116187   3.464   1.932   3.742 -0.5577 -0.2456  2.0813
 1518SOL    HW216188   3.366   1.895   3.849 -0.0787  0.9943  0.8037
 1519SOL     OW16189   3.936   3.219  10.715 -0.0360 -0.0352  0.5013
 1519SOL    HW116190   3.901   3.161  10.783  0.0922 -0.9580 -0.2241
 1519SOL    HW216191   3.853   3.220  10.667 -0.6789 -1.0752  1.5870
 1520SOL     OW16192   3.447   0.597   9.271  0.9806 -0.5726  0.1056
 1520SOL    HW116193   3.435   0.526   9.333 -2.6764  1.5578  1.8495
 1520SOL    HW216194   3.451   0.552   9.187 -0.8119 -0.5478  0.0052
 1521SOL     OW16195   0.722   1.981  10.631  0.2630 -0.3573 -0.1502
 1521SOL    HW116196   0.689   1.983  10.720 -0.0786  1.0798 -0.2993
 1521SOL    HW216197   0.687   1.902  10.590 -0.3842  0.1654 -0.6209
 1522SOL     OW16198   2.003   0.075   2.817  0.0702 -0.0635  0.3064
 1522SOL    HW116199   1.968   0.145   2.762 -0.7825 -0.6795  0.0562
 1522SOL    HW216200   1.936   0.007   2.814  1.3461 -1.3784  1.4975
 1523SOL     OW16201   0.931   3.545   7.046  0.2837  0.4076 -0.4693
 1523SOL    HW116202   1.022   3.556   7.017  1.1004 -0.4459  1.7612
 1523SOL    HW216203   0.910   3.470   6.989  1.2415 -0.3629  0.1852
 1524SOL     OW16204   4.414   4.320   4.022  0.0553  0.6399 -0.2911
 1524SOL    HW116205   4.339   4.352   4.071  0.6036 -0.4057  1.2272
 1524SOL    HW216206   4.373   4.238   3.996  0.6094  0.1959  0.2249
 1525SOL     OW16207   2.219   2.699  13.209 -0.3129  0.6327 -0.7470
 1525SOL    HW116208   2.256   2.670  13.293  2.0502  1.4441 -1.4929
 1525SOL    HW216209   2.301   2.705  13.160  0.1850  0.0407  0.0193
 1526SOL     OW16210   1.291   3.634   2.186  0.4170 -0.0566 -0.2365
 1526SOL    HW116211   1.340   3.563   2.227 -1.9281 -0.5393  1.7569
 1526SOL    HW216212   1.208   3.637   2.233 -0.5261 -0.6074 -1.8773
 1527SOL     OW16213   3.188   3.249  14.120  0.1372  0.1375  0.5766
 1527SOL    HW116214   3.264   3.266  14.064  0.3079 -1.3347  0.3706
 1527SOL    HW216215   3.226   3.281  14.202  0.9440 -0.0422  0.2756
 1528SOL     OW16216   4.601   0.656   0.476 -0.0829  0.2898  0.3715
 1528SOL    HW116217   4.678   0.707   0.452  1.3768 -2.2433 -0.4133
 1528SOL    HW216218   4.636   0.572   0.505 -1.9530 -0.2258  1.1692
 1529SOL     OW16219   3.088   0.587   1.852  0.0209  0.0887  0.4941
 1529SOL    HW116220   3.066   0.509   1.801 -0.4672  0.6255 -0.1043
 1529SOL    HW216221   3.109   0.644   1.778 -2.0556  0.3137  0.0769
 1530SOL     OW16222   2.765   1.232   2.486  0.7311 -0.2138  0.2044
 1530SOL    HW116223   2.733   1.204   2.400 -0.4705  2.6652 -0.3076
 1530SOL    HW216224   2.860   1.220   2.476  0.1505 -4.0880 -0.3959
 1531SOL     OW16225   4.522   4.624  15.468  0.1030 -0.6203  0.1912
 1531SOL    HW116226   4.489   4.714  15.470  1.2937 -0.1839  0.1777
 1531SOL    HW216227   4.497   4.600  15.557 -2.3474 -1.3112 -0.6793
 1532SOL     OW16228   4.360   0.006   5.725  0.4381 -0.6387  0.3632
 1532SOL    HW116229   4.451   0.014   5.694  0.2411 -3.0659 -0.8235
 1532SOL    HW216230   4.309   0.018   5.645  2.8791 -2.0421 -1.4158
 1533SOL     OW16231   1.459   0.974   3.323 -0.4887  0.2587 -0.0587
 1533SOL    HW116232   1.505   0.895   3.352 -1.7419 -1.0194 -1.5335
 1533SOL    HW216233   1.522   1.040   3.295 -0.9118  0.2490 -1.0116
 1534SOL     OW16234   3.853   0.202   1.655 -0.0031 -0.1067  0.1405
 1534SOL    HW116235   3.884   0.230   1.569 -1.3125 -2.7397 -1.1731
 1534SOL    HW216236   3.775   0.253   1.676  0.3208  0.8852 -1.1207
 1535SOL     OW16237   1.735   0.031   7.855 -0.5217 -0.1886  0.2010
 1535SOL    HW116238   1.729   0.125   7.838  0.7163  0.2609  2.1942
 1535SOL    HW216239   1.674   0.031   7.929 -1.4922 -1.0015 -0.6165
 1536SOL     OW16240   3.667   1.747   6.796  0.5575 -0.1978 -0.7277
 1536SOL    HW116241   3.748   1.719   6.839 -0.4469 -1.6314  0.2798
 1536SOL    HW216242   3.600   1.685   6.828  0.9289 -0.0937  0.2525
 1537SOL     OW16243   0.627   3.702   9.068  0.5548  0.0564 -0.4571
 1537SOL    HW116244   0.626   3.798   9.065  0.4048  0.0281 -1.5192
 1537SOL    HW216245   0.673   3.695   8.984 -1.4032  1.0960 -1.6123
 1538SOL     OW16246   2.237   0.104   0.098 -0.6339  0.6330 -0.0583
 1538SOL    HW116247   2.163   0.054   0.132  1.0346 -1.3568  0.5906
 1538SOL    HW216248   2.276   0.042   0.036 -0.3368  2.0901 -1.3326
 1539SOL     OW16249   4.721   1.311  16.864  0.1604 -0.1287  0.5929
 1539SOL    HW116250   0.010   1.324  16.773  0.9328  0.6256  0.9295
 1539SOL    HW216251   4.626   1.306  16.857  0.0824  1.5503  0.4140
 1540SOL     OW16252   0.049   2.553   6.625 -0.0032 -0.2952 -0.2687
 1540SOL    HW116253   0.131   2.507   6.606  0.4912 -0.1844  1.5984
 1540SOL    HW216254   4.729   2.493   6.577 -1.7180  1.9011 -0.9933
 1541SOL     OW16255   0.621   1.282   1.276  0.0587  0.7856 -0.0071
 1541SOL    HW116256   0.680   1.324   1.338 -1.6870  1.1400  1.4300
 1541SOL    HW216257   0.609   1.352   1.212  0.8155  0.6565 -0.2923
 1542SOL     OW16258   3.401   2.393   7.362 -0.1027 -0.0859  0.1686
 1542SOL    HW116259   3.306   2.393   7.351 -0.3529  1.7557  2.2694
 1542SOL    HW216260   3.426   2.355   7.278  0.7235  1.7889 -0.4285
 1543SOL     OW16261   3.162   0.095   8.719  0.2270 -0.0884 -0.4470
 1543SOL    HW116262   3.130   0.080   8.807  0.5957 -0.9584 -0.4660
 1543SOL    HW216263   3.129   0.184   8.708  2.7551  1.0569  1.3053
 1544SOL     OW16264   0.909   4.131   6.184 -0.2000 -0.8671  0.2799
 1544SOL    HW116265   0.951   4.094   6.106  0.1706  3.1702 -1.4295
 1544SOL    HW216266   0.925   4.225   6.172  1.0069 -1.0625  0.2794
 1545SOL     OW16267   0.961   1.048   1.634  0.0772  0.4862 -0.1045
 1545SOL    HW116268   0.889   1.099   1.672 -1.9926 -0.8974 -2.1664
 1545SOL    HW216269   0.925   0.982   1.575  1.4557 -0.3443 -0.0037
 1546SOL     OW16270   1.784   1.454   9.141  0.2854  0.2312  0.5755
 1546SOL    HW116271   1.854   1.434   9.079  0.2705 -0.3396  0.7468
 1546SOL    HW216272   1.699   1.445   9.098  0.9547  0.4087 -0.8156
 1547SOL     OW16273   3.966   2.692   7.779 -0.4516 -0.0474 -0.3102
 1547SOL    HW116274   4.003   2.626   7.838  1.2662  1.4491  0.2821
 1547SOL    HW216275   3.875   2.664   7.785 -0.5489  0.2229 -0.5102
 1548SOL     OW16276   1.527   0.620   2.006  0.1414  0.1080  0.3504
 1548SOL    HW116277   1.442   0.650   1.974  0.1811  0.1845  0.3161
 1548SOL    HW216278   1.528   0.527   1.987  2.1885 -0.0060  0.9597
 1549SOL     OW16279   3.612   2.028   8.993 -0.3135 -0.1092  0.3775
 1549SOL    HW116280   3.676   2.095   8.969 -0.5643 -0.1875 -0.5243
 1549SOL    HW216281   3.537   2.085   8.975 -0.9352 -0.8809  0.5437
 1550SOL     OW16282   1.477   3.340   3.718 -0.1888  0.3497  0.4393
 1550SOL    HW116283   1.561   3.306   3.688 -0.9263 -0.7094 -0.4220
 1550SOL    HW216284   1.463   3.297   3.803  1.4538 -2.8666 -0.9062
 1551SOL     OW16285   0.889   0.410   0.125  0.3030 -0.1638 -0.1670
 1551SOL    HW116286   0.914   0.400   0.216  1.9575  0.4359 -0.5704
 1551SOL    HW216287   0.965   0.460   0.096  0.1740  1.0659  1.6173
 1552SOL     OW16288   1.455   4.130  14.076  0.4678 -0.1819 -0.9169
 1552SOL    HW116289   1.463   4.037  14.059  1.1841 -0.6303  1.9685
 1552SOL    HW216290   1.379   4.164  14.028 -0.5743  0.4079  1.1512
 1553SOL     OW16291   0.736   4.573   1.927  0.1720 -0.3889  0.0295
 1553SOL    HW116292   0.789   4.529   1.995  0.6845  1.0503  0.5613
 1553SOL    HW216293   0.699   4.649   1.972  1.4908 -0.1196  0.6838
 1554SOL     OW16294   3.471   0.300   6.251  0.2773 -0.8424  0.4299
 1554SOL    HW116295   3.479   0.259   6.165  3.4134  1.1047 -0.1952
 1554SOL    HW216296   3.547   0.357   6.253  0.4352 -1.0866  1.3740
 1555SOL     OW16297   1.537   3.961   6.828 -0.2007 -0.2909  0.3723
 1555SOL    HW116298   1.623   3.969   6.786 -0.5123 -1.7384 -0.5741
 1555SOL    HW216299   1.519   4.052   6.848 -1.2580 -0.6779  1.1430
 1556SOL     OW16300   3.976   3.493   5.372 -0.2988  0.6033  0.2949
 1556SOL    HW116301   3.943   3.546   5.444 -2.4603 -1.7627  1.0389
 1556SOL    HW216302   4.055   3.450   5.407  0.1325  1.8933  0.9082
 1557SOL     OW16303   2.253   4.514   4.265  0.5821 -0.1307  0.3003
 1557SOL    HW116304   2.252   4.610   4.269  0.0462  0.0079 -3.6000
 1557SOL    HW216305   2.182   4.503   4.329 -0.6548 -2.5974 -1.5105
 1558SOL     OW16306   2.955   0.993   3.082  0.0304 -0.3856 -0.0142
 1558SOL    HW116307   3.006   1.067   3.112 -2.9671  1.3120  0.9412
 1558SOL    HW216308   2.900   1.042   3.020 -0.1411 -0.0833  0.3749
 1559SOL     OW16309   1.347   1.250   6.152 -0.0316  0.1306  0.7646
 1559SOL    HW116310   1.362   1.299   6.071 -0.6523  4.0568  3.0650
 1559SOL    HW216311   1.251   1.256   6.152 -0.0664 -0.2351 -0.9395
 1560SOL     OW16312   0.005   0.294   4.484 -0.0551  0.1349  1.3841
 1560SOL    HW116313   4.655   0.271   4.516 -1.5680  0.7284 -2.3508
 1560SOL    HW216314   0.062   0.231   4.529  1.2667 -0.0317 -0.5492
 1561SOL     OW16315   0.530   1.036  17.727 -0.4565  0.1933 -0.3638
 1561SOL    HW116316   0.556   0.997  17.643 -1.6633 -1.3539 -0.0121
 1561SOL    HW216317   0.467   1.104  17.704 -2.4807 -1.7760 -0.5518
 1562SOL     OW16318   0.396   0.486   1.808 -0.2137  0.6024  0.0430
 1562SOL    HW116319   0.351   0.403   1.796  0.1027  0.7058 -1.7267
 1562SOL    HW216320   0.380   0.528   1.724  0.1992 -0.0717 -0.3645
 1563SOL     OW16321   2.127   4.505  15.718  0.5804 -0.3365  0.4575
 1563SOL    HW116322   2.158   4.590  15.749  2.9064 -1.0400  0.0975
 1563SOL    HW216323   2.206   4.486  15.666  0.9773 -1.3273  1.4315
 1564SOL     OW16324   2.985   3.926   6.464 -0.2686 -0.4702  0.8660
 1564SOL    HW116325   2.906   3.872   6.454  0.0443 -0.6336 -0.6690
 1564SOL    HW216326   3.055   3.863   6.447 -0.1557 -0.3890  1.0297
 1565SOL     OW16327   1.640   4.110   4.679 -0.0666 -0.3233  0.2774
 1565SOL    HW116328   1.726   4.088   4.714  1.4592  1.1342 -2.4999
 1565SOL    HW216329   1.575   4.103   4.749 -1.6456 -1.3471 -1.2745
 1566SOL     OW16330   1.088   0.929   2.873 -0.1776  0.2315  0.3991
 1566SOL    HW116331   1.153   0.918   2.943 -1.7971 -0.9929  1.7251
 1566SOL    HW216332   1.079   0.838   2.844  1.1262  0.7141 -1.5155
 1567SOL     OW16333   3.614   0.612   3.646  0.2776 -0.2790  0.3130
 1567SOL    HW116334   3.662   0.567   3.577  1.6432  1.1465  0.3212
 1567SOL    HW216335   3.534   0.630   3.597  0.3918  0.1141  0.2721
 1568SOL     OW16336   4.494   1.963   8.926  0.1810 -0.5704  0.6085
 1568SOL    HW116337   4.494   2.018   9.004 -0.7168  0.0360  0.1682
 1568SOL    HW216338   4.478   1.878   8.968 -2.2228 -1.2410 -1.6409
 1569SOL     OW16339   0.231   3.482   4.421 -0.2940  0.4875 -0.3407
 1569SOL    HW116340   0.203   3.573   4.407  0.1167  0.8314  1.1296
 1569SOL    HW216341   0.254   3.494   4.513  0.9278 -0.4730 -0.5309
 1570SOL     OW16342   0.341   4.500   2.450  0.3347 -0.5145 -0.5710
 1570SOL    HW116343   0.328   4.407   2.466 -1.1668 -0.1054  0.6152
 1570SOL    HW216344   0.321   4.504   2.356  0.7984 -0.1434 -0.6550
 1571SOL     OW16345   0.338   4.301   4.909 -0.7044 -0.2194 -0.1290
 1571SOL    HW116346   0.356   4.384   4.952 -0.6537 -0.8651  1.0997
 1571SOL    HW216347   0.249   4.265   4.916 -0.8282  0.3301  1.0459
 1572SOL     OW16348   1.335   1.158   1.926 -0.3097  0.1997  0.5313
 1572SOL    HW116349   1.321   1.115   1.842 -0.2829 -0.3985  0.8332
 1572SOL    HW216350   1.419   1.116   1.947 -1.2078 -2.1863 -0.6787
 1573SOL     OW16351   2.242   3.952   2.758  0.1489 -0.1913  0.4226
 1573SOL    HW116352   2.221   3.896   2.683  0.8830 -1.4296  1.1592
 1573SOL    HW216353   2.250   3.902   2.839  1.3734 -1.1763 -0.3035
 1574SOL     OW16354   4.077   3.632   5.798 -0.0495  0.0021 -0.3967
 1574SOL    HW116355   4.168   3.606   5.787  0.1142 -0.2647  1.5772
 1574SOL    HW216356   4.074   3.677   5.883  0.0520  0.4793 -0.6481
 1575SOL     OW16357   4.244   0.252   2.621  0.0520  0.0824  0.2362
 1575SOL    HW116358   4.185   0.184   2.654  0.2967 -0.2092  0.0762
 1575SOL    HW216359   4.236   0.250   2.526  0.7742  3.3907  0.1021
 1576SOL     OW16360   1.993   3.693  11.626 -0.3712 -0.3755  0.0016
 1576SOL    HW116361   2.077   3.648  11.623 -0.7390 -0.9699 -1.6326
 1576SOL    HW216362   2.024   3.781  11.646 -0.9709  0.7277 -3.9636
 1577SOL     OW16363   2.333   2.990   5.319  0.1921 -0.6798 -0.7848
 1577SOL    HW116364   2.386   3.043   5.258  0.9405  1.8401  2.0807
 1577SOL    HW216365   2.346   2.901   5.286  0.5580 -0.8913 -0.0577
 1578SOL     OW16366   0.584   1.238   5.400  0.1575 -0.7250 -0.1310
 1578SOL    HW116367   0.620   1.298   5.335 -1.8589 -0.8786 -1.3686
 1578SOL    HW216368   0.540   1.307   5.450  0.6783 -0.7125  0.3225
 1579SOL     OW16369   4.626   0.919   3.579 -0.5910  0.3560  0.2396
 1579SOL    HW116370   4.534   0.914   3.554 -0.1220  2.0143 -1.7655
 1579SOL    HW216371   4.664   0.869   3.506 -0.4877 -1.6022  1.6148
 1580SOL     OW16372   0.809   3.027   8.435 -0.5708 -0.1411  0.1919
 1580SOL    HW116373   0.744   3.080   8.388  0.3072  1.5758  0.9365
 1580SOL    HW216374   0.815   3.079   8.515  2.4958  2.1657 -1.5587
 1581SOL     OW16375   2.624   3.261   7.850  0.0615  0.1950 -0.5843
 1581SOL    HW116376   2.621   3.341   7.903  3.2748 -0.5407  0.6550
 1581SOL    HW216377   2.536   3.223   7.860 -0.7056  1.3455 -2.9608
 1582SOL     OW16378   2.889   3.097   2.766  0.0660 -0.0758  0.0529
 1582SOL    HW116379   2.816   3.050   2.725  0.2624 -0.4790  0.1605
 1582SOL    HW216380   2.955   3.091   2.697  1.6583 -1.1360  1.6742
 1583SOL     OW16381   0.614   3.594   6.447 -0.6585 -0.5084 -0.0756
 1583SOL    HW116382   0.585   3.653   6.517 -0.5600 -1.3079  0.6522
 1583SOL    HW216383   0.660   3.532   6.504  1.6374  1.4496  0.1911
 1584SOL     OW16384   0.905   3.644   1.165 -0.0619  0.0580 -0.0365
 1584SOL    HW116385   0.964   3.687   1.227 -2.0219 -1.6905  3.0177
 1584SOL    HW216386   0.888   3.563   1.214 -0.8915 -0.2026 -0.7598
 1585SOL     OW16387   3.291   1.765  12.001  0.4984  0.0324  0.0069
 1585SOL    HW116388   3.351   1.840  11.999  0.7209 -0.1227  0.9574
 1585SOL    HW216389   3.235   1.794  12.073 -0.4412  0.9552 -1.0930
 1586SOL     OW16390   4.459   4.440   2.605 -0.1725  0.4221 -0.2536
 1586SOL    HW116391   4.459   4.451   2.510 -0.3467  0.2974 -0.2677
 1586SOL    HW216392   4.369   4.409   2.618  1.0872 -2.3075  1.9974
 1587SOL     OW16393   4.654   0.162   0.154 -0.4079 -0.1262 -0.3717
 1587SOL    HW116394   4.713   0.097   0.115  0.8483 -0.9058  2.8477
 1587SOL    HW216395   4.588   0.100   0.186  0.6145 -0.6182  0.7831
 1588SOL     OW16396   2.396   1.713   9.940  0.0516 -0.7521 -0.2230
 1588SOL    HW116397   2.464   1.725   9.874 -0.3319  2.3890 -0.0043
 1588SOL    HW216398   2.354   1.636   9.900 -1.4635  0.5445 -1.1471
 1589SOL     OW16399   3.022   2.667   7.819 -0.1915  0.2544 -0.0544
 1589SOL    HW116400   3.022   2.761   7.836 -1.0796  0.4000 -0.8448
 1589SOL    HW216401   2.936   2.664   7.778  0.2357  0.4648 -0.9622
 1590SOL     OW16402   4.018   0.461   8.754  0.0321 -0.0274  0.5780
 1590SOL    HW116403   4.077   0.427   8.821 -0.3968  0.8040  1.3877
 1590SOL    HW216404   3.959   0.515   8.807 -0.3917  1.3838 -1.3243
 1591SOL     OW16405   4.381   1.191   4.110  0.1406 -0.4438  0.7770
 1591SOL    HW116406   4.432   1.252   4.057  0.3897 -0.9947  0.3731
 1591SOL    HW216407   4.298   1.237   4.122 -0.1047 -0.7365  0.2410
 1592SOL     OW16408   0.825   2.047   9.497 -0.1974 -0.1101  0.3454
 1592SOL    HW116409   0.854   2.001   9.418  1.8866  0.2894  0.8653
 1592SOL    HW216410   0.855   2.136   9.476 -0.2047 -0.0197  0.7187
 1593SOL     OW16411   4.586   3.429   6.868  0.4859 -0.2028 -0.0782
 1593SOL    HW116412   4.667   3.407   6.914 -0.5399 -0.2794  1.6932
 1593SOL    HW216413   4.526   3.358   6.889  1.5717 -1.3302 -0.8145
 1594SOL     OW16414   4.027   1.680   7.479  0.3501  0.2609  0.1264
 1594SOL    HW116415   3.955   1.730   7.442  0.4173 -1.5294 -2.4519
 1594SOL    HW216416   4.098   1.740   7.456  0.3607 -0.4576 -1.6767
 1595SOL     OW16417   2.077   4.068   7.501 -0.3918 -0.0754 -0.3659
 1595SOL    HW116418   2.117   4.149   7.467 -1.1956 -0.6711 -2.6852
 1595SOL    HW216419   2.029   4.114   7.570  0.9342  3.3736 -1.7529
 1596SOL     OW16420   2.965   0.125   6.017  0.2504  0.4641  0.5433
 1596SOL    HW116421   3.048   0.117   6.065  1.1095  0.8422 -0.9027
 1596SOL    HW216422   2.960   0.038   5.977  3.2338 -0.0317  1.1965
 1597SOL     OW16423   2.401   2.667   4.290  0.2617 -0.8224  0.3272
 1597SOL    HW116424   2.413   2.760   4.272  1.4350 -0.9005  0.6995
 1597SOL    HW216425   2.334   2.671   4.359  0.9050 -0.4662  0.9317
 1598SOL     OW16426   2.829   1.671   7.139 -0.5189 -0.5805 -0.6760
 1598SOL    HW116427   2.842   1.580   7.110 -0.0079 -0.5397 -0.5619
 1598SOL    HW216428   2.772   1.706   7.070 -0.3354  0.3704 -0.3425
 1599SOL     OW16429   3.495   2.275   3.330  0.5339 -0.5936  0.5286
 1599SOL    HW116430   3.458   2.202   3.380 -0.2381 -0.8384 -0.4017
 1599SOL    HW216431   3.580   2.236   3.306  0.9662 -0.3841  1.6918
 1600SOL     OW16432   2.635   3.761   7.261  0.1602 -0.6376 -0.1423
 1600SOL    HW116433   2.615   3.667   7.268  0.8970 -0.5008  3.6428
 1600SOL    HW216434   2.706   3.755   7.325 -0.9021 -0.0646  1.0696
 1601SOL     OW16435   3.148   3.170   6.765  0.8286 -0.0754 -0.0889
 1601SOL    HW116436   3.097   3.204   6.691  0.4690  1.4967  0.8812
 1601SOL    HW216437   3.175   3.087   6.726 -1.3363 -0.8504  0.0614
 1602SOL     OW16438   2.001   1.405   4.452  0.2749 -0.2593  0.3394
 1602SOL    HW116439   2.053   1.440   4.380 -0.1403  0.7962  0.5590
 1602SOL    HW216440   1.948   1.349   4.394 -0.6657 -0.5166  1.4422
 1603SOL     OW16441   2.136   3.985  12.028 -0.3234 -0.0831 -1.1617
 1603SOL    HW116442   2.223   4.025  12.030 -0.2427 -0.3488  0.5963
 1603SOL    HW216443   2.127   3.905  12.081  2.5229 -0.9621 -1.9844
 1604SOL     OW16444   2.712   3.614  13.268  0.3131  1.1749  0.0160
 1604SOL    HW116445   2.659   3.629  13.191  2.2108  2.6750 -1.0155
 1604SOL    HW216446   2.683   3.526  13.293 -0.0135  1.8623  2.0738
 1605SOL     OW16447   0.391   3.029   4.231 -0.0557  0.4121 -0.7170
 1605SOL    HW116448   0.410   2.936   4.223  0.3800  0.2784  1.7384
 1605SOL    HW216449   0.424   3.046   4.320 -3.0636  0.3217  0.4023
 1606SOL     OW16450   4.156   3.278   2.275 -0.4166 -0.3501 -0.1524
 1606SOL    HW116451   4.149   3.274   2.179 -2.5207 -2.3034  0.0921
 1606SOL    HW216452   4.235   3.328   2.295 -0.3845 -0.8091  0.8539
 1607SOL     OW16453   3.543   4.535   6.160  0.1244 -1.1334 -0.1143
 1607SOL    HW116454   3.611   4.602   6.167 -1.2029  0.2249 -0.1519
 1607SOL    HW216455   3.541   4.507   6.252 -0.4520  1.6392  0.7111
 1608SOL     OW16456   2.974   2.376   0.646 -0.2594 -0.2028  0.3099
 1608SOL    HW116457   2.953   2.326   0.567 -0.2137  0.9251 -0.4156
 1608SOL    HW216458   2.997   2.456   0.599  0.0096  0.6999  1.9854
 1609SOL     OW16459   3.592   3.165   5.190 -0.7777 -0.2010 -0.3721
 1609SOL    HW116460   3.654   3.231   5.159  0.2202 -0.9225  0.0680
 1609SOL    HW216461   3.615   3.157   5.282 -1.2710 -0.0269 -0.2363
 1610SOL     OW16462   3.474   4.646   4.938  0.9125 -0.6783 -0.0772
 1610SOL    HW116463   3.448   4.565   4.981 -0.5252  0.2045  0.7376
 1610SOL    HW216464   3.562   4.652   4.975  1.3180 -2.7637 -0.7050
 1611SOL     OW16465   0.090   0.356   9.320  0.1219  0.0274  0.4920
 1611SOL    HW116466   0.182   0.373   9.342  0.4920  1.3790 -2.1464
 1611SOL    HW216467   0.056   0.444   9.302  0.5429 -0.2457 -1.5964
 1612SOL     OW16468   0.103   0.850   4.781  0.6336 -0.3937  0.2966
 1612SOL    HW116469   0.145   0.846   4.867  1.9309  0.0501 -0.3183
 1612SOL    HW216470   0.161   0.915   4.742 -0.8622 -0.6907 -2.4398
 1613SOL     OW16471   2.947   1.595   4.132  0.1333 -0.0853  0.0784
 1613SOL    HW116472   2.893   1.664   4.170 -1.6023 -1.9054  0.9291
 1613SOL    HW216473   3.007   1.580   4.206  2.0441  1.6705 -1.0975
 1614SOL     OW16474   2.947   1.318   8.542 -0.1999  0.6103  0.7043
 1614SOL    HW116475   2.999   1.240   8.560  1.3400  1.6639  0.8757
 1614SOL    HW216476   2.872   1.297   8.598 -1.4092 -2.0941 -1.9262
 1615SOL     OW16477   0.334   3.935   0.462 -0.1965 -0.0554  0.4234
 1615SOL    HW116478   0.358   3.983   0.383  0.4445  0.7718  1.1092
 1615SOL    HW216479   0.357   3.996   0.533 -1.3984 -0.1834  0.9182
 1616SOL     OW16480   4.661   0.451   4.064 -0.4598 -0.1955  0.1083
 1616SOL    HW116481   4.661   0.520   3.998 -2.0229 -0.4226 -0.1447
 1616SOL    HW216482   4.566   0.447   4.079 -0.5917 -2.3760 -1.3789
 1617SOL     OW16483   2.322   2.025   9.620  0.3562 -0.1041  0.5323
 1617SOL    HW116484   2.399   2.061   9.577  0.6619 -0.1755  1.0140
 1617SOL    HW216485   2.341   2.049   9.711  1.2287 -1.1185  0.6250
 1618SOL     OW16486   4.490   4.084   1.107 -0.3778  0.1527  0.1212
 1618SOL    HW116487   4.428   4.072   1.178 -1.0920  0.8735 -0.3908
 1618SOL    HW216488   4.563   4.127   1.151 -1.0484  1.2189  0.1745
 1619SOL     OW16489   3.845   0.561   7.170 -0.3278  0.2765 -0.0240
 1619SOL    HW116490   3.893   0.510   7.105 -1.8235 -2.6976  1.1847
 1619SOL    HW216491   3.805   0.636   7.126 -2.9383 -1.4441 -0.5623
 1620SOL     OW16492   2.762   0.359   8.775 -0.0722  0.6155 -0.0003
 1620SOL    HW116493   2.745   0.451   8.755  2.0404  0.5337 -2.1123
 1620SOL    HW216494   2.675   0.329   8.747 -0.0781 -1.4538  2.2669
 1621SOL     OW16495   1.764   3.711   9.595  0.3882  0.1498  0.6617
 1621SOL    HW116496   1.670   3.720   9.581  0.5222  1.1414  0.3482
 1621SOL    HW216497   1.787   3.771   9.524  0.1388 -2.4107 -1.6008
 1622SOL     OW16498   3.761   2.790   9.730 -0.3556 -0.4311 -0.4946
 1622SOL    HW116499   3.776   2.732   9.805 -2.8673 -0.6351 -0.1438
 1622SOL    HW216500   3.846   2.825   9.706  0.6960 -3.2266 -0.8430
 1623SOL     OW16501   0.185   2.781   4.332 -0.4736  0.2044 -0.5299
 1623SOL    HW116502   0.157   2.699   4.291  1.1119  1.1019 -3.4357
 1623SOL    HW216503   0.267   2.781   4.282 -1.1860 -0.1941 -1.7036
 1624SOL     OW16504   2.774   2.265   3.484 -0.1677  0.0055 -0.0892
 1624SOL    HW116505   2.834   2.191   3.475 -1.9439 -1.2351 -1.5511
 1624SOL    HW216506   2.694   2.220   3.512  1.2398 -1.3027  1.8250
 1625SOL     OW16507   2.237   2.987  11.873  0.1179  0.2851  0.4377
 1625SOL    HW116508   2.156   3.022  11.910 -0.9244 -1.2882 -0.3420
 1625SOL    HW216509   2.202   2.921  11.813  1.4770  0.5338 -0.6147
 1626SOL     OW16510   0.540   0.459  15.564 -0.7334  0.0366 -0.8248
 1626SOL    HW116511   0.509   0.549  15.563 -0.8546 -0.0041 -0.7775
 1626SOL    HW216512   0.531   0.437  15.657 -2.7093  0.1631 -0.9749
 1627SOL     OW16513   3.689   2.667   1.347  0.4230 -0.0733 -0.5389
 1627SOL    HW116514   3.714   2.588   1.299  1.1721 -0.1830  0.0266
 1627SOL    HW216515   3.729   2.735   1.294 -1.5941  0.1627 -1.7218
 1628SOL     OW16516   2.845   3.168   4.263  0.1461 -0.1857 -0.1132
 1628SOL    HW116517   2.893   3.186   4.182  0.8818 -0.5309  0.2550
 1628SOL    HW216518   2.825   3.256   4.295 -2.3099 -0.2189 -1.5093
 1629SOL     OW16519   0.667   1.176   7.513  0.4150 -0.6931 -0.5616
 1629SOL    HW116520   0.644   1.232   7.587  2.2648  0.5002 -0.8670
 1629SOL    HW216521   0.688   1.232   7.438  0.3542 -1.8753 -1.4667
 1630SOL     OW16522   1.574   4.555   2.994  0.0793  0.4328 -0.0840
 1630SOL    HW116523   1.517   4.543   3.069 -1.0035 -0.1183 -1.0052
 1630SOL    HW216524   1.537   4.500   2.925 -0.1150 -0.5024  0.7724
 1631SOL     OW16525   0.287   1.934   7.921 -0.7260  0.4710 -0.7397
 1631SOL    HW116526   0.269   1.842   7.900  0.4295 -0.3441  1.8179
 1631SOL    HW216527   0.329   1.924   8.006 -0.6231  0.9022 -0.7402
 1632SOL     OW16528   2.310   3.175   7.815  0.1777 -0.4135  0.0957
 1632SOL    HW116529   2.310   3.095   7.763 -1.4854  0.3482 -1.0972
 1632SOL    HW216530   2.326   3.244   7.749 -0.6019  1.3398  1.7314
 1633SOL     OW16531   3.362   0.700   7.725 -0.2107 -0.1215 -0.2709
 1633SOL    HW116532   3.276   0.662   7.705 -0.6794 -0.2455  2.0579
 1633SOL    HW216533   3.338   0.793   7.723  1.0822  0.2303  0.3931
 1634SOL     OW16534   4.046   0.511  13.372 -0.4123  0.2242  0.2164
 1634SOL    HW116535   3.959   0.547  13.353 -0.5050  0.4837  1.1121
 1634SOL    HW216536   4.017   0.434  13.422 -1.3118  0.8986  0.7352
 1635SOL     OW16537   4.266   3.041   3.070 -0.3817  0.4804  0.5644
 1635SOL    HW116538   4.220   3.025   3.152 -0.4837  1.4482  0.6993
 1635SOL    HW216539   4.223   2.973   3.019 -2.9058  1.2081  1.7155
 1636SOL     OW16540   1.778   1.775   3.984 -0.0528  0.1248 -0.0512
 1636SOL    HW116541   1.754   1.829   3.909 -2.7971 -0.1503  0.6158
 1636SOL    HW216542   1.857   1.822   4.010 -0.3724  0.6916 -0.0948
 1637SOL     OW16543   0.711   1.697  14.822  0.0868  0.4316 -0.4981
 1637SOL    HW116544   0.733   1.644  14.746 -0.6393 -0.6699  0.0490
 1637SOL    HW216545   0.741   1.639  14.893  2.2248  1.6325 -0.4553
 1638SOL     OW16546   1.648   2.818   9.161  0.3984  0.4851  0.2700
 1638SOL    HW116547   1.603   2.738   9.186 -3.0848  2.5084  0.4510
 1638SOL    HW216548   1.601   2.852   9.085 -0.9744  1.3364  1.5201
 1639SOL     OW16549   3.504   2.297   5.675  0.4358 -0.0874 -0.1943
 1639SOL    HW116550   3.512   2.338   5.589 -0.1200 -1.3244 -0.8251
 1639SOL    HW216551   3.508   2.369   5.738 -1.0549  1.0901 -1.4714
 1640SOL     OW16552   1.036   3.125   9.770 -0.1922 -0.0698  0.0709
 1640SOL    HW116553   1.006   3.148   9.858 -0.2642  0.1387 -0.0095
 1640SOL    HW216554   1.119   3.172   9.761 -0.1745  0.0260  0.6753
 1641SOL     OW16555   1.212   3.978   7.018 -0.0383  0.2000  0.5339
 1641SOL    HW116556   1.200   3.926   6.938 -2.0860 -1.6111  2.0129
 1641SOL    HW216557   1.171   4.062   6.997  0.7935  0.2642 -0.8239
 1642SOL     OW16558   0.056   2.127   1.094  0.3677 -0.2011 -0.2964
 1642SOL    HW116559   0.087   2.135   1.003  0.0791 -1.2152 -0.4769
 1642SOL    HW216560   4.724   2.193   1.091 -1.4032 -2.0452  0.5694
 1643SOL     OW16561   0.898   3.904  15.216 -0.2176  0.5853  0.2509
 1643SOL    HW116562   0.906   3.844  15.290 -2.4034 -0.4481 -0.3633
 1643SOL    HW216563   0.903   3.848  15.139  2.6190  1.9231 -0.5598
 1644SOL     OW16564   2.296   1.977  10.133 -0.1232  0.2820  0.5765
 1644SOL    HW116565   2.264   2.067  10.127 -0.9501 -0.2154 -2.4337
 1644SOL    HW216566   2.232   1.947  10.197 -0.4617  1.4406  0.7684
 1645SOL     OW16567   2.845   2.371   8.785  0.5568  0.2598 -1.0280
 1645SOL    HW116568   2.760   2.365   8.828  0.3170  0.6742 -1.4383
 1645SOL    HW216569   2.819   2.340   8.699 -2.4756 -1.3393  0.4834
 1646SOL     OW16570   4.558   1.897   5.863  0.3541 -0.1325  0.2078
 1646SOL    HW116571   4.516   1.962   5.807  0.5438 -1.9319 -2.0356
 1646SOL    HW216572   4.477   1.851   5.885  2.0731 -2.6825  1.1201
 1647SOL     OW16573   1.916   4.128   2.750  0.1873 -0.0459  0.3717
 1647SOL    HW116574   1.875   4.048   2.719 -0.9071  1.0560 -1.0202
 1647SOL    HW216575   1.957   4.095   2.830  4.0195  1.8803 -0.8026
 1648SOL     OW16576   1.809   4.638   2.843  0.3301 -0.6498 -0.2474
 1648SOL    HW116577   1.770   4.578   2.780  0.0117 -0.0889 -0.5867
 1648SOL    HW216578   1.749   4.619   2.915 -0.8663  2.9713 -0.3086
 1649SOL     OW16579   1.826   2.274   6.275 -0.7540  0.1134  0.1578
 1649SOL    HW116580   1.748   2.311   6.318  0.8128  0.9465  2.2773
 1649SOL    HW216581   1.850   2.338   6.207  2.0731 -1.0174  0.1163
 1650SOL     OW16582   0.482   0.656   4.416  0.0787 -0.2108  0.0014
 1650SOL    HW116583   0.485   0.565   4.388 -0.2923 -1.0514  2.7413
 1650SOL    HW216584   0.388   0.675   4.406  0.2724  0.4891 -0.4628
 1651SOL     OW16585   3.144   3.102  11.127 -0.6762 -0.4114  0.2416
 1651SOL    HW116586   3.225   3.149  11.110 -0.3070 -1.2611 -0.3319
 1651SOL    HW216587   3.166   3.027  11.073 -0.5548 -0.5646  0.5061
 1652SOL     OW16588   1.543   2.823  13.334 -0.2795  0.2447 -0.6170
 1652SOL    HW116589   1.497   2.824  13.418 -1.8858 -1.7836 -1.4612
 1652SOL    HW216590   1.612   2.887  13.351 -1.5698  0.6741  2.9919
 1653SOL     OW16591   2.491   1.859   8.981  0.2015 -0.2691  0.5227
 1653SOL    HW116592   2.536   1.775   8.987 -0.4177 -0.6409 -0.1232
 1653SOL    HW216593   2.408   1.829   8.943  1.3180 -0.4662 -1.7804
 1654SOL     OW16594   4.632   1.902   7.041  0.1043 -0.2470 -0.0599
 1654SOL    HW116595   4.667   1.880   6.955 -1.2187  0.0533 -0.6799
 1654SOL    HW216596   4.625   1.814   7.080  3.2717 -1.4225 -2.1857
 1655SOL     OW16597   1.090   1.158   2.133  0.2453 -0.3387 -0.7148
 1655SOL    HW116598   1.184   1.168   2.114  0.4793 -2.0193 -0.4171
 1655SOL    HW216599   1.093   1.080   2.188 -1.3598 -0.4917 -0.8607
 1656SOL     OW16600   1.859   2.378   0.370 -0.2061  0.2714 -0.6200
 1656SOL    HW116601   1.873   2.332   0.287 -1.7352 -1.9110  0.3538
 1656SOL    HW216602   1.799   2.450   0.349 -0.3135 -0.0795 -1.5021
 1657SOL     OW16603   0.770   4.040  16.215  0.1830  0.3194 -0.4945
 1657SOL    HW116604   0.777   4.086  16.131 -0.5146 -1.2811 -1.4237
 1657SOL    HW216605   0.715   3.965  16.191 -0.1983  0.5666 -0.4049
 1658SOL     OW16606   0.398   1.696   5.057 -0.2379 -0.3705  0.2043
 1658SOL    HW116607   0.439   1.720   5.141 -1.0714  5.9441 -1.2031
 1658SOL    HW216608   0.471   1.703   4.995  0.6108  0.3463  1.2703
 1659SOL     OW16609   0.869   0.024   0.917 -0.3066 -0.0032 -0.0906
 1659SOL    HW116610   0.798   0.088   0.919 -0.5933 -0.2731 -2.6096
 1659SOL    HW216611   0.814   4.683   0.922  1.1101 -0.9518  0.6249
 1660SOL     OW16612   2.286   4.084  10.612 -0.1715 -0.0187  0.3046
 1660SOL    HW116613   2.339   4.056  10.537 -0.2154  2.7163 -0.7508
 1660SOL    HW216614   2.299   4.016  10.678  2.8262  0.0420 -0.2174
 1661SOL     OW16615   2.680   1.790   8.110  0.2580  0.3286  0.3780
 1661SOL    HW116616   2.688   1.714   8.053 -1.6674 -0.1180  0.7087
 1661SOL    HW216617   2.673   1.861   8.045  1.2890  1.4169  1.4706
 1662SOL     OW16618   3.433   3.908   2.495 -0.2520 -0.1203  0.3152
 1662SOL    HW116619   3.419   3.999   2.467 -2.2865 -0.7776 -0.7281
 1662SOL    HW216620   3.481   3.928   2.576 -0.5236 -0.8399  0.6490
 1663SOL     OW16621   2.317   3.214  11.703  0.1550  0.0947  0.4947
 1663SOL    HW116622   2.292   3.292  11.753  1.1500  0.1483  0.8911
 1663SOL    HW216623   2.315   3.148  11.772 -0.8288 -1.1702 -0.7392
 1664SOL     OW16624   0.888   4.316   7.474  0.0287  0.4160 -0.8177
 1664SOL    HW116625   0.979   4.333   7.501 -1.0051  1.9806  1.7034
 1664SOL    HW216626   0.869   4.398   7.428  0.5018  0.3671 -1.1059
 1665SOL     OW16627   4.555   0.256   3.680 -0.5127  0.3867 -0.1697
 1665SOL    HW116628   4.602   0.192   3.735 -0.6741  0.2814 -0.1545
 1665SOL    HW216629   4.475   0.276   3.729  0.7822  1.3800  1.5503
 1666SOL     OW16630   0.950   0.487  17.344 -0.0457  0.1180 -0.5821
 1666SOL    HW116631   0.986   0.401  17.366  0.3781  0.5125  0.2587
 1666SOL    HW216632   0.860   0.455  17.333  0.1976 -0.7230 -0.1209
 1667SOL     OW16633   0.362   4.674   2.673 -0.7106  0.1323 -0.1650
 1667SOL    HW116634   0.360   4.629   2.589 -1.2729  0.5105 -0.3579
 1667SOL    HW216635   0.403   4.604   2.723  0.1724  2.0924  1.8792
 1668SOL     OW16636   1.555   1.624   2.340 -0.7476 -0.2919 -0.4890
 1668SOL    HW116637   1.574   1.558   2.273  1.6601 -2.2675  2.1308
 1668SOL    HW216638   1.500   1.686   2.292 -1.7870 -2.0623 -1.5856
 1669SOL     OW16639   2.442   0.694  11.410  0.2824  0.5731  0.2188
 1669SOL    HW116640   2.502   0.693  11.336 -1.6907 -0.6619 -1.3873
 1669SOL    HW216641   2.489   0.628  11.462  0.4231  0.3352 -0.2178
 1670SOL     OW16642   4.379   1.348   6.835 -0.4464  0.2123 -0.0031
 1670SOL    HW116643   4.458   1.297   6.854 -1.6188 -1.2161  0.9964
 1670SOL    HW216644   4.306   1.293   6.860 -0.4493 -0.4036 -1.3985
 1671SOL     OW16645   0.291   2.826  14.067  0.0587 -0.1507 -0.4079
 1671SOL    HW116646   0.293   2.804  14.160 -2.7907 -0.3843 -0.4079
 1671SOL    HW216647   0.321   2.916  14.058  2.3720 -1.0670 -1.9734
 1672SOL     OW16648   3.512   4.375   5.766 -0.0441  0.2215 -0.3000
 1672SOL    HW116649   3.585   4.316   5.746  0.0111 -0.7023  2.6689
 1672SOL    HW216650   3.553   4.459   5.746 -0.9665  0.6486 -0.3982
 1673SOL     OW16651   2.845   4.110   6.706  0.1311  0.2851 -0.9474
 1673SOL    HW116652   2.768   4.162   6.682  0.2338  1.6215  1.6496
 1673SOL    HW216653   2.873   4.087   6.617  1.0939 -0.0500 -0.5447
 1674SOL     OW16654   0.233   0.139  13.339  0.2869  0.8143  0.1635
 1674SOL    HW116655   0.263   0.106  13.424 -0.2942  0.6052  0.2907
 1674SOL    HW216656   0.141   0.115  13.343  0.3411  0.4827 -0.6188
 1675SOL     OW16657   4.516   2.247   5.988 -0.1198  0.0773 -0.2488
 1675SOL    HW116658   4.571   2.305   6.040 -0.6767 -1.1896  1.7480
 1675SOL    HW216659   4.577   2.176   5.968 -0.8294 -0.3690 -0.8402
 1676SOL     OW16660   2.915   2.873  10.274  0.4637 -0.3261 -0.1816
 1676SOL    HW116661   2.949   2.915  10.353  2.6934  0.0952 -1.3530
 1676SOL    HW216662   2.985   2.875  10.208  1.9669 -1.5188  1.3745
 1677SOL     OW16663   4.575   1.809  10.224  0.0194  0.8866 -0.1865
 1677SOL    HW116664   4.611   1.721  10.208 -0.0967  0.7956  0.0544
 1677SOL    HW216665   4.485   1.790  10.252  1.1364 -1.7026  1.6800
 1678SOL     OW16666   4.330   4.279   7.347 -0.4102  0.1612  0.0280
 1678SOL    HW116667   4.291   4.319   7.270  0.6227  1.0337 -0.0449
 1678SOL    HW216668   4.377   4.205   7.307 -0.0950  1.8013 -2.6360
 1679SOL     OW16669   4.400   3.845   6.425 -0.7193 -0.0237 -0.0663
 1679SOL    HW116670   4.380   3.911   6.491 -3.1289 -1.0117  0.2116
 1679SOL    HW216671   4.335   3.857   6.355 -2.2360  0.7122  1.4804
 1680SOL     OW16672   3.442   3.528  13.469 -0.4217  0.1844 -0.1698
 1680SOL    HW116673   3.530   3.548  13.437  0.2065  1.1390  2.1234
 1680SOL    HW216674   3.419   3.615  13.503  1.2986  0.6351 -0.1470
 1681SOL     OW16675   3.568   2.078   2.886  0.1003  0.1825  1.4830
 1681SOL    HW116676   3.607   2.165   2.877  0.0357 -0.0918 -1.7152
 1681SOL    HW216677   3.643   2.021   2.903 -0.5587 -1.1006  0.0176
 1682SOL     OW16678   3.450   2.579   0.716  0.1028  0.5869  0.2808
 1682SOL    HW116679   3.356   2.595   0.729 -0.1516 -0.5617 -0.1474
 1682SOL    HW216680   3.463   2.484   0.715 -1.4982  0.3547  1.2532
 1683SOL     OW16681   0.996   0.671   3.546 -0.0057  0.3721  0.1700
 1683SOL    HW116682   0.935   0.679   3.619  0.3276 -1.3601  0.6449
 1683SOL    HW216683   0.944   0.618   3.484  1.7552  1.2635 -2.0499
 1684SOL     OW16684   4.188   3.780  13.256 -0.2038  0.5498  0.7839
 1684SOL    HW116685   4.240   3.729  13.318 -0.7242  0.5350  1.2034
 1684SOL    HW216686   4.244   3.791  13.179 -0.4152 -1.8777  0.3002
 1685SOL     OW16687   0.462   4.386   3.378  0.0430 -0.1243 -0.1785
 1685SOL    HW116688   0.372   4.356   3.372 -0.5743  1.8530 -0.7062
 1685SOL    HW216689   0.501   4.326   3.441 -3.4636 -1.0479  1.1252
 1686SOL     OW16690   3.256   0.539   4.566  0.2220 -0.0545  0.3543
 1686SOL    HW116691   3.198   0.465   4.582  0.7980  0.1169  3.2708
 1686SOL    HW216692   3.289   0.553   4.655  0.3308 -0.7432  0.4194
 1687SOL     OW16693   2.786   2.815   6.197  0.6751 -0.1101 -0.1254
 1687SOL    HW116694   2.732   2.871   6.140  1.2623 -0.1515 -0.7208
 1687SOL    HW216695   2.730   2.737   6.196  0.8273 -0.2348  1.8393
 1688SOL     OW16696   2.204   4.363   1.700 -0.0317  0.3320 -0.0890
 1688SOL    HW116697   2.222   4.271   1.719  0.6950  0.1624 -1.6056
 1688SOL    HW216698   2.186   4.398   1.787 -0.9873 -1.3628  0.3932
 1689SOL     OW16699   3.374   3.669   3.157  0.0045  0.5734  0.2016
 1689SOL    HW116700   3.348   3.702   3.071 -0.1784 -0.1751 -0.0329
 1689SOL    HW216701   3.342   3.579   3.153 -1.2052  1.0095  0.0210
 1690SOL     OW16702   2.486   1.250  13.862 -0.6015  0.4126  0.1228
 1690SOL    HW116703   2.422   1.318  13.838 -1.5805 -1.2782 -1.9980
 1690SOL    HW216704   2.570   1.291  13.843  0.1162 -1.5057 -0.7826
 1691SOL     OW16705   1.294   0.447  11.945  0.1033 -0.2034 -0.5239
 1691SOL    HW116706   1.354   0.419  12.014  0.9096 -0.2464 -1.2499
 1691SOL    HW216707   1.323   0.534  11.919 -1.3986 -0.0286 -1.6148
 1692SOL     OW16708   1.981   2.844  15.392 -0.5934  0.0409  0.1652
 1692SOL    HW116709   1.899   2.795  15.386  0.2586 -1.3086 -0.4572
 1692SOL    HW216710   1.954   2.904  15.461  1.5889  2.2294 -0.8870
 1693SOL     OW16711   0.438   3.479  14.513 -0.5556 -0.1329 -0.2092
 1693SOL    HW116712   0.473   3.464  14.601  2.2337 -0.4701 -1.3750
 1693SOL    HW216713   0.496   3.421  14.463  1.4933  0.1588  1.8465
 1694SOL     OW16714   4.194   1.314  11.065 -0.1535  0.2013  0.1482
 1694SOL    HW116715   4.269   1.267  11.102  0.1436 -1.8039 -3.0509
 1694SOL    HW216716   4.160   1.362  11.141  0.0325 -0.1475  0.4562
 1695SOL     OW16717   1.427   0.642  11.511  0.6433 -0.3550  0.6028
 1695SOL    HW116718   1.516   0.674  11.499  0.9383 -1.5181 -0.4271
 1695SOL    HW216719   1.375   0.719  11.533  0.9474  0.3585 -1.1786
 1696SOL     OW16720   0.538   3.918   3.976  0.4328  0.8517 -0.1810
 1696SOL    HW116721   0.468   3.959   4.027 -0.1146 -0.5196  0.1567
 1696SOL    HW216722   0.490   3.847   3.932  2.5373  0.4316 -1.7884
 1697SOL     OW16723   3.908   2.368   3.218  0.3540 -0.2980 -0.0783
 1697SOL    HW116724   3.938   2.289   3.174 -2.2054 -1.3710  0.0780
 1697SOL    HW216725   3.974   2.432   3.190 -0.3785  0.4821 -0.0214
 1698SOL     OW16726   0.919   3.811   7.129  0.1441  0.9635  0.6806
 1698SOL    HW116727   0.916   3.732   7.075  0.0419  0.2292  1.7640
 1698SOL    HW216728   0.938   3.882   7.067  1.5218 -0.2380 -0.2827
 1699SOL     OW16729   4.364   1.507   7.683  0.3969 -0.7917 -0.4241
 1699SOL    HW116730   4.310   1.484   7.608  0.6571  0.3835 -0.9671
 1699SOL    HW216731   4.312   1.477   7.758 -1.0036 -0.1374 -1.1355
 1700SOL     OW16732   0.497   2.542  14.898 -0.5981 -0.0673 -0.1715
 1700SOL    HW116733   0.561   2.571  14.963 -1.5048 -2.1425  1.6526
 1700SOL    HW216734   0.414   2.563  14.941  0.5298 -1.1434  2.5035
 1701SOL     OW16735   3.920   3.670   5.593  0.1086  0.1804  0.1668
 1701SOL    HW116736   3.986   3.649   5.660  0.8288 -1.4887 -1.0602
 1701SOL    HW216737   3.953   3.754   5.561 -1.3603  1.2082  1.3810
 1702SOL     OW16738   0.204   2.500   6.094 -0.7854  0.2866 -0.1034
 1702SOL    HW116739   0.286   2.539   6.065 -0.0198 -1.3671 -0.1731
 1702SOL    HW216740   0.160   2.507   6.010  0.3388 -0.9767 -0.7881
 1703SOL     OW16741   2.695   1.411  13.824  0.3303  0.0581 -0.4933
 1703SOL    HW116742   2.725   1.464  13.750  1.5765 -0.1409 -0.1291
 1703SOL    HW216743   2.683   1.478  13.891 -1.6648 -1.8055  0.9802
 1704SOL     OW16744   3.443   3.584   8.705 -0.8346  0.3489  0.2575
 1704SOL    HW116745   3.486   3.664   8.736  1.7027 -0.9043 -0.0137
 1704SOL    HW216746   3.353   3.604   8.732 -1.1768 -0.0120 -0.6151
 1705SOL     OW16747   2.324   4.184  12.023  0.2419 -0.7727 -0.9527
 1705SOL    HW116748   2.276   4.264  12.002  2.5228  0.4439 -1.4981
 1705SOL    HW216749   2.406   4.218  12.059 -1.3822  0.8843  1.2012
 1706SOL     OW16750   3.211   1.822   2.330  0.8270  1.1267 -0.3824
 1706SOL    HW116751   3.157   1.847   2.255  0.3996 -3.3774 -1.5991
 1706SOL    HW216752   3.204   1.728   2.346 -0.5419  1.3243  0.1897
 1707SOL     OW16753   4.467   2.036  14.184 -0.2626 -0.0025  0.5401
 1707SOL    HW116754   4.484   2.049  14.278 -2.3164  1.0916  0.7605
 1707SOL    HW216755   4.402   1.966  14.187  0.6604 -0.9333 -1.7513
 1708SOL     OW16756   2.930   4.259   3.301 -0.4419 -0.5018  0.5349
 1708SOL    HW116757   2.940   4.346   3.264 -2.5799 -1.0631 -1.4116
 1708SOL    HW216758   2.916   4.211   3.219 -1.4084 -1.1132  1.0519
 1709SOL     OW16759   2.782   2.457   5.160 -0.4489 -0.2016  0.3615
 1709SOL    HW116760   2.819   2.536   5.121 -1.1226  0.3360  0.8109
 1709SOL    HW216761   2.824   2.391   5.105 -3.1382 -1.4776 -0.1510
 1710SOL     OW16762   3.301   3.248   4.326 -0.1253 -0.1127 -0.0222
 1710SOL    HW116763   3.343   3.252   4.412 -0.6073  0.0181  0.2067
 1710SOL    HW216764   3.234   3.317   4.335 -0.6644 -0.6609  0.1979
 1711SOL     OW16765   3.298   2.400   6.196 -0.1677 -0.0357 -0.1862
 1711SOL    HW116766   3.342   2.353   6.267  1.8299 -0.4280 -1.6989
 1711SOL    HW216767   3.208   2.380   6.223  0.2842 -1.0476  0.5642
 1712SOL     OW16768   2.390   2.857   9.412 -0.4552 -0.4400 -0.2962
 1712SOL    HW116769   2.449   2.885   9.482 -0.2667 -0.0172 -0.6286
 1712SOL    HW216770   2.391   2.762   9.420  0.6559 -0.5288 -1.5645
 1713SOL     OW16771   0.523   0.427  15.854  0.5128 -0.4931 -0.0236
 1713SOL    HW116772   0.487   0.364  15.916  0.1139 -0.8804 -0.6615
 1713SOL    HW216773   0.613   0.437  15.885  0.1958 -2.0128  1.4096
 1714SOL     OW16774   0.545   2.801   4.484 -0.3089 -0.0250  0.1783
 1714SOL    HW116775   0.508   2.889   4.490  1.5072  0.9478 -2.6734
 1714SOL    HW216776   0.618   2.806   4.545 -2.0847 -1.4983  2.4286
 1715SOL     OW16777   1.025   3.582   4.390  0.4759  0.1909 -0.0539
 1715SOL    HW116778   1.024   3.569   4.295  0.9365 -0.2441  0.0007
 1715SOL    HW216779   1.080   3.660   4.399  0.2663  0.2883  0.3805
 1716SOL     OW16780   4.241   2.955  15.247 -0.0968  0.0243 -0.2020
 1716SOL    HW116781   4.175   2.976  15.182  0.0664 -0.1408 -0.4195
 1716SOL    HW216782   4.225   2.862  15.259  0.8494  0.1654  2.2718
 1717SOL     OW16783   2.058   4.000  15.417 -0.1773  0.0889  0.3160
 1717SOL    HW116784   2.089   3.920  15.460  1.1577 -0.2749 -1.3348
 1717SOL    HW216785   2.102   3.994  15.333  0.4518  0.2214  0.6384
 1718SOL     OW16786   3.423   4.250  12.021  0.3909 -0.0027 -0.3729
 1718SOL    HW116787   3.388   4.337  12.003 -1.4443 -1.4308 -3.7161
 1718SOL    HW216788   3.517   4.269  12.028  0.0919  1.6760 -0.8136
 1719SOL     OW16789   0.800   3.053  13.771 -0.0424  0.1346  0.0367
 1719SOL    HW116790   0.760   3.067  13.857  2.1537 -2.7759  1.5195
 1719SOL    HW216791   0.891   3.062  13.801  0.8956 -0.6316 -2.5607
 1720SOL     OW16792   0.983   4.527   4.337  0.1741 -0.0688  0.0997
 1720SOL    HW116793   0.927   4.525   4.415 -1.6854  2.4181 -1.1819
 1720SOL    HW216794   1.071   4.526   4.375 -0.1008  0.2635  0.7445
 1721SOL     OW16795   1.258   2.538  10.346 -0.4763 -0.1705 -0.2118
 1721SOL    HW116796   1.318   2.471  10.378 -0.8541  0.2543  1.3957
 1721SOL    HW216797   1.286   2.610  10.404 -3.0671  0.5521  0.1704
 1722SOL     OW16798   4.398   2.626   6.536  0.2868 -0.0004  0.1273
 1722SOL    HW116799   4.387   2.672   6.452  1.4778  0.7448  0.3846
 1722SOL    HW216800   4.473   2.677   6.567  0.0870  1.5220 -1.8722
 1723SOL     OW16801   4.226   0.568   1.455 -0.9292  0.4322  0.0246
 1723SOL    HW116802   4.174   0.585   1.376 -2.2304 -0.9073  0.6031
 1723SOL    HW216803   4.289   0.501   1.428  1.0004  0.5316  4.2949
 1724SOL     OW16804   0.433   4.199  17.574 -0.4087 -0.0225  0.1927
 1724SOL    HW116805   0.409   4.149  17.496 -2.4426 -0.5683  1.1800
 1724SOL    HW216806   0.481   4.137  17.629 -0.5169 -1.3271 -1.1743
 1725SOL     OW16807   0.057   3.145   8.483 -0.5991  0.4236  0.0920
 1725SOL    HW116808   0.056   3.172   8.391  0.0419  2.6774  0.7633
 1725SOL    HW216809   0.007   3.064   8.472  0.5814 -0.2457 -0.4523
 1726SOL     OW16810   3.745   4.464   3.732 -0.0544 -0.5369  0.1673
 1726SOL    HW116811   3.662   4.419   3.715  2.2385 -4.1958 -1.4735
 1726SOL    HW216812   3.788   4.431   3.653 -1.8649 -0.2507 -0.9576
 1727SOL     OW16813   0.425   3.756  17.166 -0.0481  0.3754 -0.5459
 1727SOL    HW116814   0.446   3.822  17.099 -0.1795  1.5951  0.6231
 1727SOL    HW216815   0.508   3.764  17.212  0.7367 -1.9257 -1.5475
 1728SOL     OW16816   2.656   4.276   7.713  0.0846  0.1281  0.0985
 1728SOL    HW116817   2.563   4.263   7.732 -0.3080  0.8013 -1.4358
 1728SOL    HW216818   2.683   4.189   7.682 -1.7444 -1.2859  2.3507
 1729SOL     OW16819   1.484   4.459   1.916  0.1962  0.0295 -0.2449
 1729SOL    HW116820   1.559   4.470   1.858 -1.2147  1.3158 -1.8279
 1729SOL    HW216821   1.430   4.402   1.863 -0.3189  0.2941 -0.0048
 1730SOL     OW16822   2.718   3.584   9.641  0.2556 -0.3288 -0.9490
 1730SOL    HW116823   2.714   3.497   9.682 -3.3630  0.0629 -0.4361
 1730SOL    HW216824   2.761   3.631   9.713  1.7927 -0.6292 -1.6806
 1731SOL     OW16825   4.414   1.003   4.308  0.3591  0.4195  0.1591
 1731SOL    HW116826   4.336   1.010   4.363 -0.1518 -3.5657 -0.0145
 1731SOL    HW216827   4.408   1.067   4.237  0.7163  0.9319  0.5920
 1732SOL     OW16828   0.807   1.592   5.564  0.0963  0.2896 -0.3564
 1732SOL    HW116829   0.859   1.536   5.508  1.0671 -0.4393  1.2610
 1732SOL    HW216830   0.749   1.529   5.608 -0.5224  0.4657 -0.9189
 1733SOL     OW16831   1.130   0.646   6.568 -0.6857  0.0338 -0.2806
 1733SOL    HW116832   1.095   0.561   6.543  0.8009 -0.0113 -2.1623
 1733SOL    HW216833   1.066   0.702   6.524  1.4632  0.8173 -2.3761
 1734SOL     OW16834   4.596   2.819  13.833  0.4648 -0.0237 -0.1191
 1734SOL    HW116835   4.665   2.807  13.898  1.4008 -0.1242 -1.1317
 1734SOL    HW216836   4.561   2.731  13.841 -0.3791  0.4328  1.1880
 1735SOL     OW16837   2.663   1.636   0.964  0.0486 -0.3997  0.6641
 1735SOL    HW116838   2.586   1.665   0.915 -0.5868 -2.7471  0.2619
 1735SOL    HW216839   2.618   1.614   1.045 -2.5844 -0.8021 -0.9027
 1736SOL     OW16840   1.200   0.230   2.905 -0.0544  0.6841 -0.0396
 1736SOL    HW116841   1.146   0.281   2.965  0.1856  0.5705  0.2691
 1736SOL    HW216842   1.136   0.168   2.870 -0.3752  0.0564  1.6729
 1737SOL     OW16843   1.086   3.397   8.330 -0.2716 -0.3359 -0.1597
 1737SOL    HW116844   1.059   3.447   8.408  1.1209 -0.6648  0.5406
 1737SOL    HW216845   1.004   3.395   8.282 -2.0768 -0.3447  2.8904
 1738SOL     OW16846   1.644   3.691   5.285 -0.5026 -0.3386  0.0332
 1738SOL    HW116847   1.650   3.627   5.214 -1.0551 -0.7297  0.3410
 1738SOL    HW216848   1.734   3.712   5.310 -0.5735 -0.8570  0.7465
 1739SOL     OW16849   3.253   4.591   7.180 -0.0846 -0.1349  0.6450
 1739SOL    HW116850   3.329   4.645   7.159 -1.5442  2.6632  2.5455
 1739SOL    HW216851   3.185   4.657   7.167  0.5482  0.9960  3.0687
 1740SOL     OW16852   2.897   3.619   2.637  0.2364 -0.3908  0.7211
 1740SOL    HW116853   2.837   3.546   2.650  0.0414 -0.2998  0.3471
 1740SOL    HW216854   2.872   3.641   2.547  0.4143 -0.1225  0.7375
 1741SOL     OW16855   3.931   4.012   8.224  0.4848  0.3336  0.2219
 1741SOL    HW116856   3.950   4.051   8.139 -1.6790  3.4465  1.1574
 1741SOL    HW216857   3.974   4.074   8.283 -1.4342 -0.3885  2.3818
 1742SOL     OW16858   3.849   1.778   4.547 -0.1227  0.1620  0.2659
 1742SOL    HW116859   3.887   1.729   4.474 -3.6591 -2.1731 -0.0020
 1742SOL    HW216860   3.876   1.865   4.516  0.3518  0.4481  1.4908
 1743SOL     OW16861   0.896   0.467   5.582  0.5564  0.6020 -0.1787
 1743SOL    HW116862   0.954   0.452   5.656  0.9602 -0.9572 -0.8018
 1743SOL    HW216863   0.947   0.529   5.530  1.2281  0.8356  0.7732
 1744SOL     OW16864   2.742   0.967   3.261  0.2269 -0.1666  0.0793
 1744SOL    HW116865   2.692   0.890   3.288  1.0549 -0.5597  0.4891
 1744SOL    HW216866   2.786   0.948   3.178 -0.8190 -1.5918 -0.1551
 1745SOL     OW16867   0.745   0.208   3.070 -0.9433 -0.2982 -0.6260
 1745SOL    HW116868   0.773   0.137   3.127 -2.6588  0.7318  1.4892
 1745SOL    HW216869   0.718   0.163   2.990  2.3362  1.5495 -2.8240
 1746SOL     OW16870   2.612   2.181   2.988  0.2660 -0.0297 -0.0849
 1746SOL    HW116871   2.594   2.275   2.981 -0.3311 -0.1142  0.3318
 1746SOL    HW216872   2.527   2.138   2.990  0.5734 -0.6137  0.2971
 1747SOL     OW16873   3.726   2.980   7.197  0.0143  0.0964  0.0387
 1747SOL    HW116874   3.726   2.885   7.202  1.3210  0.0456 -0.9859
 1747SOL    HW216875   3.723   3.004   7.289  1.9576  0.6690 -0.0482
 1748SOL     OW16876   0.812   1.331   5.727 -0.0087  0.1276  0.3398
 1748SOL    HW116877   0.905   1.353   5.718  0.1772 -0.9160 -0.2335
 1748SOL    HW216878   0.780   1.282   5.652 -1.3251  2.3491 -0.5655
 1749SOL     OW16879   0.264   2.881  12.171  0.0190  0.3046  0.0164
 1749SOL    HW116880   0.266   2.909  12.079  0.3316  1.2069  0.2951
 1749SOL    HW216881   0.209   2.803  12.165 -1.0210  1.0192  0.1530
 1750SOL     OW16882   1.390   0.105  17.537  0.4321  0.3297 -0.5585
 1750SOL    HW116883   1.411   0.070  17.624 -2.7218  0.2927  0.1957
 1750SOL    HW216884   1.400   0.029  17.480  0.5758 -1.0902  1.3716
 1751SOL     OW16885   3.023   1.464   7.711 -0.1365  0.0686 -0.4964
 1751SOL    HW116886   2.994   1.542   7.759  1.1351 -1.2362  2.3858
 1751SOL    HW216887   3.118   1.469   7.719 -0.4122  0.1591  2.5910
 1752SOL     OW16888   0.752   4.034   8.006 -0.2079 -0.1321  0.6020
 1752SOL    HW116889   0.692   4.028   7.932  0.3602 -0.4420  0.1582
 1752SOL    HW216890   0.821   3.969   7.995 -0.1772 -0.3135  1.8604
 1753SOL     OW16891   2.493   2.066   7.876 -0.1959  0.3324  0.3096
 1753SOL    HW116892   2.471   2.141   7.820 -1.5038 -0.7976 -0.6683
 1753SOL    HW216893   2.421   2.007   7.853  1.6196 -2.2321  1.2379
 1754SOL     OW16894   1.487   0.685   5.619 -0.0499  0.1615  0.0641
 1754SOL    HW116895   1.392   0.684   5.608 -0.0290  0.5978 -0.1667
 1754SOL    HW216896   1.496   0.772   5.659  0.8754  0.1039 -0.0161
 1755SOL     OW16897   0.212   0.395   5.558  0.3536  0.1727  0.1383
 1755SOL    HW116898   0.194   0.481   5.518 -0.7945  1.2178  2.8725
 1755SOL    HW216899   0.289   0.407   5.613 -1.0428  0.3778  2.0705
 1756SOL     OW16900   2.952   1.437   8.030 -0.1953  0.3338 -0.5958
 1756SOL    HW116901   2.955   1.433   8.126  0.9402 -0.0981 -0.6458
 1756SOL    HW216902   2.923   1.524   8.005 -0.1292  0.7098  0.6259
 1757SOL     OW16903   0.852   0.357   8.827 -0.2675  0.0230 -0.2671
 1757SOL    HW116904   0.828   0.315   8.745 -0.4428 -1.0103  0.3199
 1757SOL    HW216905   0.812   0.441   8.805 -3.2027 -1.3021  0.0549
 1758SOL     OW16906   4.134   1.412  10.802 -0.0001 -0.1405 -0.0392
 1758SOL    HW116907   4.170   1.373  10.881 -0.4616 -0.5022 -0.0104
 1758SOL    HW216908   4.097   1.339  10.751 -1.2654 -1.9799  3.5454
 1759SOL     OW16909   2.532   2.897  17.424 -0.0158  0.1119  0.2846
 1759SOL    HW116910   2.561   2.986  17.404 -1.6706  0.8774  1.2799
 1759SOL    HW216911   2.476   2.906  17.501 -0.8453  2.8623 -0.6583
 1760SOL     OW16912   0.673   2.456   3.135 -0.5783  0.0895 -0.7906
 1760SOL    HW116913   0.663   2.478   3.227 -1.0875 -1.9285 -0.3677
 1760SOL    HW216914   0.745   2.516   3.118 -1.4173  1.8095  1.8417
 1761SOL     OW16915   1.010   1.589   4.494 -0.2343  0.5326  0.3392
 1761SOL    HW116916   0.952   1.564   4.422 -0.3194  1.3595  0.1145
 1761SOL    HW216917   1.070   1.517   4.475  0.0725  0.9566 -0.3371
 1762SOL     OW16918   3.692   0.846   7.771  0.3763 -0.4358 -0.3119
 1762SOL    HW116919   3.650   0.762   7.752  3.4146 -1.4900 -2.3421
 1762SOL    HW216920   3.711   0.835   7.864 -0.0176 -0.1755 -0.1973
 1763SOL     OW16921   2.439   3.636   6.020 -0.6166  0.4008  0.2248
 1763SOL    HW116922   2.460   3.566   6.081 -0.4841  1.5012  1.4321
 1763SOL    HW216923   2.347   3.613   6.003 -0.8624  1.3638  0.2040
 1764SOL     OW16924   4.606   2.533   2.561  0.3873 -0.2911 -0.2556
 1764SOL    HW116925   4.660   2.610   2.548  0.1506 -0.5999 -3.0077
 1764SOL    HW216926   4.672   2.466   2.577  0.1926 -0.2274  0.7908
 1765SOL     OW16927   3.068   1.688   4.647 -0.1085  0.1706 -0.0135
 1765SOL    HW116928   3.043   1.766   4.598  1.0722 -0.6731 -1.9798
 1765SOL    HW216929   2.980   1.658   4.670 -0.1075 -0.7052 -1.0980
 1766SOL     OW16930   2.395   3.362  12.832  0.2783  0.8296 -0.4199
 1766SOL    HW116931   2.476   3.400  12.797  1.8228  0.9300  3.3051
 1766SOL    HW216932   2.361   3.433  12.884 -0.7930  0.9270 -1.2487
 1767SOL     OW16933   1.693   1.405   6.143 -0.3473 -0.9251  0.1169
 1767SOL    HW116934   1.655   1.317   6.141  0.1428 -1.1550  0.7475
 1767SOL    HW216935   1.642   1.440   6.216  2.6576 -0.2667  1.8921
 1768SOL     OW16936   4.372   0.920   7.709 -0.3869  0.4493  0.8799
 1768SOL    HW116937   4.366   0.985   7.639  1.1740 -1.0568 -0.6558
 1768SOL    HW216938   4.301   0.862   7.679 -0.9027  1.0543  0.9325
 1769SOL     OW16939   4.264   1.881  17.296  0.4813  0.8893  0.1817
 1769SOL    HW116940   4.359   1.883  17.286  0.4893  0.6646  0.2096
 1769SOL    HW216941   4.272   1.907  17.388  0.8398  1.1099  0.0885
 1770SOL     OW16942   4.676   0.740  14.843 -0.0063  0.3094 -0.4614
 1770SOL    HW116943   4.582   0.758  14.848 -0.1089 -0.7979  1.7916
 1770SOL    HW216944   4.667   0.659  14.792 -3.1599  0.5933 -0.3938
 1771SOL     OW16945   4.097   1.262   3.859  0.1133  0.5962  0.3069
 1771SOL    HW116946   4.135   1.344   3.889  1.2427  0.2040 -0.0623
 1771SOL    HW216947   4.174   1.212   3.833 -0.6522 -0.4006 -0.0743
 1772SOL     OW16948   0.581   2.433  16.179 -0.0836  0.4461  0.4856
 1772SOL    HW116949   0.558   2.512  16.130 -1.2301  0.4545  1.0387
 1772SOL    HW216950   0.495   2.390  16.180 -1.0816  2.4266 -0.3683
 1773SOL     OW16951   0.099   2.308   0.826  0.8471 -0.4361 -0.2501
 1773SOL    HW116952   0.170   2.249   0.802  0.8738  0.0062 -1.2566
 1773SOL    HW216953   0.124   2.382   0.770  1.5461 -0.2440  0.3053
 1774SOL     OW16954   2.053   2.209   9.724  0.0945  0.5095 -0.1343
 1774SOL    HW116955   2.065   2.217   9.629  1.7604  1.8920  0.1949
 1774SOL    HW216956   1.981   2.268   9.744 -2.6135 -1.9728 -2.5063
 1775SOL     OW16957   2.261   3.666   0.045 -0.0786  0.4044  0.7233
 1775SOL    HW116958   2.355   3.649   0.056 -0.4788 -2.0705  0.2287
 1775SOL    HW216959   2.268   3.749  17.745  0.1008 -0.8456 -1.4341
 1776SOL     OW16960   2.502   2.926  11.103 -0.6779 -0.4933  0.2406
 1776SOL    HW116961   2.587   2.953  11.136 -0.4797  0.7891 -1.3221
 1776SOL    HW216962   2.479   2.849  11.155  0.5849 -0.3787  0.9741
 1777SOL     OW16963   4.446   2.050   6.534  0.0608  0.5000 -0.3668
 1777SOL    HW116964   4.416   2.117   6.472  0.7133  0.5998 -0.5721
 1777SOL    HW216965   4.398   2.086   6.609 -1.0247 -1.6477 -0.0345
 1778SOL     OW16966   2.597   2.256  11.686  0.1791 -0.6894 -0.2926
 1778SOL    HW116967   2.576   2.249  11.779 -1.2381  0.3582 -0.5198
 1778SOL    HW216968   2.673   2.313  11.676  0.2136 -0.7843 -0.5544
 1779SOL     OW16969   4.566   2.228   8.624 -0.8717  0.0629 -0.2900
 1779SOL    HW116970   4.631   2.161   8.648  1.3313  3.0423  2.0633
 1779SOL    HW216971   4.556   2.284   8.701  0.4070 -0.3325  0.1815
 1780SOL     OW16972   1.631   3.164   2.166  0.2138 -0.1363  0.0993
 1780SOL    HW116973   1.567   3.125   2.225  0.6287 -0.1134  0.5673
 1780SOL    HW216974   1.640   3.113   2.085  0.0701 -0.0275  0.0148
 1781SOL     OW16975   3.898   3.081  10.345 -0.2039  0.0547  0.1921
 1781SOL    HW116976   3.902   3.062  10.251 -2.2549 -1.6576  0.4650
 1781SOL    HW216977   3.807   3.069  10.371 -0.9249 -0.3775 -2.5117
 1782SOL     OW16978   0.375   3.708  12.331  0.4617  0.4785  0.2004
 1782SOL    HW116979   0.337   3.634  12.283  0.0765  0.4735  0.5227
 1782SOL    HW216980   0.341   3.783  12.281  1.4915  1.0743  0.3926
 1783SOL     OW16981   1.105   4.350   8.823 -0.4416 -0.0842 -0.5587
 1783SOL    HW116982   1.079   4.271   8.872 -0.0988 -0.1715 -0.5179
 1783SOL    HW216983   1.077   4.421   8.881  1.2151 -0.3958  0.6046
 1784SOL     OW16984   0.424   3.028   8.420 -0.3956  0.0269  0.1351
 1784SOL    HW116985   0.482   3.021   8.345 -1.2254 -0.6401 -0.4334
 1784SOL    HW216986   0.365   2.953   8.412 -0.3338  0.1048 -0.9331
 1785SOL     OW16987   3.478   3.906  16.023  0.1552  0.3647  0.3010
 1785SOL    HW116988   3.446   3.972  15.962 -0.5553  0.6896  1.0254
 1785SOL    HW216989   3.528   3.964  16.079  1.1184  2.1407 -2.3965
 1786SOL     OW16990   0.265   2.125   8.383 -0.2193 -0.2653 -0.3771
 1786SOL    HW116991   0.263   2.220   8.379 -0.6241 -0.3515 -2.4822
 1786SOL    HW216992   0.253   2.112   8.477 -1.7830 -0.2328 -0.5617
 1787SOL     OW16993   1.110   4.449   7.717 -0.7019 -0.2932  0.0969
 1787SOL    HW116994   1.017   4.451   7.736 -0.6733 -2.2807  0.4363
 1787SOL    HW216995   1.140   4.407   7.798 -1.6027  0.0239  0.5894
 1788SOL     OW16996   3.417   0.364   2.068  0.1114 -0.9685 -0.0455
 1788SOL    HW116997   3.504   0.403   2.072  1.1873 -3.2343 -1.2761
 1788SOL    HW216998   3.401   0.374   1.974  1.5517 -0.3445 -0.2148
 1789SOL     OW16999   2.009   2.041   8.246  0.4718  0.3088  0.0988
 1789SOL    HW117000   2.088   2.079   8.284 -0.0132  1.6496 -0.2509
 1789SOL    HW217001   1.949   2.115   8.244  0.4284  0.3010  1.0408
 1790SOL     OW17002   4.634   1.140   6.021  0.4015 -0.6491  0.0506
 1790SOL    HW117003   4.660   1.071   5.960 -0.3371 -1.9087  1.1374
 1790SOL    HW217004   4.575   1.088   6.076  0.6130 -3.4026 -2.2770
 1791SOL     OW17005   3.641   1.097   4.660  0.5619  0.2176 -0.5656
 1791SOL    HW117006   3.639   1.060   4.748  3.9285  1.8274  0.2112
 1791SOL    HW217007   3.734   1.081   4.643  0.8347  1.3849 -0.1803
 1792SOL     OW17008   0.614   0.775   2.875 -0.7061 -0.5084  0.0262
 1792SOL    HW117009   0.541   0.798   2.933 -2.3212 -2.9841 -1.0400
 1792SOL    HW217010   0.677   0.751   2.943 -2.1916  0.2565  1.6895
 1793SOL     OW17011   0.106   2.069  16.328  0.0517 -0.1853  0.1091
 1793SOL    HW117012   0.057   2.022  16.395 -0.6239  1.4029  0.7397
 1793SOL    HW217013   0.191   2.050  16.368 -0.6489  2.0469  2.6673
 1794SOL     OW17014   3.974   1.604   7.748  0.2599 -0.1300  0.1336
 1794SOL    HW117015   3.982   1.661   7.672 -0.3499 -1.3934 -0.8593
 1794SOL    HW217016   4.029   1.653   7.810  1.6396  1.3558 -2.2529
 1795SOL     OW17017   1.254   0.097   5.673  0.3804  0.6347  0.4400
 1795SOL    HW117018   1.194   0.052   5.732 -0.1545 -0.1438 -0.6953
 1795SOL    HW217019   1.203   0.115   5.594  0.2536  1.3786  0.6971
 1796SOL     OW17020   4.714   4.191   6.506  0.3095  0.0211  0.5170
 1796SOL    HW117021   4.718   4.102   6.471  2.8657  1.0753 -1.8584
 1796SOL    HW217022   4.668   4.168   6.587 -0.6943 -0.0637 -0.0821
 1797SOL     OW17023   0.723   4.497   9.112 -0.0918  0.5878 -0.5058
 1797SOL    HW117024   0.782   4.553   9.163 -0.3693 -1.3521  1.9728
 1797SOL    HW217025   0.684   4.562   9.053 -2.9079 -0.9127 -0.3148
 1798SOL     OW17026   4.168   0.764   7.556 -0.5209  0.0489 -0.1927
 1798SOL    HW117027   4.192   0.683   7.512 -1.2488  0.4747 -1.3692
 1798SOL    HW217028   4.188   0.820   7.481  0.5125  1.6205  1.2427
 1799SOL     OW17029   1.299   3.770   7.517 -0.1677 -0.1084 -0.1599
 1799SOL    HW117030   1.257   3.699   7.565  1.4677  0.3286  1.9223
 1799SOL    HW217031   1.337   3.722   7.443  0.0601 -0.1127 -0.0424
 1800SOL     OW17032   3.998   2.457   7.287 -0.5407  0.3509  0.3269
 1800SOL    HW117033   4.043   2.377   7.259  1.8635  1.6149  0.5487
 1800SOL    HW217034   4.037   2.476   7.372 -1.8649 -0.9391  1.2308
 1801SOL     OW17035   3.319   0.988   8.273 -0.5302 -0.0953 -0.1065
 1801SOL    HW117036   3.250   1.037   8.227  1.6751  0.8553 -2.4303
 1801SOL    HW217037   3.350   0.925   8.209 -0.2881 -1.2159  1.1191
 1802SOL     OW17038   3.019   0.649  16.575  0.0389 -0.2974  0.2784
 1802SOL    HW117039   3.097   0.611  16.615  0.7955 -0.0624 -0.9406
 1802SOL    HW217040   2.992   0.717  16.636  0.1059  0.1028 -0.1371
 1803SOL     OW17041   2.347   0.216   6.438 -0.3883 -0.6091  0.2098
 1803SOL    HW117042   2.323   0.253   6.523 -0.6807 -0.4184  0.0438
 1803SOL    HW217043   2.286   0.272   6.391  0.5090  1.8933  2.0140
 1804SOL     OW17044   2.151   4.225  12.253  0.3932  0.2401 -0.4040
 1804SOL    HW117045   2.188   4.190  12.172  1.3233  1.1915 -0.3801
 1804SOL    HW217046   2.077   4.283  12.234  0.5122  0.6973  0.5188
 1805SOL     OW17047   2.948   4.206   7.385 -0.3874 -0.5139  0.0615
 1805SOL    HW117048   2.878   4.238   7.442 -1.7304 -0.1918 -1.7517
 1805SOL    HW217049   2.906   4.195   7.300 -0.2158 -1.3547  0.0878
 1806SOL     OW17050   4.717   1.137   4.614 -0.3440  0.1049 -0.1999
 1806SOL    HW117051   4.718   1.049   4.575  1.0876 -0.7778  1.8383
 1806SOL    HW217052   4.716   1.195   4.538 -0.2529 -1.7542 -1.6169
 1807SOL     OW17053   0.763   3.748   0.952  0.2105 -0.0168 -0.4501
 1807SOL    HW117054   0.798   3.726   1.039 -2.3584  2.5376  1.2337
 1807SOL    HW217055   0.835   3.802   0.921  0.3245 -0.0164 -0.1888
 1808SOL     OW17056   0.726   0.171   4.536  0.0235  0.2848  0.0081
 1808SOL    HW117057   0.817   0.199   4.549 -0.2947  0.8199  0.9869
 1808SOL    HW217058   0.676   0.251   4.521 -2.2441 -0.5726  3.0949
 1809SOL     OW17059   4.289   1.642   4.823 -0.7604 -0.4127  0.6410
 1809SOL    HW117060   4.208   1.605   4.786  0.1843 -1.1129 -0.7064
 1809SOL    HW217061   4.292   1.716   4.762  2.5562 -0.4335  0.8055
 1810SOL     OW17062   4.241   0.137   5.939 -0.5643 -0.2437  0.0205
 1810SOL    HW117063   4.322   0.087   5.928 -0.6766 -0.3863 -0.1620
 1810SOL    HW217064   4.213   0.127   5.848  1.1026  0.9451 -0.6461
 1811SOL     OW17065   0.589   1.475   8.742  0.3523 -0.2319  0.4053
 1811SOL    HW117066   0.621   1.418   8.671 -0.2794  0.1091 -0.1517
 1811SOL    HW217067   0.628   1.435   8.820 -1.1405 -2.3801  0.0531
 1812SOL     OW17068   2.919   3.276  14.059  0.0200  0.0868  0.4427
 1812SOL    HW117069   3.011   3.274  14.033 -0.6162 -0.9517 -1.7086
 1812SOL    HW217070   2.896   3.365  14.030 -0.3709  0.3738  1.6185
 1813SOL     OW17071   0.131   1.088  14.576 -0.2408  0.3743 -0.4829
 1813SOL    HW117072   0.219   1.121  14.555  0.0575 -0.1055  0.0291
 1813SOL    HW217073   0.098   1.147  14.644  0.3122 -0.7051  0.7218
 1814SOL     OW17074   1.248   0.726   2.315 -0.3304  0.2866  0.1801
 1814SOL    HW117075   1.313   0.795   2.306  2.6762 -2.3533  1.5543
 1814SOL    HW217076   1.166   0.777   2.317 -0.6532 -0.2236 -0.1222
 1815SOL     OW17077   1.758   3.110  15.789  0.1719  0.6963 -0.8055
 1815SOL    HW117078   1.689   3.132  15.852 -0.0938  1.0209 -1.2117
 1815SOL    HW217079   1.820   3.181  15.807 -0.3493  1.5449 -2.4085
 1816SOL     OW17080   1.665   3.024  16.676  0.0135  0.3342 -0.0890
 1816SOL    HW117081   1.612   3.048  16.600 -0.1797  1.0499  0.2705
 1816SOL    HW217082   1.706   2.939  16.659 -1.3201  0.1971 -2.4769
 1817SOL     OW17083   0.803   1.515  11.384 -0.1035 -0.1336  0.7039
 1817SOL    HW117084   0.848   1.431  11.373  1.3322  0.6021  0.9033
 1817SOL    HW217085   0.756   1.520  11.300 -0.1368  1.2008  0.7958
 1818SOL     OW17086   0.219   0.012   6.884  0.6601 -0.1030  0.2676
 1818SOL    HW117087   0.201   4.663   6.922  0.2871 -0.5445 -0.9182
 1818SOL    HW217088   0.278   4.722   6.814 -0.7287 -0.1277 -0.8998
 1819SOL     OW17089   0.700   0.522  12.167  0.5393 -0.4922  0.4443
 1819SOL    HW117090   0.730   0.432  12.160  2.7981  0.2501  0.7819
 1819SOL    HW217091   0.608   0.508  12.143  0.3016  2.4368 -0.4425
 1820SOL     OW17092   0.086   1.657  12.798 -0.0822  0.1198 -0.0358
 1820SOL    HW117093   0.068   1.692  12.710 -1.0962 -0.6285 -0.1232
 1820SOL    HW217094   0.084   1.730  12.860  0.5459  0.0699  0.0495
 1821SOL     OW17095   0.998   2.064  14.685 -0.2421  0.5996 -0.3584
 1821SOL    HW117096   1.036   1.986  14.645  1.6183  1.2829  0.0975
 1821SOL    HW217097   0.924   2.067  14.624  0.2063  1.8007 -0.8358
 1822SOL     OW17098   0.679   4.706   6.296  0.3258  0.4943  0.0298
 1822SOL    HW117099   0.722   4.634   6.342  1.0378  0.6004 -0.4865
 1822SOL    HW217100   0.589   4.680   6.316  1.5783 -2.1903  2.1614
 1823SOL     OW17101   0.579   4.311   7.886  0.1133 -0.5519  0.2419
 1823SOL    HW117102   0.528   4.386   7.917 -0.1896 -0.3312 -0.8051
 1823SOL    HW217103   0.513   4.246   7.862 -0.6901  0.4451 -0.2497
 1824SOL     OW17104   0.456   4.348   5.960  0.2213 -0.3208 -0.0311
 1824SOL    HW117105   0.423   4.386   6.041 -0.0168 -0.4982 -0.0451
 1824SOL    HW217106   0.404   4.267   5.960  1.8071 -1.3269  2.5446
 1825SOL     OW17107   2.521   4.642   7.892 -0.0421 -0.1224  0.1483
 1825SOL    HW117108   2.521   4.611   7.983  0.0664  0.4676  0.3469
 1825SOL    HW217109   2.610   4.626   7.860 -0.7301 -2.3629 -0.6494
 1826SOL     OW17110   0.026   4.207   8.462  0.2798  0.4229 -0.0560
 1826SOL    HW117111   0.066   4.121   8.471 -1.8548 -0.5675  0.1880
 1826SOL    HW217112   4.711   4.217   8.542 -0.9369  0.1147 -0.8089
 1827SOL     OW17113   3.729   0.809   7.059 -0.3647  0.4052  0.0202
 1827SOL    HW117114   3.744   0.840   6.970  1.7319 -3.0130 -0.7836
 1827SOL    HW217115   3.633   0.816   7.066 -0.5922 -1.7160 -0.8689
 1828SOL     OW17116   1.261   1.690   8.665  0.6106 -0.1483 -0.1294
 1828SOL    HW117117   1.281   1.596   8.666  0.6615 -0.1390 -0.3977
 1828SOL    HW217118   1.299   1.720   8.748 -0.3982 -1.9076  0.9798
 1829SOL     OW17119   1.318   2.712   5.588  0.1170  0.1313  0.6240
 1829SOL    HW117120   1.316   2.792   5.535 -0.0616 -0.2570  0.0494
 1829SOL    HW217121   1.407   2.684   5.569 -0.8625 -2.3627 -0.2355
 1830SOL     OW17122   3.421   3.104   5.989  0.1739  0.2381 -0.2994
 1830SOL    HW117123   3.409   3.174   6.053 -0.0258  1.0167 -1.1807
 1830SOL    HW217124   3.517   3.100   5.986  0.1774  1.5434 -2.6445
 1831SOL     OW17125   3.844   4.599  13.747  0.0849  0.2406 -0.0881
 1831SOL    HW117126   3.749   4.588  13.734 -0.0082 -0.4431  1.2442
 1831SOL    HW217127   3.847   4.690  13.717  1.8069  0.0013 -0.6023
 1832SOL     OW17128   2.820   3.174  12.486  0.0074 -0.3081 -0.4828
 1832SOL    HW117129   2.874   3.098  12.466  0.5689 -0.0055 -0.0955
 1832SOL    HW217130   2.791   3.156  12.576 -1.2322 -2.1876 -1.2439
 1833SOL     OW17131   1.995   4.002   2.430  0.7733 -0.3527  0.3874
 1833SOL    HW117132   2.056   3.944   2.476  1.9133 -0.1996 -0.9225
 1833SOL    HW217133   1.924   3.938   2.419  0.3621 -0.0524  1.2774
 1834SOL     OW17134   4.318   0.286   5.371  0.1428  0.0038  0.2844
 1834SOL    HW117135   4.363   0.250   5.295  1.7517  1.6339  0.4724
 1834SOL    HW217136   4.278   0.209   5.410 -0.3243  0.0443 -0.1083
 1835SOL     OW17137   2.853   2.679  11.724 -0.0602 -0.7875 -0.1584
 1835SOL    HW117138   2.850   2.691  11.629  1.9934 -4.6443 -0.7012
 1835SOL    HW217139   2.762   2.661  11.748 -0.8682  1.0898 -1.7945
 1836SOL     OW17140   4.173   1.030   8.477 -0.2014  0.3196  0.2687
 1836SOL    HW117141   4.243   1.089   8.506 -0.9669  0.9693  0.7977
 1836SOL    HW217142   4.200   0.947   8.516  0.4024  0.6852  0.6162
 1837SOL     OW17143   2.119   0.258   7.603 -0.1092  0.3388  0.3742
 1837SOL    HW117144   2.122   0.294   7.514 -2.8972 -0.5544 -0.1012
 1837SOL    HW217145   2.035   0.217   7.579  1.0251 -2.3336  0.9539
 1838SOL     OW17146   4.565   1.083   3.776 -0.0707 -0.1181  0.1139
 1838SOL    HW117147   4.596   1.018   3.713  1.3966  0.2239  0.4678
 1838SOL    HW217148   4.494   1.118   3.723  1.1787 -0.8081 -2.0259
 1839SOL     OW17149   3.966   3.743   8.817 -0.1974  0.0320  0.0810
 1839SOL    HW117150   3.975   3.787   8.902 -1.2721  1.0741 -0.3515
 1839SOL    HW217151   3.923   3.816   8.773 -3.3396 -1.1078  1.2625
 1840SOL     OW17152   2.427   4.232   6.093  0.5744  0.5164  0.0353
 1840SOL    HW117153   2.418   4.315   6.046 -1.0265 -0.6968 -1.8128
 1840SOL    HW217154   2.502   4.193   6.047  0.5949  2.4485 -1.5763
 1841SOL     OW17155   1.417   2.672  13.943 -0.5971 -0.3906  0.3595
 1841SOL    HW117156   1.354   2.657  13.873  0.9910  0.3812 -1.2629
 1841SOL    HW217157   1.370   2.671  14.026 -1.3548 -1.2020 -0.0822
 1842SOL     OW17158   0.600   3.890   0.754  0.2135  0.1722  0.1066
 1842SOL    HW117159   0.658   3.874   0.679  0.0831  0.0631  0.0294
 1842SOL    HW217160   0.643   3.840   0.824 -0.4146  1.0684  1.1271
 1843SOL     OW17161   3.126   2.771  15.925 -0.0373 -0.2971 -0.0273
 1843SOL    HW117162   3.126   2.835  15.853  1.2172 -1.3634 -0.9692
 1843SOL    HW217163   3.035   2.743  15.919 -0.3871  0.8557 -0.1674
 1844SOL     OW17164   0.147   3.954   6.790 -0.4985  0.0643  0.1400
 1844SOL    HW117165   0.200   3.888   6.744  1.3348  2.4045 -1.0766
 1844SOL    HW217166   0.206   3.993   6.854 -1.0688  0.0241  0.6863
 1845SOL     OW17167   0.898   4.350   1.537  0.0550 -0.2894 -0.4169
 1845SOL    HW117168   0.959   4.312   1.474  0.0025 -0.3119 -0.4536
 1845SOL    HW217169   0.963   4.380   1.602 -0.1415  0.8435 -0.7333
 1846SOL     OW17170   2.006   0.315   9.779 -0.0169 -0.6958  0.6823
 1846SOL    HW117171   1.959   0.331   9.697  4.4440  3.5214 -1.0368
 1846SOL    HW217172   2.032   0.404   9.802 -1.7685  0.0869 -0.3086
 1847SOL     OW17173   0.084   4.698   1.968 -0.2342 -0.4574  0.8606
 1847SOL    HW117174   0.088   0.022   2.042  0.6188  2.3000 -1.4681
 1847SOL    HW217175   0.072   4.620   2.022  0.4965 -0.7593  0.5829
 1848SOL     OW17176   2.169   0.027   6.611 -0.3614 -0.3125 -0.2958
 1848SOL    HW117177   2.252   4.722   6.592 -0.4699 -0.1888 -1.0522
 1848SOL    HW217178   2.133   0.070   6.533  2.4198 -0.4492 -1.6333
 1849SOL     OW17179   1.159   1.442   3.880  0.1583 -0.4962  0.2045
 1849SOL    HW117180   1.132   1.482   3.798  1.6507  2.2471  1.0315
 1849SOL    HW217181   1.127   1.353   3.873  1.7293 -1.0844  0.5096
 1850SOL     OW17182   3.853   1.978   5.322 -0.1954  0.0414  0.1404
 1850SOL    HW117183   3.870   1.885   5.336 -1.3431 -0.7822 -3.9880
 1850SOL    HW217184   3.771   1.982   5.372  0.2219 -1.0699  0.9152
 1851SOL     OW17185   4.191   1.775   6.639  0.1396 -0.2880  0.0090
 1851SOL    HW117186   4.234   1.727   6.568 -0.3411 -0.9706  0.1905
 1851SOL    HW217187   4.206   1.867   6.614  0.7077 -0.2729  0.3993
 1852SOL     OW17188   1.180   0.436   7.361  0.1627 -0.2316  0.0559
 1852SOL    HW117189   1.183   0.508   7.423  0.7286 -2.4982  2.6328
 1852SOL    HW217190   1.214   0.367   7.418 -1.3054  0.5093  1.7930
 1853SOL     OW17191   2.297   0.099   7.899 -0.6228 -0.2923 -0.1154
 1853SOL    HW117192   2.374   0.042   7.906  0.8303  1.7105  0.0331
 1853SOL    HW217193   2.330   0.177   7.855 -0.2418 -1.6265 -2.1827
 1854SOL     OW17194   4.367   4.691   2.039  0.6360 -0.0828  0.1090
 1854SOL    HW117195   4.394   4.618   2.095 -0.8894 -0.0669  0.8557
 1854SOL    HW217196   4.272   4.687   2.041  0.6622 -2.9252 -4.2247
 1855SOL     OW17197   3.100   0.001  15.951  0.0240 -0.9804  0.0193
 1855SOL    HW117198   3.014   0.042  15.952  0.0346 -0.9462 -0.9933
 1855SOL    HW217199   3.102   4.700  16.039  1.9699  0.6790  0.7021
 1856SOL     OW17200   1.399   3.367   2.210  0.1960  0.1867 -0.0379
 1856SOL    HW117201   1.440   3.365   2.297  1.5098 -0.4437 -0.6672
 1856SOL    HW217202   1.466   3.414   2.159  1.2919  0.4933  1.6773
 1857SOL     OW17203   1.806   1.467  15.869 -0.1793 -0.0482  0.6853
 1857SOL    HW117204   1.899   1.448  15.869 -0.2216 -0.2594  0.7462
 1857SOL    HW217205   1.783   1.398  15.807  0.1680 -1.7848  2.4552
 1858SOL     OW17206   0.988   0.998   9.507  0.1172  0.3430  0.5404
 1858SOL    HW117207   0.931   0.922   9.524  1.4691 -1.6742 -3.8063
 1858SOL    HW217208   1.074   0.957   9.507 -0.6069 -1.1898  1.6979
 1859SOL     OW17209   0.614   3.485   5.683  0.0513 -0.0297  0.2222
 1859SOL    HW117210   0.627   3.399   5.642 -3.4343 -0.4198 -0.1095
 1859SOL    HW217211   0.676   3.542   5.639 -1.8417  1.8248 -0.0635
 1860SOL     OW17212   4.598   4.306   1.953 -0.4664  0.2531 -0.2733
 1860SOL    HW117213   4.665   4.289   1.887 -2.4419 -0.7876 -2.0063
 1860SOL    HW217214   4.658   4.357   2.007  0.9625 -2.1080  0.4155
 1861SOL     OW17215   1.444   3.336   6.650  0.2137  0.1011  0.1069
 1861SOL    HW117216   1.476   3.396   6.717  1.5317  0.0237 -0.4375
 1861SOL    HW217217   1.528   3.310   6.611  0.0852 -2.1755  1.3383
 1862SOL     OW17218   4.134   1.652  10.944  0.1958 -0.1829 -0.4961
 1862SOL    HW117219   4.140   1.591  10.871 -0.2948  0.6871 -1.2752
 1862SOL    HW217220   4.211   1.630  10.997  0.2136 -0.0358 -0.4605
 1863SOL     OW17221   3.106   0.523   3.471  0.3519 -0.0641 -0.2080
 1863SOL    HW117222   3.190   0.569   3.470  0.9819 -1.2003  0.5667
 1863SOL    HW217223   3.077   0.533   3.380 -0.7129 -0.7587  0.0614
 1864SOL     OW17224   2.755   1.357   0.885 -0.6576  0.1212  0.1377
 1864SOL    HW117225   2.708   1.355   0.968 -3.8822 -0.6295 -1.6932
 1864SOL    HW217226   2.796   1.443   0.891 -0.1254 -0.2122  1.1318
 1865SOL     OW17227   4.237   2.218   0.492  0.3884 -0.4318 -0.0925
 1865SOL    HW117228   4.236   2.200   0.586 -0.7428  2.0016  0.3661
 1865SOL    HW217229   4.188   2.300   0.495  0.3158 -0.5070  0.8625
 1866SOL     OW17230   3.775   3.775   1.887  0.0674 -0.1885 -0.1377
 1866SOL    HW117231   3.713   3.827   1.938 -0.9997 -1.1617 -0.4402
 1866SOL    HW217232   3.727   3.693   1.880 -0.4001 -0.2603  4.0427
 1867SOL     OW17233   0.200   4.401   3.960 -0.6919  0.4191 -0.1352
 1867SOL    HW117234   0.195   4.404   4.055  0.9467 -0.6911 -0.0117
 1867SOL    HW217235   0.181   4.491   3.936 -0.7578  0.9396  1.8845
 1868SOL     OW17236   4.227   2.376   1.024 -0.5431 -0.0517 -0.0075
 1868SOL    HW117237   4.139   2.339   1.014 -0.4659 -0.6667  1.6695
 1868SOL    HW217238   4.225   2.435   0.948 -1.2137  0.1209  0.1459
 1869SOL     OW17239   0.867   2.303  13.541 -0.3821  0.0599  0.1497
 1869SOL    HW117240   0.812   2.253  13.482  1.7975 -0.0219 -1.8188
 1869SOL    HW217241   0.844   2.270  13.628  0.8053 -1.0951  0.0246
 1870SOL     OW17242   4.606   1.291   0.908 -0.2237  0.0739  0.1992
 1870SOL    HW117243   4.638   1.203   0.928  2.1856  1.0516  0.6332
 1870SOL    HW217244   4.653   1.338   0.977  1.0778  0.0272 -0.6560
 1871SOL     OW17245   2.889   1.552   6.001  0.4014 -0.3013  0.4206
 1871SOL    HW117246   2.974   1.533   6.042  1.1159  0.5599 -0.6634
 1871SOL    HW217247   2.850   1.620   6.056 -1.6715 -0.3938 -0.9410
 1872SOL     OW17248   2.802   3.962   2.362  0.2368  0.0791 -0.6817
 1872SOL    HW117249   2.741   4.036   2.358 -2.0635 -1.8166 -0.0129
 1872SOL    HW217250   2.765   3.916   2.286 -0.0789  0.3185 -0.6746
 1873SOL     OW17251   3.756   3.385  13.589 -0.1052 -0.0021 -0.6229
 1873SOL    HW117252   3.812   3.326  13.540  0.7296 -0.0162  0.3454
 1873SOL    HW217253   3.720   3.420  13.508 -0.3588  0.6996 -0.2133
 1874SOL     OW17254   0.967   0.055  12.584 -0.3534  0.2711  0.4792
 1874SOL    HW117255   1.047   0.086  12.542 -0.6298  1.3806  0.7746
 1874SOL    HW217256   0.991   4.710  12.627 -0.9891  0.1845  0.6660
 1875SOL     OW17257   3.022   4.496   3.525 -0.6224 -0.0399 -0.8167
 1875SOL    HW117258   3.073   4.438   3.468  0.1051 -0.5728  0.3761
 1875SOL    HW217259   3.041   4.580   3.485 -1.5804  0.6626  0.2144
 1876SOL     OW17260   3.435   2.801  11.971  0.0513 -0.4318  1.0316
 1876SOL    HW117261   3.395   2.878  11.929  2.6659 -0.3834 -1.3392
 1876SOL    HW217262   3.354   2.764  12.006  0.9761 -1.6000  1.9163
 1877SOL     OW17263   3.930   0.897   2.192  0.0801 -0.4342 -0.0740
 1877SOL    HW117264   4.009   0.943   2.220  0.7481 -2.0751  0.6967
 1877SOL    HW217265   3.921   0.931   2.102 -1.1171 -1.0013 -0.1685
 1878SOL     OW17266   3.780   0.116  12.368  0.5240  0.6902  0.0879
 1878SOL    HW117267   3.792   0.211  12.364 -1.0242  0.9818  2.9247
 1878SOL    HW217268   3.711   0.102  12.433 -0.0644 -0.8106 -0.8444
 1879SOL     OW17269   3.521   1.736   1.831  0.2502  0.1596 -0.1315
 1879SOL    HW117270   3.477   1.812   1.791 -2.5123 -1.9806 -1.1458
 1879SOL    HW217271   3.504   1.764   1.921  0.0326  0.3921 -0.2414
 1880SOL     OW17272   0.431   3.993  10.378  0.7159  0.4159  0.0525
 1880SOL    HW117273   0.484   3.930  10.428  0.9369 -0.7963 -1.7139
 1880SOL    HW217274   0.499   4.052  10.345 -0.2189 -0.1092 -2.8166
 1881SOL     OW17275   0.807   4.490  12.150 -0.0546  0.5015 -0.8623
 1881SOL    HW117276   0.840   4.487  12.239  0.8283  2.4936 -1.1183
 1881SOL    HW217277   0.866   4.442  12.092 -0.1497 -0.9114  0.2060
 1882SOL     OW17278   4.645   1.794   2.353  0.3501  0.0384 -0.0712
 1882SOL    HW117279   4.629   1.888   2.358 -2.9555 -0.5767  1.4957
 1882SOL    HW217280   4.690   1.771   2.434 -1.9143 -0.9168  0.9357
 1883SOL     OW17281   2.048   3.609   7.967 -0.1928  0.0250  0.1134
 1883SOL    HW117282   2.113   3.676   7.944  1.5641 -2.7997 -2.9977
 1883SOL    HW217283   2.003   3.599   7.883 -0.0038  0.7702 -0.0781
 1884SOL     OW17284   2.227   1.064   9.113 -0.4620  0.2999  0.1981
 1884SOL    HW117285   2.226   1.045   9.019  1.8794 -0.1979  0.2683
 1884SOL    HW217286   2.145   1.109   9.134 -0.7353  0.8242 -1.9921
 1885SOL     OW17287   2.042   0.926  13.435  0.3260  1.2698 -0.3511
 1885SOL    HW117288   2.004   0.891  13.355  0.1490  1.6906 -0.4531
 1885SOL    HW217289   1.970   0.981  13.465 -1.0938  1.2944 -3.8648
 1886SOL     OW17290   4.735   1.247   1.542  0.3543  0.2770  0.4290
 1886SOL    HW117291   4.719   1.154   1.552 -0.7101  0.6803  2.4679
 1886SOL    HW217292   0.019   1.249   1.448  1.5726 -0.5723  0.6905
 1887SOL     OW17293   2.975   2.939   9.672 -0.0930 -0.5901  0.7935
 1887SOL    HW117294   2.957   2.877   9.742 -1.7162  0.3382  1.2002
 1887SOL    HW217295   3.069   2.921   9.669  0.2656  1.4503 -0.5907
 1888SOL     OW17296   3.590   3.832  12.783 -0.3426  0.1221 -0.2197
 1888SOL    HW117297   3.597   3.747  12.738  0.0599  0.7374 -1.3135
 1888SOL    HW217298   3.671   3.827  12.834  0.3630  0.2904 -1.3200
 1889SOL     OW17299   3.615   2.963   3.443 -0.6605  0.0580  0.2469
 1889SOL    HW117300   3.572   3.031   3.494  0.6122  1.8508 -1.0546
 1889SOL    HW217301   3.707   2.981   3.462  0.0436 -2.1281 -0.9940
 1890SOL     OW17302   1.743   0.765   4.038 -1.0526  0.0803 -0.4855
 1890SOL    HW117303   1.798   0.813   3.977  1.0222 -0.6157  0.8203
 1890SOL    HW217304   1.747   0.672   4.014  0.6688 -0.0131  0.1783
 1891SOL     OW17305   3.579   1.760   8.846 -0.0209 -0.0926 -0.2897
 1891SOL    HW117306   3.626   1.730   8.923 -1.2620 -0.3173  0.3820
 1891SOL    HW217307   3.570   1.854   8.865 -0.2126  0.0268 -0.9536
 1892SOL     OW17308   0.814   4.286  17.631 -0.2297  0.5387 -0.5333
 1892SOL    HW117309   0.886   4.322  17.579  0.2134 -2.8373 -2.2536
 1892SOL    HW217310   0.838   4.193  17.630  3.4907  1.4345  2.5209
 1893SOL     OW17311   0.913   2.147   1.590 -0.1759  0.7277  0.2483
 1893SOL    HW117312   0.990   2.148   1.647 -1.2972 -1.4324  1.8246
 1893SOL    HW217313   0.930   2.065   1.544  0.2067  0.5405  0.7233
 1894SOL     OW17314   4.716   0.918   6.605 -0.4588  0.0932 -0.2144
 1894SOL    HW117315   0.061   0.868   6.607 -1.0648 -0.8390  1.1314
 1894SOL    HW217316   4.650   0.849   6.609  0.1087 -0.2992  2.4775
 1895SOL     OW17317   2.786   0.581   8.225 -0.0769  0.1476 -0.1654
 1895SOL    HW117318   2.738   0.511   8.180  0.4639 -2.0193  2.5861
 1895SOL    HW217319   2.867   0.586   8.176 -0.5090  0.8928 -0.7944
 1896SOL     OW17320   0.675   3.214  15.440 -0.1046  0.2935 -0.6783
 1896SOL    HW117321   0.754   3.260  15.470  0.0512  0.7507 -1.7905
 1896SOL    HW217322   0.676   3.131  15.487 -1.7623  1.2063  0.9552
 1897SOL     OW17323   2.515   2.337  17.379  0.0081  0.2708 -0.1879
 1897SOL    HW117324   2.433   2.360  17.423 -1.0494 -2.5173 -0.6739
 1897SOL    HW217325   2.587   2.399  17.392 -0.4032  0.6576  0.2890
 1898SOL     OW17326   3.859   3.506   3.268  0.3833 -0.3615  0.3741
 1898SOL    HW117327   3.787   3.537   3.212  1.9966  2.6303 -0.0602
 1898SOL    HW217328   3.848   3.411   3.271 -0.8992 -0.2036  1.2978
 1899SOL     OW17329   2.268   3.259   6.108 -0.4623  0.4963 -0.1429
 1899SOL    HW117330   2.294   3.221   6.024  0.8811  0.5201  0.2668
 1899SOL    HW217331   2.329   3.332   6.114  0.2046 -0.0692 -0.1571
 1900SOL     OW17332   1.797   0.354  10.396 -0.4728  0.5970 -0.5448
 1900SOL    HW117333   1.764   0.265  10.408  0.2582 -0.0499 -3.4197
 1900SOL    HW217334   1.855   0.361  10.471 -0.3037 -0.1202 -0.6085
 1901SOL     OW17335   0.709   1.025   3.247  0.3043 -0.2312 -0.9381
 1901SOL    HW117336   0.675   1.048   3.333  0.7874 -1.9932 -0.2606
 1901SOL    HW217337   0.761   1.104   3.231 -0.9058  0.5990 -0.7239
 1902SOL     OW17338   3.274   3.070  14.603 -0.5540  0.3100  0.4492
 1902SOL    HW117339   3.367   3.067  14.579 -0.5695 -0.3248  0.4472
 1902SOL    HW217340   3.271   3.072  14.699 -0.2855  0.1547  0.4618
 1903SOL     OW17341   0.595   0.814  11.575 -0.2910  0.2168  0.1706
 1903SOL    HW117342   0.680   0.790  11.539 -0.9644 -1.1136 -0.5259
 1903SOL    HW217343   0.613   0.878  11.644  0.0360 -1.8527  2.0049
 1904SOL     OW17344   2.506   1.533   3.660 -0.2114  0.3881  0.2302
 1904SOL    HW117345   2.425   1.561   3.618  0.7523 -0.1698 -1.9781
 1904SOL    HW217346   2.466   1.503   3.742 -1.7366  2.8500  0.4063
 1905SOL     OW17347   1.811   2.701   5.640 -0.4082  0.0018  0.1521
 1905SOL    HW117348   1.779   2.730   5.725 -1.0193  0.1562 -0.1330
 1905SOL    HW217349   1.901   2.718   5.669 -0.0596 -0.6245 -0.5516
 1906SOL     OW17350   0.625   1.001   7.109 -0.3287  0.0818 -0.6391
 1906SOL    HW117351   0.612   0.920   7.159 -2.4536  0.4221 -0.6692
 1906SOL    HW217352   0.546   1.049   7.131 -0.2904 -0.7279  1.2759
 1907SOL     OW17353   4.121   2.333  12.647  0.2149  0.2940  0.0555
 1907SOL    HW117354   4.114   2.240  12.623  0.3657  0.8823 -2.2567
 1907SOL    HW217355   4.201   2.327  12.698  0.6392 -2.0346 -0.8742
 1908SOL     OW17356   1.683   1.631   0.998 -0.1328  0.1914 -0.0859
 1908SOL    HW117357   1.711   1.601   1.085 -0.1545  0.4736  0.0192
 1908SOL    HW217358   1.662   1.547   0.957  0.7802  0.2220 -0.6066
 1909SOL     OW17359   1.393   3.342  15.798  0.2312  0.4599 -0.3538
 1909SOL    HW117360   1.476   3.378  15.829  0.2296 -0.8708  1.2185
 1909SOL    HW217361   1.372   3.306  15.885 -1.2774 -1.2766 -1.4334
 1910SOL     OW17362   3.048   3.228   9.504  0.1380 -0.3339 -0.6473
 1910SOL    HW117363   3.041   3.244   9.598  0.3285 -1.5547 -0.4296
 1910SOL    HW217364   2.994   3.299   9.467 -0.1728  0.1178  0.6771
 1911SOL     OW17365   3.398   0.937   3.344  0.1470 -0.1239 -0.4789
 1911SOL    HW117366   3.398   0.941   3.249 -1.7496  1.6143 -0.4002
 1911SOL    HW217367   3.356   1.020   3.367 -0.2053 -0.3849 -0.1848
 1912SOL     OW17368   3.327   2.877  11.646 -0.0937  0.0983  0.2728
 1912SOL    HW117369   3.357   2.947  11.705 -1.9421  0.7623  0.4260
 1912SOL    HW217370   3.239   2.855  11.677 -0.0608  0.8128  0.8644
 1913SOL     OW17371   0.104   3.715   3.804  0.0621  0.3104 -0.1141
 1913SOL    HW117372   0.028   3.698   3.861  0.5451  0.3314  0.5333
 1913SOL    HW217373   0.126   3.622   3.799 -1.2813  0.1123 -2.2203
 1914SOL     OW17374   0.131   1.639   4.275 -0.4756 -0.1162  0.0650
 1914SOL    HW117375   0.085   1.586   4.210 -2.3315  1.8931 -0.2671
 1914SOL    HW217376   0.059   1.687   4.317 -1.0511  0.4696 -1.5771
 1915SOL     OW17377   2.261   3.045   8.674  0.4530 -0.0566 -0.1096
 1915SOL    HW117378   2.273   3.097   8.753  0.3586  0.2252 -0.2802
 1915SOL    HW217379   2.258   3.110   8.603 -2.0819 -0.7284 -0.6224
 1916SOL     OW17380   4.669   0.170   4.103  0.4535  0.1157 -0.2109
 1916SOL    HW117381   4.714   0.255   4.092  0.3657  0.2361  0.3713
 1916SOL    HW217382   4.588   0.179   4.054 -0.9611  2.0384  2.4616
 1917SOL     OW17383   1.835   0.740   9.220 -0.0594 -0.5414  0.2033
 1917SOL    HW117384   1.876   0.774   9.140 -0.7381 -0.8582 -0.2805
 1917SOL    HW217385   1.785   0.671   9.176 -1.2928 -0.3728  1.3229
 1918SOL     OW17386   2.922   0.807   5.506 -0.0086  0.4917  0.1392
 1918SOL    HW117387   2.914   0.901   5.491  0.1136  0.5540  0.4690
 1918SOL    HW217388   2.921   0.807   5.602 -1.0961 -0.8205  0.1318
 1919SOL     OW17389   4.231   2.627  13.699  0.0587  0.6011 -0.1276
 1919SOL    HW117390   4.146   2.592  13.673 -0.1650 -0.8009  2.4875
 1919SOL    HW217391   4.269   2.651  13.614  2.9679 -1.0816  0.7099
 1920SOL     OW17392   1.470   3.134   2.981 -0.3322  0.6716  0.0116
 1920SOL    HW117393   1.449   3.092   3.064 -0.8283  0.6889 -0.0989
 1920SOL    HW217394   1.381   3.168   2.969 -0.6431 -0.2180 -0.1900
 1921SOL     OW17395   2.916   3.021   2.392  0.4682  0.0989 -0.2727
 1921SOL    HW117396   2.986   3.044   2.453  0.1194  1.4014 -0.3779
 1921SOL    HW217397   2.939   3.069   2.313  0.9055  1.5994  0.7759
 1922SOL     OW17398   1.280   1.714   2.799 -0.1128  0.0272  0.5632
 1922SOL    HW117399   1.269   1.688   2.707  0.5964 -2.1679  1.1223
 1922SOL    HW217400   1.374   1.732   2.803  0.2189 -1.5883 -0.0008
 1923SOL     OW17401   1.948   2.183   1.297 -0.6613  0.3273 -0.6193
 1923SOL    HW117402   1.914   2.103   1.258  0.9103  0.1576 -1.6261
 1923SOL    HW217403   1.944   2.241   1.220  1.2957  0.3675 -0.6921
 1924SOL     OW17404   2.389   4.411   5.904  0.4373 -0.1878 -0.7076
 1924SOL    HW117405   2.324   4.482   5.904 -0.4909 -1.0374 -1.1739
 1924SOL    HW217406   2.471   4.456   5.886  1.1956 -0.9097  0.9856
 1925SOL     OW17407   4.662   3.453  16.210  0.1538 -0.0945  0.0840
 1925SOL    HW117408   0.005   3.498  16.235 -1.6732  2.7429  0.7578
 1925SOL    HW217409   4.672   3.447  16.115  1.1832  1.3337  0.1041
 1926SOL     OW17410   0.151   2.943   5.417  0.3602  0.5706  0.3780
 1926SOL    HW117411   0.238   2.930   5.454 -0.6160 -1.3172  2.0800
 1926SOL    HW217412   0.097   2.931   5.496  1.2666 -1.3310  0.7185
 1927SOL     OW17413   0.759   1.419   3.793  0.2773 -0.5411  0.1978
 1927SOL    HW117414   0.719   1.497   3.754  0.7208  0.5042  1.8257
 1927SOL    HW217415   0.799   1.375   3.718  0.5560 -0.4382  0.2855
 1928SOL     OW17416   2.496   0.799  11.812  0.6070 -0.1738  0.1435
 1928SOL    HW117417   2.550   0.763  11.882  0.5898 -3.3624 -1.4775
 1928SOL    HW217418   2.571   0.827  11.759  1.1458 -2.1450 -0.1211
 1929SOL     OW17419   2.501   4.404   6.323 -0.4448  0.9585 -0.5479
 1929SOL    HW117420   2.516   4.331   6.263  0.3760  0.5277  0.1829
 1929SOL    HW217421   2.590   4.439   6.322  0.3208 -0.9770 -0.0622
 1930SOL     OW17422   4.561   1.322   8.755 -0.6626 -0.2892  0.1648
 1930SOL    HW117423   4.636   1.361   8.709 -2.3054  0.8444 -1.5744
 1930SOL    HW217424   4.507   1.398   8.775  1.3328  0.8583  1.2376
 1931SOL     OW17425   0.270   2.860   8.996 -0.5016  0.2996 -0.3153
 1931SOL    HW117426   0.196   2.856   9.056 -1.0346 -1.4873 -1.1007
 1931SOL    HW217427   0.234   2.905   8.920  0.2758  0.9159 -0.3232
 1932SOL     OW17428   3.048   2.675   1.814 -0.4888  0.5192  1.2113
 1932SOL    HW117429   3.014   2.592   1.848  1.5874 -0.5367  0.7046
 1932SOL    HW217430   3.128   2.646   1.771  0.4701  3.6885  0.8761
 1933SOL     OW17431   4.561   1.860   0.194 -0.0992 -0.0290  0.3617
 1933SOL    HW117432   4.562   1.790   0.129  2.0039 -1.5600  2.0837
 1933SOL    HW217433   4.467   1.879   0.194 -0.0921  0.1783 -4.3901
 1934SOL     OW17434   0.266   4.143   8.070  0.3226 -0.5642 -0.2213
 1934SOL    HW117435   0.327   4.091   8.122  0.2140  0.7525  1.2223
 1934SOL    HW217436   0.182   4.112   8.103 -0.5356  0.7574 -1.1739
 1935SOL     OW17437   1.517   3.121   6.359 -0.4095  0.5358  0.1815
 1935SOL    HW117438   1.504   3.095   6.450 -0.2539 -2.0935 -0.5528
 1935SOL    HW217439   1.601   3.167   6.360  0.2138 -0.5804 -0.5396
 1936SOL     OW17440   0.290   0.217   2.276  0.2258  0.0951 -0.1709
 1936SOL    HW117441   0.310   0.223   2.369  1.4671  1.4978 -0.5305
 1936SOL    HW217442   0.216   0.278   2.279  0.2629 -0.0847  3.9252
 1937SOL     OW17443   1.595   4.039   6.175  0.6864 -0.1513 -0.0700
 1937SOL    HW117444   1.611   4.086   6.257 -2.1253  2.3735 -0.9612
 1937SOL    HW217445   1.506   4.019   6.204  0.4162  0.8682 -0.1631
 1938SOL     OW17446   0.386   1.893   9.308  0.3810  0.3719  0.5640
 1938SOL    HW117447   0.435   1.964   9.266  0.4729  0.4158  0.7491
 1938SOL    HW217448   0.370   1.927   9.396  0.0027 -1.4270  1.1843
 1939SOL     OW17449   0.891   2.586   2.431 -0.0064  0.0834 -0.5183
 1939SOL    HW117450   0.978   2.597   2.469 -0.5481  1.1422  0.4152
 1939SOL    HW217451   0.888   2.671   2.387  0.2119 -0.4105 -1.4714
 1940SOL     OW17452   1.570   4.602   4.820  0.7462 -0.0110  0.5052
 1940SOL    HW117453   1.642   4.570   4.766 -0.7787  0.4782 -1.8166
 1940SOL    HW217454   1.537   4.519   4.854 -0.3020 -0.0187 -0.5440
 1941SOL     OW17455   4.614   3.044   8.082  0.5124 -0.7985 -0.0647
 1941SOL    HW117456   4.621   2.993   8.001  1.6248 -0.7813  0.0223
 1941SOL    HW217457   4.546   2.997   8.130  1.3600  0.7005  2.5982
 1942SOL     OW17458   4.049   4.597   3.908  0.1181  0.1120  0.4991
 1942SOL    HW117459   4.051   4.590   3.812 -0.1700  1.1470  0.4106
 1942SOL    HW217460   4.112   4.533   3.941 -0.0689 -0.1421  0.3668
 1943SOL     OW17461   1.163   2.727   4.978 -0.4450  0.6501  0.3195
 1943SOL    HW117462   1.239   2.681   4.942  1.0700  2.4899  1.1405
 1943SOL    HW217463   1.103   2.721   4.904 -0.6939 -2.4337  0.7528
 1944SOL     OW17464   2.831   1.871   5.560 -0.1231 -0.2343  0.4651
 1944SOL    HW117465   2.830   1.962   5.529  0.3919 -0.3868 -0.0046
 1944SOL    HW217466   2.854   1.884   5.652  1.7034 -0.7990  0.0991
 1945SOL     OW17467   0.570   0.211  16.186  0.4142 -0.2360  0.4063
 1945SOL    HW117468   0.629   0.207  16.112  0.2240  2.4406  0.1403
 1945SOL    HW217469   0.600   0.285  16.238 -1.1443 -0.4902  1.6952
 1946SOL     OW17470   1.114   1.369   5.753  0.1071  0.1583 -0.3185
 1946SOL    HW117471   1.170   1.346   5.827 -0.3709 -0.4185 -0.1321
 1946SOL    HW217472   1.141   1.293   5.702  2.2107 -1.8897  3.8271
 1947SOL     OW17473   4.666   4.509   6.682  0.7299 -0.3482 -0.3433
 1947SOL    HW117474   4.730   4.469   6.623  0.0654 -4.3975  1.7057
 1947SOL    HW217475   4.589   4.457   6.658  0.9037 -1.3198  1.2466
 1948SOL     OW17476   4.493   3.423   3.911  0.2869  0.2046  0.1047
 1948SOL    HW117477   4.518   3.358   3.845  0.4158  1.8168 -1.4234
 1948SOL    HW217478   4.464   3.368   3.984 -0.0750  1.4845  0.9199
 1949SOL     OW17479   2.790   0.094  16.212 -0.1422 -0.5763  0.1844
 1949SOL    HW117480   2.825   0.114  16.125 -1.8655 -0.6783 -0.5514
 1949SOL    HW217481   2.868   0.092  16.266 -0.1792  0.9415  0.2981
 1950SOL     OW17482   3.357   3.815  16.637 -0.8408 -0.1917  0.1221
 1950SOL    HW117483   3.333   3.728  16.669 -0.7988 -0.6031 -0.9552
 1950SOL    HW217484   3.317   3.812  16.550 -0.1570 -2.0003 -0.1124
 1951SOL     OW17485   1.787   3.060   8.004 -0.0412 -0.7302 -0.5218
 1951SOL    HW117486   1.843   3.138   8.006 -1.9334  0.6069  0.3831
 1951SOL    HW217487   1.845   2.998   7.960  1.2395  0.5386 -0.6144
 1952SOL     OW17488   3.150   1.938   5.428 -0.3482  0.0271 -0.0065
 1952SOL    HW117489   3.126   2.014   5.375  2.2342  1.2154  0.5529
 1952SOL    HW217490   3.232   1.913   5.386 -1.6430  0.4281 -2.8101
 1953SOL     OW17491   1.457   0.261  15.791 -0.6745  0.6439  0.7722
 1953SOL    HW117492   1.515   0.315  15.736 -0.2120 -0.9966 -0.3275
 1953SOL    HW217493   1.515   0.190  15.819 -2.2135 -0.9292 -0.1011
 1954SOL     OW17494   1.703   0.750  17.262  0.5229  0.6323  0.3249
 1954SOL    HW117495   1.702   0.810  17.337 -1.2476  1.4017 -0.3300
 1954SOL    HW217496   1.796   0.746  17.238  0.4951 -0.1036  0.3618
 1955SOL     OW17497   0.161   1.610   2.003  0.2359 -0.0180 -0.3535
 1955SOL    HW117498   0.168   1.588   2.096 -3.2621  0.3341 -0.0077
 1955SOL    HW217499   0.203   1.535   1.962  1.4982  0.7259 -0.4133
 1956SOL     OW17500   1.206   4.490   6.053  0.2966  0.0510 -0.2261
 1956SOL    HW117501   1.221   4.561   5.990  0.9497 -0.3092 -0.4727
 1956SOL    HW217502   1.258   4.421   6.012 -0.7312  0.1489 -1.7210
 1957SOL     OW17503   0.441   3.713   6.012  0.4849  0.2498 -0.0649
 1957SOL    HW117504   0.414   3.790   6.063 -3.5109 -0.7613 -0.6039
 1957SOL    HW217505   0.495   3.657   6.066  1.1676  0.9332 -0.0467
 1958SOL     OW17506   1.281   3.121   2.192 -0.0075 -0.4983 -0.0190
 1958SOL    HW117507   1.258   3.132   2.100  1.7825 -0.2029 -0.4377
 1958SOL    HW217508   1.313   3.209   2.212 -0.7384  0.4936 -3.1670
 1959SOL     OW17509   0.940   1.828  12.445 -0.3133  0.4248  0.3690
 1959SOL    HW117510   0.929   1.923  12.450  1.8685  0.6087  1.6358
 1959SOL    HW217511   0.997   1.816  12.521 -0.8089  1.2645  0.8699
 1960SOL     OW17512   0.302   3.092   0.254 -0.2008  0.6832 -0.3007
 1960SOL    HW117513   0.276   3.183   0.265  2.1149  1.0782  1.7722
 1960SOL    HW217514   0.220   3.045   0.235  0.7448 -0.9413 -0.3639
 1961SOL     OW17515   1.480   3.554   9.143  0.4142 -0.1785 -0.2223
 1961SOL    HW117516   1.570   3.586   9.145  0.8133 -1.4038  1.7257
 1961SOL    HW217517   1.471   3.540   9.238  0.4173  0.4451 -0.1287
 1962SOL     OW17518   1.381   1.595  10.175  0.5566  0.4246  0.0160
 1962SOL    HW117519   1.400   1.502  10.183  1.0210  0.4052 -1.3982
 1962SOL    HW217520   1.439   1.630  10.243  1.8571 -2.0593  0.1855
 1963SOL     OW17521   0.146   4.133  11.602  0.0174 -0.1920 -0.5896
 1963SOL    HW117522   0.053   4.115  11.617 -0.1008  0.3598 -0.6897
 1963SOL    HW217523   0.162   4.211  11.654  1.2239 -0.7022 -0.1725
 1964SOL     OW17524   3.987   2.196   4.656 -0.4040  0.1172 -0.7626
 1964SOL    HW117525   3.965   2.283   4.688 -0.1831 -0.5015  1.0780
 1964SOL    HW217526   3.910   2.157   4.616 -0.4960 -2.0401  1.4423
 1965SOL     OW17527   1.198   3.454  17.740 -0.0833 -0.0632  0.2701
 1965SOL    HW117528   1.195   3.402   0.072 -0.8925  0.7369  0.7668
 1965SOL    HW217529   1.223   3.389  17.675 -1.2526  0.5930 -0.8444
 1966SOL     OW17530   2.681   4.233  15.749  0.2732  0.0080  0.0537
 1966SOL    HW117531   2.626   4.294  15.796 -1.8172 -0.9938 -1.0998
 1966SOL    HW217532   2.633   4.153  15.771  2.2096 -1.1344  0.2028
 1967SOL     OW17533   0.077   0.829   2.320 -0.3465 -0.0784  0.2018
 1967SOL    HW117534   0.149   0.840   2.258 -1.6657  1.1888 -1.0847
 1967SOL    HW217535   0.094   0.911   2.367  0.0394 -0.4077  0.6505
 1968SOL     OW17536   1.590   2.690  16.087 -0.2193  0.3025  0.1518
 1968SOL    HW117537   1.665   2.631  16.080 -0.4560 -0.0411  0.5091
 1968SOL    HW217538   1.550   2.672  16.002 -0.1384 -1.7105  0.5296
 1969SOL     OW17539   1.026   1.915   3.990  0.0839  0.4310  0.3925
 1969SOL    HW117540   1.011   1.971   4.066  0.3320 -0.1097  0.8437
 1969SOL    HW217541   1.010   1.834   4.038  0.7342 -0.1512 -0.3870
 1970SOL     OW17542   0.475   2.068   0.564 -0.4137  0.1691  0.4354
 1970SOL    HW117543   0.461   1.973   0.567 -0.1823 -0.0052 -3.8638
 1970SOL    HW217544   0.385   2.094   0.548 -0.5415 -0.2749  0.4319
 1971SOL     OW17545   4.027   4.045   7.740  0.2389  0.0176  0.0426
 1971SOL    HW117546   4.040   4.099   7.662  1.1882 -0.4334 -0.1145
 1971SOL    HW217547   4.106   3.990   7.737  0.0436 -0.1865 -1.1738
 1972SOL     OW17548   1.719   1.428   9.421 -0.3796  0.5624  0.1957
 1972SOL    HW117549   1.760   1.341   9.428 -0.1558  0.5486 -1.2125
 1972SOL    HW217550   1.769   1.450   9.342  0.3053  0.5568  0.6314
 1973SOL     OW17551   2.136   1.150   5.920  0.2117  0.0696  0.3473
 1973SOL    HW117552   2.232   1.148   5.915  0.3310  0.0911  2.3873
 1973SOL    HW217553   2.122   1.244   5.920  0.4137  0.0875 -1.8575
 1974SOL     OW17554   4.165   1.775  13.349  0.8072 -0.6640  0.6608
 1974SOL    HW117555   4.252   1.814  13.361  1.8993 -3.1296  0.7036
 1974SOL    HW217556   4.132   1.825  13.274 -2.0833  0.6144  2.7898
 1975SOL     OW17557   2.794   3.362   4.042 -0.2516 -0.6088  0.1070
 1975SOL    HW117558   2.772   3.273   4.012  2.2522 -0.7512 -1.2608
 1975SOL    HW217559   2.712   3.394   4.080 -0.5593 -0.5115 -0.6468
 1976SOL     OW17560   2.420   3.734  10.478 -0.6894  0.0351 -0.2127
 1976SOL    HW117561   2.423   3.822  10.442 -0.4324 -0.6747 -1.9438
 1976SOL    HW217562   2.385   3.745  10.566 -0.0704  1.2853 -0.1159
 1977SOL     OW17563   1.460   3.228   3.983  0.0107  0.3388  0.5096
 1977SOL    HW117564   1.439   3.263   4.069 -1.3515 -0.0413  0.3396
 1977SOL    HW217565   1.502   3.143   3.997 -1.0667 -0.1297  0.9167
 1978SOL     OW17566   4.129   0.167   2.168  0.0618 -0.2710 -0.1979
 1978SOL    HW117567   4.042   0.183   2.131 -0.0332 -0.5654 -0.1007
 1978SOL    HW217568   4.126   0.077   2.200 -0.9134 -0.0332  0.3625
 1979SOL     OW17569   2.637   4.629   6.724  0.0314  0.4078  0.2151
 1979SOL    HW117570   2.625   4.610   6.817  0.5008 -4.3384 -0.6663
 1979SOL    HW217571   2.716   4.682   6.726  0.6339 -0.5416  1.2142
 1980SOL     OW17572   3.583   2.314  15.194 -0.8654 -0.3920 -0.2260
 1980SOL    HW117573   3.660   2.265  15.165 -0.6379 -1.1301  1.6548
 1980SOL    HW217574   3.592   2.399  15.151 -1.1890  1.6795  3.8781
 1981SOL     OW17575   2.165   1.566   5.469  0.1224 -0.9927  0.9881
 1981SOL    HW117576   2.245   1.608   5.437 -0.6806  0.9504  1.5715
 1981SOL    HW217577   2.105   1.592   5.400  0.4381 -0.4870  0.9056
 1982SOL     OW17578   0.914   1.003   4.739  0.7558  0.2491 -0.4216
 1982SOL    HW117579   0.978   0.936   4.716  3.1144  1.7456  1.7226
 1982SOL    HW217580   0.896   1.039   4.652 -0.1336 -1.4679 -0.9538
 1983SOL     OW17581   0.497   3.123   9.389  0.9529 -0.0683 -0.4383
 1983SOL    HW117582   0.438   3.073   9.333  0.0808  0.3385  0.1182
 1983SOL    HW217583   0.571   3.063   9.402  1.3476  0.5108 -0.0183
 1984SOL     OW17584   2.983   0.871   7.226 -0.1187  0.0601 -0.2949
 1984SOL    HW117585   2.936   0.893   7.146  0.0568 -0.7507 -0.6284
 1984SOL    HW217586   2.985   0.775   7.229 -0.5456  0.0365 -0.6902
 1985SOL     OW17587   0.125   2.310   1.465 -0.2476 -0.2465 -0.4901
 1985SOL    HW117588   0.045   2.346   1.503  0.1433 -1.0663  1.1068
 1985SOL    HW217589   0.185   2.384   1.473 -1.4189  0.4449  1.8363
 1986SOL     OW17590   2.020   0.903   3.547  0.1904 -0.7098  0.1135
 1986SOL    HW117591   2.020   0.810   3.526  0.8139 -0.4339 -1.0507
 1986SOL    HW217592   1.948   0.905   3.611  0.8490  1.5341  0.7746
 1987SOL     OW17593   2.710   0.646   3.519 -0.0407  0.1217  0.4303
 1987SOL    HW117594   2.617   0.642   3.541  0.1917 -2.3102  0.9984
 1987SOL    HW217595   2.724   0.740   3.520  0.2633  0.0758  0.1028
 1988SOL     OW17596   2.580   2.328  17.086  0.4854  0.5873  0.0009
 1988SOL    HW117597   2.544   2.312  17.173 -1.9255  1.4941 -0.8442
 1988SOL    HW217598   2.518   2.290  17.024  0.3217 -0.3656  0.7515
 1989SOL     OW17599   1.347   1.044   2.263  0.5305 -0.3941 -0.0829
 1989SOL    HW117600   1.339   1.053   2.358 -1.8169  3.7451 -0.6624
 1989SOL    HW217601   1.347   1.137   2.242  1.3031 -0.9016 -2.3275
 1990SOL     OW17602   1.179   4.274  14.168  0.6123  0.3601  0.0032
 1990SOL    HW117603   1.216   4.356  14.136 -2.0548  1.3527 -0.5747
 1990SOL    HW217604   1.163   4.305  14.258 -0.9000 -0.4007 -0.0047
 1991SOL     OW17605   3.399   0.224  10.287  0.3273 -0.4034  0.0961
 1991SOL    HW117606   3.449   0.263  10.358  0.7003 -1.5509  0.4702
 1991SOL    HW217607   3.371   0.143  10.331  1.0289 -0.6089  0.1614
 1992SOL     OW17608   1.373   1.112  15.713  0.5116  0.2500  0.6464
 1992SOL    HW117609   1.449   1.169  15.704  0.8009  0.1448  2.5644
 1992SOL    HW217610   1.310   1.174  15.751  0.9225  0.8856  0.2921
 1993SOL     OW17611   2.506   2.730   9.848 -0.1708 -0.0272 -0.2725
 1993SOL    HW117612   2.453   2.767   9.777 -0.0666  1.2229  0.2990
 1993SOL    HW217613   2.582   2.788   9.854 -0.7854  0.7655 -0.0581
 1994SOL     OW17614   3.244   1.918  12.256  0.1967 -0.7193  0.0332
 1994SOL    HW117615   3.334   1.886  12.268  1.0200  1.2478 -0.8201
 1994SOL    HW217616   3.222   1.940  12.346 -0.4321 -1.8647  0.1531
 1995SOL     OW17617   2.665   0.156   2.789  0.4849 -0.2559  0.3077
 1995SOL    HW117618   2.714   0.234   2.814 -1.2170  0.6030  0.9097
 1995SOL    HW217619   2.724   0.113   2.727  1.1534  0.8798  0.1520
 1996SOL     OW17620   0.011   3.058   2.288 -0.4199  0.2224  0.0193
 1996SOL    HW117621   0.092   3.086   2.331 -0.2871  1.1033 -0.8057
 1996SOL    HW217622   4.677   3.097   2.337 -0.7013 -1.2598  0.7814
 1997SOL     OW17623   2.400   0.082   1.933  0.4576  0.3233  0.7045
 1997SOL    HW117624   2.402   0.000   1.884 -0.9231  1.9496 -2.0377
 1997SOL    HW217625   2.343   0.057   2.006  0.7674  1.1834  1.2494
 1998SOL     OW17626   0.105   2.693   5.257 -0.1508 -0.5476  0.6499
 1998SOL    HW117627   0.161   2.737   5.193 -0.3466  0.0979  0.9274
 1998SOL    HW217628   0.165   2.669   5.327  1.4841 -0.4064 -0.7186
 1999SOL     OW17629   2.488   1.265  10.553  0.0085 -0.5648  0.2631
 1999SOL    HW117630   2.461   1.272  10.462  1.7353 -0.5317 -0.2409
 1999SOL    HW217631   2.409   1.239  10.601 -0.3102 -1.4686 -0.7703
 2000SOL     OW17632   2.670   1.728   3.746 -0.4447 -0.4478 -0.0889
 2000SOL    HW117633   2.764   1.710   3.742 -0.1256  0.7972  1.7300
 2000SOL    HW217634   2.634   1.651   3.702  0.0103  0.1326 -1.4851
 2001SOL     OW17635   1.997   0.232   5.763 -0.0501  0.0664  0.1478
 2001SOL    HW117636   1.971   0.282   5.686  1.8789  0.6255 -0.1185
 2001SOL    HW217637   1.971   0.147   5.726 -1.5418  0.1135  1.0697
 2002SOL     OW17638   4.364   1.614  13.656  0.0568  0.1294 -0.0058
 2002SOL    HW117639   4.288   1.591  13.708 -0.6330 -0.8375 -1.4517
 2002SOL    HW217640   4.345   1.562  13.578 -1.1745  1.8900 -0.8707
 2003SOL     OW17641   3.078   4.242   1.642  0.2578  0.3826  0.4796
 2003SOL    HW117642   3.003   4.187   1.622 -0.8394  1.1989  2.2755
 2003SOL    HW217643   3.034   4.301   1.704 -0.1304  0.1266  0.4499
 2004SOL     OW17644   2.118   2.936   3.618 -0.1035 -0.4902 -0.1616
 2004SOL    HW117645   2.212   2.943   3.605  0.4735 -0.9139  3.8267
 2004SOL    HW217646   2.075   2.997   3.559 -1.5830  0.1082  1.5361
 2005SOL     OW17647   1.775   4.197  15.785  0.4075  0.4326  0.1984
 2005SOL    HW117648   1.859   4.239  15.766 -0.1340  1.3495 -0.1901
 2005SOL    HW217649   1.715   4.260  15.746  1.5847  0.3208 -1.8028
 2006SOL     OW17650   1.959   1.769   3.709 -0.5575 -0.1760 -0.0651
 2006SOL    HW117651   1.910   1.844   3.743  1.3879  0.5854  1.0872
 2006SOL    HW217652   2.015   1.804   3.639  0.3684 -0.5256  0.5052
 2007SOL     OW17653   3.467   3.618   9.715  0.2393  0.3837 -0.4489
 2007SOL    HW117654   3.421   3.583   9.792 -0.8269  0.7734 -0.8964
 2007SOL    HW217655   3.535   3.672   9.755 -0.0242  0.3064  0.1081
 2008SOL     OW17656   2.541   4.513   8.128  0.4026  0.5012 -0.1808
 2008SOL    HW117657   2.578   4.430   8.099  1.1254  0.6361  0.3656
 2008SOL    HW217658   2.546   4.506   8.223 -1.8658  0.5747 -0.0428
 2009SOL     OW17659   1.311   1.462   8.350  0.1631  0.2710  0.0889
 2009SOL    HW117660   1.280   1.462   8.441  1.1820 -0.5385  0.4371
 2009SOL    HW217661   1.299   1.371   8.324 -2.7490  1.0559 -1.4078
 2010SOL     OW17662   0.597   3.103   2.146 -0.4679 -0.5473 -0.1437
 2010SOL    HW117663   0.584   3.027   2.202  0.9017  0.1831  1.1749
 2010SOL    HW217664   0.563   3.180   2.191 -1.0163 -0.3933 -0.8115
 2011SOL     OW17665   1.368   3.967   3.459  0.1584 -1.0601 -0.4670
 2011SOL    HW117666   1.353   3.876   3.434 -0.2820  0.0051 -3.9291
 2011SOL    HW217667   1.314   3.974   3.538  2.3781  0.2926  0.9581
 2012SOL     OW17668   1.041   0.870   0.596 -0.4721  0.1203  0.3401
 2012SOL    HW117669   1.052   0.823   0.679  0.4233  0.9603  0.7134
 2012SOL    HW217670   0.987   0.811   0.545  0.5232 -0.3328 -0.1756
 2013SOL     OW17671   0.793   2.367  16.032  0.2456  0.1329  0.3863
 2013SOL    HW117672   0.731   2.370  16.104  0.0630 -0.7408  0.2662
 2013SOL    HW217673   0.836   2.450  16.050 -0.6747  0.8772 -0.8404
 2014SOL     OW17674   2.124   0.317  17.119  1.1696  1.0291 -0.1764
 2014SOL    HW117675   2.165   0.249  17.064 -0.3480  1.3492 -1.7063
 2014SOL    HW217676   2.115   0.390  17.058  0.5633  0.8188 -0.3369
 2015SOL     OW17677   1.758   0.084  10.409  0.0857 -0.2317  0.3596
 2015SOL    HW117678   1.800   4.736  10.419  0.7035 -0.1562 -1.5514
 2015SOL    HW217679   1.674   0.068  10.453 -0.7797  3.2900 -0.0414
 2016SOL     OW17680   4.467   2.668   5.343 -0.2239  0.3339 -0.3622
 2016SOL    HW117681   4.483   2.742   5.285  0.2354 -0.1609 -0.8708
 2016SOL    HW217682   4.521   2.608   5.291  0.7873  0.8535  0.1060
 2017SOL     OW17683   2.816   1.898   8.354  0.0624  0.0113  0.2267
 2017SOL    HW117684   2.840   1.847   8.431  1.1974 -2.9193 -2.0837
 2017SOL    HW217685   2.734   1.858   8.326  0.3358 -0.2599 -0.1834
 2018SOL     OW17686   2.264   1.944   1.009  0.4205 -0.0491 -0.2184
 2018SOL    HW117687   2.213   2.018   1.041 -2.2221 -1.0953 -1.9973
 2018SOL    HW217688   2.191   1.883   0.993 -0.4546  0.6330  1.1885
 2019SOL     OW17689   1.763   3.480   3.481  0.0470 -0.5188 -0.1440
 2019SOL    HW117690   1.859   3.479   3.491 -0.0453  0.0766  0.8306
 2019SOL    HW217691   1.741   3.563   3.440  0.3819  0.5002  1.7312
 2020SOL     OW17692   2.916   2.438   2.831  0.0757 -0.1171  0.4930
 2020SOL    HW117693   2.974   2.513   2.817 -0.6214  0.4750  0.7763
 2020SOL    HW217694   2.841   2.462   2.778  0.6528  1.9323  0.6073
 2021SOL     OW17695   4.011   0.476   4.859 -0.0434 -0.1556  0.0663
 2021SOL    HW117696   3.925   0.463   4.899  0.2659 -0.5450  0.6095
 2021SOL    HW217697   3.989   0.479   4.766  0.1677 -0.3298  0.0102
 2022SOL     OW17698   1.316   3.408   3.099  0.4652  0.6590 -0.0244
 2022SOL    HW117699   1.296   3.325   3.055 -0.8289  0.0265  1.7564
 2022SOL    HW217700   1.239   3.419   3.155 -0.5179 -3.2608 -0.6314
 2023SOL     OW17701   4.180   1.768   6.930  0.5909  0.2000  0.2770
 2023SOL    HW117702   4.182   1.783   6.835 -0.5356 -1.4907  0.0092
 2023SOL    HW217703   4.170   1.674   6.940  1.4476  0.1158  0.4048
 2024SOL     OW17704   0.636   3.454  11.800 -0.0279  0.2666 -0.0654
 2024SOL    HW117705   0.563   3.392  11.800 -0.4034  0.7003  3.3513
 2024SOL    HW217706   0.711   3.395  11.805 -0.8820 -0.7730  0.3692
 2025SOL     OW17707   3.012   1.512   7.421  0.2712 -0.2423  0.0718
 2025SOL    HW117708   3.104   1.514   7.397  0.0164 -2.0904 -1.0870
 2025SOL    HW217709   3.018   1.462   7.502 -0.0281 -1.5765 -0.7161
 2026SOL     OW17710   2.311   1.026   6.298 -0.0428  0.0875  0.8780
 2026SOL    HW117711   2.286   1.087   6.367 -1.1672  1.3618 -0.6553
 2026SOL    HW217712   2.223   1.014   6.263  0.5607  1.5005 -1.1026
 2027SOL     OW17713   1.854   1.310   5.721  0.1678  0.2468  0.2756
 2027SOL    HW117714   1.919   1.318   5.651  0.7735  1.9255  1.0196
 2027SOL    HW217715   1.864   1.388   5.777 -1.8128  1.9091 -1.6681
 2028SOL     OW17716   1.809   0.558   9.005  0.0748 -0.3849  0.5526
 2028SOL    HW117717   1.851   0.596   8.928 -1.5804  0.1328 -0.0890
 2028SOL    HW217718   1.824   0.464   8.996 -2.7705 -0.5176 -2.8896
 2029SOL     OW17719   3.636   3.010   6.316  0.0668  0.1189  0.4016
 2029SOL    HW117720   3.721   3.053   6.308  0.9657 -1.7251 -0.0759
 2029SOL    HW217721   3.575   3.080   6.337  0.8315  1.3915 -1.6604
 2030SOL     OW17722   4.082   4.551  12.274 -0.2550  0.5134 -0.1133
 2030SOL    HW117723   4.035   4.618  12.225  0.6422 -0.8224 -2.7825
 2030SOL    HW217724   4.170   4.587  12.264 -0.8714  1.6447 -1.3547
 2031SOL     OW17725   3.494   1.097  12.507  0.1220 -0.1933  0.6496
 2031SOL    HW117726   3.578   1.051  12.502  1.2302  1.7483  1.1200
 2031SOL    HW217727   3.446   1.043  12.445  0.1109 -1.9888  2.2473
 2032SOL     OW17728   3.221   4.715   4.910  0.4291  0.5177 -0.1014
 2032SOL    HW117729   3.219   4.716   4.814 -0.6832 -2.3145 -0.1176
 2032SOL    HW217730   3.316   4.704   4.919  0.3767  0.6666  0.6158
 2033SOL     OW17731   2.430   1.796   7.788 -0.1221  0.1545 -0.2603
 2033SOL    HW117732   2.517   1.822   7.759 -0.3407 -1.4379 -2.3157
 2033SOL    HW217733   2.425   1.702   7.804 -1.1388  0.5073  1.5905
 2034SOL     OW17734   0.383   0.204   7.034 -0.3879  0.1288  0.1197
 2034SOL    HW117735   0.320   0.139   7.004  0.7192 -0.6281 -0.5572
 2034SOL    HW217736   0.435   0.145   7.089 -1.8956 -1.1961  0.1205
 2035SOL     OW17737   2.849   3.302   8.082 -0.1520  0.0061 -0.1657
 2035SOL    HW117738   2.848   3.217   8.126 -3.3162  0.6916  1.0574
 2035SOL    HW217739   2.898   3.264   8.009 -0.3550 -2.0410  0.7590
 2036SOL     OW17740   4.591   1.819   6.397 -0.0341 -0.8954  0.2047
 2036SOL    HW117741   4.554   1.889   6.452 -2.1421 -0.6528 -1.5095
 2036SOL    HW217742   4.516   1.814   6.338 -0.6874  1.2197  0.8558
 2037SOL     OW17743   2.524   4.606   6.977  0.4835 -0.0395 -0.4080
 2037SOL    HW117744   2.459   4.675   6.988  1.0609  0.4211  0.1646
 2037SOL    HW217745   2.586   4.629   7.047  0.2153  0.1002 -0.2165
 2038SOL     OW17746   3.715   2.100   7.856 -0.4096  0.1893 -0.1009
 2038SOL    HW117747   3.751   2.070   7.940 -1.9495  0.6016  0.7065
 2038SOL    HW217748   3.629   2.060   7.844  0.2297 -0.5173 -2.2179
 2039SOL     OW17749   3.913   2.016   1.367  0.2004  0.2186 -0.1452
 2039SOL    HW117750   3.969   2.049   1.437 -0.6672  1.7762 -0.1954
 2039SOL    HW217751   3.832   2.063   1.384  0.9086  0.2963  3.0334
 2040SOL     OW17752   4.304   1.906  17.563 -0.1753  0.3556  0.0329
 2040SOL    HW117753   4.258   1.892  17.646  0.2281  2.2438  0.5663
 2040SOL    HW217754   4.375   1.960  17.598 -0.2767  0.4742  0.0520
 2041SOL     OW17755   3.721   0.336   7.575 -0.6399  0.2386  0.1117
 2041SOL    HW117756   3.741   0.244   7.596 -1.1618 -0.1477 -1.1104
 2041SOL    HW217757   3.744   0.334   7.482 -0.4984 -0.4468  0.1563
 2042SOL     OW17758   2.690   2.277   8.155 -0.5154  0.0887 -0.5405
 2042SOL    HW117759   2.751   2.333   8.205  1.1544 -1.8658 -0.3907
 2042SOL    HW217760   2.750   2.231   8.096 -1.6875 -0.4552 -1.2911
 2043SOL     OW17761   2.984   3.248   5.212 -0.7545  0.6970 -0.0511
 2043SOL    HW117762   3.077   3.251   5.186 -0.0636 -0.3388  2.2843
 2043SOL    HW217763   2.965   3.181   5.146  1.3251  0.6669 -0.6480
 2044SOL     OW17764   1.537   3.782  16.016  0.0909 -0.4561 -0.0164
 2044SOL    HW117765   1.575   3.865  15.986 -1.8933  0.0708 -1.0285
 2044SOL    HW217766   1.594   3.724  15.966  1.4699  1.1835 -0.3448
 2045SOL     OW17767   1.591   1.569   7.096 -0.1170 -0.1647  0.1985
 2045SOL    HW117768   1.672   1.520   7.109 -0.1826 -0.1223  0.8066
 2045SOL    HW217769   1.529   1.509   7.139 -0.3246 -0.3639 -0.3800
 2046SOL     OW17770   2.534   0.891   4.930  0.0173 -0.0317  0.1371
 2046SOL    HW117771   2.581   0.934   4.859 -2.9060 -0.3713 -2.0039
 2046SOL    HW217772   2.571   0.805   4.912  0.3869 -0.0129  0.7769
 2047SOL     OW17773   2.410   2.835   3.580  0.3048 -0.1103 -0.0765
 2047SOL    HW117774   2.493   2.883   3.585  0.9975 -1.0742 -2.1596
 2047SOL    HW217775   2.438   2.749   3.613  0.3122 -0.0799 -0.0039
 2048SOL     OW17776   2.891   0.169   7.357  0.8366  0.1486  0.1496
 2048SOL    HW117777   2.945   0.122   7.420  0.7739  0.5097  0.4694
 2048SOL    HW217778   2.955   0.169   7.286  1.2289  0.7270  0.4991
 2049SOL     OW17779   0.024   2.493   5.885 -0.2335 -0.0385  0.5840
 2049SOL    HW117780   4.699   2.441   5.835  0.6319  2.0447 -2.6943
 2049SOL    HW217781   4.710   2.573   5.874  2.3364  1.7598  1.7007
 2050SOL     OW17782   2.003   0.354   5.494 -0.4465  0.4770  0.1309
 2050SOL    HW117783   2.085   0.358   5.446  0.6912 -1.3103  1.9329
 2050SOL    HW217784   1.962   0.282   5.447  0.5479  0.0237 -0.0322
 2051SOL     OW17785   3.455   1.314   6.110 -0.2406 -0.5475  0.6597
 2051SOL    HW117786   3.537   1.349   6.142 -1.2753  1.3120  1.2785
 2051SOL    HW217787   3.414   1.391   6.070  2.0234  0.2581 -0.0844
 2052SOL     OW17788   4.698   0.271   1.980  0.0527  0.2910 -0.2280
 2052SOL    HW117789   4.619   0.319   1.957  0.6108  1.2825 -0.0594
 2052SOL    HW217790   4.687   0.270   2.075  0.1121 -2.6844 -0.2280
 2053SOL     OW17791   0.853   2.026   2.303  0.4120  0.0139  0.1360
 2053SOL    HW117792   0.919   2.035   2.234  0.2663 -0.2526 -0.0396
 2053SOL    HW217793   0.836   2.117   2.326  1.7132  0.2077  0.3251
 2054SOL     OW17794   0.323   1.265   3.971 -0.7218 -0.7960 -0.6301
 2054SOL    HW117795   0.407   1.254   3.926 -0.4102 -2.1898  0.2978
 2054SOL    HW217796   0.293   1.341   3.921  0.7082  0.4626  0.4429
 2055SOL     OW17797   0.432   0.591   5.406  0.6153  0.5428  0.2842
 2055SOL    HW117798   0.376   0.665   5.386  0.8195  0.4927 -0.4597
 2055SOL    HW217799   0.391   0.521   5.355  1.3487  1.4972 -1.6306
 2056SOL     OW17800   1.467   3.778  12.699 -0.2889 -0.1503 -0.3146
 2056SOL    HW117801   1.408   3.848  12.672 -0.1403 -0.1460 -0.6266
 2056SOL    HW217802   1.418   3.704  12.663 -1.7687  0.8194 -0.2858
 2057SOL     OW17803   3.411   0.461   6.751  0.5206  1.1861  0.3943
 2057SOL    HW117804   3.477   0.528   6.732  0.4139  0.6662 -1.8328
 2057SOL    HW217805   3.411   0.419   6.665  1.0358  3.7018 -0.8191
 2058SOL     OW17806   2.998   4.572   5.937  0.5823  0.4668  0.1762
 2058SOL    HW117807   3.073   4.514   5.921  0.9771  1.3814 -1.2234
 2058SOL    HW217808   2.957   4.531   6.013  1.6398  0.7071  0.8746
 2059SOL     OW17809   1.614   0.504   7.243  0.1523 -0.5731 -0.2903
 2059SOL    HW117810   1.533   0.484   7.196  1.3363 -1.7472 -1.8488
 2059SOL    HW217811   1.607   0.426   7.299 -1.6162  0.1355  0.4499
 2060SOL     OW17812   3.582   3.670   7.527  0.4658 -0.1753  0.4460
 2060SOL    HW117813   3.512   3.606   7.521 -1.7425  2.2804 -0.2775
 2060SOL    HW217814   3.655   3.610   7.514  0.2889 -0.4028  0.4983
 2061SOL     OW17815   0.861   3.366   4.458 -0.4331 -0.6566  0.5062
 2061SOL    HW117816   0.815   3.385   4.376 -0.9227  1.2780  1.2120
 2061SOL    HW217817   0.935   3.427   4.449 -1.5106  0.4235 -0.9889
 2062SOL     OW17818   2.357   1.650   2.440  0.1270 -0.0810 -0.3239
 2062SOL    HW117819   2.332   1.708   2.512 -1.0485  0.9736 -1.5752
 2062SOL    HW217820   2.313   1.704   2.374 -1.0823 -1.0548 -0.3069
 2063SOL     OW17821   4.142   3.583   2.240  0.1737  0.1158 -0.5920
 2063SOL    HW117822   4.229   3.618   2.261 -0.6447  1.7538  0.0152
 2063SOL    HW217823   4.118   3.556   2.328 -1.2659  1.0415 -0.7033
 2064SOL     OW17824   3.055   3.817  16.333 -0.3061 -0.1796 -1.0141
 2064SOL    HW117825   3.138   3.861  16.350 -0.7141  0.5956 -1.0142
 2064SOL    HW217826   3.100   3.733  16.318  1.4263  1.1441 -3.3092
 2065SOL     OW17827   3.397   0.216   2.947 -0.0529 -0.4385 -0.4407
 2065SOL    HW117828   3.414   0.307   2.924  1.8517 -0.1643  1.9543
 2065SOL    HW217829   3.485   0.178   2.942 -0.3755 -0.8526 -2.9558
 2066SOL     OW17830   4.145   1.167   3.318  0.0645  0.4655  0.0543
 2066SOL    HW117831   4.239   1.183   3.310  0.2673  0.2950  2.2194
 2066SOL    HW217832   4.140   1.078   3.352  2.1818 -0.6058 -2.4506
 2067SOL     OW17833   2.111   2.026  10.860  0.0929 -0.2527 -0.1662
 2067SOL    HW117834   2.042   2.076  10.815  1.2617  1.5344  0.0074
 2067SOL    HW217835   2.124   1.949  10.806  0.6221 -1.3447  1.5353
 2068SOL     OW17836   3.030   3.283   9.043  0.5148 -0.0763  0.2509
 2068SOL    HW117837   3.071   3.306   9.126 -1.5636  1.0438  0.9629
 2068SOL    HW217838   2.940   3.308   9.060  0.5006 -0.6232  0.9858
 2069SOL     OW17839   0.208   3.342   9.651  0.1867 -0.2315 -0.2475
 2069SOL    HW117840   0.304   3.342   9.651  0.1852  0.6959  0.4314
 2069SOL    HW217841   0.191   3.347   9.557 -1.2207 -1.7220 -0.0667
 2070SOL     OW17842   2.676   0.734   6.155  0.0462 -0.7264  0.9945
 2070SOL    HW117843   2.598   0.688   6.187 -0.7200 -0.9081 -1.1547
 2070SOL    HW217844   2.693   0.801   6.221  3.9917 -0.5908 -0.1594
 2071SOL     OW17845   4.317   3.944   5.224 -0.0922  0.0203 -0.1721
 2071SOL    HW117846   4.388   3.961   5.162 -0.2234  2.0567  0.2375
 2071SOL    HW217847   4.322   3.852   5.250  2.5030 -0.1858 -1.3857
 2072SOL     OW17848   1.253   0.355   3.488  0.6874 -0.0104  0.3209
 2072SOL    HW117849   1.283   0.322   3.572 -0.5698 -1.8813  0.0520
 2072SOL    HW217850   1.323   0.314   3.438  1.3109  0.9858  0.3846
 2073SOL     OW17851   3.944   3.369   6.018  0.9277 -0.3461  0.1990
 2073SOL    HW117852   4.029   3.383   6.060  0.8597 -1.5118  0.7202
 2073SOL    HW217853   3.906   3.307   6.080 -1.1239  1.3701  0.6286
 2074SOL     OW17854   3.095   1.092   3.915  0.0529 -0.1007 -0.0277
 2074SOL    HW117855   3.180   1.114   3.878 -0.8572  4.0131  0.3187
 2074SOL    HW217856   3.123   1.011   3.957 -2.3283 -0.7136  0.3951
 2075SOL     OW17857   2.109   1.942   0.206 -0.6635  0.1907 -0.4517
 2075SOL    HW117858   2.190   1.974   0.165  0.4690  0.2975  1.8972
 2075SOL    HW217859   2.047   2.011   0.182 -1.5533 -0.3868  0.1995
 2076SOL     OW17860   2.811   2.661   7.622  0.4291  0.0908 -0.0190
 2076SOL    HW117861   2.831   2.724   7.553 -1.6332 -0.4585 -1.1313
 2076SOL    HW217862   2.844   2.578   7.586  1.0006  0.7902 -1.1030
 2077SOL     OW17863   0.458   2.047   7.712 -0.2230 -0.3296 -0.5145
 2077SOL    HW117864   0.397   2.048   7.786  0.3762  0.4513 -0.0362
 2077SOL    HW217865   0.396   2.014   7.647  0.7214  0.1767 -1.6733
 2078SOL     OW17866   2.796   0.021  14.939  0.0635  0.2024 -0.0083
 2078SOL    HW117867   2.748   4.709  15.005 -2.4719  0.7470 -1.4320
 2078SOL    HW217868   2.889   0.011  14.959 -0.3760  0.9043  2.3297
 2079SOL     OW17869   2.597   2.406   8.922  0.3184 -0.0675 -0.3575
 2079SOL    HW117870   2.535   2.414   8.850  0.5939  1.3795 -0.4271
 2079SOL    HW217871   2.587   2.486   8.973  0.1345  0.3409 -1.0319
 2080SOL     OW17872   3.500   4.314  16.020  0.1392  0.5408  0.2217
 2080SOL    HW117873   3.500   4.402  15.982 -2.4338 -0.0945 -1.2579
 2080SOL    HW217874   3.573   4.272  15.975 -1.1306 -0.8822 -0.5197
 2081SOL     OW17875   2.901   3.854   9.074 -0.0068  0.1412 -0.1030
 2081SOL    HW117876   2.936   3.810   9.152 -0.3372  0.1175  0.0302
 2081SOL    HW217877   2.895   3.777   9.017  0.2381 -0.5359  0.7925
 2082SOL     OW17878   1.780   0.084   3.961  0.2443 -0.5281 -0.3585
 2082SOL    HW117879   1.872   0.060   3.973  0.8428  1.0481 -1.9407
 2082SOL    HW217880   1.737   4.736   3.959 -0.6273 -0.0758 -0.7322
 2083SOL     OW17881   1.524   3.657   2.431  0.0873  0.2262 -0.6285
 2083SOL    HW117882   1.502   3.567   2.454 -1.8256  1.2480  1.5797
 2083SOL    HW217883   1.595   3.636   2.370 -2.0470 -1.6151 -2.4539
 2084SOL     OW17884   1.743   0.301   4.723 -0.1267  0.1278  0.0575
 2084SOL    HW117885   1.712   0.376   4.775 -0.0367 -0.0991  0.4388
 2084SOL    HW217886   1.723   0.320   4.631  1.6622 -1.4965 -0.6766
 2085SOL     OW17887   3.898   1.539   2.287  0.1608  0.0229  0.0357
 2085SOL    HW117888   3.939   1.619   2.318 -2.4682  0.8061  1.4717
 2085SOL    HW217889   3.808   1.568   2.297  0.5499  0.7011  1.6712
 2086SOL     OW17890   2.617   2.951   1.967 -0.4234 -0.8666  0.0835
 2086SOL    HW117891   2.631   3.033   2.014 -0.0419 -0.9135  0.0568
 2086SOL    HW217892   2.596   2.893   2.040  0.0028 -1.1932 -0.0486
 2087SOL     OW17893   3.325   4.458   3.348 -0.4194  0.0918 -0.4192
 2087SOL    HW117894   3.294   4.544   3.377  2.1513 -0.0900  2.8223
 2087SOL    HW217895   3.417   4.458   3.373 -1.1868 -0.0995  2.5225
 2088SOL     OW17896   3.769   1.828   4.834  1.0388  0.7117 -0.5842
 2088SOL    HW117897   3.774   1.819   4.739 -1.6614  1.8613 -0.8582
 2088SOL    HW217898   3.781   1.921   4.853  0.0662  0.5359  0.9614
 2089SOL     OW17899   1.238   2.238   7.555  0.0713  0.1808 -0.2194
 2089SOL    HW117900   1.315   2.271   7.508 -0.2016  3.3837  1.6330
 2089SOL    HW217901   1.172   2.304   7.535 -2.1193 -2.1901 -0.8542
 2090SOL     OW17902   2.819   1.879   7.321  0.1283 -0.2692 -0.1327
 2090SOL    HW117903   2.872   1.850   7.395  2.1187  1.1422 -1.0215
 2090SOL    HW217904   2.832   1.814   7.251  0.2154  0.5685 -0.8935
 2091SOL     OW17905   1.787   0.869   4.825  0.4083  0.6906 -0.2833
 2091SOL    HW117906   1.733   0.947   4.834  0.5255  0.9147 -1.6781
 2091SOL    HW217907   1.871   0.884   4.870  0.4400  0.9926 -0.4424
 2092SOL     OW17908   2.286   2.954   2.543 -0.1365  0.3662 -0.3638
 2092SOL    HW117909   2.205   2.994   2.511 -0.3368 -0.5637 -1.0233
 2092SOL    HW217910   2.350   3.004   2.494  0.4615 -1.2092 -1.1728
 2093SOL     OW17911   3.141   0.654   5.415  0.5869  0.1193  0.7188
 2093SOL    HW117912   3.068   0.710   5.440 -0.2164 -1.5313  2.1363
 2093SOL    HW217913   3.104   0.574   5.454  0.3812 -0.6594 -1.0616
 2094SOL     OW17914   1.277   1.518   9.139 -0.5830  0.0935  0.3255
 2094SOL    HW117915   1.273   1.547   9.230 -1.4170 -0.8146  0.5849
 2094SOL    HW217916   1.239   1.592   9.092  2.5500  0.3350 -1.8256
 2095SOL     OW17917   0.393   3.391   6.795  0.1022 -0.5331 -0.1315
 2095SOL    HW117918   0.418   3.301   6.818 -3.5738 -1.2934  0.8539
 2095SOL    HW217919   0.460   3.444   6.838  0.3710  1.0573 -2.4780
 2096SOL     OW17920   1.046   0.598  12.487  0.5470  0.5730 -0.2268
 2096SOL    HW117921   1.055   0.505  12.511 -0.2022  1.1022  2.0719
 2096SOL    HW217922   1.101   0.638  12.554 -0.4669  1.8580 -0.1779
 2097SOL     OW17923   0.013   1.735  14.606  0.1979  0.4191  0.7911
 2097SOL    HW117924   4.703   1.766  14.528  0.2590 -1.1977  0.1047
 2097SOL    HW217925   4.730   1.812  14.659  1.7507  1.6595 -0.4257
 2098SOL     OW17926   4.417   3.273   9.523 -0.0248  0.0252 -0.1034
 2098SOL    HW117927   4.432   3.185   9.557  0.0457  1.0848  2.5902
 2098SOL    HW217928   4.475   3.319   9.583  0.7045  2.4819 -2.6708
 2099SOL     OW17929   0.766   0.118   2.494  0.0944  0.2315  0.0327
 2099SOL    HW117930   0.849   0.146   2.532 -0.4278  0.0071  1.3285
 2099SOL    HW217931   0.710   0.178   2.543  1.7463  2.0489 -0.2987
 2100SOL     OW17932   3.276   4.429   3.097 -0.0701 -0.1824  0.3728
 2100SOL    HW117933   3.289   4.413   3.190 -0.6689 -2.4968  0.0591
 2100SOL    HW217934   3.181   4.415   3.095  0.0963 -1.0188 -2.4519
 2101SOL     OW17935   4.527   0.539   7.783  0.7236 -0.1941 -0.4788
 2101SOL    HW117936   4.474   0.512   7.708  1.1401  0.0687 -0.8662
 2101SOL    HW217937   4.526   0.459   7.837 -2.7176 -1.0101 -1.7548
 2102SOL     OW17938   0.377   3.089   5.225  0.2789 -0.2793 -0.3404
 2102SOL    HW117939   0.461   3.068   5.267  0.2262 -0.2178 -0.2049
 2102SOL    HW217940   0.366   3.171   5.273 -1.9188 -1.0821  0.5113
 2103SOL     OW17941   3.424   0.778  17.483  0.3441 -0.8678  0.0057
 2103SOL    HW117942   3.480   0.702  17.468 -1.3920 -2.0687 -0.3870
 2103SOL    HW217943   3.431   0.778  17.578 -2.9443 -1.4589  0.2428
 2104SOL     OW17944   1.854   2.573   2.428  0.0131 -0.1239 -0.1614
 2104SOL    HW117945   1.900   2.550   2.509 -1.9440 -4.2418 -0.2125
 2104SOL    HW217946   1.930   2.599   2.377  0.5319  1.3254  1.3695
 2105SOL     OW17947   2.348   0.375  16.752 -0.1033 -0.1134  0.1059
 2105SOL    HW117948   2.378   0.466  16.750  0.1101 -0.1999 -0.7040
 2105SOL    HW217949   2.404   0.326  16.811 -1.3423  0.1187  1.4748
 2106SOL     OW17950   2.326   2.986   8.292 -0.0766  0.4648 -0.5555
 2106SOL    HW117951   2.374   2.908   8.318 -1.0416 -0.2756 -1.0274
 2106SOL    HW217952   2.362   3.042   8.361  0.0721 -0.1489 -0.1460
 2107SOL     OW17953   1.065   0.403   6.477 -0.4253  0.5365  0.1356
 2107SOL    HW117954   0.997   0.339   6.458 -0.6477  1.8609 -3.5552
 2107SOL    HW217955   1.131   0.339   6.503 -0.0620  0.4426 -1.0064
 2108SOL     OW17956   2.383   0.899  15.266 -0.6275 -0.3217 -0.3684
 2108SOL    HW117957   2.353   0.879  15.355  0.6936  1.5421  0.5170
 2108SOL    HW217958   2.297   0.895  15.226 -0.8857  1.2743  0.0330
 2109SOL     OW17959   0.852   0.327   2.657 -0.2165 -0.0114  0.0066
 2109SOL    HW117960   0.876   0.378   2.735 -0.4513 -0.2011  0.2037
 2109SOL    HW217961   0.759   0.349   2.662 -0.2990  0.1146 -2.0162
 2110SOL     OW17962   4.569   0.336  17.701 -0.8217 -0.1280  1.0176
 2110SOL    HW117963   4.590   0.429  17.711  0.7533 -0.1910 -1.6466
 2110SOL    HW217964   4.617   0.307   0.031  1.3939 -1.1946 -0.7386
 2111SOL     OW17965   1.189   4.070   5.374  0.2037  0.0312  0.0366
 2111SOL    HW117966   1.218   4.066   5.283  0.0911  0.0838 -0.0011
 2111SOL    HW217967   1.263   4.112   5.418  0.0773 -0.4876  0.7282
 2112SOL     OW17968   1.881   0.102   6.390 -0.4694 -0.0641  0.2003
 2112SOL    HW117969   1.869   0.050   6.470  0.3266 -1.4697 -0.5807
 2112SOL    HW217970   1.911   0.190   6.412  0.0016  0.6356 -3.2374
 2113SOL     OW17971   3.511   0.674  14.404  0.4335  0.0912  0.7787
 2113SOL    HW117972   3.460   0.606  14.361 -2.1556  1.6016  1.4509
 2113SOL    HW217973   3.574   0.708  14.341 -0.8416 -1.5074 -1.3676
 2114SOL     OW17974   2.064   0.056   1.839  0.2202 -0.1625  0.4548
 2114SOL    HW117975   2.014   0.091   1.912  0.7391 -2.1034  1.7381
 2114SOL    HW217976   2.077   4.706   1.875 -1.4698 -0.3133  0.6967
 2115SOL     OW17977   1.157   3.450   1.971 -0.1713 -0.0349 -0.1080
 2115SOL    HW117978   1.216   3.375   1.962  0.2183  0.4540 -1.7633
 2115SOL    HW217979   1.180   3.477   2.060 -0.8964 -0.2460  0.1433
 2116SOL     OW17980   4.235   0.385   4.973  0.0735  0.4133  0.2977
 2116SOL    HW117981   4.160   0.431   4.934  2.3013  3.5040 -0.2727
 2116SOL    HW217982   4.222   0.297   4.937 -0.4147  0.2162  0.9565
 2117SOL     OW17983   1.449   4.526   3.257  0.1097  0.0916 -0.2836
 2117SOL    HW117984   1.415   4.495   3.340 -0.7298  1.7655 -0.0056
 2117SOL    HW217985   1.519   4.580   3.294  0.4697  0.1218 -1.0012
 2118SOL     OW17986   1.081   2.484   7.502 -0.1103 -0.2259 -0.1928
 2118SOL    HW117987   1.034   2.553   7.550  1.2799  2.1323 -2.2062
 2118SOL    HW217988   1.003   2.432   7.482 -1.3204  1.6209 -0.3376
 2119SOL     OW17989   4.266   3.792   2.867  0.1529 -0.1915  0.2266
 2119SOL    HW117990   4.203   3.861   2.845  1.3024  0.7447 -0.1317
 2119SOL    HW217991   4.203   3.721   2.879  0.9247 -1.0967 -1.0193
 2120SOL     OW17992   1.843   1.293   8.274  0.1743 -0.7567  0.2220
 2120SOL    HW117993   1.894   1.369   8.302  0.7589 -0.7760 -0.7989
 2120SOL    HW217994   1.917   1.236   8.253  0.9850  0.2864  0.2433
 2121SOL     OW17995   2.194   2.898  11.167 -0.1610  0.1250  0.2906
 2121SOL    HW117996   2.253   2.823  11.161  0.3304  0.6361 -1.2353
 2121SOL    HW217997   2.108   2.856  11.162  0.8738 -1.9341  0.1225
 2122SOL     OW17998   3.710   4.326  12.042 -0.1449 -0.1408  0.0762
 2122SOL    HW117999   3.753   4.241  12.039 -0.9075 -0.5480  0.5910
 2122SOL    HW218000   3.729   4.347  11.951 -2.1308 -2.0491 -0.7662
 2123SOL     OW18001   4.081   2.168   1.529  0.2450  0.0772  0.5553
 2123SOL    HW118002   4.076   2.231   1.457 -1.1749  2.3768  2.6267
 2123SOL    HW218003   4.126   2.222   1.594  1.1834 -0.2497  0.1729
 2124SOL     OW18004   2.324   0.691   2.412  0.2309  0.2470 -0.3066
 2124SOL    HW118005   2.404   0.679   2.361 -0.3275  1.9349 -1.5915
 2124SOL    HW218006   2.281   0.605   2.418 -1.0289  0.9442  0.5250
 2125SOL     OW18007   1.535   0.010  12.249 -0.1846  0.1798  0.6258
 2125SOL    HW118008   1.535   0.003  12.344  1.6490 -0.1076  0.5996
 2125SOL    HW218009   1.441   0.029  12.251  0.3260  2.5766  1.1618
 2126SOL     OW18010   1.423   1.607   7.805 -0.2432 -0.0412 -0.0105
 2126SOL    HW118011   1.364   1.654   7.865 -0.9521 -1.6592  0.5569
 2126SOL    HW218012   1.482   1.680   7.786  2.1704 -2.3011 -1.1920
 2127SOL     OW18013   1.858   2.366   3.002  0.1361 -0.5192 -0.2239
 2127SOL    HW118014   1.805   2.425   2.949 -0.8703 -3.0906 -2.0909
 2127SOL    HW218015   1.822   2.391   3.088  0.3099 -0.1896 -0.2472
 2128SOL     OW18016   3.799   0.966   3.976  0.1521  0.3664 -0.0210
 2128SOL    HW118017   3.802   0.906   3.902  2.4351  1.5529 -0.9054
 2128SOL    HW218018   3.747   0.917   4.040  0.5641  0.0977  0.1057
 2129SOL     OW18019   1.197   3.829   9.231 -0.2202 -0.0178 -0.0512
 2129SOL    HW118020   1.122   3.869   9.275  0.9390  1.6962  0.3788
 2129SOL    HW218021   1.228   3.770   9.300  1.3767 -1.3283 -1.8737
 2130SOL     OW18022   0.613   4.507  10.064  0.3930 -0.1723  0.3322
 2130SOL    HW118023   0.678   4.551  10.009  1.0874 -0.7961  0.6529
 2130SOL    HW218024   0.555   4.575  10.097  2.0942  2.1321 -1.3620
 2131SOL     OW18025   2.947   1.771   0.912  0.4006  0.6949 -0.1672
 2131SOL    HW118026   2.966   1.680   0.936 -0.3030  0.9860  1.4607
 2131SOL    HW218027   2.952   1.820   0.994 -2.0359 -0.5755  0.7258
 2132SOL     OW18028   0.573   4.474   6.595  0.5120 -0.0551 -0.0160
 2132SOL    HW118029   0.658   4.514   6.609 -0.0303  0.2608  2.3272
 2132SOL    HW218030   0.577   4.470   6.499  1.1459  0.4616 -0.0072
 2133SOL     OW18031   1.058   4.448   1.752  0.0743 -0.0385  0.1578
 2133SOL    HW118032   1.093   4.463   1.840 -1.1653  1.8365  0.3354
 2133SOL    HW218033   1.004   4.375   1.780 -0.3543  0.1811 -0.0918
 2134SOL     OW18034   4.124   3.278  11.889 -0.3221  0.3773  0.3052
 2134SOL    HW118035   4.078   3.269  11.805  3.7307 -0.8880 -1.7636
 2134SOL    HW218036   4.059   3.236  11.945  0.0203 -2.7139 -1.6623
 2135SOL     OW18037   0.312   0.868   2.158 -0.5880 -0.1628 -0.5310
 2135SOL    HW118038   0.372   0.938   2.132  0.0991  0.1386  1.8667
 2135SOL    HW218039   0.356   0.787   2.133 -1.4609 -0.7417 -0.1859
 2136SOL     OW18040   0.211   2.191   7.830 -0.1756  0.1927 -0.4872
 2136SOL    HW118041   0.136   2.233   7.872  1.4672 -0.4924  3.1523
 2136SOL    HW218042   0.209   2.104   7.870  0.4145 -0.3365 -1.5916
 2137SOL     OW18043   4.404   2.789   3.330  0.1276 -0.9559 -0.1783
 2137SOL    HW118044   4.436   2.796   3.240 -0.6255  1.1293 -0.2742
 2137SOL    HW218045   4.312   2.809   3.311 -0.5647 -0.5267  3.6231
 2138SOL     OW18046   2.382   2.528   1.637 -0.0443 -0.2753 -0.2514
 2138SOL    HW118047   2.358   2.447   1.682 -3.5992  0.6701 -0.4711
 2138SOL    HW218048   2.477   2.518   1.650 -0.2773  0.0080  1.7827
 2139SOL     OW18049   3.409   0.463  14.270  0.2359 -0.1004  0.5934
 2139SOL    HW118050   3.472   0.391  14.265 -0.8850 -1.1010  0.9211
 2139SOL    HW218051   3.329   0.425  14.305  0.3423  1.0308  2.0489
 2140SOL     OW18052   3.325   2.784   1.391 -0.3556  0.1447 -0.4932
 2140SOL    HW118053   3.364   2.710   1.345 -0.3422 -0.4606  0.4930
 2140SOL    HW218054   3.395   2.848   1.406  0.7260 -1.1602 -0.0463
 2141SOL     OW18055   2.928   2.627  15.548 -0.1286 -0.3262 -0.2713
 2141SOL    HW118056   2.921   2.549  15.604  0.9611  0.0675  0.4173
 2141SOL    HW218057   3.017   2.622  15.512 -0.3948 -0.7048 -0.8706
 2142SOL     OW18058   2.716   3.785   0.778 -0.2612  0.8008 -0.2290
 2142SOL    HW118059   2.648   3.765   0.713 -0.5629  1.2344 -0.0430
 2142SOL    HW218060   2.758   3.863   0.743 -2.5613  2.0375 -0.2621
 2143SOL     OW18061   3.525   3.566  13.843  0.2708  0.3365 -0.3821
 2143SOL    HW118062   3.482   3.566  13.929  0.0737 -0.3935 -0.4796
 2143SOL    HW218063   3.459   3.613  13.791  0.6100 -0.3069 -1.3914
 2144SOL     OW18064   1.253   3.872   3.707 -0.0722 -0.2753 -0.2019
 2144SOL    HW118065   1.174   3.819   3.708 -0.2133  0.0289  4.1420
 2144SOL    HW218066   1.296   3.807   3.650 -1.7654 -1.7317  0.1870
 2145SOL     OW18067   2.777   3.549   6.545  0.8041 -0.2489  0.0371
 2145SOL    HW118068   2.783   3.607   6.469  0.8455  0.0795  0.2957
 2145SOL    HW218069   2.714   3.586   6.606 -0.0050 -1.1439 -0.2482
 2146SOL     OW18070   0.481   3.347   9.594 -0.0031  0.5174 -0.5177
 2146SOL    HW118071   0.491   3.341   9.499  1.5556 -0.8981 -0.2646
 2146SOL    HW218072   0.523   3.431   9.612 -1.0495  0.3303  2.9055
 2147SOL     OW18073   1.209   1.988   4.776 -0.1297 -0.2068  0.1542
 2147SOL    HW118074   1.143   1.952   4.717 -1.0059  3.5590 -1.1224
 2147SOL    HW218075   1.203   2.083   4.770  1.0420 -0.0653  1.0823
 2148SOL     OW18076   1.601   3.506   5.489  0.1745 -0.2582  0.3328
 2148SOL    HW118077   1.624   3.563   5.415  0.2027  0.9731  1.3033
 2148SOL    HW218078   1.551   3.568   5.541 -0.3772  0.3683 -0.9321
 2149SOL     OW18079   4.468   2.534   8.746 -0.1830 -0.2506 -0.3699
 2149SOL    HW118080   4.485   2.517   8.838  1.9373  2.3284 -0.2861
 2149SOL    HW218081   4.553   2.528   8.702  1.0927  1.5550  1.8615
 2150SOL     OW18082   0.435   4.215   8.633 -0.0963  0.0097  0.2372
 2150SOL    HW118083   0.426   4.269   8.555 -1.2673 -2.1088 -1.0822
 2150SOL    HW218084   0.504   4.258   8.685 -0.1001 -0.2724  0.4749
 2151SOL     OW18085   1.497   4.183  11.850 -0.3511 -0.3086  0.0101
 2151SOL    HW118086   1.531   4.269  11.825  0.7620  0.2959  3.6733
 2151SOL    HW218087   1.553   4.156  11.923 -0.0234  0.6132  0.0920
 2152SOL     OW18088   3.638   1.899   5.987 -0.2734  0.7107  0.0572
 2152SOL    HW118089   3.584   1.949   5.926 -0.7451 -0.5650 -0.5758
 2152SOL    HW218090   3.702   1.969   6.000 -0.3990  0.8532 -0.0971
 2153SOL     OW18091   4.158   1.376   1.755  0.6643 -0.4879 -0.0464
 2153SOL    HW118092   4.075   1.419   1.735 -0.1446 -1.7643  0.5311
 2153SOL    HW218093   4.165   1.417   1.841  2.1567  1.0235 -0.9085
 2154SOL     OW18094   1.155   2.087   2.337  0.1262  0.3735 -0.3836
 2154SOL    HW118095   1.125   2.119   2.253 -1.0129  2.9779  1.0425
 2154SOL    HW218096   1.250   2.082   2.322  0.1331 -4.5553  1.3125
 2155SOL     OW18097   1.019   3.717   3.686 -0.0855 -0.0117 -0.7603
 2155SOL    HW118098   1.025   3.636   3.737  2.5015  0.9482  0.5013
 2155SOL    HW218099   0.932   3.737   3.720  0.5885  1.8345 -0.0828
 2156SOL     OW18100   4.390   0.284   1.975 -0.7353 -0.0682 -0.5808
 2156SOL    HW118101   4.339   0.343   2.031 -1.3317  0.4586 -1.6756
 2156SOL    HW218102   4.351   0.207   2.016 -2.0753  1.2138  0.5549
 2157SOL     OW18103   1.448   0.480   1.704 -0.3309  0.0802 -0.0388
 2157SOL    HW118104   1.536   0.505   1.677 -0.9275  2.1208 -0.0763
 2157SOL    HW218105   1.405   0.471   1.619  1.9303  1.0758 -1.3014
 2158SOL     OW18106   4.242   1.104   0.432  0.6078  0.5522  0.3998
 2158SOL    HW118107   4.229   1.022   0.480 -1.7303 -0.7323 -2.4165
 2158SOL    HW218108   4.325   1.129   0.472  0.9726 -1.4179  0.8829
 2159SOL     OW18109   4.230   0.483   5.543 -0.6426  0.1732 -0.5062
 2159SOL    HW118110   4.142   0.459   5.572 -0.5117  0.3293  0.0149
 2159SOL    HW218111   4.254   0.413   5.482  0.2071 -0.0705  0.1008
 2160SOL     OW18112   3.179   3.591   9.924  0.1859 -0.5841  0.3883
 2160SOL    HW118113   3.125   3.572  10.001  0.6315 -0.5285  0.7114
 2160SOL    HW218114   3.228   3.509   9.922  1.1580  0.0218 -1.4461
 2161SOL     OW18115   0.359   2.152  14.323 -0.4568  0.1245 -0.1176
 2161SOL    HW118116   0.319   2.174  14.407 -0.0305 -0.8918  0.3377
 2161SOL    HW218117   0.280   2.134  14.272 -0.2686 -0.0242 -0.3561
 2162SOL     OW18118   0.856   2.072  16.714 -0.3462  0.5331  0.4443
 2162SOL    HW118119   0.936   2.110  16.750  1.1876 -0.0327 -2.3587
 2162SOL    HW218120   0.888   1.988  16.680 -0.7887  0.9284 -0.9682
 2163SOL     OW18121   3.559   3.332  15.055 -0.1941  0.3808 -0.2039
 2163SOL    HW118122   3.545   3.297  14.967 -1.5762  3.9014 -1.3770
 2163SOL    HW218123   3.589   3.420  15.032 -2.4358  0.6117 -2.2885
 2164SOL     OW18124   4.503   3.013  13.680 -0.1748 -0.3121 -0.3392
 2164SOL    HW118125   4.584   3.063  13.676  0.2389 -1.1068 -1.8349
 2164SOL    HW218126   4.529   2.948  13.746  0.6669 -2.5749 -2.9046
 2165SOL     OW18127   0.237   0.126   6.603 -0.2059 -0.3258  0.2626
 2165SOL    HW118128   0.170   0.127   6.670 -0.3139  0.1423  0.1432
 2165SOL    HW218129   0.315   0.121   6.659 -0.3623  0.5094  0.5415
 2166SOL     OW18130   3.519   3.192   6.932 -0.3782  0.2822 -0.6266
 2166SOL    HW118131   3.586   3.254   6.961  1.2935 -2.6766  1.7788
 2166SOL    HW218132   3.565   3.114   6.901 -2.3500 -1.9198  2.0311
 2167SOL     OW18133   0.647   3.339   4.613 -0.7047  0.2607  0.5334
 2167SOL    HW118134   0.621   3.419   4.567 -0.1189 -0.2732 -0.7153
 2167SOL    HW218135   0.739   3.348   4.587  0.3104 -2.2033  3.2663
 2168SOL     OW18136   3.160   2.507   4.924 -0.2396 -0.1421  0.4050
 2168SOL    HW118137   3.174   2.494   4.830  2.1375 -0.3141  0.7736
 2168SOL    HW218138   3.170   2.602   4.925 -0.4081 -0.1312  1.1410
 2169SOL     OW18139   1.614   1.132   6.150 -0.6374  0.0461 -0.4494
 2169SOL    HW118140   1.578   1.110   6.064  0.8282  0.6508 -1.2183
 2169SOL    HW218141   1.536   1.179   6.178  0.4812  1.0478  0.9858
 2170SOL     OW18142   2.902   3.594   7.988 -0.3961  0.0417  0.1193
 2170SOL    HW118143   2.823   3.541   8.002 -1.4793  1.2128 -1.6482
 2170SOL    HW218144   2.888   3.651   8.064 -1.5163  1.3331 -1.0642
 2171SOL     OW18145   1.013   0.633  14.136 -0.0222 -0.9620  0.7089
 2171SOL    HW118146   0.927   0.605  14.166 -1.0371  1.3532 -0.0201
 2171SOL    HW218147   1.011   0.627  14.041 -1.9757 -1.3550  0.7886
 2172SOL     OW18148   3.143   1.236   9.666  0.5074  0.2563  0.2279
 2172SOL    HW118149   3.168   1.156   9.711  3.4341  1.6689  1.0789
 2172SOL    HW218150   3.099   1.196   9.590 -0.1164  0.9398  0.2227
 2173SOL     OW18151   1.001   1.392  16.354  0.3965 -0.3383 -0.4519
 2173SOL    HW118152   0.907   1.398  16.336  0.3247  1.8695  0.6485
 2173SOL    HW218153   1.008   1.399  16.449 -0.5074 -3.8644 -0.1192
 2174SOL     OW18154   3.707   3.038  10.941 -0.2012  0.0910 -0.3028
 2174SOL    HW118155   3.635   2.979  10.966 -0.5369 -0.4370 -2.5222
 2174SOL    HW218156   3.788   2.991  10.961 -0.5898 -1.0221 -1.3697
 2175SOL     OW18157   2.798   0.262   9.031  0.0082  0.3788 -0.0022
 2175SOL    HW118158   2.829   0.334   9.085 -1.7632  1.2034 -0.0775
 2175SOL    HW218159   2.785   0.288   8.940  2.0070  2.1713  0.2267
 2176SOL     OW18160   1.123   0.682  11.799  0.4261  0.7864 -0.2017
 2176SOL    HW118161   1.065   0.631  11.854 -0.4887 -0.1474 -2.0248
 2176SOL    HW218162   1.207   0.653  11.835 -1.2872 -0.5643  2.6958
 2177SOL     OW18163   0.098   0.479   4.275  0.8466  0.7053 -0.4592
 2177SOL    HW118164   0.044   0.430   4.337 -0.5976 -0.3656 -2.5520
 2177SOL    HW218165   0.040   0.473   4.199  0.1295  2.6482 -0.0594
 2178SOL     OW18166   2.901   2.695   3.490  0.1141 -0.0370  0.2411
 2178SOL    HW118167   2.933   2.621   3.438  1.4923 -1.7171  3.4302
 2178SOL    HW218168   2.834   2.654   3.544  1.6281  0.3514  2.4480
 2179SOL     OW18169   0.084   3.230   7.444  0.7804  0.3817  0.3340
 2179SOL    HW118170   0.099   3.292   7.515  1.3549 -1.6873  2.0129
 2179SOL    HW218171   0.112   3.146   7.480  0.5798 -0.1751 -0.8243
 2180SOL     OW18172   1.544   2.050   7.446 -0.9967  0.0025 -0.6865
 2180SOL    HW118173   1.480   1.992   7.488 -0.6467 -0.8327 -1.3282
 2180SOL    HW218174   1.588   1.993   7.384  0.8533  2.2892 -1.4601
 2181SOL     OW18175   0.375   4.063   3.540 -0.3330  0.0561  0.3612
 2181SOL    HW118176   0.453   4.118   3.543  0.8321 -1.5664  0.1039
 2181SOL    HW218177   0.317   4.111   3.599  1.5095 -0.6956  2.8140
 2182SOL     OW18178   4.479   3.603   9.176  0.3664  0.0636  0.2034
 2182SOL    HW118179   4.515   3.539   9.113  1.2434  0.4083  0.3490
 2182SOL    HW218180   4.556   3.659   9.182  0.3260  0.1387  0.0258
 2183SOL     OW18181   1.643   0.633   9.654 -0.9339 -0.3397 -0.4809
 2183SOL    HW118182   1.584   0.687   9.603  2.5511  2.0746 -1.9484
 2183SOL    HW218183   1.576   0.599   9.714  0.3485 -1.5542  0.2751
 2184SOL     OW18184   3.165   4.492   7.701  0.2949 -0.5631 -0.3789
 2184SOL    HW118185   3.147   4.401   7.721  0.2213 -0.1264  1.5107
 2184SOL    HW218186   3.182   4.493   7.607  0.3386 -1.4044 -0.3790
 2185SOL     OW18187   2.898   0.542  14.168 -0.2306  0.0471  0.2235
 2185SOL    HW118188   2.912   0.615  14.228 -0.1122  1.5245 -1.6234
 2185SOL    HW218189   2.970   0.557  14.107  0.0966  0.8643  0.8226
 2186SOL     OW18190   3.828   1.827   3.274 -0.2694 -0.1073 -0.7499
 2186SOL    HW118191   3.885   1.790   3.207  3.2508  1.1217  1.5986
 2186SOL    HW218192   3.751   1.855   3.225 -0.1548 -1.6016 -1.7660
 2187SOL     OW18193   2.866   4.362  16.163  0.4132 -0.2214  0.0975
 2187SOL    HW118194   2.881   4.411  16.082  0.5198  0.9450  0.8264
 2187SOL    HW218195   2.950   4.361  16.210  0.5723  0.5308 -0.1703
 2188SOL     OW18196   3.182   0.487  11.920 -0.7681 -0.5622  0.4781
 2188SOL    HW118197   3.266   0.508  11.960 -0.1931  0.6381 -1.3267
 2188SOL    HW218198   3.186   0.534  11.836  2.4367 -0.1023  0.9034
 2189SOL     OW18199   1.288   1.038   5.436  0.3276  0.0288 -0.2692
 2189SOL    HW118200   1.284   0.964   5.375 -2.4523 -2.0355  2.4279
 2189SOL    HW218201   1.383   1.043   5.448  0.1173 -0.9505  1.7663
 2190SOL     OW18202   4.716   1.517   3.058  0.8974  0.0378  0.4323
 2190SOL    HW118203   0.036   1.551   2.990 -0.3833 -2.0075 -1.7043
 2190SOL    HW218204   0.035   1.457   3.106  0.6224 -1.4272 -1.0628
 2191SOL     OW18205   1.874   3.826   2.115  0.1081  0.9114  0.7262
 2191SOL    HW118206   1.857   3.758   2.180  1.7848 -0.9876 -0.8056
 2191SOL    HW218207   1.966   3.851   2.124  0.2185  0.1654  1.7045
 2192SOL     OW18208   2.519   0.230   5.074  0.2658  0.0432 -0.2119
 2192SOL    HW118209   2.472   0.309   5.050 -0.8885  0.0497  2.0399
 2192SOL    HW218210   2.516   0.178   4.993  1.6099 -1.6956  0.8463
 2193SOL     OW18211   3.880   3.831   0.951  0.4391  0.3198 -0.3313
 2193SOL    HW118212   3.903   3.739   0.966  0.5762  0.6833  1.6776
 2193SOL    HW218213   3.941   3.876   1.010  0.4406 -0.8233  0.5606
 2194SOL     OW18214   1.889   0.566   5.613  0.1493 -0.1216  0.2318
 2194SOL    HW118215   1.921   0.493   5.560 -0.1113 -1.6551  2.1913
 2194SOL    HW218216   1.811   0.538   5.660 -1.2808  0.9602 -1.4998
 2195SOL     OW18217   3.497   0.263   8.981 -0.0956  0.4064 -0.1146
 2195SOL    HW118218   3.535   0.350   8.988  2.6274 -0.8079  0.1965
 2195SOL    HW218219   3.559   0.205   9.026  1.6257  0.6236 -2.2269
 2196SOL     OW18220   2.402   1.358   7.570 -0.5312 -0.5001 -0.0479
 2196SOL    HW118221   2.351   1.371   7.650 -0.5242  0.6415 -0.2238
 2196SOL    HW218222   2.413   1.449   7.540 -0.1408 -0.3103  0.6539
 2197SOL     OW18223   4.686   3.013  12.200  0.4161  0.2999  0.2594
 2197SOL    HW118224   4.644   2.929  12.179  0.7176 -0.0609  1.1004
 2197SOL    HW218225   4.728   3.033  12.117  0.0796 -4.9253 -1.1496
 2198SOL     OW18226   1.290   0.841  10.392 -0.1959 -0.2502 -0.2630
 2198SOL    HW118227   1.298   0.861  10.485  2.7220  0.4519 -0.6827
 2198SOL    HW218228   1.349   0.768  10.373 -1.7972 -1.1826 -1.6928
 2199SOL     OW18229   2.930   1.590   8.838 -0.1581 -0.2374 -0.5364
 2199SOL    HW118230   2.885   1.636   8.767 -0.1849  1.9583  0.8761
 2199SOL    HW218231   3.006   1.548   8.798  0.0283 -0.1127 -0.3171
 2200SOL     OW18232   2.969   3.138   3.014  0.0771  0.0756  0.3062
 2200SOL    HW118233   2.956   3.122   2.920  0.8790 -2.7965  0.6709
 2200SOL    HW218234   2.890   3.092   3.043 -0.8739 -0.9883 -3.9240
 2201SOL     OW18235   2.664   4.294   4.189  0.4223 -0.6352 -0.1815
 2201SOL    HW118236   2.631   4.277   4.101 -0.1353 -0.7432  0.0495
 2201SOL    HW218237   2.742   4.349   4.175 -1.2092  1.6657 -0.2270
 2202SOL     OW18238   2.921   1.752  10.438  0.1827  0.2913  0.0786
 2202SOL    HW118239   2.886   1.675  10.483 -1.8869  0.5520 -1.0699
 2202SOL    HW218240   2.906   1.726  10.347 -0.6151  2.1238 -0.3116
 2203SOL     OW18241   0.775   2.669   9.306 -0.3240  0.3137 -0.1206
 2203SOL    HW118242   0.814   2.613   9.374  1.2758 -0.2515 -1.5085
 2203SOL    HW218243   0.847   2.722   9.272  0.2475 -0.6281 -0.3646
 2204SOL     OW18244   4.721   0.385   1.396  0.1683 -0.5709  0.2054
 2204SOL    HW118245   0.027   0.316   1.346  1.7607  1.6158 -1.4337
 2204SOL    HW218246   4.657   0.401   1.326  1.2278  0.9376 -0.4333
 2205SOL     OW18247   0.680   2.690  11.849 -0.0627  0.2213  0.1956
 2205SOL    HW118248   0.732   2.610  11.859 -2.4984 -0.8435  4.3832
 2205SOL    HW218249   0.605   2.643  11.814  1.2968 -0.1740 -2.1826
 2206SOL     OW18250   2.825   4.300   2.621 -0.0823 -0.5117  0.2098
 2206SOL    HW118251   2.735   4.329   2.607 -0.1263 -0.5232  0.4659
 2206SOL    HW218252   2.813   4.205   2.613 -0.9947 -0.4049  0.2670
 2207SOL     OW18253   3.870   3.436   4.881 -0.0649  0.8043 -0.0110
 2207SOL    HW118254   3.811   3.464   4.950 -0.3099  1.0530 -0.3238
 2207SOL    HW218255   3.813   3.455   4.806 -1.1552 -0.5062  0.4823
 2208SOL     OW18256   0.745   0.202  12.592  0.2370  0.8820  0.3771
 2208SOL    HW118257   0.701   0.140  12.534 -0.0681  0.8332  0.6653
 2208SOL    HW218258   0.830   0.159  12.583 -1.2888 -2.3016  1.1342
 2209SOL     OW18259   2.103   4.148   8.280 -0.0291 -0.2449 -0.4748
 2209SOL    HW118260   2.165   4.098   8.333 -1.0452 -0.6858  0.2857
 2209SOL    HW218261   2.023   4.098   8.296 -0.0079 -0.2895 -0.5093
 2210SOL     OW18262   1.272   1.281   7.178  0.2125  0.0267  0.2438
 2210SOL    HW118263   1.301   1.329   7.256 -1.8278 -0.2251  1.1405
 2210SOL    HW218264   1.354   1.268   7.130  0.2387 -3.6375  1.2307
 2211SOL     OW18265   3.475   2.397   4.759 -0.5901 -0.5189 -0.5726
 2211SOL    HW118266   3.547   2.353   4.714  1.1498  0.5613  1.1394
 2211SOL    HW218267   3.521   2.425   4.838  1.8466  0.1167 -2.2335
 2212SOL     OW18268   3.167   3.965  13.826 -0.4429  0.4461 -0.0648
 2212SOL    HW118269   3.124   4.028  13.769  0.4157  1.9166  0.9061
 2212SOL    HW218270   3.091   3.921  13.863  1.0900 -1.5194  0.7086
 2213SOL     OW18271   4.508   4.173   7.561  0.2099 -0.2040 -0.2226
 2213SOL    HW118272   4.470   4.251   7.519  1.1026 -0.0253 -0.6928
 2213SOL    HW218273   4.478   4.100   7.507 -2.3104  1.5505 -1.2429
 2214SOL     OW18274   0.292   2.864   1.423  0.3609 -0.4494 -0.2588
 2214SOL    HW118275   0.254   2.924   1.487  0.7810 -1.1649  0.6626
 2214SOL    HW218276   0.217   2.839   1.369 -1.8131  1.3209  1.8979
 2215SOL     OW18277   2.033   3.856   9.320  0.0166  0.4639  0.2035
 2215SOL    HW118278   2.120   3.817   9.310 -0.4722 -1.1852  2.5100
 2215SOL    HW218279   2.064   3.946   9.330  1.7148 -0.3244  1.9885
 2216SOL     OW18280   1.804   1.086   3.747  0.3316  0.3946  0.1760
 2216SOL    HW118281   1.757   1.058   3.668 -0.9586  0.1215  1.0481
 2216SOL    HW218282   1.784   1.179   3.757 -0.0476  0.1792  1.3671
 2217SOL     OW18283   0.138   2.367   8.790  0.5096  0.2130 -0.5666
 2217SOL    HW118284   0.156   2.285   8.744 -1.7135 -0.6238  0.0606
 2217SOL    HW218285   0.106   2.326   8.871 -0.8273  0.7930 -0.8091
 2218SOL     OW18286   0.972   4.322   8.501 -0.2895 -0.2209 -0.3782
 2218SOL    HW118287   1.015   4.311   8.586  0.4307  0.3436 -0.6768
 2218SOL    HW218288   0.881   4.299   8.522 -1.1542  2.5942 -1.0776
 2219SOL     OW18289   4.515   4.626   4.018 -0.4773  0.0989 -0.3535
 2219SOL    HW118290   4.504   4.650   3.927  0.4676  0.0634 -0.4830
 2219SOL    HW218291   4.553   4.538   4.012  3.0461  1.5824  0.2811
 2220SOL     OW18292   3.869   0.717   8.758 -0.2866  0.0626 -0.1783
 2220SOL    HW118293   3.779   0.730   8.787 -0.4541 -0.9409 -0.2181
 2220SOL    HW218294   3.865   0.752   8.669  0.5730 -0.2440 -0.3470
 2221SOL     OW18295   0.415   0.034   5.561  0.8317 -0.8894 -0.0396
 2221SOL    HW118296   0.418   0.052   5.655  0.8335 -1.3486  0.0467
 2221SOL    HW218297   0.490   0.089   5.539 -1.0861  1.0798 -1.6448
 2222SOL     OW18298   2.676   4.574  16.159 -0.2498  0.3280  0.0224
 2222SOL    HW118299   2.713   4.662  16.161 -0.7715  0.5764 -1.2603
 2222SOL    HW218300   2.747   4.519  16.192 -3.2082 -2.5509  1.6074
 2223SOL     OW18301   1.976   1.329   2.771 -0.1706 -0.6028 -0.6277
 2223SOL    HW118302   2.019   1.387   2.709  0.3655  1.1209  1.3752
 2223SOL    HW218303   1.887   1.335   2.737 -0.1334  1.0086 -0.4069
 2224SOL     OW18304   3.091   1.344   3.657  0.2339 -0.0330  0.4045
 2224SOL    HW118305   3.165   1.300   3.698  0.3843  0.3539  0.5514
 2224SOL    HW218306   3.109   1.314   3.568 -1.7275  1.9710 -0.6787
 2225SOL     OW18307   0.998   1.561   2.691 -0.7355 -0.1482 -0.7330
 2225SOL    HW118308   1.065   1.616   2.650 -0.4505 -0.3330 -0.5167
 2225SOL    HW218309   1.018   1.469   2.673  0.6589  0.5109 -2.5905
 2226SOL     OW18310   0.165   1.651   7.148 -0.5994 -0.2844 -0.3937
 2226SOL    HW118311   0.111   1.649   7.227 -1.2428 -0.3752 -0.8394
 2226SOL    HW218312   0.151   1.561   7.118  0.8515 -0.4548 -0.5612
 2227SOL     OW18313   2.340   0.476   2.130  0.0793 -0.2218  0.0732
 2227SOL    HW118314   2.370   0.458   2.041  0.5827  0.6470  0.0614
 2227SOL    HW218315   2.335   0.387   2.165 -2.5672 -0.5265 -1.1503
 2228SOL     OW18316   0.604   3.472   2.463 -0.5659  0.0522  0.2899
 2228SOL    HW118317   0.669   3.409   2.433 -0.3751  0.7766 -0.8108
 2228SOL    HW218318   0.634   3.482   2.554  0.3408 -2.2446  0.2377
 2229SOL     OW18319   4.274   3.425   7.816 -0.8632  0.6525 -0.4061
 2229SOL    HW118320   4.354   3.388   7.856 -0.1020  0.3743 -2.1992
 2229SOL    HW218321   4.249   3.346   7.768  2.0149 -0.4615 -0.1271
 2230SOL     OW18322   4.133   2.763   3.519  0.3457  0.5073  0.0408
 2230SOL    HW118323   4.175   2.774   3.604 -0.0532  0.1070  0.2905
 2230SOL    HW218324   4.137   2.667   3.515  1.6996  0.4987  1.8974
 2231SOL     OW18325   4.736   2.561   4.826  0.4467 -0.1183  0.4371
 2231SOL    HW118326   0.016   2.563   4.732 -0.3280 -0.5294  0.2828
 2231SOL    HW218327   0.043   2.479   4.847  0.8741 -0.3777 -1.4123
 2232SOL     OW18328   1.724   0.789   4.446 -0.0719  0.0029  0.4017
 2232SOL    HW118329   1.761   0.716   4.397 -1.0029  0.1411 -0.4877
 2232SOL    HW218330   1.630   0.769   4.446 -0.5245  2.1483  1.0455
 2233SOL     OW18331   0.330   4.310   4.630 -0.2555 -0.5252 -0.0305
 2233SOL    HW118332   0.324   4.313   4.725 -1.1766 -0.4869 -0.0875
 2233SOL    HW218333   0.244   4.349   4.614  1.3369  2.3982 -1.4925
 2234SOL     OW18334   4.711   0.441   0.953  0.3598  0.2397 -0.2240
 2234SOL    HW118335   4.728   0.501   0.880 -0.4010  1.0556  0.2665
 2234SOL    HW218336   4.718   0.498   1.030 -2.7796 -0.4994  0.6002
 2235SOL     OW18337   0.897   4.529  10.180  0.0321  0.1558 -0.3307
 2235SOL    HW118338   0.901   4.575  10.096  1.0620 -0.1917 -0.4745
 2235SOL    HW218339   0.919   4.441  10.149 -1.4666 -0.4561  0.3233
 2236SOL     OW18340   1.690   1.846   6.277 -0.0467 -0.3007 -0.8078
 2236SOL    HW118341   1.731   1.903   6.343 -2.9177 -0.3129  0.9720
 2236SOL    HW218342   1.698   1.903   6.200  0.8942 -0.9624 -1.1945
 2237SOL     OW18343   0.752   2.150   8.972  0.3565 -0.1916  0.7479
 2237SOL    HW118344   0.709   2.202   8.904  0.3041 -1.6741 -0.3653
 2237SOL    HW218345   0.689   2.161   9.044  1.0392 -0.3757  1.3738
 2238SOL     OW18346   3.806   4.615   5.924  0.0804 -0.2174  0.0794
 2238SOL    HW118347   3.785   4.581   5.837 -0.5568 -0.8724  0.4946
 2238SOL    HW218348   3.900   4.630   5.916 -0.2922  2.2720  0.3049
 2239SOL     OW18349   3.034   4.053   2.512 -0.6918 -0.0775  0.3633
 2239SOL    HW118350   3.061   4.144   2.501  2.3482 -1.1489 -1.0405
 2239SOL    HW218351   2.953   4.041   2.462 -0.7437 -1.6176  0.8224
 2240SOL     OW18352   2.735   2.031   2.392 -0.1649  0.4946  0.3103
 2240SOL    HW118353   2.823   2.003   2.366 -0.0565 -0.4755  1.7226
 2240SOL    HW218354   2.688   1.953   2.422  1.2863 -0.2990  0.5136
 2241SOL     OW18355   3.798   0.798   6.797  0.2726  0.5265 -0.4472
 2241SOL    HW118356   3.721   0.792   6.740 -0.7088 -0.5071  0.9921
 2241SOL    HW218357   3.844   0.721   6.763 -0.2722 -0.3677  0.8734
 2242SOL     OW18358   3.734   0.787   3.286 -0.2318  0.1695 -0.2095
 2242SOL    HW118359   3.717   0.851   3.355 -0.2677 -0.8580  0.7470
 2242SOL    HW218360   3.817   0.807   3.243 -0.9287 -0.7433 -2.0116
 2243SOL     OW18361   2.643   4.359   8.832 -0.0450 -0.1732 -0.0745
 2243SOL    HW118362   2.680   4.421   8.769 -0.1670  0.3584  0.3784
 2243SOL    HW218363   2.641   4.277   8.783 -2.2434 -0.0111 -0.2356
 2244SOL     OW18364   0.532   0.200   3.804 -0.2069 -0.1557 -0.1225
 2244SOL    HW118365   0.603   0.137   3.819  1.1262  0.8783 -1.9587
 2244SOL    HW218366   0.534   0.212   3.709 -0.6897 -1.2710 -0.2727
 2245SOL     OW18367   0.133   3.600   1.748 -0.4688 -0.3843  0.0486
 2245SOL    HW118368   0.048   3.597   1.791 -0.2340  4.0403  0.8156
 2245SOL    HW218369   0.137   3.694   1.730  1.0659 -0.4622 -0.0411
 2246SOL     OW18370   0.168   0.719   4.385  0.6284 -0.6049 -0.1063
 2246SOL    HW118371   0.080   0.755   4.395  1.3505  1.3556 -0.9545
 2246SOL    HW218372   0.143   0.636   4.345 -2.8368  0.2248  0.3238
 2247SOL     OW18373   2.449   0.269   8.984 -0.0517 -0.1027 -0.5972
 2247SOL    HW118374   2.479   0.360   8.993 -1.7660  0.4016 -0.0827
 2247SOL    HW218375   2.516   0.235   9.044  0.1523  1.3222 -0.0241
 2248SOL     OW18376   1.999   2.214   3.745  0.5731  0.3692  0.0461
 2248SOL    HW118377   2.041   2.264   3.674 -0.1257 -0.6249 -1.0667
 2248SOL    HW218378   2.063   2.235   3.813  1.3025  1.7611 -1.0656
 2249SOL     OW18379   4.720   2.332   6.150 -0.2363 -0.0807  0.2533
 2249SOL    HW118380   0.044   2.262   6.127 -0.0182  0.2422 -0.1376
 2249SOL    HW218381   0.046   2.403   6.136  0.1532 -0.3485  0.6651
 2250SOL     OW18382   1.015   1.940   6.451 -0.0282 -0.3949 -0.0442
 2250SOL    HW118383   1.068   1.869   6.487  2.8284  1.6945 -0.1228
 2250SOL    HW218384   1.018   1.913   6.359  0.6423 -0.7741  0.0960
 2251SOL     OW18385   2.997   4.133   4.177  0.2529 -0.2816 -0.0038
 2251SOL    HW118386   2.970   4.178   4.097 -3.0224  0.6725  1.6136
 2251SOL    HW218387   3.016   4.051   4.131 -0.4601  0.1433 -1.0863
 2252SOL     OW18388   0.934   4.377   0.121 -0.2823 -0.4138 -0.2737
 2252SOL    HW118389   0.899   4.361   0.033  1.5300  0.7727 -1.2142
 2252SOL    HW218390   0.949   4.470   0.104 -0.5049 -0.2891  0.2227
 2253SOL     OW18391   3.832   1.840   6.580 -0.0190 -0.3961 -0.1593
 2253SOL    HW118392   3.859   1.772   6.641  1.2392 -0.2679 -0.5667
 2253SOL    HW218393   3.759   1.799   6.533  0.2116  1.6785 -2.3674
 2254SOL     OW18394   1.819   3.703   6.227 -0.7538  0.0605 -0.6263
 2254SOL    HW118395   1.788   3.774   6.170 -1.1639  0.9702  0.7186
 2254SOL    HW218396   1.915   3.699   6.228 -0.8734 -1.8851  0.7100
 2255SOL     OW18397   3.374   1.803  10.029 -0.2332 -0.0391  0.5358
 2255SOL    HW118398   3.316   1.746  10.077 -0.0289 -0.9642 -0.3083
 2255SOL    HW218399   3.328   1.887  10.031  0.7319  0.5224 -0.3260
 2256SOL     OW18400   3.153   0.722   8.342  0.1576 -0.2971  0.6574
 2256SOL    HW118401   3.228   0.700   8.397 -0.5364 -0.1371  1.6678
 2256SOL    HW218402   3.174   0.813   8.320  0.1327  0.3014  3.2122
 2257SOL     OW18403   3.009   2.495  13.986 -0.4063  0.1261 -0.2053
 2257SOL    HW118404   2.948   2.449  13.928  0.1121 -2.2088  1.0867
 2257SOL    HW218405   2.946   2.547  14.037 -0.8121  0.5048 -1.0965
 2258SOL     OW18406   4.000   1.749  17.414  0.2779 -0.3262 -0.1159
 2258SOL    HW118407   3.990   1.760  17.320 -0.0378  0.1455 -0.0215
 2258SOL    HW218408   4.076   1.806  17.428 -0.4047  0.5320  0.0683
 2259SOL     OW18409   3.108   3.074   2.613 -0.3528  0.2279  0.3980
 2259SOL    HW118410   3.159   3.014   2.668  1.1983 -0.1169 -1.3920
 2259SOL    HW218411   3.174   3.143   2.604 -1.1060  0.7417 -1.2136
 2260SOL     OW18412   3.031   3.421  10.407  0.3531 -0.0163  0.4461
 2260SOL    HW118413   3.018   3.467  10.490 -0.1773 -0.5090  0.6377
 2260SOL    HW218414   2.965   3.352  10.415 -0.3669  0.5639 -0.6190
 2261SOL     OW18415   3.600   4.485  10.088 -0.0739  0.1887 -0.2385
 2261SOL    HW118416   3.516   4.482  10.042 -0.9661  0.3536  1.3960
 2261SOL    HW218417   3.647   4.412  10.047 -0.0782 -0.6084  1.1960
 2262SOL     OW18418   3.337   0.696   1.951  0.0004 -1.0813  0.3471
 2262SOL    HW118419   3.273   0.627   1.965 -0.0853 -0.7383  1.6284
 2262SOL    HW218420   3.358   0.687   1.858 -0.5882  1.6797 -0.0514
 2263SOL     OW18421   2.259   3.951   5.888  0.2822  0.0756 -0.2405
 2263SOL    HW118422   2.330   3.975   5.947  1.2689  0.8004 -1.7167
 2263SOL    HW218423   2.196   4.023   5.899 -1.4422 -0.9906 -3.0718
 2264SOL     OW18424   0.516   1.428   6.612  0.2262 -0.5091 -0.1506
 2264SOL    HW118425   0.434   1.477   6.615 -0.1282 -1.1222  0.0791
 2264SOL    HW218426   0.550   1.449   6.699  4.5045 -0.5833 -1.8271
 2265SOL     OW18427   1.438   1.798   6.290  0.0035  0.4675  0.3861
 2265SOL    HW118428   1.530   1.773   6.278 -0.2078  0.1296 -0.5184
 2265SOL    HW218429   1.452   1.883   6.332  2.2774  0.1517  0.2856
 2266SOL     OW18430   4.102   0.647  12.875  0.5392 -0.0378  0.2143
 2266SOL    HW118431   4.088   0.640  12.781 -0.2319  2.4317  0.1389
 2266SOL    HW218432   4.191   0.683  12.880  0.3304  0.6684 -1.2149
 2267SOL     OW18433   2.753   2.556   9.970  0.1165 -0.1607 -0.2192
 2267SOL    HW118434   2.697   2.629   9.997  0.2027 -0.3481  0.4663
 2267SOL    HW218435   2.806   2.568  10.049  0.2113 -0.6793 -0.2051
 2268SOL     OW18436   0.197   0.752  16.249  0.1527 -0.3580 -0.7275
 2268SOL    HW118437   0.236   0.836  16.272 -0.7033 -0.0459 -0.4068
 2268SOL    HW218438   0.205   0.778  16.158 -1.1434 -2.2096 -1.3835
 2269SOL     OW18439   1.174   3.417   7.298 -0.2632 -0.3573  0.0513
 2269SOL    HW118440   1.173   3.338   7.245 -3.7455 -1.2438  1.4861
 2269SOL    HW218441   1.082   3.440   7.285  0.4144  1.7834 -1.0790
 2270SOL     OW18442   0.548   2.290   2.994 -0.2097 -0.1672 -1.1281
 2270SOL    HW118443   0.576   2.373   3.031  1.5195 -1.2527 -0.0374
 2270SOL    HW218444   0.587   2.301   2.907  0.6442 -1.0515 -0.8553
 2271SOL     OW18445   3.890   0.359   8.325 -0.2535  0.2243 -0.1801
 2271SOL    HW118446   3.971   0.311   8.342  0.2149  0.5847 -1.4767
 2271SOL    HW218447   3.872   0.330   8.236 -0.6476  1.4142 -0.4818
 2272SOL     OW18448   1.539   0.600   7.687 -0.0815  0.6534 -0.1839
 2272SOL    HW118449   1.491   0.601   7.771  0.3350 -0.2401  0.0581
 2272SOL    HW218450   1.629   0.578   7.711 -0.1425 -0.0508 -0.6237
 2273SOL     OW18451   3.744   0.878  15.104  0.1287  0.2772  0.2098
 2273SOL    HW118452   3.827   0.900  15.062  0.1778  1.4902  0.9527
 2273SOL    HW218453   3.688   0.955  15.090 -0.3482 -0.3486 -1.4059
 2274SOL     OW18454   0.868   4.187   3.545 -0.0322 -0.1437 -0.0720
 2274SOL    HW118455   0.870   4.146   3.458 -0.9099  2.5106 -1.3295
 2274SOL    HW218456   0.853   4.111   3.600  0.2832 -1.7277 -2.1398
 2275SOL     OW18457   0.831   1.889  11.624 -0.1601  0.3989  0.4164
 2275SOL    HW118458   0.754   1.910  11.571 -0.0676  1.9113  0.8873
 2275SOL    HW218459   0.798   1.907  11.712 -0.5269 -0.0574  0.3719
 2276SOL     OW18460   0.070   2.879   6.721  0.0741 -0.6282 -0.2186
 2276SOL    HW118461   4.725   2.845   6.686  0.6726 -1.1141 -1.1156
 2276SOL    HW218462   0.138   2.822   6.686 -1.5866 -3.1217  0.6303
 2277SOL     OW18463   1.803   3.700   4.965  0.6607  0.2366 -0.8842
 2277SOL    HW118464   1.850   3.772   4.922  4.1315 -2.1130 -0.9416
 2277SOL    HW218465   1.876   3.661   5.012  0.0293 -0.3735 -0.4197
 2278SOL     OW18466   3.817   2.544   2.206 -0.0849 -0.8795  0.1700
 2278SOL    HW118467   3.766   2.601   2.149  0.8848  1.6023  1.7850
 2278SOL    HW218468   3.752   2.475   2.220 -0.8114 -0.9373 -3.4038
 2279SOL     OW18469   4.095   4.033   7.303 -0.1166 -0.5876  0.0956
 2279SOL    HW118470   4.104   3.971   7.230 -0.7043 -2.1730  1.3644
 2279SOL    HW218471   4.004   4.059   7.296  0.1647  0.2863 -0.2792
 2280SOL     OW18472   3.650   3.551   3.134  0.1236  0.2085 -0.7608
 2280SOL    HW118473   3.591   3.622   3.108  0.6588  1.5654  1.7607
 2280SOL    HW218474   3.605   3.479   3.091 -0.5289 -0.3732  0.8836
 2281SOL     OW18475   4.579   0.973  12.210  0.0990  0.3153  0.4137
 2281SOL    HW118476   4.666   0.990  12.247 -0.7646  0.8296  2.2293
 2281SOL    HW218477   4.601   0.920  12.134  0.9512 -0.0725  0.9339
 2282SOL     OW18478   1.300   4.514  14.064 -0.0032 -0.1748 -0.3243
 2282SOL    HW118479   1.306   4.601  14.103  2.8293 -1.4297  2.0452
 2282SOL    HW218480   1.388   4.481  14.083 -1.6375 -4.6069 -0.6582
 2283SOL     OW18481   1.367   1.916  10.525  0.5439 -0.3920 -0.2602
 2283SOL    HW118482   1.375   1.869  10.608  0.2671 -0.7319 -0.4276
 2283SOL    HW218483   1.285   1.965  10.528  0.7978 -0.0117  0.4277
 2284SOL     OW18484   1.758   1.924   8.422  0.0778 -0.0585  0.1867
 2284SOL    HW118485   1.668   1.891   8.430 -0.2287  1.0326  1.1809
 2284SOL    HW218486   1.793   1.874   8.348  1.2779 -1.3235  1.6024
 2285SOL     OW18487   3.751   4.155  13.529  0.3364  0.5431  0.7410
 2285SOL    HW118488   3.704   4.120  13.454 -2.7968  0.1681  2.8939
 2285SOL    HW218489   3.740   4.250  13.519  2.4408  0.6689 -0.3718
 2286SOL     OW18490   1.608   4.147   7.263 -0.1321  0.0861  0.5258
 2286SOL    HW118491   1.666   4.103   7.201  1.0933 -0.2213  1.9018
 2286SOL    HW218492   1.566   4.068   7.297  1.3582 -0.4673  1.1032
 2287SOL     OW18493   3.384   4.641   6.617 -0.3283 -0.4546 -1.0425
 2287SOL    HW118494   3.422   4.711   6.670  0.0071 -0.9261 -0.6553
 2287SOL    HW218495   3.414   4.570   6.674  1.6893  0.8828 -0.4272
 2288SOL     OW18496   3.121   1.100   8.610  0.4663  0.2236  0.1921
 2288SOL    HW118497   3.145   1.008   8.604 -0.2909  0.0449 -0.0715
 2288SOL    HW218498   3.130   1.109   8.705 -1.8840  0.9775  0.3359
 2289SOL     OW18499   0.970   0.261  15.820  0.2825  0.1207  0.5592
 2289SOL    HW118500   1.019   0.277  15.901  1.5271 -0.3681 -0.0925
 2289SOL    HW218501   0.985   0.341  15.771 -0.3860 -0.4625 -0.6090
 2290SOL     OW18502   2.366   2.752   6.201  0.2058  0.7844  0.1290
 2290SOL    HW118503   2.371   2.844   6.227 -1.2763  0.6290  1.0272
 2290SOL    HW218504   2.341   2.704   6.281  2.4507  0.3214  0.5357
 2291SOL     OW18505   4.231   1.341   2.360 -0.1677 -0.6274 -0.6328
 2291SOL    HW118506   4.191   1.423   2.387  2.5152  0.6505 -0.6188
 2291SOL    HW218507   4.318   1.367   2.329  0.3790  0.2101  1.6680
 2292SOL     OW18508   2.883   3.018   6.437 -0.7070  0.4379 -0.0754
 2292SOL    HW118509   2.887   3.071   6.357  0.5597  1.0186  0.3721
 2292SOL    HW218510   2.917   3.088   6.491 -2.5256  2.2876 -1.3382
 2293SOL     OW18511   1.541   2.311  11.038 -0.9332 -0.1532 -0.0791
 2293SOL    HW118512   1.485   2.346  11.107  1.1397 -0.3298  1.6941
 2293SOL    HW218513   1.610   2.377  11.028 -0.0250 -0.8727  1.4993
 2294SOL     OW18514   2.076   3.489  15.748 -0.5044 -0.0797 -0.6336
 2294SOL    HW118515   2.163   3.471  15.712  0.6891  1.2096  1.6450
 2294SOL    HW218516   2.099   3.565  15.801  1.2860 -1.9056  1.1973
 2295SOL     OW18517   0.211   3.789   4.660 -0.0595 -0.4686 -0.0199
 2295SOL    HW118518   0.164   3.727   4.717 -0.6880  0.6157  0.6379
 2295SOL    HW218519   0.176   3.764   4.575  4.0245 -0.5753 -1.6516
 2296SOL     OW18520   2.764   0.376   4.865  0.6511 -0.3296 -0.5841
 2296SOL    HW118521   2.760   0.284   4.838 -0.8507 -0.6785  0.8527
 2296SOL    HW218522   2.807   0.402   4.783 -0.3193 -0.3569 -1.1094
 2297SOL     OW18523   4.332   2.996   8.590  0.2427 -0.0073 -0.3768
 2297SOL    HW118524   4.274   2.986   8.666  0.2557 -0.7335 -0.4647
 2297SOL    HW218525   4.355   2.907   8.564 -1.0149 -0.9876  1.8517
 2298SOL     OW18526   2.060   4.215   1.980 -0.4589 -0.2226  0.4645
 2298SOL    HW118527   2.138   4.259   2.015 -0.6953  0.9728 -0.5102
 2298SOL    HW218528   2.094   4.172   1.901 -2.0675 -0.5412 -0.0449
 2299SOL     OW18529   0.042   4.677   7.834  0.2907 -0.0876  0.1936
 2299SOL    HW118530   4.709   4.712   7.889 -0.1045 -2.0286  0.9281
 2299SOL    HW218531   0.012   4.586   7.844  0.8461 -0.2486  0.3742
 2300SOL     OW18532   3.483   3.024   4.968 -0.0412  0.4628  0.3792
 2300SOL    HW118533   3.479   3.076   5.048 -0.6565  0.6704  0.2155
 2300SOL    HW218534   3.566   3.058   4.936  0.6276 -1.9022 -0.4119
 2301SOL     OW18535   3.929   0.116   7.362  0.1349 -0.2770 -0.9803
 2301SOL    HW118536   3.877   0.191   7.334  0.1516  0.0117 -0.2205
 2301SOL    HW218537   3.886   0.105   7.446  2.5091 -2.3540 -0.0366
 2302SOL     OW18538   4.617   3.833  15.591 -0.2599 -0.1145  0.3740
 2302SOL    HW118539   4.702   3.826  15.549 -0.0247  0.4376  0.7653
 2302SOL    HW218540   4.566   3.841  15.511  0.4597  0.8195  0.0120
 2303SOL     OW18541   4.412   1.453   5.272  0.1260 -0.1677  0.1327
 2303SOL    HW118542   4.425   1.540   5.310  0.7033 -1.0070  1.8821
 2303SOL    HW218543   4.335   1.467   5.216  0.5044  2.2992  0.2631
 2304SOL     OW18544   1.818   2.111   4.486  0.1599 -0.0081 -0.1998
 2304SOL    HW118545   1.748   2.133   4.548  0.1963 -0.2499 -0.0712
 2304SOL    HW218546   1.889   2.168   4.513  1.4489 -1.1515 -1.1779
 2305SOL     OW18547   1.881   3.995   1.107 -0.0586 -0.1620  0.0042
 2305SOL    HW118548   1.976   3.989   1.104 -0.3133 -3.1734 -1.5623
 2305SOL    HW218549   1.861   4.046   1.028 -0.6177 -0.4328 -0.0309
 2306SOL     OW18550   2.678   3.436   2.299 -0.1738  0.4127 -0.0086
 2306SOL    HW118551   2.744   3.490   2.342  0.5189 -1.1819  0.9168
 2306SOL    HW218552   2.609   3.502   2.291 -0.1838  0.2221 -1.4772
 2307SOL     OW18553   2.293   1.831   3.483  0.1518  0.2984  0.2215
 2307SOL    HW118554   2.245   1.751   3.503 -2.0629  1.4612 -0.5359
 2307SOL    HW218555   2.226   1.897   3.499  0.8933  1.1408 -0.1678
 2308SOL     OW18556   3.217   0.150   2.110  0.2659  0.4131  0.4483
 2308SOL    HW118557   3.180   0.177   2.194 -0.6528 -1.5916  0.6925
 2308SOL    HW218558   3.263   0.232   2.091  1.0839 -0.2689 -0.5048
 2309SOL     OW18559   2.250   3.649  17.104 -0.3543 -0.4670  0.4874
 2309SOL    HW118560   2.168   3.663  17.056  0.0438 -0.9404 -0.3352
 2309SOL    HW218561   2.219   3.603  17.182 -0.2343 -0.2445  0.6663
 2310SOL     OW18562   0.656   2.242  13.011  0.0195  0.6960 -0.6753
 2310SOL    HW118563   0.631   2.295  13.086 -2.6575 -0.3067 -0.8431
 2310SOL    HW218564   0.685   2.310  12.951  0.8412  0.9088 -0.0324
 2311SOL     OW18565   3.222   2.182   6.696  0.1007  0.4005  0.3509
 2311SOL    HW118566   3.268   2.169   6.779  1.2241 -0.4454 -0.4186
 2311SOL    HW218567   3.173   2.263   6.711 -2.0130 -0.7430 -0.2227
 2312SOL     OW18568   0.610   2.782   5.046  0.1104 -0.5150 -0.3881
 2312SOL    HW118569   0.585   2.786   5.138 -0.3725 -0.1203 -0.5385
 2312SOL    HW218570   0.623   2.877   5.047 -0.3428 -0.4524 -0.2592
 2313SOL     OW18571   2.493   0.161   4.301  0.1863 -0.2267 -0.3368
 2313SOL    HW118572   2.568   0.172   4.243  0.1318 -0.0789 -0.3810
 2313SOL    HW218573   2.543   0.128   4.375  1.5672 -0.4793 -1.3902
 2314SOL     OW18574   1.171   0.252  12.483 -0.4891 -0.1484 -0.3010
 2314SOL    HW118575   1.263   0.271  12.502 -0.5434 -0.1568 -0.0295
 2314SOL    HW218576   1.126   0.296  12.555 -0.1456 -1.2427  0.5854
 2315SOL     OW18577   3.964   1.156   0.709  0.4109 -0.0041  0.7118
 2315SOL    HW118578   3.947   1.084   0.649 -0.9552  1.0582 -0.1954
 2315SOL    HW218579   3.878   1.193   0.731  0.1460 -0.9683  1.2648
 2316SOL     OW18580   2.267   4.328   2.076  0.0506 -0.0573 -0.2926
 2316SOL    HW118581   2.358   4.306   2.055  0.3406  1.5132 -0.6717
 2316SOL    HW218582   2.273   4.340   2.170 -1.0611 -1.1919 -0.0777
 2317SOL     OW18583   3.091   0.621   4.866 -0.2420 -1.0294  0.3981
 2317SOL    HW118584   3.023   0.615   4.933  0.7261  3.7314  1.7952
 2317SOL    HW218585   3.042   0.597   4.787 -1.0639 -1.3808  1.0112
 2318SOL     OW18586   1.042   2.195   7.238  0.2671 -0.5078 -0.0165
 2318SOL    HW118587   1.123   2.245   7.242 -0.8011  1.2045  0.6150
 2318SOL    HW218588   1.019   2.182   7.330 -1.3019 -0.1543 -0.3509
 2319SOL     OW18589   4.539   1.508   3.266  0.2421  0.3099 -0.4372
 2319SOL    HW118590   4.605   1.495   3.198 -0.8989  0.6959 -1.6033
 2319SOL    HW218591   4.508   1.598   3.262 -0.7994 -0.0760 -1.1102
 2320SOL     OW18592   1.172   2.158   0.020 -0.2022  0.5000 -0.2558
 2320SOL    HW118593   1.196   2.186  17.680  2.7063  0.7599  0.5964
 2320SOL    HW218594   1.241   2.096   0.045  1.5499  2.2736 -0.6693
 2321SOL     OW18595   1.353   3.269   1.287  0.2116 -0.0904 -0.1330
 2321SOL    HW118596   1.433   3.320   1.297 -0.8575  1.7708 -1.1257
 2321SOL    HW218597   1.283   3.323   1.323  0.5617  0.7553 -0.7293
 2322SOL     OW18598   0.658   3.561   4.861  0.0711 -0.3473 -0.4457
 2322SOL    HW118599   0.653   3.466   4.853 -1.1555 -0.4809  1.6406
 2322SOL    HW218600   0.568   3.586   4.883  0.7894  0.8199  1.2269
 2323SOL     OW18601   0.368   1.958   8.195  0.5442  0.1896  0.1976
 2323SOL    HW118602   0.373   1.871   8.235  0.1849 -0.7893 -1.9132
 2323SOL    HW218603   0.315   2.007   8.258  0.1252  0.2391 -0.1939
 2324SOL     OW18604   3.517   1.957  12.065 -0.6871  0.4996 -0.1466
 2324SOL    HW118605   3.582   1.929  12.129 -0.7058  0.6116 -0.0767
 2324SOL    HW218606   3.562   2.028  12.020  2.2716 -0.5539  1.1477
 2325SOL     OW18607   2.532   3.666   9.268  0.3178  0.3761  0.4973
 2325SOL    HW118608   2.577   3.599   9.216 -0.5848  1.5630 -1.8052
 2325SOL    HW218609   2.605   3.707   9.314  1.3815  0.9382 -1.7105
 2326SOL     OW18610   2.777   2.512   3.265 -0.2309 -0.3568  0.1057
 2326SOL    HW118611   2.835   2.469   3.201 -1.3122  0.5358 -1.4914
 2326SOL    HW218612   2.764   2.437   3.323  0.3205  1.9380  3.1941
 2327SOL     OW18613   0.050   0.575   3.497 -0.2441  0.3545  0.2090
 2327SOL    HW118614   0.072   0.591   3.405 -1.0751 -0.3245 -0.1073
 2327SOL    HW218615   4.709   0.521   3.486  0.3736 -0.5593  0.3072
 2328SOL     OW18616   3.385   0.194   7.920  0.2624  0.1066  0.4582
 2328SOL    HW118617   3.413   0.194   8.011 -0.3906 -2.4024  0.6541
 2328SOL    HW218618   3.406   0.285   7.901  0.9320 -0.1361  0.0229
 2329SOL     OW18619   4.497   3.880  15.358  0.0083 -0.3779  0.6538
 2329SOL    HW118620   4.403   3.864  15.367 -0.7726  1.8359 -3.2853
 2329SOL    HW218621   4.511   3.886  15.263 -0.7793  0.8045  0.6099
 2330SOL     OW18622   4.172   1.887   0.661 -0.1686 -0.0421 -0.4670
 2330SOL    HW118623   4.257   1.930   0.647 -0.4054  0.8489  0.7816
 2330SOL    HW218624   4.194   1.808   0.711  2.2089  0.8430 -0.1034
 2331SOL     OW18625   0.082   2.720   9.373  0.5658 -0.3459  0.1754
 2331SOL    HW118626   0.133   2.642   9.347  0.7254 -0.0221 -0.4865
 2331SOL    HW218627   0.145   2.779   9.415 -0.3416  0.1742  0.7861
 2332SOL     OW18628   0.766   3.922   6.624  0.2168  0.5608 -0.4063
 2332SOL    HW118629   0.725   3.995   6.670  0.2486  0.0812  0.3782
 2332SOL    HW218630   0.835   3.961   6.569  1.4222  2.5384  2.5259
 2333SOL     OW18631   1.524   1.450   5.716  0.1499 -0.1144 -0.4344
 2333SOL    HW118632   1.602   1.504   5.727  0.4449 -0.6743  0.2551
 2333SOL    HW218633   1.489   1.481   5.633 -1.3253  0.6367  0.4526
 2334SOL     OW18634   1.635   3.708   7.010  0.3268 -0.0629  0.0697
 2334SOL    HW118635   1.590   3.765   6.949 -0.2091  0.4193  0.9250
 2334SOL    HW218636   1.579   3.705   7.087 -1.7638 -1.5306 -1.5090
 2335SOL     OW18637   2.192   3.695   7.124 -0.0057  0.3289 -0.1386
 2335SOL    HW118638   2.115   3.718   7.072 -0.8595  0.7936  1.3579
 2335SOL    HW218639   2.192   3.753   7.200 -0.8131  0.8232 -0.5147
 2336SOL     OW18640   2.262   1.700   8.325 -0.1518  0.0530  0.4738
 2336SOL    HW118641   2.330   1.765   8.309  0.0992 -1.0456 -2.9745
 2336SOL    HW218642   2.307   1.635   8.380  0.8941  1.3988  1.1940
 2337SOL     OW18643   0.412   4.337   3.051  0.6049 -0.4578  0.1718
 2337SOL    HW118644   0.470   4.279   3.100 -0.0070  0.1114  1.5544
 2337SOL    HW218645   0.359   4.368   3.124  0.1832  0.7311 -0.6210
 2338SOL     OW18646   4.275   2.068   4.089 -1.1291  0.0113  0.1520
 2338SOL    HW118647   4.282   2.013   4.011 -0.2447  0.7793 -0.3139
 2338SOL    HW218648   4.319   2.143   4.049 -0.1218 -0.9023 -0.4485
 2339SOL     OW18649   1.867   2.683   9.053 -0.5774 -0.2638 -0.2446
 2339SOL    HW118650   1.778   2.674   9.019 -0.8307  0.8279  0.1279
 2339SOL    HW218651   1.847   2.724   9.137  0.8725 -0.7598  0.3472
 2340SOL     OW18652   1.808   4.558   3.712 -0.1043  0.5151  0.3846
 2340SOL    HW118653   1.810   4.571   3.807 -0.7002  1.2569  0.2952
 2340SOL    HW218654   1.803   4.463   3.706 -1.2815  0.5494  0.8880
 2341SOL     OW18655   4.566   4.281   1.536 -0.3036  0.1411 -0.0653
 2341SOL    HW118656   4.517   4.247   1.611 -0.4118 -0.7746 -0.5477
 2341SOL    HW218657   4.542   4.373   1.533  1.3322  0.6330  1.8051
 2342SOL     OW18658   3.056   3.275   3.392  0.2088  0.5463 -0.7654
 2342SOL    HW118659   3.093   3.194   3.359  0.3895  0.8141 -1.2257
 2342SOL    HW218660   3.009   3.310   3.316 -0.9698 -0.6323 -0.5708
 2343SOL     OW18661   4.243   2.462  11.544  0.3081 -0.2990  0.0236
 2343SOL    HW118662   4.274   2.392  11.487  1.5819  0.6768 -0.4721
 2343SOL    HW218663   4.254   2.430  11.633  0.8226  0.9219  0.3911
 2344SOL     OW18664   1.010   0.298   9.028  0.2480 -0.0371  0.3434
 2344SOL    HW118665   1.092   0.317   8.983 -1.1457  0.8690 -1.8156
 2344SOL    HW218666   0.946   0.327   8.963  0.5481 -0.4393 -0.1397
 2345SOL     OW18667   0.356   4.694   7.676 -0.2469  0.1472 -0.3822
 2345SOL    HW118668   0.428   4.660   7.624  0.4952 -0.3927  0.9957
 2345SOL    HW218669   0.321   0.019   7.612 -1.1491  1.7673  1.6948
 2346SOL     OW18670   2.785   3.010   5.906  0.2436 -0.4667  0.1480
 2346SOL    HW118671   2.717   3.039   5.967  1.0775  1.3137  0.2268
 2346SOL    HW218672   2.721   2.989   5.838 -0.3927 -0.9410  0.8933
 2347SOL     OW18673   2.844   3.235   6.245 -0.1822  0.4956  0.2691
 2347SOL    HW118674   2.780   3.281   6.299 -1.6354 -0.5705 -0.5382
 2347SOL    HW218675   2.882   3.310   6.198  2.1104 -1.5249 -1.0530
 2348SOL     OW18676   1.352   0.471   7.150  0.0824 -0.2030 -0.0253
 2348SOL    HW118677   1.355   0.382   7.115 -0.7984 -0.8703  1.5949
 2348SOL    HW218678   1.275   0.468   7.205 -1.1794 -0.6440 -1.8083
 2349SOL     OW18679   2.942   3.890  11.070 -0.2169 -0.0406 -0.2772
 2349SOL    HW118680   2.947   3.965  11.130  3.6739 -0.1986 -0.3960
 2349SOL    HW218681   2.995   3.933  11.003  0.2118  0.8613  0.6366
 2350SOL     OW18682   0.169   2.033   2.940  0.0886  0.1925  0.3957
 2350SOL    HW118683   0.136   2.070   3.022 -1.0089 -0.5385  0.2833
 2350SOL    HW218684   0.129   2.099   2.883  0.4454  0.1534  0.1058
 2351SOL     OW18685   0.831   3.112   7.252  0.5756  0.3952  1.0024
 2351SOL    HW118686   0.774   3.189   7.258  1.0965  0.9055 -0.5922
 2351SOL    HW218687   0.767   3.041   7.250  0.8955  0.1821 -1.7428
 2352SOL     OW18688   0.983   0.597   8.246 -0.0732  0.6075 -0.1530
 2352SOL    HW118689   0.954   0.535   8.179 -1.7557  1.0746  0.1564
 2352SOL    HW218690   1.019   0.665   8.189 -0.1055 -0.2771 -1.2417
 2353SOL     OW18691   1.576   1.165  10.393  0.2364  0.3659 -0.1781
 2353SOL    HW118692   1.648   1.103  10.377  1.8485  2.1530  0.1732
 2353SOL    HW218693   1.502   1.127  10.346  0.0951 -0.0990  0.4130
 2354SOL     OW18694   3.186   3.316   9.756 -0.4106 -0.4592  0.3502
 2354SOL    HW118695   3.219   3.288   9.841 -1.4402 -2.1799  0.1919
 2354SOL    HW218696   3.259   3.309   9.694 -1.6923  0.9230 -1.3040
 2355SOL     OW18697   1.311   2.044   5.105 -0.2586 -0.6029  0.3631
 2355SOL    HW118698   1.226   2.045   5.060 -0.2243 -2.1249  0.2754
 2355SOL    HW218699   1.289   2.087   5.187 -0.4609 -1.2539  0.6456
 2356SOL     OW18700   1.889   4.519   8.326 -0.0068  0.0660  0.6380
 2356SOL    HW118701   1.823   4.452   8.308  1.9708 -1.1580 -2.0419
 2356SOL    HW218702   1.852   4.592   8.277 -1.4374 -1.2702 -0.2901
 2357SOL     OW18703   4.721   3.820   5.183  0.1853  0.1186 -0.0635
 2357SOL    HW118704   4.722   3.790   5.275 -0.1837  0.1362 -0.0528
 2357SOL    HW218705   0.074   3.848   5.167  0.4061  1.2899  3.1289
 2358SOL     OW18706   2.875   3.955   6.955 -0.2143 -0.4224  0.5855
 2358SOL    HW118707   2.961   3.935   6.916 -0.4246 -1.6479  0.7702
 2358SOL    HW218708   2.832   4.010   6.889  1.1022  1.6858  1.4603
 2359SOL     OW18709   4.222   2.970   7.299  0.1508 -0.0921  0.1741
 2359SOL    HW118710   4.157   2.911   7.262  0.3771 -1.1702  1.5110
 2359SOL    HW218711   4.260   2.929   7.377  1.2707 -1.6514 -1.1758
 2360SOL     OW18712   3.796   4.295   4.674  0.4059  0.4561  0.1766
 2360SOL    HW118713   3.730   4.319   4.609 -0.2120 -0.4290  0.4865
 2360SOL    HW218714   3.865   4.361   4.666  0.3386  0.0408 -4.1504
 2361SOL     OW18715   3.824   2.914  17.524 -0.2241 -0.0128  0.0677
 2361SOL    HW118716   3.768   2.841  17.498  2.3446 -1.0389 -2.6204
 2361SOL    HW218717   3.850   2.948  17.438  0.6028  0.8483  0.6496
 2362SOL     OW18718   0.119   0.974   7.437  0.1245  0.1677 -0.4708
 2362SOL    HW118719   0.047   0.992   7.497  0.8315  0.5581  0.2632
 2362SOL    HW218720   0.111   0.880   7.419  0.4561 -0.2057  1.3957
 2363SOL     OW18721   3.105   3.906   1.890  0.3309 -0.2933 -0.1623
 2363SOL    HW118722   3.160   3.836   1.925 -0.7163 -0.9349  0.2022
 2363SOL    HW218723   3.131   3.916   1.798  0.7763  0.3723  0.0369
 2364SOL     OW18724   2.672   3.664   5.849 -0.0923 -0.4793 -0.0001
 2364SOL    HW118725   2.583   3.665   5.884 -0.0479 -1.8324  0.1387
 2364SOL    HW218726   2.700   3.574   5.859  0.0739 -0.2175  1.9124
 2365SOL     OW18727   1.020   4.520   8.306  0.2269 -0.3004 -0.0038
 2365SOL    HW118728   1.027   4.455   8.375 -0.5153  0.2995  0.6312
 2365SOL    HW218729   0.984   4.590   8.360 -0.3950  0.5239 -1.4646
 2366SOL     OW18730   1.266   3.608  15.173 -0.5823  0.3623 -0.2643
 2366SOL    HW118731   1.326   3.607  15.247 -1.1300  1.9130  0.2073
 2366SOL    HW218732   1.335   3.587  15.110  0.1128  0.1177  0.5839
 2367SOL     OW18733   1.225   0.864   4.353  0.6206  0.2305 -0.4667
 2367SOL    HW118734   1.218   0.895   4.443 -0.5524 -0.7958 -0.1957
 2367SOL    HW218735   1.281   0.936   4.325  2.6037 -1.0776  0.1334
 2368SOL     OW18736   1.902   3.351  15.905  0.4701 -0.2476  0.6062
 2368SOL    HW118737   1.965   3.402  15.854  0.3839 -1.5039 -0.7536
 2368SOL    HW218738   1.918   3.371  15.997 -1.5343 -1.0937  1.1313
 2369SOL     OW18739   2.266   1.705   5.197  0.5015 -0.0148  0.2728
 2369SOL    HW118740   2.262   1.798   5.175 -0.5328  0.0218  0.5854
 2369SOL    HW218741   2.287   1.672   5.110  1.4180 -0.9966  0.8657
 2370SOL     OW18742   0.093   0.205   8.552  0.1111  0.6064  0.3323
 2370SOL    HW118743   0.022   0.148   8.521  0.5318  0.4854 -0.3992
 2370SOL    HW218744   0.135   0.150   8.617 -0.5353 -0.2680  0.0198
 2371SOL     OW18745   2.648   3.442   8.675  0.2276 -0.0193 -0.0619
 2371SOL    HW118746   2.646   3.371   8.740  0.6723 -1.2960 -1.4373
 2371SOL    HW218747   2.558   3.472   8.682 -0.4947 -1.6216 -2.4374
 2372SOL     OW18748   3.329   1.827   4.422 -0.3982 -0.3570  0.1786
 2372SOL    HW118749   3.370   1.758   4.371  0.3075  0.9749 -1.0403
 2372SOL    HW218750   3.407   1.874   4.452 -1.2597  1.5703 -0.5878
 2373SOL     OW18751   1.574   2.611  15.805  0.0051 -0.0146  0.0174
 2373SOL    HW118752   1.609   2.686  15.758 -0.4554 -1.9555 -3.3628
 2373SOL    HW218753   1.627   2.537  15.776  0.2166 -0.3660  1.2585
 2374SOL     OW18754   2.141   0.673   2.126  0.1606  0.2886 -0.3423
 2374SOL    HW118755   2.200   0.599   2.114  0.3458  0.2497  0.8504
 2374SOL    HW218756   2.186   0.752   2.157 -0.7738  0.1736  1.3182
 2375SOL     OW18757   2.325   2.822   7.436  0.2863 -0.2530 -0.0381
 2375SOL    HW118758   2.290   2.854   7.353 -1.6111 -0.8314  0.5537
 2375SOL    HW218759   2.256   2.766   7.470  0.3568  0.0011  0.5249
 2376SOL     OW18760   3.697   0.153  16.310  0.0851 -0.4702 -0.0107
 2376SOL    HW118761   3.750   0.081  16.343  2.3730  0.6853 -1.1333
 2376SOL    HW218762   3.617   0.128  16.356  0.8714  0.0994  1.6672
 2377SOL     OW18763   2.538   0.597  13.311 -0.3731 -0.3637 -0.0875
 2377SOL    HW118764   2.595   0.666  13.276 -1.7301  0.6639 -0.2806
 2377SOL    HW218765   2.454   0.639  13.296  0.5253  1.3809 -0.2581
 2378SOL     OW18766   0.949   4.221   9.073 -0.1787  0.0614  0.1510
 2378SOL    HW118767   0.992   4.272   9.142 -0.9234 -0.5976  1.0970
 2378SOL    HW218768   0.867   4.212   9.121 -0.3779 -0.4942 -0.2923
 2379SOL     OW18769   3.549   2.039   6.474  0.0767  0.2265  0.0775
 2379SOL    HW118770   3.619   2.084   6.427  0.5529 -1.8046 -1.1215
 2379SOL    HW218771   3.554   1.949   6.443 -0.3888  0.5313 -0.8859
 2380SOL     OW18772   2.774   3.056   9.533  0.3944 -0.1710  0.1809
 2380SOL    HW118773   2.810   3.011   9.457  1.3255 -0.9679  1.0847
 2380SOL    HW218774   2.843   3.045   9.599  1.4444  0.2039 -0.8559
 2381SOL     OW18775   0.331   2.144   0.806 -0.4737 -0.3801 -0.0839
 2381SOL    HW118776   0.378   2.226   0.791 -2.2876  1.3520  3.6820
 2381SOL    HW218777   0.389   2.091   0.751  1.7506  0.2607  1.6322
 2382SOL     OW18778   4.409   2.880   8.973  0.2788  0.2284 -0.4210
 2382SOL    HW118779   4.475   2.924   8.919  1.8302 -0.6892  0.7465
 2382SOL    HW218780   4.429   2.914   9.060  0.4691 -2.2001  0.4717
 2383SOL     OW18781   2.761   2.028  16.154 -0.2319  0.4014  0.4570
 2383SOL    HW118782   2.839   2.078  16.180 -0.6821 -0.4952  3.4992
 2383SOL    HW218783   2.740   2.052  16.064 -1.4538 -2.5736 -0.0650
 2384SOL     OW18784   2.134   2.405   3.581  0.3892  0.0594 -0.1854
 2384SOL    HW118785   2.093   2.487   3.609  0.3726 -0.6505  1.8686
 2384SOL    HW218786   2.145   2.424   3.488 -0.5227  3.0929  0.2994
 2385SOL     OW18787   2.863   4.285   1.083 -0.3734  0.4985 -0.4477
 2385SOL    HW118788   2.907   4.284   0.998  0.8278  0.3822  0.1753
 2385SOL    HW218789   2.833   4.194   1.087  0.5813  0.1547 -1.1503
 2386SOL     OW18790   3.135   0.501   9.151 -0.1590  0.2862  0.2330
 2386SOL    HW118791   3.086   0.439   9.205  1.6789 -0.7063  0.7467
 2386SOL    HW218792   3.160   0.438   9.083  0.9307  0.8761  0.1021
 2387SOL     OW18793   4.641   1.319   7.831  0.0225 -0.3140  0.1552
 2387SOL    HW118794   4.609   1.230   7.842  0.7351 -0.7048 -1.0029
 2387SOL    HW218795   4.576   1.371   7.879  0.3896  0.1874  0.1076
 2388SOL     OW18796   3.555   1.631   3.044 -0.0730 -0.2506  0.3956
 2388SOL    HW118797   3.618   1.696   3.073 -0.0572  0.3290 -0.9511
 2388SOL    HW218798   3.497   1.685   2.991 -0.4371  0.4047  1.4928
 2389SOL     OW18799   2.530   3.623  11.709  0.1436 -0.3526 -0.0791
 2389SOL    HW118800   2.571   3.698  11.752 -1.9133  1.3195 -1.0241
 2389SOL    HW218801   2.606   3.565  11.709 -0.7715 -1.5749 -2.2272
 2390SOL     OW18802   2.663   3.351   6.401 -0.7653 -0.0387 -0.2128
 2390SOL    HW118803   2.651   3.283   6.468  1.5777 -1.1221 -0.8730
 2390SOL    HW218804   2.689   3.422   6.460 -2.1931 -0.2176  0.6208
 2391SOL     OW18805   0.694   3.917   4.733  0.5295  0.1105 -0.0410
 2391SOL    HW118806   0.654   3.835   4.706  0.6674  0.1832 -0.4612
 2391SOL    HW218807   0.698   3.963   4.649 -0.1536 -0.6990 -0.5122
 2392SOL     OW18808   0.440   4.486   5.113  0.6452  0.7602  0.6194
 2392SOL    HW118809   0.438   4.564   5.057 -4.1473  1.6336  2.0473
 2392SOL    HW218810   0.445   4.521   5.201 -0.6784  1.3868  0.4365
 2393SOL     OW18811   2.017   2.778   4.610  0.5312 -0.3827 -0.4243
 2393SOL    HW118812   1.988   2.719   4.680 -0.3377  1.7135  0.9789
 2393SOL    HW218813   1.963   2.856   4.622  0.2062 -0.4739 -1.3145
 2394SOL     OW18814   2.175   4.093   8.013 -0.6142 -0.3365  0.6010
 2394SOL    HW118815   2.181   4.139   8.096 -0.8649 -0.0860  0.4819
 2394SOL    HW218816   2.085   4.122   7.998 -1.5222 -2.9221  0.9974
 2395SOL     OW18817   0.400   1.067  14.593  0.3618  0.3440 -0.5761
 2395SOL    HW118818   0.477   1.037  14.545  0.4523 -1.8812  0.9831
 2395SOL    HW218819   0.423   1.033  14.679  2.5678  1.3252 -0.7752
 2396SOL     OW18820   0.967   3.301   3.047 -0.1781 -0.2438  0.1152
 2396SOL    HW118821   0.968   3.396   3.061 -2.4788 -0.1135 -0.5760
 2396SOL    HW218822   0.901   3.302   2.978 -0.5607 -2.7196  0.4596
 2397SOL     OW18823   1.276   1.825  16.267  0.0139 -0.7810  0.0572
 2397SOL    HW118824   1.202   1.878  16.237 -1.5358 -0.9354  3.5896
 2397SOL    HW218825   1.250   1.740  16.230  1.2538 -1.2716  0.3123
 2398SOL     OW18826   1.080   3.457  15.336 -0.1670 -0.4678  0.1026
 2398SOL    HW118827   1.107   3.365  15.326  0.8740 -0.1491 -0.0232
 2398SOL    HW218828   1.096   3.498  15.251 -1.1811 -0.9792 -0.3277
 2399SOL     OW18829   3.549   3.584   2.126 -0.0579  0.2033 -0.2549
 2399SOL    HW118830   3.496   3.631   2.191  0.6758  0.7457 -0.0435
 2399SOL    HW218831   3.636   3.611   2.157 -1.1149 -0.2832  3.2215
 2400SOL     OW18832   1.217   0.658   7.931 -0.1482 -0.1894 -0.3666
 2400SOL    HW118833   1.254   0.729   7.878  0.8227 -1.1735 -0.9886
 2400SOL    HW218834   1.201   0.599   7.858  1.8360 -0.2478 -0.7557
 2401SOL     OW18835   2.713   2.030   0.676  0.0669  0.0131  0.1304
 2401SOL    HW118836   2.802   2.042   0.710  0.3099  2.8904 -1.5992
 2401SOL    HW218837   2.726   2.043   0.582 -0.0304  0.7964  0.2248
 2402SOL     OW18838   2.061   3.783  12.421 -0.0015  0.3949  0.0778
 2402SOL    HW118839   2.109   3.841  12.480 -1.1050  0.7659  0.6167
 2402SOL    HW218840   1.996   3.739  12.477 -0.2008 -0.0468 -0.5077
 2403SOL     OW18841   0.818   0.145   0.128 -0.2176 -0.4459  0.3488
 2403SOL    HW118842   0.728   0.140   0.096 -0.3837 -0.6864  0.8664
 2403SOL    HW218843   0.837   0.239   0.132 -0.2892 -0.4407  0.5706
 2404SOL     OW18844   0.085   1.253   6.217  0.1562  0.4422 -0.3190
 2404SOL    HW118845   0.072   1.346   6.239 -0.3972 -0.3088  2.4740
 2404SOL    HW218846   0.017   1.237   6.152  0.9758 -0.5178 -0.9464
 2405SOL     OW18847   3.712   1.483   1.074 -0.1419  0.5761 -0.6847
 2405SOL    HW118848   3.794   1.436   1.065 -0.0545  0.4704  0.7694
 2405SOL    HW218849   3.660   1.436   1.008  0.4019  0.7890 -1.2639
 2406SOL     OW18850   0.049   2.122   6.362 -0.1167  0.3233 -0.1720
 2406SOL    HW118851   0.110   2.172   6.308  0.4431  0.2709  0.4030
 2406SOL    HW218852   0.025   2.048   6.306  0.5186 -0.6420  0.8236
 2407SOL     OW18853   4.425   4.158   6.844 -0.3674  0.1108 -0.0196
 2407SOL    HW118854   4.476   4.162   6.925  0.6850  0.8406 -0.7204
 2407SOL    HW218855   4.492   4.123   6.787  1.4330  2.6035  0.5515
 2408SOL     OW18856   4.651   4.693   2.975 -0.0875  0.5804  0.0781
 2408SOL    HW118857   4.586   0.020   2.950 -2.4483 -1.4568  1.0070
 2408SOL    HW218858   4.650   4.638   2.897 -1.2480 -0.0432  0.5327
 2409SOL     OW18859   0.611   0.397   1.908  0.5106  0.2430  0.6643
 2409SOL    HW118860   0.525   0.436   1.892 -0.4153 -2.1382 -0.1084
 2409SOL    HW218861   0.645   0.402   1.819 -0.4690 -0.0119  0.2745
 2410SOL     OW18862   4.564   4.331   2.303  0.0985 -0.2813 -0.5407
 2410SOL    HW118863   4.657   4.308   2.313 -0.2415 -2.3618 -2.3624
 2410SOL    HW218864   4.528   4.253   2.345  0.0260  1.1132  2.0108
 2411SOL     OW18865   1.747   0.417   1.920 -0.0418  0.3368 -0.1560
 2411SOL    HW118866   1.820   0.356   1.929  0.0013  0.5337  0.7750
 2411SOL    HW218867   1.803   0.493   1.912  0.3360 -0.1444 -2.0329
 2412SOL     OW18868   0.268   3.735   2.288  0.3015 -0.1979 -0.0899
 2412SOL    HW118869   0.238   3.644   2.292  0.0353 -0.1062  0.0321
 2412SOL    HW218870   0.345   3.728   2.232  0.6541 -0.4891  0.4393
 2413SOL     OW18871   0.333   0.442  16.955  0.0619 -0.0490 -0.8395
 2413SOL    HW118872   0.243   0.451  16.923 -0.6475  0.4116  1.2975
 2413SOL    HW218873   0.380   0.455  16.873  0.5229 -0.4222 -0.6309
 2414SOL     OW18874   0.589   2.266   6.398  0.5748  0.0871 -0.2149
 2414SOL    HW118875   0.507   2.252   6.350 -0.4282 -3.2300  2.4985
 2414SOL    HW218876   0.557   2.307   6.478  2.6195 -0.3088  0.7994
 2415SOL     OW18877   1.237   1.610   7.180 -0.0364  0.3936  0.1239
 2415SOL    HW118878   1.169   1.633   7.243 -1.3504  0.3449 -1.2550
 2415SOL    HW218879   1.294   1.547   7.224 -0.7577 -0.1235  0.3291
 2416SOL     OW18880   1.316   3.571   5.759 -0.6832  0.2002  0.2454
 2416SOL    HW118881   1.345   3.507   5.825 -1.6523 -0.4497  0.0543
 2416SOL    HW218882   1.354   3.533   5.680 -1.0930  1.7425 -0.6795
 2417SOL     OW18883   4.193   4.317   6.255 -0.5462  0.5674 -0.2183
 2417SOL    HW118884   4.270   4.369   6.230 -1.1932  0.8202 -1.6531
 2417SOL    HW218885   4.140   4.396   6.263  1.0607  1.6312 -0.0166
 2418SOL     OW18886   3.095   2.320   5.564  0.3251  0.2424  0.8861
 2418SOL    HW118887   3.182   2.279   5.556  1.3308  2.9337 -1.6784
 2418SOL    HW218888   3.085   2.315   5.659 -1.6591  2.7133  0.7876
 2419SOL     OW18889   2.180   2.206  10.017  0.2196  0.0956  0.4383
 2419SOL    HW118890   2.175   2.194   9.922 -1.4277 -2.0462  0.7998
 2419SOL    HW218891   2.139   2.292  10.028  0.9992  0.4009  0.9653
 2420SOL     OW18892   3.900   4.379  15.664  0.5452 -0.4170  0.1200
 2420SOL    HW118893   3.972   4.443  15.672  0.1094  0.2014 -0.9611
 2420SOL    HW218894   3.893   4.368  15.570  1.3450  3.3345 -0.3668
 2421SOL     OW18895   0.751   0.435   3.635 -0.2428  0.6260 -0.1759
 2421SOL    HW118896   0.839   0.407   3.610 -1.3962 -2.6772 -0.4934
 2421SOL    HW218897   0.773   0.445   3.728 -2.5496 -2.3836  0.7258
 2422SOL     OW18898   4.631   0.343  12.417 -0.0440 -0.1174  0.2378
 2422SOL    HW118899   4.587   0.424  12.444  0.5971 -0.2394  1.6359
 2422SOL    HW218900   4.562   0.281  12.439  0.3709 -0.0006  1.8901
 2423SOL     OW18901   0.600   0.565   1.385 -0.0131  0.0428 -0.7669
 2423SOL    HW118902   0.569   0.571   1.295 -0.8084  1.6498 -0.3782
 2423SOL    HW218903   0.692   0.578   1.360 -0.5649  2.4395 -1.5025
 2424SOL     OW18904   0.868   1.134   8.438 -0.3883  0.3137 -0.0300
 2424SOL    HW118905   0.851   1.064   8.376  1.0357 -0.8981  0.9541
 2424SOL    HW218906   0.963   1.138   8.450 -0.2145  1.6222 -1.7759
 2425SOL     OW18907   2.272   1.810   2.674  0.2094 -0.9008 -0.2264
 2425SOL    HW118908   2.252   1.844   2.761 -1.2269 -2.8510  0.2156
 2425SOL    HW218909   2.359   1.781   2.699  0.9464  0.6299 -1.0502
 2426SOL     OW18910   3.358   0.123  10.675  0.2239 -0.0066  0.2624
 2426SOL    HW118911   3.336   0.083  10.591 -0.8747  2.2545 -0.5155
 2426SOL    HW218912   3.447   0.152  10.655 -0.1073  0.6745 -0.2162
 2427SOL     OW18913   4.085   1.193   5.536 -0.3043  0.2029  0.4799
 2427SOL    HW118914   4.056   1.137   5.465  3.5414 -0.1921 -0.7725
 2427SOL    HW218915   4.047   1.147   5.611  0.4017 -2.7997 -1.0209
 2428SOL     OW18916   2.547   4.012   6.803  0.3883  0.2084 -0.1828
 2428SOL    HW118917   2.602   4.068   6.859  1.8048 -1.6341  0.2635
 2428SOL    HW218918   2.455   4.030   6.824  0.5374  0.2118  0.4563
 2429SOL     OW18919   1.231   2.680   4.396  0.3191 -0.1850  0.1097
 2429SOL    HW118920   1.277   2.640   4.322  2.1366  0.1730  1.0315
 2429SOL    HW218921   1.268   2.768   4.407  0.2219  0.0972 -1.7330
 2430SOL     OW18922   3.852   0.008   1.945 -0.2427 -0.0606 -0.1390
 2430SOL    HW118923   3.887   0.097   1.951 -1.3486  0.3186  0.7386
 2430SOL    HW218924   3.765   0.019   1.984 -0.2815 -1.1138  0.0738
 2431SOL     OW18925   2.897   1.787   3.406 -0.2947  0.5160 -0.9499
 2431SOL    HW118926   2.946   1.716   3.446 -1.5638  1.6962  2.7496
 2431SOL    HW218927   2.945   1.817   3.330 -2.3669  2.6537 -1.4315
 2432SOL     OW18928   4.576   3.413   0.771 -0.1768  0.1759  0.1554
 2432SOL    HW118929   4.486   3.386   0.751  0.4083 -1.0885 -0.7666
 2432SOL    HW218930   4.567   3.509   0.775 -1.3254  0.0480  0.7495
 2433SOL     OW18931   1.678   2.477   4.135 -0.4332 -0.1830  0.5702
 2433SOL    HW118932   1.635   2.504   4.054  0.7888  2.6173  0.8505
 2433SOL    HW218933   1.765   2.515   4.123 -1.8911  2.8540 -0.3896
 2434SOL     OW18934   3.427   0.850   4.312  0.1886 -0.4507  0.2528
 2434SOL    HW118935   3.356   0.786   4.308 -0.2800  0.0632  0.3609
 2434SOL    HW218936   3.402   0.903   4.388 -2.2846  0.1752 -1.0061
 2435SOL     OW18937   2.994   3.295   1.934 -0.3347 -0.3212 -0.2941
 2435SOL    HW118938   3.009   3.384   1.965 -2.8791  0.5063 -1.4361
 2435SOL    HW218939   3.010   3.310   1.841  0.0599  3.6991  0.4213
 2436SOL     OW18940   1.357   1.175   3.758  0.0302  0.3089 -0.1183
 2436SOL    HW118941   1.263   1.187   3.769 -0.5307 -1.0789 -3.2095
 2436SOL    HW218942   1.383   1.121   3.832 -0.0702  0.3217 -0.0752
 2437SOL     OW18943   0.360   1.071   7.211  0.3780 -0.0241  0.6714
 2437SOL    HW118944   0.397   1.103   7.294 -0.7581  0.2007  1.0947
 2437SOL    HW218945   0.266   1.088   7.213  0.1792 -1.1072  0.2539
 2438SOL     OW18946   0.502   0.357   8.235  0.0923  0.5210  0.2519
 2438SOL    HW118947   0.598   0.355   8.232  0.0693 -0.5196  0.0860
 2438SOL    HW218948   0.486   0.451   8.245 -1.0827  0.6384 -2.8712
 2439SOL     OW18949   4.320   2.387   2.902 -0.0113  0.3425 -0.2228
 2439SOL    HW118950   4.312   2.458   2.838 -2.8680 -2.3374 -2.8251
 2439SOL    HW218951   4.351   2.311   2.853 -1.8657  1.2289 -2.7692
 2440SOL     OW18952   0.015   2.303   5.418  0.6915 -0.4281 -0.2155
 2440SOL    HW118953   4.674   2.278   5.369 -0.4507 -0.5558  1.6797
 2440SOL    HW218954   0.017   2.236   5.487 -1.6653  0.2281  0.4906
 2441SOL     OW18955   2.405   2.553   7.670 -0.3308 -0.1923 -0.2858
 2441SOL    HW118956   2.438   2.610   7.739 -0.3059 -1.0436  0.4079
 2441SOL    HW218957   2.313   2.573   7.655 -0.0788  1.0647 -0.0928
 2442SOL     OW18958   4.474   2.227   1.956  0.4631 -0.0567  0.3493
 2442SOL    HW118959   4.556   2.214   1.909 -0.1390  2.3284 -1.3285
 2442SOL    HW218960   4.463   2.147   2.008  0.8417  0.6842  1.5678
 2443SOL     OW18961   0.283   0.232   4.365 -0.2764  0.0804  0.0799
 2443SOL    HW118962   0.233   0.175   4.423  1.5539 -0.2075  1.3900
 2443SOL    HW218963   0.231   0.231   4.285  0.0403  0.1166 -0.1287
 2444SOL     OW18964   1.875   3.562   6.731 -0.5617  0.0026 -0.0605
 2444SOL    HW118965   1.915   3.649   6.728  0.6676 -0.5352  0.9491
 2444SOL    HW218966   1.805   3.577   6.667 -0.0059 -0.5844 -0.8138
 2445SOL     OW18967   2.762   2.496   4.444  0.3601  0.2478  1.0819
 2445SOL    HW118968   2.734   2.406   4.434  0.4810  0.4159 -0.8857
 2445SOL    HW218969   2.680   2.536   4.472 -0.2543  1.1106 -1.9593
 2446SOL     OW18970   0.514   0.654  10.111  0.5558 -0.1554  0.5478
 2446SOL    HW118971   0.565   0.711  10.168  0.3386 -2.7334  3.3685
 2446SOL    HW218972   0.583   0.589  10.099  0.4342 -0.1109 -0.3982
 2447SOL     OW18973   2.300   0.837   5.345  0.3563 -0.4095  0.4005
 2447SOL    HW118974   2.390   0.847   5.316  0.0304 -0.2070 -0.5576
 2447SOL    HW218975   2.293   0.875   5.432  2.3552  0.1376  0.3222
 2448SOL     OW18976   1.222   1.260  13.529  0.9403  0.1727 -0.5149
 2448SOL    HW118977   1.248   1.339  13.577  1.5814  0.6987 -1.7469
 2448SOL    HW218978   1.194   1.297  13.445  0.1422 -0.6603 -0.6118
 2449SOL     OW18979   0.291   1.924   7.515 -0.6427  0.7393  0.4249
 2449SOL    HW118980   0.207   1.921   7.468  0.3317  0.8930 -1.3222
 2449SOL    HW218981   0.343   1.877   7.450 -0.4837 -1.3677  2.0787
 2450SOL     OW18982   1.937   0.110   0.660 -0.3224 -0.2017  0.1166
 2450SOL    HW118983   1.887   0.166   0.601 -1.1204  0.2149  1.1772
 2450SOL    HW218984   1.972   0.043   0.601 -0.7828  0.5388 -0.9919
 2451SOL     OW18985   0.987   0.911  11.775  0.0378  0.0782  0.2957
 2451SOL    HW118986   0.937   0.875  11.702  1.1167  1.4760 -1.1220
 2451SOL    HW218987   1.041   0.837  11.803  1.2634  1.0453  0.5147
 2452SOL     OW18988   4.671   1.808   4.336 -0.0980 -0.6730 -0.4387
 2452SOL    HW118989   4.594   1.852   4.301  0.6252  2.4148  1.8706
 2452SOL    HW218990   4.633   1.785   4.421  0.2356 -2.6154 -0.8175
 2453SOL     OW18991   1.930   3.446  14.573  0.1884  0.1704 -0.6146
 2453SOL    HW118992   1.953   3.538  14.561  0.5745  0.0370 -0.9232
 2453SOL    HW218993   1.871   3.467  14.645  2.8371  2.1860  0.9860
 2454SOL     OW18994   3.390   0.595   1.714  0.0145 -0.8392 -0.9593
 2454SOL    HW118995   3.471   0.562   1.676  0.7958  0.9910 -0.8857
 2454SOL    HW218996   3.337   0.516   1.729 -0.4867 -0.2124  0.6474
 2455SOL     OW18997   1.653   2.307   0.026 -0.4660 -0.1550 -0.2221
 2455SOL    HW118998   1.683   2.390  17.737  1.8470  0.0886  2.2466
 2455SOL    HW218999   1.575   2.306  17.718 -1.0358 -3.7842  0.6697
 2456SOL     OW19000   2.342   2.030   7.004 -0.0746  0.5456 -0.0993
 2456SOL    HW119001   2.287   2.007   6.930 -1.4237 -0.0318  1.0836
 2456SOL    HW219002   2.383   1.946   7.028  1.9741  1.0910 -1.6757
 2457SOL     OW19003   4.229   0.524   2.467  0.4326 -0.2185  0.2900
 2457SOL    HW119004   4.245   0.442   2.421 -0.0632 -0.6847  0.9546
 2457SOL    HW219005   4.247   0.591   2.401  0.4166 -1.0786 -0.5800
 2458SOL     OW19006   1.464   2.355   3.164 -0.2439 -0.3322  0.5741
 2458SOL    HW119007   1.371   2.364   3.187 -0.1444 -0.0738  0.8768
 2458SOL    HW219008   1.485   2.443   3.194  0.4920 -0.3592  0.1121
 2459SOL     OW19009   3.181   1.363   4.450 -0.2718  0.3011 -0.1319
 2459SOL    HW119010   3.147   1.297   4.390 -1.8165 -0.1547  1.2434
 2459SOL    HW219011   3.271   1.346   4.422 -0.5659 -0.2159 -0.7684
 2460SOL     OW19012   0.143   1.022   6.352 -0.2528  0.3468  0.5363
 2460SOL    HW119013   0.113   1.109   6.325  0.0341  0.7189  1.4097
 2460SOL    HW219014   0.159   1.018   6.447 -1.3679 -0.6727  0.6869
 2461SOL     OW19015   1.663   4.283   8.454 -0.4433 -0.0690  0.1355
 2461SOL    HW119016   1.632   4.364   8.495  1.2780  0.8248 -0.3179
 2461SOL    HW219017   1.584   4.230   8.462  0.1979 -1.1171 -0.5426
 2462SOL     OW19018   0.608   2.652   8.063  0.1102 -0.0575 -0.2554
 2462SOL    HW119019   0.540   2.586   8.076  0.0886 -0.0568 -0.3595
 2462SOL    HW219020   0.666   2.645   8.139  1.2754  0.3473 -1.1018
 2463SOL     OW19021   2.596   4.734   4.895 -0.1986  0.1672 -0.2345
 2463SOL    HW119022   2.506   0.027   4.886  0.6261  3.1321  1.6425
 2463SOL    HW219023   2.589   4.640   4.876 -1.1145  0.3318 -0.6634
 2464SOL     OW19024   4.488   4.498  17.009 -0.2195  0.1340  0.0761
 2464SOL    HW119025   4.436   4.418  17.018  1.7491 -1.2391 -1.0389
 2464SOL    HW219026   4.491   4.510  16.914  4.0756 -2.5841 -0.1024
 2465SOL     OW19027   0.087   3.144   8.206  0.0932 -0.3674 -0.1337
 2465SOL    HW119028   0.039   3.217   8.168 -2.6910 -2.3700 -0.4555
 2465SOL    HW219029   0.026   3.075   8.179  1.2690 -1.1218 -0.8414
 2466SOL     OW19030   2.139   2.892   0.925 -0.3799 -0.4187  0.3602
 2466SOL    HW119031   2.190   2.954   0.872 -0.1540 -0.0191  1.0560
 2466SOL    HW219032   2.120   2.950   0.998  1.2276 -1.0738  1.3073
 2467SOL     OW19033   1.413   0.019   8.285 -0.1845  0.0274  0.2983
 2467SOL    HW119034   1.382   4.665   8.287 -1.9067  0.5941 -0.2183
 2467SOL    HW219035   1.329   0.065   8.291  0.1304  0.6202  0.1738
 2468SOL     OW19036   2.971   0.851   6.384 -0.0481 -0.3306 -0.4442
 2468SOL    HW119037   3.008   0.787   6.324  2.1243  1.0217 -0.5471
 2468SOL    HW219038   3.038   0.919   6.383 -0.6723  0.2329 -2.8508
 2469SOL     OW19039   1.948   4.215   2.263 -0.1279 -0.0579 -0.5007
 2469SOL    HW119040   1.942   4.148   2.331  2.1453  0.9196  0.6577
 2469SOL    HW219041   2.004   4.175   2.197 -1.7677 -0.4692 -1.6318
 2470SOL     OW19042   2.252   3.350  14.557  0.3935  0.3067 -0.1995
 2470SOL    HW119043   2.268   3.418  14.492  0.4848 -0.5174 -1.0384
 2470SOL    HW219044   2.333   3.299  14.554 -0.4838 -1.0507 -0.6058
 2471SOL     OW19045   0.376   3.489   3.065 -0.6603  0.1978  0.4164
 2471SOL    HW119046   0.293   3.482   3.017  0.2484 -2.1289 -0.8025
 2471SOL    HW219047   0.343   3.523   3.148 -0.7343  0.0457  0.4498
 2472SOL     OW19048   2.153   3.750  15.810 -0.3925  0.0094  0.1115
 2472SOL    HW119049   2.163   3.781  15.720 -1.0162 -1.1362 -0.3585
 2472SOL    HW219050   2.213   3.811  15.852 -2.1449  0.3455  2.1497
 2473SOL     OW19051   2.766   4.674   3.145 -0.1246  0.2426  0.4125
 2473SOL    HW119052   2.681   4.658   3.103  0.5266 -0.3650 -0.6948
 2473SOL    HW219053   2.764   4.631   3.230 -0.3564  1.4061  0.9876
 2474SOL     OW19054   0.374   3.478   6.513  0.6188  0.1767 -0.0124
 2474SOL    HW119055   0.361   3.456   6.605 -1.3481 -1.5496 -0.7000
 2474SOL    HW219056   0.458   3.522   6.525  0.5848 -0.2728  1.9733
 2475SOL     OW19057   2.979   1.325   9.390 -0.3364  0.0166  0.0027
 2475SOL    HW119058   2.976   1.397   9.453 -2.3127 -1.9659  2.1822
 2475SOL    HW219059   2.957   1.370   9.309 -0.9365 -1.6551 -0.7739
 2476SOL     OW19060   0.036   1.366  13.011  0.2228 -0.2086  0.0885
 2476SOL    HW119061   4.687   1.331  12.990  1.0081 -2.7143  1.1478
 2476SOL    HW219062   0.055   1.317  13.090  1.8494  1.7744  0.9143
 2477SOL     OW19063   0.634   0.994   0.237 -0.3029  0.3239 -0.4932
 2477SOL    HW119064   0.572   1.049   0.286 -0.5136 -1.3797  1.1491
 2477SOL    HW219065   0.629   1.037   0.152  0.4916  0.6672 -0.3628
 2478SOL     OW19066   0.554   3.879   5.840 -0.0467  0.0622  0.2734
 2478SOL    HW119067   0.518   3.807   5.891  0.4126  0.0303  0.5429
 2478SOL    HW219068   0.552   3.839   5.753  1.6138  1.2752 -0.3213
 2479SOL     OW19069   1.402   2.931   6.989  0.1163 -0.0188 -0.3466
 2479SOL    HW119070   1.341   2.962   7.057  1.4225 -0.2673  0.9311
 2479SOL    HW219071   1.484   2.926   7.037  0.4055  1.1689 -0.7250
 2480SOL     OW19072   2.374   0.245   1.338 -0.1215  0.0712 -0.3434
 2480SOL    HW119073   2.316   0.214   1.268  0.1584 -1.1353 -0.0392
 2480SOL    HW219074   2.444   0.279   1.282  1.4571 -1.2355  0.8135
 2481SOL     OW19075   3.654   0.568   5.802 -0.4584 -0.0920  0.6783
 2481SOL    HW119076   3.682   0.659   5.803  0.0166 -0.2198 -1.4258
 2481SOL    HW219077   3.561   0.590   5.804 -0.9840 -2.2050 -0.6367
 2482SOL     OW19078   2.563   3.624   2.034 -0.4137 -0.1244 -0.0326
 2482SOL    HW119079   2.468   3.624   2.047 -0.2745 -1.3080  1.0189
 2482SOL    HW219080   2.571   3.559   1.965 -2.3387  0.6125 -0.9323
 2483SOL     OW19081   2.034   3.731   4.333  0.0463  0.1811 -0.0919
 2483SOL    HW119082   2.035   3.801   4.268  2.9821  0.7231  0.5689
 2483SOL    HW219083   1.944   3.704   4.314 -0.7098  0.9868  2.3177
 2484SOL     OW19084   2.885   0.321   2.768 -0.7409  0.0998  0.7738
 2484SOL    HW119085   2.948   0.257   2.736  0.1236  1.8046 -0.8745
 2484SOL    HW219086   2.896   0.405   2.724 -1.5184 -0.4857 -0.5349
 2485SOL     OW19087   4.088   3.453   1.336 -0.3042  0.2946 -0.4346
 2485SOL    HW119088   4.021   3.471   1.402  0.5192  0.1758  0.4385
 2485SOL    HW219089   4.038   3.401   1.274 -0.2488 -0.2258 -0.0416
 2486SOL     OW19090   4.369   4.652   3.542  0.0556 -0.0460  0.5132
 2486SOL    HW119091   4.290   4.707   3.541 -0.2782 -0.4954  1.5423
 2486SOL    HW219092   4.355   4.597   3.620  1.1372 -0.1337  0.6381
 2487SOL     OW19093   1.411   1.645   3.109  0.5051 -0.4231 -0.7282
 2487SOL    HW119094   1.390   1.572   3.050 -0.6059  0.4529 -1.4336
 2487SOL    HW219095   1.402   1.606   3.195  1.7333  1.4332  0.2327
 2488SOL     OW19096   4.077   4.025   5.100  0.0918 -0.5174  0.1475
 2488SOL    HW119097   4.110   4.042   5.012 -1.6437  0.2879 -0.3362
 2488SOL    HW219098   4.160   4.037   5.147  1.3429 -0.2073 -2.1178
 2489SOL     OW19099   1.158   2.274   3.070 -0.2295  0.0897 -0.7618
 2489SOL    HW119100   1.204   2.243   2.991 -2.2044  2.6857 -2.9379
 2489SOL    HW219101   1.065   2.264   3.050 -0.4315  0.2872  0.1080
 2490SOL     OW19102   3.605   3.514   6.994  1.1869  0.3022  0.2319
 2490SOL    HW119103   3.542   3.586   6.986 -0.7618 -1.4932 -0.6932
 2490SOL    HW219104   3.563   3.468   7.067 -0.0463  3.0494  1.2824
 2491SOL     OW19105   2.610   0.321   0.893  0.3004  0.0299  0.4461
 2491SOL    HW119106   2.693   0.362   0.919  1.3991 -1.4682 -0.6829
 2491SOL    HW219107   2.633   0.335   0.801  0.0201  1.7101  0.6282
 2492SOL     OW19108   3.671   0.996   3.467 -0.2955 -0.3282  0.1139
 2492SOL    HW119109   3.667   1.083   3.427 -1.9441 -1.7383 -2.8357
 2492SOL    HW219110   3.581   0.964   3.465 -0.1327 -0.8145  0.6310
 2493SOL     OW19111   0.842   4.482   6.343  0.1667 -0.2473  0.2956
 2493SOL    HW119112   0.897   4.474   6.265 -0.7118  1.1948 -0.4607
 2493SOL    HW219113   0.773   4.418   6.329  0.3034  0.3795 -3.1841
 2494SOL     OW19114   1.415   2.029   1.910 -0.0519  0.1640 -0.2101
 2494SOL    HW119115   1.393   1.966   1.841  0.1534  0.9672 -1.0069
 2494SOL    HW219116   1.483   2.074   1.860  0.0215 -1.9055 -1.9816
 2495SOL     OW19117   1.711   4.003   7.072 -0.0829  0.4266 -0.4966
 2495SOL    HW119118   1.620   3.975   7.070 -0.0684  0.2212  1.1255
 2495SOL    HW219119   1.731   4.008   6.979  2.7226  0.6651  0.1152
 2496SOL     OW19120   3.011   1.554   5.042  0.0665  0.0391  0.5114
 2496SOL    HW119121   2.997   1.503   4.962  0.3342 -0.6826  0.9215
 2496SOL    HW219122   3.047   1.637   5.011 -0.0468 -0.5920 -1.3220
 2497SOL     OW19123   0.209   1.854   7.002 -0.0227  0.2694 -0.1184
 2497SOL    HW119124   0.302   1.879   6.999 -0.0775  0.0500 -3.8370
 2497SOL    HW219125   0.205   1.779   7.061 -3.2313 -0.8835 -1.7906
 2498SOL     OW19126   4.346   0.451   4.052  0.0047 -0.3041  0.0318
 2498SOL    HW119127   4.288   0.380   4.078 -1.2586  0.2663 -1.2157
 2498SOL    HW219128   4.343   0.511   4.127  2.0509 -2.4249  1.7799
 2499SOL     OW19129   4.524   2.965   7.002  0.6363  0.0448  0.7501
 2499SOL    HW119130   4.507   2.967   7.096  1.6399 -0.1560  0.9437
 2499SOL    HW219131   4.508   2.873   6.983  0.9615  0.2741 -0.6070
 2500SOL     OW19132   1.759   3.829   4.600  0.1598  0.4154 -0.4420
 2500SOL    HW119133   1.686   3.782   4.640 -0.0253  0.5862 -0.5797
 2500SOL    HW219134   1.711   3.879   4.534 -1.0158  0.0755  0.1518
 2501SOL     OW19135   3.428   0.121   6.772  0.6682 -0.0589  0.5546
 2501SOL    HW119136   3.372   0.198   6.761 -0.4634 -1.1004 -0.8889
 2501SOL    HW219137   3.514   0.163   6.765  1.2208 -0.7825  3.2769
 2502SOL     OW19138   0.839   1.129  15.547  0.4654 -0.7179  0.0299
 2502SOL    HW119139   0.901   1.107  15.617  1.6114 -0.5157 -0.9084
 2502SOL    HW219140   0.907   1.137  15.480  1.0894  0.8348  0.8674
 2503SOL     OW19141   0.830   0.539   9.839 -0.2586 -0.8560 -1.1111
 2503SOL    HW119142   0.799   0.518   9.751  0.3130  1.7764 -1.9382
 2503SOL    HW219143   0.845   0.633   9.841 -0.6421 -0.8727  2.9433
 2504SOL     OW19144   1.816   2.625  12.839  0.2206  0.2724  0.6686
 2504SOL    HW119145   1.888   2.565  12.822 -2.2243 -1.7579 -2.5426
 2504SOL    HW219146   1.852   2.712  12.820  1.0184 -0.4545 -1.1409
 2505SOL     OW19147   4.597   4.581  16.446 -0.6612 -0.1176  0.4509
 2505SOL    HW119148   4.672   4.623  16.488  1.4989 -2.4116 -1.0479
 2505SOL    HW219149   4.606   4.616  16.357 -2.9350  1.8571  1.0155
 2506SOL     OW19150   0.606   1.340  17.528 -0.0405 -0.0752  0.1246
 2506SOL    HW119151   0.620   1.411  17.465  2.7835 -1.6763 -1.0708
 2506SOL    HW219152   0.680   1.285  17.502  0.3354  0.4468  0.0946
 2507SOL     OW19153   1.556   3.721  15.254  0.3039  0.0327 -0.0196
 2507SOL    HW119154   1.522   3.646  15.302  0.9425  0.2459  0.7689
 2507SOL    HW219155   1.575   3.676  15.172 -2.3714 -0.3604 -0.4196
 2508SOL     OW19156   2.046   2.667   3.606 -0.1200  0.6152  0.8059
 2508SOL    HW119157   1.954   2.694   3.605 -0.8504 -1.9727 -1.9742
 2508SOL    HW219158   2.090   2.751   3.593 -0.0963  0.7666  1.8574
 2509SOL     OW19159   2.129   4.053   8.953  0.6086  0.4394  0.4197
 2509SOL    HW119160   2.117   4.147   8.939  1.2807  0.3619 -0.7098
 2509SOL    HW219161   2.186   4.078   9.026  0.6285 -1.2928  1.0073
 2510SOL     OW19162   1.990   1.618   5.245 -0.4629 -0.1515 -0.2296
 2510SOL    HW119163   2.079   1.653   5.239 -0.5579  0.1992  0.4235
 2510SOL    HW219164   1.982   1.608   5.150 -0.3520 -0.4225 -0.2089
 2511SOL     OW19165   1.100   2.744   8.297 -1.0625 -0.7590  0.1470
 2511SOL    HW119166   1.109   2.678   8.366 -1.9011  0.7741  1.7399
 2511SOL    HW219167   1.133   2.696   8.222  1.2549  0.8833  0.1034
 2512SOL     OW19168   1.189   1.356  14.467  0.3668  0.5101 -0.3018
 2512SOL    HW119169   1.268   1.304  14.456 -0.7809 -1.4637  0.9634
 2512SOL    HW219170   1.116   1.308  14.429  1.1529 -0.4330 -0.6180
 2513SOL     OW19171   2.606   4.634   8.977  0.3335 -0.1924  0.2845
 2513SOL    HW119172   2.560   4.554   9.002  0.8381 -0.5998 -0.0906
 2513SOL    HW219173   2.558   4.652   8.897  0.7113 -1.4890 -0.2250
 2514SOL     OW19174   0.016   3.084   9.547 -0.0158 -0.2477 -0.1739
 2514SOL    HW119175   0.018   3.173   9.514 -1.4042  1.1975  3.6198
 2514SOL    HW219176   0.083   3.036   9.499 -0.1814  1.4600 -2.1034
 2515SOL     OW19177   2.262   0.039   4.210  0.2601  0.0577  0.3731
 2515SOL    HW119178   2.344   0.086   4.221 -0.5155  1.6404 -0.6756
 2515SOL    HW219179   2.217   0.111   4.166  1.8201  1.0244  0.3517
 2516SOL     OW19180   4.511   0.599   4.977  0.5567 -0.2441  0.2079
 2516SOL    HW119181   4.600   0.584   4.945  0.1817 -0.3281 -0.7979
 2516SOL    HW219182   4.502   0.549   5.058  1.1600  1.4652  1.3252
 2517SOL     OW19183   4.497   2.939   1.983  0.3266 -0.1032 -0.5863
 2517SOL    HW119184   4.439   3.015   1.988 -2.7949 -2.4504 -0.7494
 2517SOL    HW219185   4.457   2.887   2.053 -0.0111 -0.3783 -0.9852
 2518SOL     OW19186   0.664   3.997  14.938 -0.1338 -0.4628  0.2772
 2518SOL    HW119187   0.592   4.007  14.876 -0.7602 -1.9983  0.7733
 2518SOL    HW219188   0.646   3.922  14.995 -2.2347  0.3804  0.7249
 2519SOL     OW19189   4.051   4.268  15.430  0.2413  0.9386  0.1262
 2519SOL    HW119190   4.074   4.188  15.383 -1.2471 -0.3157  1.5555
 2519SOL    HW219191   4.051   4.245  15.523 -0.3063  0.4729  0.0035
 2520SOL     OW19192   3.347   2.255   5.450 -0.1807  0.1705 -0.1774
 2520SOL    HW119193   3.353   2.216   5.362 -1.2217  0.4180 -0.3610
 2520SOL    HW219194   3.412   2.212   5.505 -0.7437  1.2702  1.3565
 2521SOL     OW19195   0.630   2.606   2.524  0.0946  0.1806  0.4872
 2521SOL    HW119196   0.631   2.639   2.434 -0.3756 -0.8394  0.1019
 2521SOL    HW219197   0.725   2.603   2.537 -0.2329 -0.5386  2.6842
 2522SOL     OW19198   0.385   4.492  10.330 -0.6756 -0.0096  0.0872
 2522SOL    HW119199   0.294   4.472  10.353 -0.2174 -2.3882 -0.1975
 2522SOL    HW219200   0.366   4.553  10.259  0.2799  2.1722  1.7228
 2523SOL     OW19201   3.214   0.017   6.405  0.0206 -0.6272  0.1295
 2523SOL    HW119202   3.294   0.030   6.455  0.1729  1.2745 -0.6132
 2523SOL    HW219203   3.202   4.662   6.425  2.5090 -0.5575  1.8422
 2524SOL     OW19204   1.230   1.330   5.429 -0.3349  0.2022 -0.5911
 2524SOL    HW119205   1.181   1.277   5.366 -3.0309  1.5367  0.3683
 2524SOL    HW219206   1.302   1.274   5.457 -0.7381 -0.7374 -1.4264
 2525SOL     OW19207   3.443   2.424   0.991  0.1174  0.3423  0.0380
 2525SOL    HW119208   3.406   2.500   1.035  2.5569  2.4426 -1.5785
 2525SOL    HW219209   3.360   2.387   0.961  0.7674 -1.0444 -0.0731
 2526SOL     OW19210   1.377   0.268   5.519  0.1028  0.0984 -0.4050
 2526SOL    HW119211   1.343   0.259   5.608  2.0963  1.0511  0.4623
 2526SOL    HW219212   1.417   0.181   5.512  1.1512  0.5388  0.2112
 2527SOL     OW19213   4.470   2.056  14.474 -0.2557 -0.4182 -0.4038
 2527SOL    HW119214   4.467   2.151  14.467  0.1567 -0.4815 -1.4446
 2527SOL    HW219215   4.377   2.031  14.466 -0.6751  1.2506 -0.7034
 2528SOL     OW19216   3.873   3.797   6.966  0.0609  0.0051 -0.2567
 2528SOL    HW119217   3.808   3.867   6.972  0.0969  0.4229 -4.7312
 2528SOL    HW219218   3.889   3.788   6.872 -1.0383  0.4353 -0.4791
 2529SOL     OW19219   1.073   4.377  16.329  0.0114  0.4725 -0.3239
 2529SOL    HW119220   1.087   4.326  16.249 -2.6075 -0.9294  0.1056
 2529SOL    HW219221   1.112   4.459  16.299 -2.0584  1.0070 -1.5993
 2530SOL     OW19222   0.683   2.740  12.870  0.0479 -0.3808 -0.4715
 2530SOL    HW119223   0.684   2.808  12.937  0.9780  1.1383 -2.0424
 2530SOL    HW219224   0.659   2.800  12.800 -2.0098 -1.0534 -0.3225
 2531SOL     OW19225   2.334   1.612   7.450 -0.2268 -0.0495  0.0199
 2531SOL    HW119226   2.416   1.611   7.400 -0.1468 -0.2861  0.1576
 2531SOL    HW219227   2.325   1.706   7.468  2.6404  0.6315 -1.9966
 2532SOL     OW19228   1.166   3.325   0.238 -0.4228  0.0310 -0.6462
 2532SOL    HW119229   1.226   3.380   0.289  1.7538 -3.7096  0.9212
 2532SOL    HW219230   1.215   3.243   0.229 -2.9275 -1.5241 -0.2072
 2533SOL     OW19231   4.052   2.940   7.649 -0.5969 -0.1452  0.5286
 2533SOL    HW119232   4.048   2.850   7.680 -0.8098 -0.6949 -1.0628
 2533SOL    HW219233   3.960   2.960   7.665 -1.0128 -1.6489 -0.0025
 2534SOL     OW19234   2.330   2.522  13.582 -0.6197  0.0640  0.1043
 2534SOL    HW119235   2.306   2.593  13.641 -1.9051 -1.0715  0.9451
 2534SOL    HW219236   2.366   2.569  13.507 -0.9973  0.2620  0.0458
 2535SOL     OW19237   0.104   2.532   4.207 -0.6529  0.2280 -0.3039
 2535SOL    HW119238   0.069   2.499   4.125  1.3195 -3.0850  0.1710
 2535SOL    HW219239   0.117   2.448   4.252  0.6497  1.5576  1.8400
 2536SOL     OW19240   4.123   3.017   7.987  0.2053  0.6234  0.6663
 2536SOL    HW119241   4.109   3.108   7.959  1.0377  0.5841  0.1352
 2536SOL    HW219242   4.207   2.998   7.945 -1.1389  0.3655 -1.8917
 2537SOL     OW19243   1.459   2.463   6.933  0.4147 -0.1088  0.7135
 2537SOL    HW119244   1.390   2.523   6.904  2.1026  0.8171 -1.3260
 2537SOL    HW219245   1.512   2.526   6.982  0.2983 -1.1323  2.1742
 2538SOL     OW19246   2.387   1.661  16.950 -0.1471  0.0791  0.7698
 2538SOL    HW119247   2.388   1.581  16.896  0.5495  0.7484 -0.2054
 2538SOL    HW219248   2.349   1.637  17.034  0.7208  0.1095  1.1705
 2539SOL     OW19249   0.436   1.450   8.137 -0.3365  0.0248 -0.3959
 2539SOL    HW119250   0.457   1.543   8.124  1.9115 -0.5354 -0.6438
 2539SOL    HW219251   0.514   1.428   8.188  0.0428 -1.1728 -1.5194
 2540SOL     OW19252   2.744   2.309   9.498 -0.2335 -0.3902 -0.8091
 2540SOL    HW119253   2.831   2.274   9.478 -0.0156  0.8420 -2.0632
 2540SOL    HW219254   2.751   2.368   9.573  0.5192  0.9619 -1.9463
 2541SOL     OW19255   1.747   1.716   9.585  0.3787  0.0851  0.5903
 2541SOL    HW119256   1.689   1.766   9.527 -2.5905  0.5065  3.9463
 2541SOL    HW219257   1.769   1.644   9.525  1.4396 -0.8579  2.1380
 2542SOL     OW19258   3.311   2.773   2.377 -0.2496 -0.4508  0.3409
 2542SOL    HW119259   3.362   2.852   2.360  0.8759 -1.3100 -0.3328
 2542SOL    HW219260   3.379   2.706   2.364 -0.3416  0.0213 -2.4606
 2543SOL     OW19261   0.397   1.931   6.696 -0.0052  0.2014  0.1419
 2543SOL    HW119262   0.465   1.994   6.672 -0.1021  1.4086  2.9767
 2543SOL    HW219263   0.379   1.964   6.784  0.1384  0.6977 -0.0155
 2544SOL     OW19264   3.882   4.281   2.076  0.3137  0.6799 -0.2064
 2544SOL    HW119265   3.916   4.362   2.036  1.0788  0.5130  0.1192
 2544SOL    HW219266   3.796   4.317   2.098  0.1839 -0.0358  0.4157
 2545SOL     OW19267   0.960   1.924   9.282  0.0417 -0.6648 -0.0835
 2545SOL    HW119268   0.931   1.975   9.206  1.7095 -1.3994 -1.2094
 2545SOL    HW219269   1.053   1.935   9.260  0.6056 -4.0731  0.6281
 2546SOL     OW19270   0.311   2.830   5.125  0.3251 -0.5875  0.7642
 2546SOL    HW119271   0.397   2.792   5.144  0.9925  1.0230  0.9752
 2546SOL    HW219272   0.325   2.922   5.149 -2.0507  0.8874 -3.6695
 2547SOL     OW19273   3.527   1.781   2.104  0.6889  0.2815  0.4355
 2547SOL    HW119274   3.512   1.840   2.178  3.0815 -0.4898  1.5146
 2547SOL    HW219275   3.620   1.791   2.084  0.7138  3.3074  2.0827
 2548SOL     OW19276   2.021   2.164   5.773 -0.4960 -0.1687  0.5485
 2548SOL    HW119277   1.969   2.161   5.692 -1.3444  2.5052  0.9977
 2548SOL    HW219278   2.004   2.252   5.807 -0.1206  0.5617 -1.1273
 2549SOL     OW19279   1.262   1.445   8.826  0.4048  0.1265 -0.1788
 2549SOL    HW119280   1.316   1.452   8.905 -1.2660 -0.2298  0.9868
 2549SOL    HW219281   1.172   1.434   8.855  0.9219  0.7945  1.6556
 2550SOL     OW19282   0.561   2.780   1.796 -0.2166  0.6324  0.5295
 2550SOL    HW119283   0.478   2.749   1.760 -0.6232  1.7336  0.5187
 2550SOL    HW219284   0.622   2.720   1.755  0.0124  2.4672 -1.7889
 2551SOL     OW19285   3.332   3.768  15.681 -0.0760 -0.2907 -0.5639
 2551SOL    HW119286   3.307   3.857  15.706  2.3517  0.1715  0.2203
 2551SOL    HW219287   3.419   3.752  15.717 -0.6196  1.7978  1.6666
 2552SOL     OW19288   2.645   0.705   7.081  0.1362  0.0653 -0.7157
 2552SOL    HW119289   2.624   0.663   6.998  0.3151 -2.0756  0.3255
 2552SOL    HW219290   2.672   0.638   7.143  1.0308  0.6651 -0.4565
 2553SOL     OW19291   2.877   3.607   3.124  0.4398 -0.0546  0.2372
 2553SOL    HW119292   2.799   3.637   3.173  1.5260  1.5431  1.0103
 2553SOL    HW219293   2.942   3.673   3.147  0.1230  0.3839 -0.1207
 2554SOL     OW19294   0.034   0.421   5.304 -0.2750 -0.1840  0.6571
 2554SOL    HW119295   0.077   0.488   5.357 -2.3281  1.4268  0.3068
 2554SOL    HW219296   4.697   0.392   5.357 -1.5642  0.6899 -0.6537
 2555SOL     OW19297   0.560   2.408  13.857 -0.0944  0.0151  0.4815
 2555SOL    HW119298   0.476   2.454  13.853 -0.4975 -0.9270 -1.7209
 2555SOL    HW219299   0.618   2.470  13.901  0.3384  0.7544 -1.1300
 2556SOL     OW19300   1.434   1.044   7.434 -0.6884 -0.2339 -0.1951
 2556SOL    HW119301   1.449   0.950   7.445 -1.0095 -0.1747  0.7321
 2556SOL    HW219302   1.339   1.039   7.428 -0.5585 -1.4324 -1.4474
 2557SOL     OW19303   3.958   0.600   5.831  0.0710  0.0920 -0.2110
 2557SOL    HW119304   3.940   0.543   5.905 -1.2512 -1.1532 -1.5140
 2557SOL    HW219305   3.889   0.665   5.846  0.7480  0.6035  0.6648
 2558SOL     OW19306   0.755   1.328   7.283  0.8325 -0.3824  0.4160
 2558SOL    HW119307   0.791   1.361   7.200  3.6020 -0.1909  1.6869
 2558SOL    HW219308   0.834   1.279   7.307  0.2128 -1.7710 -0.3409
 2559SOL     OW19309   2.267   2.392   4.609 -0.4030 -0.2313  0.2272
 2559SOL    HW119310   2.215   2.384   4.529  0.9113 -2.2074 -0.4159
 2559SOL    HW219311   2.221   2.464   4.652 -1.3067 -0.8235  0.2619
 2560SOL     OW19312   1.067   1.745  11.630 -0.0558  0.2671 -0.1809
 2560SOL    HW119313   1.052   1.685  11.703  1.4114  0.2251  0.0703
 2560SOL    HW219314   0.980   1.773  11.600 -1.8762 -1.4418  3.5515
 2561SOL     OW19315   3.061   2.171   5.256  0.4153 -0.1929 -0.5397
 2561SOL    HW119316   3.149   2.199   5.231  0.2462 -0.4095 -1.3839
 2561SOL    HW219317   3.010   2.249   5.234  0.2035 -0.8573 -2.4817
 2562SOL     OW19318   1.268   1.103   5.862 -0.5140 -0.7146 -0.1904
 2562SOL    HW119319   1.332   1.164   5.897 -0.0295 -1.7314  0.6714
 2562SOL    HW219320   1.183   1.126   5.900 -2.2919 -1.4391 -3.7202
 2563SOL     OW19321   0.343   3.968   0.897 -0.6107  0.3284  0.2585
 2563SOL    HW119322   0.407   3.897   0.889 -1.1323 -0.3041  1.6341
 2563SOL    HW219323   0.281   3.942   0.966  1.9319 -0.2192  2.3414
 2564SOL     OW19324   1.573   0.431   4.037  0.1933  0.2638  0.7150
 2564SOL    HW119325   1.497   0.397   4.084 -1.3956  0.4471 -1.6945
 2564SOL    HW219326   1.528   0.455   3.955 -0.2402 -3.1485 -0.0302
 2565SOL     OW19327   1.131   1.090   4.040 -0.0090 -0.1273  1.1261
 2565SOL    HW119328   1.097   1.117   3.955  0.4560  0.9704  1.2930
 2565SOL    HW219329   1.136   0.997   4.019  0.5765  0.8684 -3.0796
 2566SOL     OW19330   4.056   1.931   5.572  0.1467 -0.0084 -0.0487
 2566SOL    HW119331   4.045   1.983   5.493 -0.5011 -1.8841 -1.1942
 2566SOL    HW219332   3.986   1.977   5.619  1.2415  1.5527  0.0616
 2567SOL     OW19333   2.891   4.269   3.945  0.1451  0.4862  0.5613
 2567SOL    HW119334   2.965   4.267   3.885 -0.5440  2.6278 -0.3493
 2567SOL    HW219335   2.895   4.358   3.982  1.7921  0.3046  0.8116
 2568SOL     OW19336   0.073   1.866   7.354  0.7192 -0.0807 -0.5050
 2568SOL    HW119337   4.719   1.861   7.384  1.1236 -0.9863  0.5651
 2568SOL    HW219338   0.081   1.912   7.271  2.6048 -0.8890 -0.7691
 2569SOL     OW19339   2.165   0.305   8.368 -0.0205 -0.3086  0.0011
 2569SOL    HW119340   2.155   0.210   8.365 -2.5435  0.0586 -3.6302
 2569SOL    HW219341   2.102   0.324   8.298  1.3689 -1.1700 -1.4667
 2570SOL     OW19342   1.623   1.649   8.640 -0.0382 -0.2663 -0.4044
 2570SOL    HW119343   1.718   1.649   8.653 -0.2694  2.3522  1.1872
 2570SOL    HW219344   1.604   1.557   8.619 -1.1101 -0.2025  0.3154
 2571SOL     OW19345   0.015   3.147   1.770  0.3951 -0.1938 -0.6289
 2571SOL    HW119346   4.693   3.206   1.816  2.1549 -0.1630  1.6251
 2571SOL    HW219347   0.019   3.090   1.847 -2.1961  2.2610  1.3262
 2572SOL     OW19348   2.811   3.434   4.367 -0.6147 -0.8251  0.4742
 2572SOL    HW119349   2.774   3.469   4.448 -2.8292 -1.5709 -0.1992
 2572SOL    HW219350   2.776   3.489   4.296  1.2031  1.1836  1.1609
 2573SOL     OW19351   2.182   0.129   2.610  0.4089 -0.2750 -0.2913
 2573SOL    HW119352   2.263   0.097   2.649  0.4155 -0.1250 -0.1814
 2573SOL    HW219353   2.119   0.091   2.670  0.3084 -0.4039 -0.4795
 2574SOL     OW19354   1.333   1.888  12.793 -0.0433  0.1955  0.2936
 2574SOL    HW119355   1.270   1.960  12.792  1.4222  1.4828  1.2842
 2574SOL    HW219356   1.293   1.829  12.728  1.3082 -1.5576  1.0393
 2575SOL     OW19357   2.696   2.084   0.410  0.0176 -0.2207  0.2406
 2575SOL    HW119358   2.617   2.139   0.408  0.3739  0.2638 -0.5675
 2575SOL    HW219359   2.685   2.009   0.352 -0.0376 -1.7792  2.3060
 2576SOL     OW19360   1.010   0.302  16.087 -0.0489  0.2785  0.0823
 2576SOL    HW119361   0.986   0.234  16.151  0.6068  0.3472  0.4103
 2576SOL    HW219362   1.100   0.316  16.116  0.2976 -0.0825 -0.8126
 2577SOL     OW19363   3.921   3.625   6.259 -0.4918 -0.1704  0.1116
 2577SOL    HW119364   3.978   3.675   6.318 -0.2018 -0.1124 -0.2143
 2577SOL    HW219365   3.965   3.645   6.176 -2.3349  0.2758 -0.7595
 2578SOL     OW19366   0.605   4.236   0.834 -0.0355 -0.0072  0.0795
 2578SOL    HW119367   0.687   4.213   0.791  0.4868 -0.5646  1.3723
 2578SOL    HW219368   0.541   4.187   0.782  3.2023 -3.8786 -0.2579
 2579SOL     OW19369   0.393   3.640   0.304 -0.2462  0.1236  0.0422
 2579SOL    HW119370   0.391   3.633   0.399  1.5262  1.0745  0.1483
 2579SOL    HW219371   0.461   3.707   0.308 -0.2408  0.1885 -0.9948
 2580SOL     OW19372   1.535   4.714  12.519 -0.2380 -0.3747 -0.0768
 2580SOL    HW119373   1.525   4.619  12.527 -0.4528 -0.2227  1.4119
 2580SOL    HW219374   1.471   0.015  12.578  0.8800  1.9217 -0.3758
 2581SOL     OW19375   1.926   1.627   9.784 -0.3585  0.4819 -0.8358
 2581SOL    HW119376   1.976   1.689   9.837  0.9525 -2.9627  2.0512
 2581SOL    HW219377   1.874   1.685   9.729  1.2524  1.7494 -1.0131
 2582SOL     OW19378   0.691   1.357   9.006  0.8102  0.2535 -0.4983
 2582SOL    HW119379   0.761   1.291   9.008  2.3350  1.9151  0.6450
 2582SOL    HW219380   0.733   1.433   9.046  0.1868  1.5650 -2.3304
 2583SOL     OW19381   0.372   2.490   5.649 -0.3286  0.7701 -0.1162
 2583SOL    HW119382   0.462   2.496   5.618 -1.1252  3.6673 -1.8493
 2583SOL    HW219383   0.355   2.396   5.641  2.4567  0.0147  3.0113
 2584SOL     OW19384   3.783   2.394   9.634  0.4167  0.7115 -0.2444
 2584SOL    HW119385   3.762   2.417   9.725 -4.4147 -1.6298 -0.7540
 2584SOL    HW219386   3.703   2.402   9.581  1.0626  3.2214 -0.8551
 2585SOL     OW19387   3.424   1.531  14.752 -0.1494  0.1293  0.1775
 2585SOL    HW119388   3.405   1.615  14.792 -1.1520  0.3217 -0.7038
 2585SOL    HW219389   3.395   1.557  14.665 -0.3038 -1.8829 -0.3769
 2586SOL     OW19390   3.082   0.835   4.054 -0.2266  0.2408 -0.1529
 2586SOL    HW119391   3.011   0.829   4.119 -0.3214 -1.1463 -0.3880
 2586SOL    HW219392   3.066   0.758   3.999 -0.7860  1.8928 -2.2849
 2587SOL     OW19393   3.924   3.864   1.260 -0.0847  0.6989 -0.4922
 2587SOL    HW119394   3.997   3.840   1.204 -1.0907  1.9156 -2.3361
 2587SOL    HW219395   3.951   3.813   1.336 -0.2956  1.9003  0.3850
 2588SOL     OW19396   3.797   1.344   7.881  0.0067 -0.1895 -0.2486
 2588SOL    HW119397   3.776   1.348   7.788  0.7684  0.7205 -0.3762
 2588SOL    HW219398   3.846   1.262   7.884 -0.4748 -0.4777 -0.3420
 2589SOL     OW19399   4.311   1.534  14.378  1.0574  0.2167  0.1010
 2589SOL    HW119400   4.290   1.482  14.301  0.4636 -0.6119  0.8144
 2589SOL    HW219401   4.225   1.535  14.422  0.8330  0.8429 -0.3605
 2590SOL     OW19402   1.847   0.761   1.708  0.2521  0.0594 -0.7148
 2590SOL    HW119403   1.822   0.833   1.766 -0.4900  0.3403 -1.3821
 2590SOL    HW219404   1.932   0.731   1.740 -0.0238 -0.0582 -0.0941
 2591SOL     OW19405   3.964   2.562  13.640  0.1951  0.0197 -0.3833
 2591SOL    HW119406   3.963   2.510  13.560 -2.1302 -0.9016  0.2498
 2591SOL    HW219407   3.949   2.650  13.607  1.1594  0.5193  0.5003
 2592SOL     OW19408   2.276   0.907   3.314  0.3801  0.1501  0.2092
 2592SOL    HW119409   2.225   0.827   3.304 -0.2444  0.6496 -0.5360
 2592SOL    HW219410   2.217   0.976   3.285  0.9748  0.7483  0.4210
 2593SOL     OW19411   1.655   1.169   1.789 -0.1779  0.1872  0.2485
 2593SOL    HW119412   1.638   1.076   1.771 -0.0368 -0.2027  2.1511
 2593SOL    HW219413   1.721   1.176   1.720 -0.8163  0.5052 -0.3336
 2594SOL     OW19414   0.305   2.551   4.882  0.4281  0.4964 -0.6606
 2594SOL    HW119415   0.395   2.576   4.899 -0.2290  2.1276  0.4297
 2594SOL    HW219416   0.290   2.580   4.792  2.9248  0.1688 -1.1768
 2595SOL     OW19417   2.901   0.480   3.655 -0.2610  0.4728 -0.2418
 2595SOL    HW119418   2.838   0.551   3.642 -1.1038 -0.0804  0.7618
 2595SOL    HW219419   2.968   0.502   3.591 -0.3019 -0.5173 -0.6278
 2596SOL     OW19420   3.117   1.116   1.876 -0.1822  0.2329 -0.0450
 2596SOL    HW119421   3.148   1.178   1.941 -0.8977 -1.2946  1.7632
 2596SOL    HW219422   3.023   1.110   1.893  0.0636 -2.0138  0.6097
 2597SOL     OW19423   1.111   0.948  17.644 -0.0764  0.5223 -0.0594
 2597SOL    HW119424   1.164   0.874  17.613 -1.2189 -1.1332  1.9128
 2597SOL    HW219425   1.171   0.983  17.710 -0.6493  0.5634  0.4467
 2598SOL     OW19426   3.314   0.509   5.986 -0.2384  0.5562 -0.1240
 2598SOL    HW119427   3.338   0.601   5.972  3.1191  0.0042  2.0396
 2598SOL    HW219428   3.221   0.504   5.964 -0.4973  0.3626  1.0283
 2599SOL     OW19429   0.873   0.040   6.131 -0.1074  0.5011  0.5953
 2599SOL    HW119430   0.805   0.020   6.194 -1.3897 -2.4215 -1.7221
 2599SOL    HW219431   0.860   4.713   6.061  2.2935 -0.1923  0.7663
 2600SOL     OW19432   2.324   3.945   4.928 -0.3790 -0.1181 -0.2985
 2600SOL    HW119433   2.308   3.851   4.937 -0.7975 -0.0030  0.1133
 2600SOL    HW219434   2.340   3.968   5.020  2.1046  0.4614 -0.8526
 2601SOL     OW19435   3.214   2.771   4.898 -0.3040 -0.8757 -0.0942
 2601SOL    HW119436   3.223   2.836   4.829 -1.5711  2.0670  2.5399
 2601SOL    HW219437   3.192   2.830   4.970 -0.9636 -2.1212  0.7310
 2602SOL     OW19438   4.716   2.313  17.112 -0.4415 -0.8835 -0.8177
 2602SOL    HW119439   0.070   2.340  17.112 -1.2086  1.6473 -0.6240
 2602SOL    HW219440   4.718   2.258  17.191 -0.3635 -1.4748 -1.2259
 2603SOL     OW19441   3.819   0.818  11.326 -0.3167 -0.3308  0.5165
 2603SOL    HW119442   3.901   0.867  11.336 -1.1659  1.2603 -0.4420
 2603SOL    HW219443   3.848   0.734  11.291  0.4278  0.7966 -1.6031
 2604SOL     OW19444   4.243   2.207   9.168  0.0023 -0.0318 -0.4733
 2604SOL    HW119445   4.254   2.165   9.253 -0.0872  1.7588  0.4173
 2604SOL    HW219446   4.149   2.221   9.162 -0.0834 -1.0116 -1.3154
 2605SOL     OW19447   2.721   3.206   4.661  0.3519 -0.3012 -0.0818
 2605SOL    HW119448   2.689   3.117   4.675  0.1584 -0.1216  0.5965
 2605SOL    HW219449   2.806   3.184   4.621 -0.1362  0.3771 -1.4767
 2606SOL     OW19450   1.906   4.562   7.981 -0.0005  0.2580  0.0399
 2606SOL    HW119451   1.961   4.630   8.020  1.4823  0.1135 -1.7711
 2606SOL    HW219452   1.827   4.611   7.957 -0.1060 -0.1946 -0.5281
 2607SOL     OW19453   1.519   2.109   7.863  0.2870  0.1772 -0.1683
 2607SOL    HW119454   1.424   2.109   7.869  0.4905 -0.4031  3.5291
 2607SOL    HW219455   1.529   2.013   7.863  1.7304  0.3250 -0.3436
 2608SOL     OW19456   0.622   0.104   1.652 -0.0197  0.1584  0.1117
 2608SOL    HW119457   0.555   0.086   1.719 -1.4735  0.4421 -1.2653
 2608SOL    HW219458   0.663   0.019   1.639  0.3466  0.1438  1.3107
 2609SOL     OW19459   1.484   4.089   3.752 -0.1263 -0.3218 -0.1409
 2609SOL    HW119460   1.465   4.122   3.664 -0.1163  1.3451  0.4659
 2609SOL    HW219461   1.570   4.052   3.735 -0.2217  0.2165 -1.8553
 2610SOL     OW19462   0.421   1.509   3.023  0.4811  0.1382 -0.6874
 2610SOL    HW119463   0.454   1.424   3.051  4.4835  2.4700  1.6490
 2610SOL    HW219464   0.363   1.518   3.099  2.2621  1.2585  0.5302
 2611SOL     OW19465   3.491   0.535  10.390 -0.6083 -0.3167 -0.4741
 2611SOL    HW119466   3.508   0.619  10.433  1.9242  0.1351 -2.3437
 2611SOL    HW219467   3.564   0.481  10.417 -0.6515  0.5067  1.2707
 2612SOL     OW19468   1.987   4.548   6.025 -0.5339 -0.5585 -0.1872
 2612SOL    HW119469   2.015   4.610   6.092 -1.2115 -0.4419 -0.0085
 2612SOL    HW219470   2.024   4.463   6.049 -0.5490 -0.1989  1.0621
 2613SOL     OW19471   1.277   4.113   9.451 -0.4219 -0.2083 -0.6655
 2613SOL    HW119472   1.354   4.135   9.504 -0.9918  2.4188 -0.9040
 2613SOL    HW219473   1.259   4.034   9.501  0.7646  1.2048  1.9756
 2614SOL     OW19474   1.228   0.576  16.147 -0.0033  0.0855  0.2849
 2614SOL    HW119475   1.297   0.642  16.135  0.3152 -0.5847 -1.4630
 2614SOL    HW219476   1.237   0.520  16.071  0.1609 -0.6426  0.8457
 2615SOL     OW19477   3.856   1.452   3.177  0.0747 -0.0504 -0.5200
 2615SOL    HW119478   3.922   1.448   3.107  1.1667 -0.6213  0.5522
 2615SOL    HW219479   3.902   1.468   3.259 -1.9679 -0.4963  0.6852
 2616SOL     OW19480   3.418   0.539   2.849 -0.3253 -0.6965 -0.1949
 2616SOL    HW119481   3.339   0.574   2.807 -0.1639  1.0472  0.9314
 2616SOL    HW219482   3.414   0.593   2.928  0.9097 -0.9878  0.0665
 2617SOL     OW19483   0.523   2.477   4.155 -0.6940 -0.1762 -0.2083
 2617SOL    HW119484   0.606   2.430   4.169  0.5370  2.3901  1.2007
 2617SOL    HW219485   0.464   2.428   4.212 -0.1015 -0.3501  0.2652
 2618SOL     OW19486   3.021   3.637   8.432  0.1648 -0.4401 -0.2545
 2618SOL    HW119487   3.106   3.671   8.459  0.1074  1.3724 -2.3201
 2618SOL    HW219488   3.043   3.562   8.376  2.3512 -0.2578  0.3336
 2619SOL     OW19489   2.656   0.440  14.116 -0.0684 -0.3937  0.4472
 2619SOL    HW119490   2.746   0.458  14.142  0.1436  0.2122 -0.7129
 2619SOL    HW219491   2.660   0.491  14.035  2.7078  0.1337  0.9110
 2620SOL     OW19492   1.300   4.533   1.653  0.0405  0.1163  0.0467
 2620SOL    HW119493   1.349   4.451   1.660 -0.5585 -0.5969 -3.9362
 2620SOL    HW219494   1.209   4.506   1.661  0.2566 -0.5743  0.1538
 2621SOL     OW19495   0.308   3.428   5.140  0.0037 -0.2216  0.1418
 2621SOL    HW119496   0.217   3.405   5.157 -0.2938  0.0597 -1.1221
 2621SOL    HW219497   0.347   3.399   5.223 -0.3571  1.5403  0.9291
 2622SOL     OW19498   2.290   1.016   4.027 -0.6494  0.2411 -0.2746
 2622SOL    HW119499   2.290   1.064   4.110 -0.7047 -0.6255  0.2202
 2622SOL    HW219500   2.252   0.932   4.053 -1.1230  0.6484  0.3453
 2623SOL     OW19501   4.702   0.209   0.774  0.2350 -0.1889 -0.6095
 2623SOL    HW119502   4.670   0.257   0.698  0.4416  1.5541  0.3981
 2623SOL    HW219503   4.688   0.272   0.846  0.5034 -1.2171  0.3464
 2624SOL     OW19504   2.599   2.620   6.138 -0.2772 -0.2942 -0.2081
 2624SOL    HW119505   2.540   2.695   6.144  2.8677  2.2512 -0.8789
 2624SOL    HW219506   2.536   2.549   6.151 -0.1054 -0.4448 -0.2072
 2625SOL     OW19507   1.053   3.546  17.067 -0.0865  0.5486  0.0472
 2625SOL    HW119508   1.081   3.578  16.982 -1.6545  0.8889 -0.3498
 2625SOL    HW219509   0.962   3.576  17.062 -0.1004  0.5517  0.3167
 2626SOL     OW19510   3.955   0.356   4.583 -0.6065  0.0242 -0.4658
 2626SOL    HW119511   3.896   0.300   4.634 -0.2801 -0.1671 -0.2964
 2626SOL    HW219512   3.987   0.286   4.526  0.1423 -0.2819  0.3377
 2627SOL     OW19513   2.233   3.028   4.535  0.3588 -0.2200  0.3169
 2627SOL    HW119514   2.198   3.011   4.622  1.3444 -0.6505  0.6175
 2627SOL    HW219515   2.325   3.005   4.546  0.7087  0.4413 -1.1283
 2628SOL     OW19516   0.017   1.245  15.001 -0.2609  0.0514  0.0018
 2628SOL    HW119517   0.062   1.183  14.944 -0.0411 -0.5863  0.8762
 2628SOL    HW219518   0.071   1.258  15.078  2.2485  0.0946 -1.7813
 2629SOL     OW19519   3.106   3.617   6.009 -0.0537 -0.2137 -0.1936
 2629SOL    HW119520   3.031   3.675   6.022  0.2998  0.5080 -1.4507
 2629SOL    HW219521   3.168   3.673   5.962  1.0036 -0.5222  0.8217
 2630SOL     OW19522   4.058   4.040   6.100  0.3496  0.5682 -0.1161
 2630SOL    HW119523   4.035   4.133   6.102 -2.8714 -0.2158 -1.3498
 2630SOL    HW219524   4.145   4.047   6.139 -0.2247  1.6089  1.0017
 2631SOL     OW19525   2.048   3.898   4.085 -0.0419  0.4563 -0.2002
 2631SOL    HW119526   2.096   3.894   4.003  0.7063 -0.9929  0.3181
 2631SOL    HW219527   1.960   3.887   4.050  0.8922 -1.1906 -2.0095
 2632SOL     OW19528   2.419   2.300   6.953 -0.0658 -0.6361  0.1211
 2632SOL    HW119529   2.482   2.350   7.004 -1.2467  0.8180  0.1399
 2632SOL    HW219530   2.420   2.216   6.999 -2.6572 -0.4994  0.4388
 2633SOL     OW19531   0.389   0.023  10.898 -0.8757 -0.1095 -0.1056
 2633SOL    HW119532   0.396   4.674  10.857  0.0983 -0.0531 -0.0589
 2633SOL    HW219533   0.472   0.019  10.945 -0.7130  2.0841 -0.1863
 2634SOL     OW19534   4.207   0.979   2.606 -1.1844 -0.2361  0.2730
 2634SOL    HW119535   4.281   1.026   2.644 -2.0677  0.5721  1.0129
 2634SOL    HW219536   4.130   1.022   2.644 -2.2017 -1.3910 -0.4934
 2635SOL     OW19537   0.404   4.637   6.737  0.1791 -0.1982 -0.3018
 2635SOL    HW119538   0.442   4.590   6.662 -1.3620 -0.0034 -1.2000
 2635SOL    HW219539   0.479   4.622   6.795  0.6887  3.7421  0.0052
 2636SOL     OW19540   1.329   2.364  13.783  0.3229 -0.1152  0.0182
 2636SOL    HW119541   1.311   2.452  13.751 -0.2273  0.0601  0.8128
 2636SOL    HW219542   1.239   2.346  13.811  0.7423  1.6580  2.4811
 2637SOL     OW19543   0.892   2.319   7.024  0.0465  0.5888 -0.7946
 2637SOL    HW119544   0.892   2.238   6.974  2.4251  1.2188 -1.8058
 2637SOL    HW219545   0.934   2.300   7.108 -1.1850 -2.0263 -0.7836
 2638SOL     OW19546   0.343   3.317  10.001 -0.3690  0.1395 -0.7860
 2638SOL    HW119547   0.308   3.385   9.944  0.5626  1.2858  0.0147
 2638SOL    HW219548   0.280   3.324  10.072 -0.4751 -2.4177 -0.6263
 2639SOL     OW19549   0.855   3.793   4.914  0.1520 -0.2204  0.1142
 2639SOL    HW119550   0.813   3.860   4.860 -1.2382 -0.2154  1.2143
 2639SOL    HW219551   0.805   3.716   4.886  0.3346  0.3372 -1.7502
 2640SOL     OW19552   0.713   1.022   1.982 -0.2066 -0.0911 -1.2236
 2640SOL    HW119553   0.775   1.079   1.935  1.0820 -0.0561  0.5618
 2640SOL    HW219554   0.774   0.954   2.007  1.0147  1.1224 -0.8853
 2641SOL     OW19555   1.018   4.681   0.455  0.1658 -0.0372  0.1189
 2641SOL    HW119556   1.029   4.705   0.547  1.0843  0.7278 -0.1832
 2641SOL    HW219557   1.100   4.639   0.430  0.0626 -1.2729  1.8961
 2642SOL     OW19558   0.080   3.219   4.393 -1.0821 -0.0373  0.0873
 2642SOL    HW119559   0.114   3.299   4.433  1.0621 -1.4109  1.0190
 2642SOL    HW219560   0.067   3.163   4.469  2.3510 -0.8125  0.1294
 2643SOL     OW19561   0.583   0.083   0.614  0.0389  0.0088  0.1690
 2643SOL    HW119562   0.621   0.023   0.550 -0.3676 -0.4620  0.3677
 2643SOL    HW219563   0.494   0.058   0.637  0.3820  0.7069  2.2719
 2644SOL     OW19564   3.579   0.261  14.265 -0.3145  0.0646 -0.0859
 2644SOL    HW119565   3.540   0.178  14.295 -0.4087 -0.2630 -1.1001
 2644SOL    HW219566   3.643   0.227  14.202 -1.0366 -0.2050 -0.6806
 2645SOL     OW19567   3.514   3.426  10.489  0.0731  0.1275 -0.1575
 2645SOL    HW119568   3.571   3.376  10.430  1.5415  0.7523  0.7250
 2645SOL    HW219569   3.562   3.431  10.572 -1.6988 -1.1834  0.9439
 2646SOL     OW19570   2.516   4.327   2.566  0.9289  0.1890  0.3030
 2646SOL    HW119571   2.534   4.282   2.483 -0.8843 -3.0301  1.6428
 2646SOL    HW219572   2.444   4.379   2.531 -0.7867 -2.9763 -0.8283
 2647SOL     OW19573   3.977   3.283   2.976  0.0459  0.3006 -0.2724
 2647SOL    HW119574   3.913   3.279   3.048  1.3521  2.1750  0.9843
 2647SOL    HW219575   3.932   3.258   2.896  1.1698  1.0857 -1.1425
 2648SOL     OW19576   3.846   0.709   2.527  0.0696  0.3875  0.0893
 2648SOL    HW119577   3.781   0.680   2.590 -1.5677  1.0475 -1.3018
 2648SOL    HW219578   3.847   0.801   2.552  0.2445 -0.0888  1.7988
 2649SOL     OW19579   4.255   3.813   3.283  0.0653 -1.0697 -0.0587
 2649SOL    HW119580   4.334   3.846   3.325  0.6796 -1.6235 -0.7689
 2649SOL    HW219581   4.288   3.730   3.247  2.6013 -0.5403  1.0049
 2650SOL     OW19582   1.590   2.232  15.169 -0.0476  0.4048 -0.7957
 2650SOL    HW119583   1.601   2.301  15.104  2.0501 -0.8663 -1.7681
 2650SOL    HW219584   1.618   2.273  15.251 -1.0701 -1.7346  0.6537
 2651SOL     OW19585   3.517   3.481   9.469  0.1016 -0.1795  0.1257
 2651SOL    HW119586   3.540   3.544   9.537  1.1568  0.0504 -0.4251
 2651SOL    HW219587   3.604   3.458   9.434  0.1370 -0.3231  0.3098
 2652SOL     OW19588   3.408   0.788   5.995 -0.3792 -0.0493  0.3142
 2652SOL    HW119589   3.330   0.812   5.945  0.5467  0.5469 -0.8313
 2652SOL    HW219590   3.445   0.874   6.014  0.0150 -0.0194 -0.5666
 2653SOL     OW19591   1.369   3.828   4.027 -0.1015 -0.4298 -0.2872
 2653SOL    HW119592   1.325   3.824   4.112  0.4264 -1.7780 -0.0755
 2653SOL    HW219593   1.448   3.880   4.039  0.0644 -0.2767 -1.9786
 2654SOL     OW19594   4.526   2.588  10.114 -0.4610  0.3764 -0.0945
 2654SOL    HW119595   4.550   2.508  10.068 -0.4890  0.6831 -0.6437
 2654SOL    HW219596   4.606   2.591  10.167  1.4850 -0.0140 -3.0074
 2655SOL     OW19597   2.084   3.891  17.017  0.7647  0.2453 -0.1967
 2655SOL    HW119598   2.017   3.957  17.033 -1.0821 -1.6961 -0.0285
 2655SOL    HW219599   2.163   3.942  17.034  0.6343  0.3723  0.0291
 2656SOL     OW19600   4.300   4.382   1.728 -0.3912 -0.1047  0.0728
 2656SOL    HW119601   4.240   4.404   1.657  0.8607 -1.4070 -1.3922
 2656SOL    HW219602   4.236   4.337   1.785 -0.5049 -1.2895 -0.9897
 2657SOL     OW19603   2.161   2.916   9.276 -0.2919  0.0292  0.3310
 2657SOL    HW119604   2.107   2.843   9.307 -0.1979 -0.4206 -0.5544
 2657SOL    HW219605   2.245   2.902   9.319 -0.2155  1.1744  0.5449
 2658SOL     OW19606   1.185   2.152   6.943  0.9416 -0.9025 -0.9479
 2658SOL    HW119607   1.223   2.218   7.001 -1.1644  1.1020 -1.8583
 2658SOL    HW219608   1.205   2.072   6.992 -0.9528 -0.5945  0.2811
 2659SOL     OW19609   3.538   3.926   1.995  0.6192  0.3079 -0.0694
 2659SOL    HW119610   3.518   3.969   2.078 -1.0473 -1.1508  0.2700
 2659SOL    HW219611   3.499   3.991   1.936 -0.3522  0.7968  1.1008
 2660SOL     OW19612   2.552   1.993   9.232  0.3461 -0.0596 -0.0193
 2660SOL    HW119613   2.604   2.053   9.179 -1.7234  0.2686 -1.6834
 2660SOL    HW219614   2.516   1.942   9.160 -0.4363 -2.0845  1.7891
 2661SOL     OW19615   4.723   3.968   6.370  0.8063 -0.0081 -0.6208
 2661SOL    HW119616   4.659   3.898   6.379  1.5285 -0.5395  0.4165
 2661SOL    HW219617   4.729   3.976   6.275 -3.1812 -2.0989 -1.0167
 2662SOL     OW19618   3.392   2.989   0.687 -0.3738 -0.3558  0.5259
 2662SOL    HW119619   3.445   2.918   0.723  0.6618  0.6413  0.9582
 2662SOL    HW219620   3.314   2.981   0.742 -0.4843 -0.4516  0.3568
 2663SOL     OW19621   3.179   2.964  17.250  0.1054 -0.0986  0.0367
 2663SOL    HW119622   3.169   2.885  17.304 -2.5122 -0.6791 -1.2613
 2663SOL    HW219623   3.244   3.016  17.297  0.1000 -0.2791  0.2464
 2664SOL     OW19624   4.255   1.466   3.073  0.1230 -0.2538  0.6433
 2664SOL    HW119625   4.340   1.465   3.116  0.6108 -1.5086 -0.3845
 2664SOL    HW219626   4.274   1.397   3.011 -1.8940 -0.0829 -0.1682
 2665SOL     OW19627   3.644   0.511   2.097  0.0255 -0.1980 -0.7056
 2665SOL    HW119628   3.729   0.484   2.062 -0.0459 -1.0516 -0.2244
 2665SOL    HW219629   3.667   0.576   2.163 -1.3486 -0.6428  0.2149
 2666SOL     OW19630   0.093   1.745   3.912 -0.0476 -0.0280 -1.3042
 2666SOL    HW119631   0.058   1.723   3.998  0.7938  0.6215 -0.7895
 2666SOL    HW219632   0.023   1.790   3.865  0.9430  4.5535  1.4815
 2667SOL     OW19633   1.294   0.486   2.832  0.0268 -0.2139 -0.3250
 2667SOL    HW119634   1.322   0.455   2.746  0.9087 -0.3581  0.0103
 2667SOL    HW219635   1.247   0.406   2.853  1.7243 -0.7892  1.3449
 2668SOL     OW19636   4.594   3.962   5.568  0.1938  0.2005 -0.1866
 2668SOL    HW119637   4.624   3.887   5.517 -1.2178 -0.8158  0.4699
 2668SOL    HW219638   4.500   3.943   5.568  0.7532 -2.6563  0.9270
 2669SOL     OW19639   1.503   3.018   6.613  0.0712  0.2827  0.3389
 2669SOL    HW119640   1.421   3.048   6.653 -1.4716  1.0020 -3.3551
 2669SOL    HW219641   1.566   3.005   6.684  1.4254 -1.0088 -1.1054
 2670SOL     OW19642   1.284   0.432   5.757 -0.0487  0.1476 -0.8021
 2670SOL    HW119643   1.259   0.498   5.694 -0.9112 -1.4711 -2.1495
 2670SOL    HW219644   1.198   0.420   5.797  0.5515  0.1694  0.4915
 2671SOL     OW19645   0.957   4.412  15.962  0.1082  0.1182  0.0647
 2671SOL    HW119646   0.932   4.504  15.974 -0.6331 -0.4187  2.5102
 2671SOL    HW219647   1.033   4.425  15.905  0.3283 -5.5318 -0.8948
 2672SOL     OW19648   2.545   4.310  12.110  0.3016 -0.3709 -0.0646
 2672SOL    HW119649   2.629   4.269  12.086 -0.2523 -1.3401 -0.3270
 2672SOL    HW219650   2.559   4.314  12.204 -1.7543 -0.9057  0.2622
 2673SOL     OW19651   4.559   4.442   8.045  0.0304 -0.4036  0.1186
 2673SOL    HW119652   4.571   4.351   8.021 -0.6986 -0.2207 -0.9507
 2673SOL    HW219653   4.475   4.457   8.002  0.2315 -1.2144 -0.5587
 2674SOL     OW19654   1.566   1.472  17.056  0.3973  0.1483  0.1409
 2674SOL    HW119655   1.564   1.549  16.998  0.0237  0.1242  0.1216
 2674SOL    HW219656   1.478   1.441  17.034  0.4046  0.8161 -0.8319
 2675SOL     OW19657   2.140   4.432  17.679 -0.9831  0.5640  0.3068
 2675SOL    HW119658   2.116   4.503  17.620 -0.8560 -1.0057 -1.6135
 2675SOL    HW219659   2.235   4.440  17.679 -1.0540  1.4810  1.5392
 2676SOL     OW19660   1.426   1.093  10.666  0.3881  0.3447 -0.0848
 2676SOL    HW119661   1.421   0.998  10.666  1.5033  0.2863  0.2283
 2676SOL    HW219662   1.435   1.114  10.573 -1.4957 -2.8707 -0.9763
 2677SOL     OW19663   2.548   0.614   2.278  0.2914  0.8572  0.8038
 2677SOL    HW119664   2.613   0.544   2.288 -1.5307 -1.1679 -1.4126
 2677SOL    HW219665   2.491   0.573   2.213 -0.7881  0.2110  2.1324
 2678SOL     OW19666   3.468   2.187   3.614 -0.1708  0.2951 -0.0545
 2678SOL    HW119667   3.535   2.251   3.589  1.2436 -0.9791  0.5024
 2678SOL    HW219668   3.533   2.118   3.626 -1.7109 -1.2342 -0.5547
 2679SOL     OW19669   2.802   3.056   6.924  0.0250 -0.3033  0.6171
 2679SOL    HW119670   2.751   3.104   6.988  0.5908  3.4488 -1.7200
 2679SOL    HW219671   2.734   2.998   6.889 -2.1472  1.1701  2.4217
 2680SOL     OW19672   1.369   1.781   4.882  0.4605  0.3762 -0.2033
 2680SOL    HW119673   1.422   1.780   4.802  1.3345  2.8798  0.3441
 2680SOL    HW219674   1.327   1.866   4.874  0.1082  0.0819 -1.4854
 2681SOL     OW19675   2.100   3.536   9.294  0.2145 -0.3812  0.0691
 2681SOL    HW119676   2.061   3.612   9.250  2.4512  1.4163  1.2297
 2681SOL    HW219677   2.168   3.577   9.347 -0.1016 -0.0186  0.1914
 2682SOL     OW19678   0.456   4.466   0.323 -0.4841 -0.0551 -0.3013
 2682SOL    HW119679   0.438   4.456   0.416 -1.9326  0.8607 -0.4781
 2682SOL    HW219680   0.383   4.414   0.290 -1.9506  2.2634 -0.7390
 2683SOL     OW19681   0.233   3.994   4.874 -0.0096 -0.6690 -0.2231
 2683SOL    HW119682   0.323   4.021   4.858 -0.6856  1.3087 -0.7059
 2683SOL    HW219683   0.198   3.968   4.788  0.0688 -0.5522 -0.2905
 2684SOL     OW19684   4.635   1.879   2.884 -0.0761  0.2239  0.2605
 2684SOL    HW119685   4.718   1.880   2.837 -0.4734 -0.1961 -0.4563
 2684SOL    HW219686   4.571   1.857   2.816  0.0150 -0.4480  0.3935
 2685SOL     OW19687   2.227   1.200   2.182 -0.3765 -0.3780  0.2010
 2685SOL    HW119688   2.133   1.182   2.183 -0.4565  0.0729  0.8709
 2685SOL    HW219689   2.235   1.190   2.087  0.0032 -0.5665  0.2504
 2686SOL     OW19690   0.347   1.951   5.618 -0.0225 -0.2537 -0.0925
 2686SOL    HW119691   0.385   1.889   5.679  2.2592  0.8225 -0.4311
 2686SOL    HW219692   0.302   1.895   5.554  0.5517 -0.1110 -0.6248
 2687SOL     OW19693   2.838   2.940   0.376 -0.2515  0.6447  0.4207
 2687SOL    HW119694   2.860   3.033   0.373 -1.2769  0.8718 -0.0141
 2687SOL    HW219695   2.743   2.933   0.382 -0.1397 -1.0174  0.2388
 2688SOL     OW19696   1.203   4.075   9.100  0.3703  0.5425  0.0853
 2688SOL    HW119697   1.126   4.112   9.143 -0.3209 -0.0397 -0.6376
 2688SOL    HW219698   1.218   4.000   9.158 -4.3786  0.0128  0.6514
 2689SOL     OW19699   1.730   2.182   7.626  0.3153 -0.0099  0.3624
 2689SOL    HW119700   1.653   2.170   7.681  1.8425 -0.9513  2.2840
 2689SOL    HW219701   1.682   2.160   7.546  1.6146 -0.3779 -0.3192
 2690SOL     OW19702   3.230   1.829   8.909  0.7478 -0.3187  0.1987
 2690SOL    HW119703   3.254   1.741   8.880 -0.8943 -0.9944  0.8707
 2690SOL    HW219704   3.249   1.818   9.002 -0.4550  0.2803  0.5231
 2691SOL     OW19705   3.996   1.546  14.847 -0.6648 -0.1496 -0.0246
 2691SOL    HW119706   3.915   1.588  14.875 -0.3350  1.6466 -1.8091
 2691SOL    HW219707   3.971   1.550  14.754 -1.7537  0.3364  0.2811
 2692SOL     OW19708   4.168   4.378   0.480  0.0124  0.2324 -0.0463
 2692SOL    HW119709   4.247   4.324   0.486  0.4226  0.9882  1.2555
 2692SOL    HW219710   4.186   4.444   0.547  1.1926 -1.6622  1.4915
 2693SOL     OW19711   1.735   4.067  15.380  0.1926  0.1675  0.0666
 2693SOL    HW119712   1.780   4.140  15.422 -0.4366  0.3852  0.3730
 2693SOL    HW219713   1.692   4.030  15.457  1.4149  2.2406  1.7316
 2694SOL     OW19714   1.558   2.891   3.237  1.0308  0.2141 -0.2319
 2694SOL    HW119715   1.477   2.941   3.228  1.1730  0.3527 -0.7699
 2694SOL    HW219716   1.592   2.905   3.325 -1.5223  0.2170  0.7423
 2695SOL     OW19717   4.092   0.631   2.019  0.1483 -0.2766  0.1344
 2695SOL    HW119718   4.064   0.717   2.051  2.1603  0.4387 -0.0108
 2695SOL    HW219719   4.074   0.635   1.926  2.3814 -0.1405 -0.2913
 2696SOL     OW19720   4.375   3.722  17.197 -0.2900  0.5665 -0.4077
 2696SOL    HW119721   4.455   3.683  17.235 -0.8373  1.9523  2.1948
 2696SOL    HW219722   4.380   3.808  17.240 -0.3604  0.3359  0.0620
 2697SOL     OW19723   0.520   2.927   8.039 -0.1704 -0.3702  0.1266
 2697SOL    HW119724   0.603   2.967   8.066  1.9357 -3.2517 -1.9955
 2697SOL    HW219725   0.555   2.838   8.027  1.2877  0.0926  0.8565
 2698SOL     OW19726   1.662   2.942  16.165 -0.4064  0.3611  0.7706
 2698SOL    HW119727   1.742   2.909  16.124 -2.0572 -1.3190 -1.0924
 2698SOL    HW219728   1.601   2.871  16.148 -0.0258 -0.2185  1.8172
 2699SOL     OW19729   0.896   1.972   3.075  0.5472  0.1906  0.2413
 2699SOL    HW119730   0.810   1.995   3.111  0.5527  0.5418  0.0268
 2699SOL    HW219731   0.859   1.948   2.989 -0.8391  1.8057  0.3872
 2700SOL     OW19732   1.220   2.436  12.225  0.3561 -0.2658 -0.3994
 2700SOL    HW119733   1.288   2.368  12.229  0.9976  0.3563 -0.8590
 2700SOL    HW219734   1.267   2.515  12.251  1.2656 -0.4299 -1.5500
 2701SOL     OW19735   2.752   0.428   2.335 -0.1429 -0.2717  0.0280
 2701SOL    HW119736   2.832   0.473   2.306  1.1079 -0.7483  2.6841
 2701SOL    HW219737   2.796   0.349   2.368  1.7887  0.3889 -0.9193
 2702SOL     OW19738   1.186   4.657   4.126 -0.5907  0.4502  0.0705
 2702SOL    HW119739   1.155   4.718   4.193  0.1099 -0.6164  1.3845
 2702SOL    HW219740   1.210   4.579   4.175 -1.6009 -1.0709 -1.8769
 2703SOL     OW19741   0.206   0.225   8.309  0.6927 -0.1912 -0.1587
 2703SOL    HW119742   0.154   0.246   8.386 -0.3943 -0.5546 -0.7957
 2703SOL    HW219743   0.261   0.304   8.311  0.2460  0.1790 -1.9518
 2704SOL     OW19744   3.011   1.708   5.442 -0.2894  0.0098 -0.3300
 2704SOL    HW119745   2.946   1.766   5.484 -2.7657 -1.1376 -2.6169
 2704SOL    HW219746   3.070   1.782   5.430 -0.3469  0.2109  0.6119
 2705SOL     OW19747   2.938   3.063   5.027 -0.3219  0.2101 -0.0641
 2705SOL    HW119748   3.008   3.014   5.070  0.4280  2.2759  1.1075
 2705SOL    HW219749   2.956   3.023   4.942 -2.8697 -0.8877 -0.0826
 2706SOL     OW19750   2.153   4.306  10.678  0.3520 -0.3643  0.2494
 2706SOL    HW119751   2.166   4.342  10.591 -0.2281 -0.6952  0.0275
 2706SOL    HW219752   2.196   4.222  10.664 -0.6316 -0.7366 -0.5194
 2707SOL     OW19753   0.653   0.202  15.241  0.4096  0.3501  0.0834
 2707SOL    HW119754   0.634   0.109  15.256  1.2113 -0.0064 -1.1240
 2707SOL    HW219755   0.678   0.194  15.149 -0.7590  2.4922 -0.4196
 2708SOL     OW19756   3.569   4.631  10.333 -0.2706  0.0140 -0.1945
 2708SOL    HW119757   3.580   4.620  10.238  3.2312 -2.6261  0.4889
 2708SOL    HW219758   3.643   4.692  10.339  0.1351 -0.4458 -0.4672
 2709SOL     OW19759   1.068   4.204   5.733 -0.0420  0.0344 -0.3326
 2709SOL    HW119760   1.031   4.175   5.649  0.1676 -0.0688 -0.3880
 2709SOL    HW219761   1.070   4.297   5.710  0.8214  0.0985  0.0096
 2710SOL     OW19762   3.594   1.092   7.471  0.1832 -0.1213  0.3250
 2710SOL    HW119763   3.616   1.172   7.518  0.9296 -1.5930  2.4900
 2710SOL    HW219764   3.660   1.096   7.402  0.2117 -0.9402  0.3023
 2711SOL     OW19765   4.112   0.405  11.888  0.2723 -0.1813  0.2085
 2711SOL    HW119766   4.130   0.322  11.844  1.2195  0.3951 -0.4848
 2711SOL    HW219767   4.020   0.414  11.862 -0.5754 -3.1817  2.1583
 2712SOL     OW19768   3.292   3.397  10.230 -0.0907 -0.3979  0.1007
 2712SOL    HW119769   3.244   3.314  10.232 -0.4150 -0.2136  0.0217
 2712SOL    HW219770   3.378   3.381  10.269 -0.2588  0.8890  0.9841
 2713SOL     OW19771   0.631   3.876   4.310  0.1522 -0.0725  0.1066
 2713SOL    HW119772   0.552   3.878   4.257  1.1296  0.2505 -1.3187
 2713SOL    HW219773   0.591   3.848   4.392 -2.0050  0.6708 -0.7038
 2714SOL     OW19774   3.716   0.156  14.079  0.2010 -0.4564  0.0873
 2714SOL    HW119775   3.801   0.166  14.036 -0.7257  0.0041 -1.6289
 2714SOL    HW219776   3.663   0.158  13.999  0.5103  0.8017 -0.0996
 2715SOL     OW19777   4.311   1.201  13.286  0.3093 -0.5480 -0.1429
 2715SOL    HW119778   4.253   1.181  13.213 -1.2891  2.1969  0.4062
 2715SOL    HW219779   4.262   1.162  13.359  1.0089  0.4819  0.8828
 2716SOL     OW19780   0.925   3.308   8.818 -0.3794 -0.2846 -0.1594
 2716SOL    HW119781   0.956   3.380   8.873 -2.4976 -0.2157  0.9814
 2716SOL    HW219782   1.011   3.270   8.802  0.0455  1.4034 -1.7857
 2717SOL     OW19783   0.711   1.821   5.904 -0.0498 -0.2958  0.1361
 2717SOL    HW119784   0.672   1.735   5.917 -2.3276  1.0459  2.2405
 2717SOL    HW219785   0.801   1.809   5.934  0.1731 -0.1928 -0.4955
 2718SOL     OW19786   3.515   0.542  13.832  0.0285 -0.0141 -0.1020
 2718SOL    HW119787   3.445   0.478  13.847 -0.1205 -0.4933 -2.7491
 2718SOL    HW219788   3.580   0.517  13.898 -0.3745  0.5879  0.5138
 2719SOL     OW19789   0.619   1.216  15.874  0.3682  0.0484  0.2084
 2719SOL    HW119790   0.646   1.144  15.817  0.7182 -0.9216  1.5999
 2719SOL    HW219791   0.704   1.230  15.916 -0.3609 -1.1509  2.0502
 2720SOL     OW19792   1.348   2.729   3.736  0.5039 -0.1168  0.7087
 2720SOL    HW119793   1.292   2.655   3.759 -1.0401  0.2744 -1.7802
 2720SOL    HW219794   1.273   2.788   3.741  2.2695  1.9959  2.1475
 2721SOL     OW19795   1.242   4.141   4.078  0.4907 -0.5569 -0.2182
 2721SOL    HW119796   1.156   4.135   4.120  1.1327 -0.1087  1.1379
 2721SOL    HW219797   1.286   4.198   4.141  0.6808 -0.4473 -0.4507
 2722SOL     OW19798   0.770   4.270   9.797 -0.4491  0.0530  0.6303
 2722SOL    HW119799   0.680   4.293   9.774 -0.2840 -0.9710 -1.0208
 2722SOL    HW219800   0.757   4.217   9.876 -0.0869  1.7793  1.8408
 2723SOL     OW19801   3.129   0.724  14.069 -0.6928 -0.1813  0.9234
 2723SOL    HW119802   3.158   0.766  13.987 -2.5548 -0.0362  0.3380
 2723SOL    HW219803   3.214   0.716  14.112 -1.0225  0.6990  1.7148
 2724SOL     OW19804   3.486   3.420  14.527 -0.2015  0.2707 -0.4310
 2724SOL    HW119805   3.483   3.509  14.559  1.6407  0.4229 -0.7007
 2724SOL    HW219806   3.409   3.416  14.470 -0.5596 -0.2354  0.0872
 2725SOL     OW19807   2.135   0.496  17.306  0.5910  0.2457  0.3050
 2725SOL    HW119808   2.128   0.417  17.252  0.8703  1.0028 -0.8438
 2725SOL    HW219809   2.215   0.489  17.359  1.8102  0.3322 -1.5203
 2726SOL     OW19810   4.644   4.710  13.677  0.0469  0.5384 -0.1401
 2726SOL    HW119811   4.727   4.670  13.704  0.1629  2.0453  1.7184
 2726SOL    HW219812   4.594   4.628  13.677  0.3986  0.3290  2.6499
 2727SOL     OW19813   4.735   4.626   7.207 -0.0972  0.2472  0.0538
 2727SOL    HW119814   4.720   4.554   7.267  1.3369  0.1013  0.2275
 2727SOL    HW219815   4.712   4.582   7.125  0.3562 -0.7167  0.4490
 2728SOL     OW19816   1.868   2.370   9.857  0.0365 -0.1077  0.4903
 2728SOL    HW119817   1.774   2.366   9.876 -0.4428  0.1509 -1.7874
 2728SOL    HW219818   1.883   2.463   9.876  2.8244 -0.9484  2.3391
 2729SOL     OW19819   4.180   4.669   0.571  0.8329  0.0346  0.4164
 2729SOL    HW119820   4.254   4.725   0.595  1.9827 -1.5837  0.6027
 2729SOL    HW219821   4.181   4.691   0.477  1.0267 -0.3094  0.3399
 2730SOL     OW19822   3.682   4.047   6.564  0.0696  0.3848 -0.3186
 2730SOL    HW119823   3.679   4.008   6.477 -0.8164  2.5620 -1.2642
 2730SOL    HW219824   3.664   4.138   6.540  1.5606  0.4895 -1.0477
 2731SOL     OW19825   3.897   2.152   2.246  0.3008  0.1743  0.0363
 2731SOL    HW119826   3.823   2.169   2.188 -0.4258 -0.6107  0.7323
 2731SOL    HW219827   3.961   2.194   2.189 -0.6727 -1.9686 -2.6450
 2732SOL     OW19828   1.014   1.894  12.016 -0.1794  0.4182 -0.0246
 2732SOL    HW119829   1.039   1.928  11.930  0.9784 -0.5334 -0.0672
 2732SOL    HW219830   0.920   1.881  12.008 -0.1906 -0.0296  0.9135
 2733SOL     OW19831   3.430   1.175   7.930 -0.6087 -0.3208  0.2300
 2733SOL    HW119832   3.355   1.223   7.966  0.0599  0.4567  0.5978
 2733SOL    HW219833   3.411   1.089   7.968 -0.1680 -0.1984  0.7305
 2734SOL     OW19834   1.690   2.573   8.790  0.8718  0.1053  0.4708
 2734SOL    HW119835   1.785   2.560   8.794  0.7394 -0.7582  0.6985
 2734SOL    HW219836   1.702   2.667   8.774  1.3812 -0.1491 -0.6202
 2735SOL     OW19837   1.308   4.069   5.798  0.0837 -0.1748 -0.0454
 2735SOL    HW119838   1.236   4.117   5.756  0.5114  1.0032  0.5520
 2735SOL    HW219839   1.298   3.994   5.739  0.2953  1.2295 -1.8859
 2736SOL     OW19840   2.799   2.456   8.342 -0.2382 -0.1114 -0.5273
 2736SOL    HW119841   2.706   2.444   8.362 -0.1310  2.9507  1.7877
 2736SOL    HW219842   2.835   2.413   8.420  1.5693 -0.5272 -1.5949
 2737SOL     OW19843   3.276   2.691   6.944  0.3574  0.0258 -0.3630
 2737SOL    HW119844   3.350   2.712   7.002  1.0979 -0.2282 -1.2258
 2737SOL    HW219845   3.311   2.719   6.860 -2.1941  0.7002 -1.1977
 2738SOL     OW19846   2.822   3.115  12.025  0.0388  0.4948  0.0987
 2738SOL    HW119847   2.897   3.173  12.019  0.6279 -0.0402  2.2152
 2738SOL    HW219848   2.871   3.036  12.049  0.9369  0.7929 -0.7653
 2739SOL     OW19849   0.030   2.685  13.617 -0.3395 -0.2647 -0.7033
 2739SOL    HW119850   0.019   2.771  13.657  0.7412 -1.6928  2.6640
 2739SOL    HW219851   0.011   2.696  13.524 -1.6575  1.3512 -0.2501
 2740SOL     OW19852   2.164   3.810   2.532  0.1259  0.3216 -0.0705
 2740SOL    HW119853   2.213   3.753   2.473 -0.3390 -1.4836  1.3068
 2740SOL    HW219854   2.114   3.748   2.585 -0.0481  1.0275  0.5917
 2741SOL     OW19855   2.788   2.070   1.876  0.2771  0.4638 -0.1127
 2741SOL    HW119856   2.767   2.041   1.787 -0.2037  1.4081 -0.2968
 2741SOL    HW219857   2.879   2.038   1.876 -0.3186 -1.2589  0.2083
 2742SOL     OW19858   4.521   0.582   8.202  0.5845  0.0946  0.3535
 2742SOL    HW119859   4.564   0.504   8.167  1.9027  1.2615 -0.6319
 2742SOL    HW219860   4.452   0.593   8.136  0.8060  0.0723  0.1169
 2743SOL     OW19861   4.224   0.701   2.661  0.2631 -0.1118  0.9061
 2743SOL    HW119862   4.224   0.790   2.625  0.7564 -0.4113  0.1432
 2743SOL    HW219863   4.217   0.641   2.587  0.2601 -1.2907  1.8761
 2744SOL     OW19864   3.041   1.015   5.287  0.3512  0.1086 -0.2564
 2744SOL    HW119865   2.960   1.038   5.242  1.2461  0.4725 -1.6795
 2744SOL    HW219866   3.026   1.048   5.375  0.6752  0.1756 -0.2266
 2745SOL     OW19867   1.043   0.738  15.521  0.4613  0.1934  0.0934
 2745SOL    HW119868   0.971   0.725  15.459 -0.0516 -1.0545  0.9615
 2745SOL    HW219869   1.071   0.824  15.489  1.3032  0.2080  0.8528
 2746SOL     OW19870   0.951   4.127   5.501 -0.6338 -0.2012 -0.6223
 2746SOL    HW119871   1.026   4.097   5.450 -1.4706 -0.5398 -1.6460
 2746SOL    HW219872   0.891   4.158   5.433  0.7215 -0.5056 -1.9643
 2747SOL     OW19873   1.517   2.274   6.125 -0.6601  0.5246 -0.4536
 2747SOL    HW119874   1.550   2.317   6.204 -2.8550  0.6128  0.4399
 2747SOL    HW219875   1.477   2.195   6.162  2.1886  0.6518  2.8790
 2748SOL     OW19876   2.647   0.405  16.303  0.3406 -0.1110  0.1746
 2748SOL    HW119877   2.707   0.379  16.372 -0.7243 -1.1296  0.7128
 2748SOL    HW219878   2.609   0.318  16.293  2.2338 -0.9838  0.5426
 2749SOL     OW19879   0.934   1.226   4.937  0.9202  0.2683 -0.2445
 2749SOL    HW119880   0.940   1.168   4.861 -1.1320 -0.3557  0.0583
 2749SOL    HW219881   0.951   1.309   4.893 -1.2663  1.2866  0.8119
 2750SOL     OW19882   2.480   3.602   4.240  0.7847  0.5891  0.5636
 2750SOL    HW119883   2.573   3.623   4.242  0.4643  1.9735  1.0905
 2750SOL    HW219884   2.441   3.669   4.185  1.5533  0.4994 -0.0792
 2751SOL     OW19885   3.705   1.812   5.454 -0.6254  0.3544  0.0701
 2751SOL    HW119886   3.729   1.802   5.546 -0.8788 -2.0063 -0.1280
 2751SOL    HW219887   3.651   1.734   5.443 -0.1486 -0.1778  1.6190
 2752SOL     OW19888   4.153   4.431   2.539  0.3286  0.1472 -0.1240
 2752SOL    HW119889   4.114   4.356   2.585  2.2315  0.1404  1.5016
 2752SOL    HW219890   4.145   4.406   2.447  1.1706  1.0865 -0.4455
 2753SOL     OW19891   4.726   1.858  14.223 -0.2927  0.1705 -0.0593
 2753SOL    HW119892   4.658   1.826  14.281 -0.3437 -1.6226 -1.1018
 2753SOL    HW219893   0.011   1.782  14.169 -0.8903  0.3770 -0.5970
 2754SOL     OW19894   3.117   3.371  17.234  0.0594  0.6095 -0.1327
 2754SOL    HW119895   3.026   3.400  17.233  0.0739  0.5970 -1.6378
 2754SOL    HW219896   3.136   3.410  17.320  0.3498  0.1217  0.0249
 2755SOL     OW19897   1.556   3.432   8.635  0.4739 -0.1505  0.2628
 2755SOL    HW119898   1.618   3.494   8.673  0.6749 -1.5156  2.1979
 2755SOL    HW219899   1.551   3.352   8.688  0.5174 -1.4541 -1.6938
 2756SOL     OW19900   2.163   3.296   8.551  1.4027  0.6926  0.1218
 2756SOL    HW119901   2.148   3.245   8.471 -0.6805  0.4971  0.6488
 2756SOL    HW219902   2.205   3.371   8.509  2.4467 -0.1254 -0.2994
 2757SOL     OW19903   3.515   1.299   0.003  0.0821 -0.1215  0.0020
 2757SOL    HW119904   3.543   1.374   0.055  1.2103 -0.2082 -0.4823
 2757SOL    HW219905   3.471   1.341  17.676  1.1248  2.3687  0.7938
 2758SOL     OW19906   2.825   2.363   4.739  0.2394 -0.4058  0.2274
 2758SOL    HW119907   2.795   2.276   4.712  1.9015 -1.2859  1.2126
 2758SOL    HW219908   2.799   2.409   4.659  1.4564  1.7994  1.0885
 2759SOL     OW19909   4.713   1.096  17.077 -0.1137 -0.5158 -0.0027
 2759SOL    HW119910   0.056   1.049  17.054 -0.7612 -0.7279 -1.7874
 2759SOL    HW219911   4.692   1.152  17.002  0.0563  1.7338  1.6375
 2760SOL     OW19912   2.206   4.200   2.592 -0.1419  0.0172 -0.4132
 2760SOL    HW119913   2.201   4.186   2.497 -1.0481 -0.0336 -0.3558
 2760SOL    HW219914   2.196   4.113   2.631  0.0736 -0.4174 -1.3252
 2761SOL     OW19915   3.238   3.865   4.315  0.1664 -0.1123 -0.2143
 2761SOL    HW119916   3.215   3.826   4.231  0.3380  1.9633 -1.2385
 2761SOL    HW219917   3.266   3.952   4.287 -3.2804  1.2199  0.5079
 2762SOL     OW19918   1.921   1.963   9.478  0.6409 -0.3916  0.1208
 2762SOL    HW119919   1.984   1.906   9.434  0.4746  0.6427 -1.4323
 2762SOL    HW219920   1.913   1.929   9.568  0.0579 -2.0912 -0.5779
 2763SOL     OW19921   4.620   2.609   7.399  0.1098 -0.4954 -0.0952
 2763SOL    HW119922   4.671   2.558   7.463 -0.7132 -0.6414  0.4482
 2763SOL    HW219923   4.654   2.698   7.407 -0.4513 -0.2087 -0.9344
 2764SOL     OW19924   3.449   0.799   5.104 -0.2298 -0.1167  0.4636
 2764SOL    HW119925   3.376   0.737   5.109 -0.0405 -0.4946 -1.5450
 2764SOL    HW219926   3.406   0.883   5.118  0.1476  0.0993  0.3248
 2765SOL     OW19927   4.458   2.528  11.941  0.0463  0.3794 -0.3484
 2765SOL    HW119928   4.549   2.526  11.911  0.1441  0.4765 -0.0600
 2765SOL    HW219929   4.470   2.509  12.034  0.1791 -2.0895 -0.8718
 2766SOL     OW19930   1.075   1.034  15.427  0.3003  0.2666 -0.0343
 2766SOL    HW119931   1.141   1.075  15.483  1.4399  1.8579 -2.5418
 2766SOL    HW219932   1.125   1.006  15.350 -0.8063 -0.8169 -0.3518
 2767SOL     OW19933   0.745   4.121   2.472 -0.0235  0.7536  0.2364
 2767SOL    HW119934   0.675   4.133   2.537 -0.2431  0.4026  0.0707
 2767SOL    HW219935   0.787   4.207   2.470  1.8097 -0.1797 -0.8600
 2768SOL     OW19936   2.139   1.849   9.914  0.8058 -0.6517  0.8775
 2768SOL    HW119937   2.223   1.803   9.922  1.7352  0.5739 -1.7452
 2768SOL    HW219938   2.120   1.869  10.005 -0.7849  0.3014  0.3304
 2769SOL     OW19939   2.059   4.173   5.503  0.2969 -0.8010 -0.2175
 2769SOL    HW119940   2.054   4.084   5.537 -0.7907 -0.7889 -0.3444
 2769SOL    HW219941   2.072   4.227   5.581  0.8162 -0.3990 -0.5762
 2770SOL     OW19942   3.773   0.324   7.297  0.9050 -0.5351 -0.1855
 2770SOL    HW119943   3.824   0.387   7.246 -2.1645  0.8110 -1.5763
 2770SOL    HW219944   3.706   0.298   7.234 -1.3217  1.0318  1.5703
 2771SOL     OW19945   0.172   3.373  11.868  0.7837  0.3711 -0.6392
 2771SOL    HW119946   0.077   3.363  11.874  0.9143 -1.8644 -2.3899
 2771SOL    HW219947   0.191   3.433  11.941 -0.9796 -0.7682  0.7539
 2772SOL     OW19948   3.644   4.022  17.119 -0.0533 -0.1682  0.5468
 2772SOL    HW119949   3.648   3.931  17.146  1.1144 -0.7060 -1.4687
 2772SOL    HW219950   3.559   4.059  17.145 -0.3614 -1.6187  1.5766
 2773SOL     OW19951   3.958   1.384   7.603  0.4385  0.2557  0.4346
 2773SOL    HW119952   4.008   1.356   7.680  0.1432 -1.1652  0.1250
 2773SOL    HW219953   3.953   1.478   7.621  1.5270  0.2679  0.6249
 2774SOL     OW19954   4.242   2.394   0.155 -0.3791 -0.0051 -0.4551
 2774SOL    HW119955   4.260   2.373   0.063 -0.4689 -0.9112 -0.2604
 2774SOL    HW219956   4.151   2.425   0.155 -0.7746 -1.2094  2.3126
 2775SOL     OW19957   1.562   4.351   3.900  0.5876 -0.3988  0.1827
 2775SOL    HW119958   1.480   4.399   3.885 -0.3406 -1.3359  2.2857
 2775SOL    HW219959   1.555   4.272   3.846 -1.3917 -0.0699 -0.0611
 2776SOL     OW19960   0.612   2.498   6.029  0.3512  0.0482  0.2487
 2776SOL    HW119961   0.569   2.520   6.112  2.4012 -2.5161  2.0275
 2776SOL    HW219962   0.541   2.517   5.969  1.5269 -0.8937 -1.4319
 2777SOL     OW19963   3.734   2.164   3.297  0.1081 -0.3076 -0.5516
 2777SOL    HW119964   3.809   2.223   3.285  0.1534 -0.0277  1.1227
 2777SOL    HW219965   3.765   2.107   3.368  2.2034  1.7636  0.1941
 2778SOL     OW19966   0.341   2.467  15.211  0.2137  0.3841  0.4203
 2778SOL    HW119967   0.375   2.553  15.234  0.8120  0.2665 -0.0005
 2778SOL    HW219968   0.304   2.499  15.128  1.0476  4.0540  1.4718
 2779SOL     OW19969   0.318   0.203   3.012  0.6348 -0.4767 -0.2791
 2779SOL    HW119970   0.397   0.208   3.067  1.7874  1.7742 -2.1475
 2779SOL    HW219971   0.259   0.184   3.085 -0.4040 -0.8182 -1.2121
 2780SOL     OW19972   1.221   0.539  13.605  0.2815  0.4973 -0.3792
 2780SOL    HW119973   1.311   0.535  13.571  0.7033 -0.8836  0.8950
 2780SOL    HW219974   1.195   0.611  13.548  1.2115 -0.2393 -1.7236
 2781SOL     OW19975   1.274   3.329   9.491  0.1014  0.2432  0.0118
 2781SOL    HW119976   1.350   3.273   9.475  1.4559  1.9001  0.6885
 2781SOL    HW219977   1.208   3.262   9.510  0.1072 -0.0509 -1.0209
 2782SOL     OW19978   2.441   1.399  14.975  0.4795  0.1822  0.0141
 2782SOL    HW119979   2.525   1.373  14.938  1.0950  2.7502 -0.3994
 2782SOL    HW219980   2.410   1.310  14.993  1.2381  0.1268  1.0220
 2783SOL     OW19981   1.838   0.099   4.904 -0.4291 -0.3624  0.1117
 2783SOL    HW119982   1.808   0.147   4.827 -2.9549 -0.5762  0.9827
 2783SOL    HW219983   1.851   0.178   4.956  3.1531 -0.3088 -0.7987
 2784SOL     OW19984   3.578   2.433   8.600 -0.3319 -0.0844  0.2413
 2784SOL    HW119985   3.617   2.520   8.598 -4.3689  1.6572 -2.3960
 2784SOL    HW219986   3.651   2.377   8.575 -0.5854  0.3640 -1.4918
 2785SOL     OW19987   1.906   3.676   7.026  0.2040  0.6308  0.1663
 2785SOL    HW119988   1.813   3.688   7.007 -0.1701 -2.7108 -0.0421
 2785SOL    HW219989   1.950   3.658   6.943 -0.4005 -0.3159  0.0564
 2786SOL     OW19990   1.157   3.037   3.493  0.4882  0.4926  0.8610
 2786SOL    HW119991   1.124   3.112   3.543 -1.8207  0.4306 -0.5921
 2786SOL    HW219992   1.106   3.041   3.412  1.4386  0.6039  0.2648
 2787SOL     OW19993   2.047   4.113   3.611 -0.2200 -0.3404 -0.5868
 2787SOL    HW119994   2.037   4.193   3.560  0.8642 -0.1741 -0.5515
 2787SOL    HW219995   2.075   4.151   3.695  2.2250 -1.3578 -0.9215
 2788SOL     OW19996   3.330   2.764   8.600 -0.5399  0.5499 -0.2395
 2788SOL    HW119997   3.300   2.694   8.659  0.1721  2.5605  2.5291
 2788SOL    HW219998   3.320   2.841   8.656  0.9753  0.2126  0.5017
 2789SOL     OW19999   1.537   2.989   1.977 -0.4066  0.3305 -0.5071
 2789SOL    HW120000   1.484   3.006   1.899 -0.9800 -0.4073 -0.2803
 2789SOL    HW220001   1.502   2.906   2.010 -1.7321  0.6992 -0.9873
 2790SOL     OW20002   2.356   3.972   5.213  0.1908  0.1858 -0.3782
 2790SOL    HW120003   2.335   3.886   5.249  0.4589  0.5589  0.6684
 2790SOL    HW220004   2.340   4.022   5.293  0.0709 -0.1710 -0.1804
 2791SOL     OW20005   4.612   3.895   1.476  0.2489  0.2060 -0.3287
 2791SOL    HW120006   4.538   3.909   1.535  0.0620 -1.6934 -0.1389
 2791SOL    HW220007   4.573   3.913   1.391  0.5295 -0.5731 -0.6200
 2792SOL     OW20008   2.280   4.415   3.578  0.2144 -0.0202  0.2895
 2792SOL    HW120009   2.310   4.477   3.512 -0.9069  0.1191 -0.0859
 2792SOL    HW220010   2.328   4.433   3.659  1.0394 -0.0745 -0.1931
 2793SOL     OW20011   4.145   4.094   3.531  0.5758  0.1654 -0.0631
 2793SOL    HW120012   4.143   4.164   3.466 -0.9092 -1.0791 -1.3675
 2793SOL    HW220013   4.077   4.045   3.483 -1.7884  2.2517  1.1689
 2794SOL     OW20014   3.851   2.775   5.887  0.3072  0.4670 -0.2206
 2794SOL    HW120015   3.847   2.867   5.861  1.4003  0.5176 -0.2093
 2794SOL    HW220016   3.788   2.767   5.958 -0.5922 -0.1603 -1.0970
 2795SOL     OW20017   3.433   3.436   9.093 -0.4416 -0.2804  0.4122
 2795SOL    HW120018   3.383   3.398   9.021  0.9581  1.0285 -1.2607
 2795SOL    HW220019   3.373   3.428   9.167  0.7053  0.1751  1.4080
 2796SOL     OW20020   0.554   2.489  17.690  0.0831  0.6652  0.3827
 2796SOL    HW120021   0.463   2.485  17.662  0.2437  0.8495 -0.1777
 2796SOL    HW220022   0.550   2.463   0.034  0.0357 -1.4282 -0.2096
 2797SOL     OW20023   0.697   3.421   8.944 -0.4456 -0.1741  0.1002
 2797SOL    HW120024   0.701   3.488   8.875 -5.2092  0.6338  0.5767
 2797SOL    HW220025   0.776   3.371   8.923 -0.1255  0.8721 -1.2599
 2798SOL     OW20026   2.161   2.201  13.045 -0.0885 -0.0367 -0.0536
 2798SOL    HW120027   2.212   2.182  13.124  0.5162 -0.0333 -0.4413
 2798SOL    HW220028   2.133   2.285  13.080  0.1318  0.8261 -1.9630
 2799SOL     OW20029   4.062   3.571   8.382  0.0117 -0.4282 -0.1178
 2799SOL    HW120030   4.031   3.554   8.293  0.9916  0.8043 -0.7033
 2799SOL    HW220031   4.087   3.485   8.416  0.7033  0.3490  1.3470
 2800SOL     OW20032   0.758   1.361   4.088  0.1259 -0.0695  0.2054
 2800SOL    HW120033   0.667   1.333   4.080  0.7789 -1.6273 -2.0791
 2800SOL    HW220034   0.764   1.396   3.999  0.0991 -0.8740 -0.1159
 2801SOL     OW20035   3.598   3.783  13.483 -0.0095  0.3907  0.0592
 2801SOL    HW120036   3.617   3.873  13.460 -0.0139  0.7551  1.4699
 2801SOL    HW220037   3.631   3.778  13.573 -0.2765 -0.1549  0.1306
 2802SOL     OW20038   4.373   3.498  16.963  0.3142 -0.5390 -0.3181
 2802SOL    HW120039   4.388   3.511  17.057  2.0440  0.0530 -0.6755
 2802SOL    HW220040   4.285   3.461  16.959 -0.3351  0.9398  0.1530
 2803SOL     OW20041   1.853   3.159  14.774  0.2639 -0.3430  0.0570
 2803SOL    HW120042   1.887   3.176  14.686  1.0676  1.2860  0.6663
 2803SOL    HW220043   1.825   3.246  14.804  1.5768 -0.4947  1.7397
 2804SOL     OW20044   4.055   0.626   8.370  0.4937 -0.4270  0.4402
 2804SOL    HW120045   3.979   0.574   8.341  0.5752 -0.4989  0.3561
 2804SOL    HW220046   4.103   0.550   8.404 -1.1244 -1.6833 -0.0764
 2805SOL     OW20047   3.836   4.210   2.396 -0.1175  0.1111  0.1217
 2805SOL    HW120048   3.843   4.241   2.306  2.0882  1.2938  0.6914
 2805SOL    HW220049   3.742   4.203   2.414 -0.0104 -1.8995 -0.0757
 2806SOL     OW20050   3.302   1.423   2.788  0.1332  0.1603 -0.3184
 2806SOL    HW120051   3.225   1.478   2.791 -0.8531 -1.3106  1.7786
 2806SOL    HW220052   3.302   1.375   2.872  0.2329  0.4157 -0.1729
 2807SOL     OW20053   3.970   1.643   6.720 -0.2865 -0.0710  0.1242
 2807SOL    HW120054   4.013   1.575   6.771 -0.6199  0.1288  0.6758
 2807SOL    HW220055   4.051   1.690   6.702  0.2267 -0.8236  0.4770
 2808SOL     OW20056   0.772   3.996   1.958 -0.2383  0.3828  0.5443
 2808SOL    HW120057   0.696   4.000   2.016 -0.2943  0.3686  0.4728
 2808SOL    HW220058   0.810   3.912   1.982 -0.2379  0.3531  0.4391
 2809SOL     OW20059   2.690   1.195   8.977  0.6253  0.2638  0.2229
 2809SOL    HW120060   2.715   1.149   9.057  1.1906 -0.4043 -0.3379
 2809SOL    HW220061   2.756   1.263   8.970 -0.0510  0.6856 -1.9454
 2810SOL     OW20062   3.363   3.153  15.144 -0.1889  0.4751 -0.0110
 2810SOL    HW120063   3.439   3.210  15.133 -0.1085 -0.1040 -2.4226
 2810SOL    HW220064   3.323   3.154  15.058 -0.1465 -2.0588 -0.0430
 2811SOL     OW20065   2.711   3.775   9.439  0.2534  0.7532 -0.1413
 2811SOL    HW120066   2.788   3.805   9.486 -0.9698 -0.7508  2.8219
 2811SOL    HW220067   2.676   3.725   9.513  1.6345  1.4080  0.9450
 2812SOL     OW20068   4.548   2.343   0.719 -0.3499 -0.2285  0.1212
 2812SOL    HW120069   4.554   2.260   0.670  3.5171 -0.8760  1.6851
 2812SOL    HW220070   4.637   2.373   0.740  1.3865 -2.5346 -3.8516
 2813SOL     OW20071   1.714   4.312   8.834  0.0051 -0.3637 -0.0610
 2813SOL    HW120072   1.682   4.316   8.924 -0.9396 -0.8137 -0.3720
 2813SOL    HW220073   1.701   4.220   8.813 -0.9909  0.3931 -2.8472
 2814SOL     OW20074   3.385   2.557   1.264  0.1352 -0.1928  0.3068
 2814SOL    HW120075   3.313   2.527   1.320 -1.1450  1.6513 -0.3461
 2814SOL    HW220076   3.464   2.510   1.289 -0.2152  0.6865  3.0872
 2815SOL     OW20077   0.890   0.729  10.149 -0.1340  0.4533  0.0277
 2815SOL    HW120078   0.966   0.784  10.168 -0.1683  0.2339  0.8168
 2815SOL    HW220079   0.870   0.708  10.240 -1.5521  0.4346 -0.2921
 2816SOL     OW20080   0.640   4.120  15.738  0.1983 -0.6059  0.4776
 2816SOL    HW120081   0.562   4.136  15.684  1.9248  1.4180 -1.4334
 2816SOL    HW220082   0.713   4.093  15.682 -0.5694 -1.0275 -0.3235
 2817SOL     OW20083   2.501   3.132   2.365 -0.0152  0.3124 -0.3832
 2817SOL    HW120084   2.572   3.135   2.301  2.1259 -1.0467  1.9414
 2817SOL    HW220085   2.431   3.103   2.306  1.9631 -1.4930 -1.8668
 2818SOL     OW20086   1.768   0.558   7.028 -0.3692 -0.4480  0.3998
 2818SOL    HW120087   1.723   0.502   7.091  0.1920  0.3730  1.5339
 2818SOL    HW220088   1.768   0.641   7.075  2.4205  0.1042 -0.6022
 2819SOL     OW20089   0.173   1.758   5.519  0.3258  0.1016  0.3230
 2819SOL    HW120090   0.137   1.686   5.466  1.7851 -0.5327  0.2030
 2819SOL    HW220091   0.188   1.700   5.594 -1.5861  1.0732  1.4576
 2820SOL     OW20092   1.740   1.742   6.857  0.3409 -0.0330 -0.1885
 2820SOL    HW120093   1.661   1.689   6.868 -0.4643  1.4213  1.1103
 2820SOL    HW220094   1.795   1.700   6.922 -0.4833  0.5658  0.9001
 2821SOL     OW20095   0.668   1.174  14.393 -0.3919 -0.1960 -0.0427
 2821SOL    HW120096   0.632   1.113  14.329  1.6706  0.0104 -1.4105
 2821SOL    HW220097   0.609   1.244  14.367  0.2082  1.2885  2.5271
 2822SOL     OW20098   4.318   4.626   9.058  0.0487 -0.6300 -0.4398
 2822SOL    HW120099   4.348   4.542   9.093  0.1314 -0.4215 -0.0125
 2822SOL    HW220100   4.359   4.697   9.108  0.5063 -1.2918  0.1348
 2823SOL     OW20101   2.583   3.571   2.833 -0.8431  1.5524  0.0769
 2823SOL    HW120102   2.647   3.500   2.844 -4.5395 -1.7074  0.4799
 2823SOL    HW220103   2.603   3.621   2.912  1.9123 -1.3279  1.2132
 2824SOL     OW20104   2.581   0.547   1.093  0.6189 -0.3854 -0.1908
 2824SOL    HW120105   2.577   0.460   1.133  2.4566 -0.5932 -0.4775
 2824SOL    HW220106   2.665   0.543   1.047 -0.2913  2.7243 -2.0718
 2825SOL     OW20107   2.828   2.244   7.037  0.2931 -0.2708  0.3305
 2825SOL    HW120108   2.757   2.308   7.043  0.4894 -0.2677  3.0180
 2825SOL    HW220109   2.909   2.294   7.036  0.0591  0.0490 -2.5474
 2826SOL     OW20110   3.399   0.549  10.860  0.2377 -0.6699 -0.2126
 2826SOL    HW120111   3.380   0.457  10.878 -2.0370  0.2722  2.3239
 2826SOL    HW220112   3.494   0.540  10.866  0.3977  1.6631  0.6984
 2827SOL     OW20113   4.279   1.701   2.104  0.3622  0.1660 -0.4836
 2827SOL    HW120114   4.343   1.771   2.117 -0.2442  0.6789 -0.2865
 2827SOL    HW220115   4.341   1.632   2.079  0.7247 -0.1673  1.3393
 2828SOL     OW20116   0.268   1.550   6.563  0.4868 -0.5284  0.4662
 2828SOL    HW120117   0.306   1.627   6.520  0.7233 -0.1404  1.3924
 2828SOL    HW220118   0.192   1.538   6.506 -0.4471  0.4885  1.5210
 2829SOL     OW20119   2.333   4.121   6.343  0.0370  0.3470  0.0613
 2829SOL    HW120120   2.376   4.126   6.258  0.6205 -0.8956  0.2948
 2829SOL    HW220121   2.415   4.112   6.391 -0.0934 -0.2726  0.1607
 2830SOL     OW20122   2.018   4.123   4.673 -0.3139 -0.0493 -0.3060
 2830SOL    HW120123   2.027   4.050   4.611  0.8066  0.5500 -0.8649
 2830SOL    HW220124   1.970   4.084   4.746 -0.9925 -1.1271 -1.3317
 2831SOL     OW20125   4.585   3.564   1.795  0.6880 -0.1185  0.2955
 2831SOL    HW120126   4.548   3.650   1.814 -0.1102 -0.4070  0.0142
 2831SOL    HW220127   4.515   3.541   1.734  0.2079 -0.8008  1.1013
 2832SOL     OW20128   0.380   3.575   4.944  0.0701  0.1789 -0.3649
 2832SOL    HW120129   0.350   3.507   5.005 -0.3771 -0.7473 -1.6205
 2832SOL    HW220130   0.378   3.656   4.994  1.6162  0.6637 -1.1156
 2833SOL     OW20131   2.962   2.412   1.887 -0.8188  0.7384  0.3111
 2833SOL    HW120132   2.935   2.360   1.811 -0.2640  1.9835 -0.7273
 2833SOL    HW220133   3.043   2.370   1.916 -0.0296  3.0236  1.4187
 2834SOL     OW20134   0.500   0.124   7.891 -0.1305 -0.4498 -0.3375
 2834SOL    HW120135   0.435   0.178   7.935  0.3297  2.6079 -3.4122
 2834SOL    HW220136   0.447   0.082   7.824 -0.6295 -0.1142 -0.1521
 2835SOL     OW20137   4.499   3.710  14.535  0.4584 -0.0911  0.3053
 2835SOL    HW120138   4.529   3.706  14.626  2.3401 -3.6480 -0.4748
 2835SOL    HW220139   4.531   3.623  14.509  0.0923  0.1891 -1.0742
 2836SOL     OW20140   2.798   1.641   4.668 -0.3478  0.4480  0.0433
 2836SOL    HW120141   2.726   1.599   4.621  0.1821 -1.4425  0.9635
 2836SOL    HW220142   2.764   1.730   4.679  0.0852  0.8065 -1.4166
 2837SOL     OW20143   0.781   4.324   1.231 -0.3690  0.2326  0.2518
 2837SOL    HW120144   0.820   4.411   1.241 -2.6874  1.2398  0.6020
 2837SOL    HW220145   0.812   4.287   1.314 -2.0058  3.7972  2.4616
 2838SOL     OW20146   0.347   2.471   9.515 -0.4374 -0.3504 -0.1899
 2838SOL    HW120147   0.401   2.530   9.463 -1.0968 -0.5431 -1.0989
 2838SOL    HW220148   0.372   2.498   9.603  2.6777 -0.1787 -1.1376
 2839SOL     OW20149   0.488   3.360  10.338  0.0878  0.1599 -0.1632
 2839SOL    HW120150   0.403   3.401  10.319 -0.0853 -0.6854 -1.2275
 2839SOL    HW220151   0.468   3.298  10.408 -0.4273  1.1150  0.5391
 2840SOL     OW20152   3.249   3.606  11.687  0.5405  0.4688  0.5309
 2840SOL    HW120153   3.180   3.671  11.675  0.4924 -0.3148 -3.4274
 2840SOL    HW220154   3.309   3.658  11.741  1.9798  2.4129 -2.9287
 2841SOL     OW20155   0.945   2.543   5.099  0.2928  0.6482 -0.0101
 2841SOL    HW120156   0.969   2.564   5.009 -2.4101 -0.2164 -0.9270
 2841SOL    HW220157   1.015   2.574   5.156  0.0855  1.0739  0.0106
 2842SOL     OW20158   3.004   2.941  11.295 -0.5218  0.3937  0.0640
 2842SOL    HW120159   3.020   3.005  11.364 -1.5775 -0.6275  1.2531
 2842SOL    HW220160   3.061   2.983  11.231  0.3279  0.3609  0.8142
 2843SOL     OW20161   2.371   0.427  14.515 -0.8614 -0.8686  0.0827
 2843SOL    HW120162   2.467   0.432  14.513 -0.9679  2.0387  1.1103
 2843SOL    HW220163   2.358   0.418  14.610 -0.5073 -0.4744  0.1711
 2844SOL     OW20164   3.913   1.228   0.077 -0.4961 -0.1088  0.0132
 2844SOL    HW120165   3.985   1.266   0.027 -1.2043 -0.1751 -1.0607
 2844SOL    HW220166   3.944   1.237   0.167  0.3398 -2.0604 -0.0908
 2845SOL     OW20167   1.806   4.516   6.430  0.0980  0.0943  0.0090
 2845SOL    HW120168   1.884   4.463   6.446 -0.7655 -1.5663 -1.2718
 2845SOL    HW220169   1.754   4.457   6.376 -0.1487 -2.7958  3.3571
 2846SOL     OW20170   3.434   2.206   6.045  0.2544  0.1791 -0.2267
 2846SOL    HW120171   3.364   2.144   6.026 -2.8143  3.6168  0.0971
 2846SOL    HW220172   3.379   2.279   6.073  0.1697  1.2999 -3.3391
 2847SOL     OW20173   0.745   2.568  10.586  0.3613  0.2380 -0.2360
 2847SOL    HW120174   0.815   2.577  10.522  0.2872  2.4865 -0.0011
 2847SOL    HW220175   0.704   2.654  10.593  1.8668  0.7659  1.7359
 2848SOL     OW20176   0.443   1.486   3.567  0.1893  0.0270  0.0837
 2848SOL    HW120177   0.516   1.541   3.595  0.8474 -0.2665 -1.0149
 2848SOL    HW220178   0.491   1.451   3.492  0.4311 -0.5338  0.4978
 2849SOL     OW20179   2.691   0.917   6.765 -0.4650  0.5654 -0.3317
 2849SOL    HW120180   2.741   0.852   6.716 -0.4521 -1.6449  2.6385
 2849SOL    HW220181   2.732   0.996   6.728  0.3227  0.3568  0.0991
 2850SOL     OW20182   4.664   1.483  14.878 -0.7187 -0.4040 -0.0560
 2850SOL    HW120183   4.677   1.440  14.793  1.2258 -0.2096  0.1343
 2850SOL    HW220184   4.695   1.417  14.941 -0.9275 -0.3312  0.1205
 2851SOL     OW20185   0.014   2.509   6.885  0.0293 -0.5234  0.2661
 2851SOL    HW120186   4.656   2.510   6.894  0.0888  0.0016  0.8758
 2851SOL    HW220187   0.018   2.555   6.801  0.9028 -0.7594  0.1746
 2852SOL     OW20188   0.736   2.961  10.200  0.4335  0.5087 -0.0271
 2852SOL    HW120189   0.802   2.900  10.168  0.9805  0.4941  1.1595
 2852SOL    HW220190   0.681   2.985  10.125 -0.1450 -0.6149  0.0469
 2853SOL     OW20191   4.308   3.261   3.620  0.3951  0.2960  0.0223
 2853SOL    HW120192   4.267   3.210   3.690  0.3880  1.2077  0.6963
 2853SOL    HW220193   4.400   3.267   3.647  0.1280 -0.0725  1.0136
 2854SOL     OW20194   2.350   2.756   8.712  0.0418 -0.0743 -1.1980
 2854SOL    HW120195   2.280   2.744   8.776  1.6531  0.1793  0.6149
 2854SOL    HW220196   2.341   2.851   8.701 -0.2066  0.1610  1.0668
 2855SOL     OW20197   4.654   1.928   3.758  0.2508  0.2414 -0.1963
 2855SOL    HW120198   4.602   1.896   3.684 -1.0338 -0.1695  0.8956
 2855SOL    HW220199   4.729   1.970   3.716 -0.0862 -1.6354 -2.6594
 2856SOL     OW20200   1.866   2.534   6.194  0.2897 -0.2038 -0.3257
 2856SOL    HW120201   1.908   2.620   6.188 -0.7764  0.5579  3.3758
 2856SOL    HW220202   1.782   2.564   6.229  1.2259 -0.2246  1.9015
 2857SOL     OW20203   3.810   0.118  13.683 -0.3188 -0.4829 -0.4874
 2857SOL    HW120204   3.872   0.169  13.735  0.6411  0.1913 -2.3020
 2857SOL    HW220205   3.729   0.154  13.719  0.0684 -0.0498 -0.0513
 2858SOL     OW20206   2.015   2.602   7.815 -0.4197  0.1917 -0.1043
 2858SOL    HW120207   1.967   2.651   7.882  1.4720 -0.4580  1.7101
 2858SOL    HW220208   1.943   2.555   7.772 -1.2300  3.4229 -2.2966
 2859SOL     OW20209   4.414   4.476  13.362  0.3577  0.9812 -0.9278
 2859SOL    HW120210   4.504   4.481  13.330  1.0280 -0.7996  0.7178
 2859SOL    HW220211   4.426   4.451  13.453 -2.1611 -0.3012 -0.9453
 2860SOL     OW20212   4.187   3.405   7.160  0.0668 -0.6723 -0.0388
 2860SOL    HW120213   4.196   3.438   7.071 -1.1731 -0.3446 -0.0377
 2860SOL    HW220214   4.195   3.311   7.142  0.6944 -0.4440 -0.9732
 2861SOL     OW20215   3.646   3.079   4.525  1.1301  0.3842  0.6945
 2861SOL    HW120216   3.601   3.008   4.571  1.7520 -0.8976 -0.6967
 2861SOL    HW220217   3.571   3.139   4.530  0.9478  0.3507 -1.7904
 2862SOL     OW20218   0.535   1.732  13.605  0.0493 -0.2781  0.3637
 2862SOL    HW120219   0.507   1.659  13.660 -0.6250  0.9876  1.7217
 2862SOL    HW220220   0.582   1.686  13.536 -0.0173 -0.0870  0.1899
 2863SOL     OW20221   3.586   2.550   4.991  0.5529 -0.5305  0.4741
 2863SOL    HW120222   3.547   2.638   4.999 -2.9006 -1.8415 -1.9732
 2863SOL    HW220223   3.570   2.506   5.074  1.7861 -1.0675  0.4257
 2864SOL     OW20224   0.539   3.533  10.694 -0.5789 -0.2909 -0.1706
 2864SOL    HW120225   0.450   3.522  10.661 -0.0130 -1.2685 -1.3920
 2864SOL    HW220226   0.591   3.537  10.614  1.7814  0.4723  1.4049
 2865SOL     OW20227   2.945   4.549   6.571 -0.7752 -0.1939  0.1646
 2865SOL    HW120228   2.931   4.641   6.595 -1.5486 -0.3173  0.1909
 2865SOL    HW220229   2.993   4.524   6.650 -1.2170 -0.3914  0.3696
 2866SOL     OW20230   1.518   2.973  14.428  0.1080 -0.0100  0.4465
 2866SOL    HW120231   1.480   2.938  14.508 -0.7742 -1.0850 -0.4410
 2866SOL    HW220232   1.572   3.037  14.473 -1.5634  1.8109 -0.1492
 2867SOL     OW20233   4.316   2.965   2.694 -0.5940  0.2687 -0.7818
 2867SOL    HW120234   4.260   3.040   2.674  1.8675  1.8409 -1.8884
 2867SOL    HW220235   4.248   2.898   2.687  0.3217 -0.4361 -2.8855
 2868SOL     OW20236   0.744   0.562  14.110  0.2713  0.7263 -0.2395
 2868SOL    HW120237   0.661   0.608  14.121 -0.0671 -0.2310  1.1493
 2868SOL    HW220238   0.727   0.520  14.026 -0.4299  1.6224 -0.5538
 2869SOL     OW20239   0.749   0.794   3.104  0.0081  0.7449 -0.1901
 2869SOL    HW120240   0.764   0.874   3.154  1.4533  1.4817 -1.7768
 2869SOL    HW220241   0.753   0.740   3.183  1.4234  0.7118 -0.2760
 2870SOL     OW20242   3.567   1.838   4.083 -0.0641 -0.2226  0.0480
 2870SOL    HW120243   3.484   1.885   4.090  1.4344  2.6704 -1.4807
 2870SOL    HW220244   3.601   1.891   4.010  1.0337  0.0804  0.7742
 2871SOL     OW20245   1.857   3.505   7.492 -0.2912 -0.0562  0.3927
 2871SOL    HW120246   1.922   3.495   7.423  0.9773 -3.0400  2.0433
 2871SOL    HW220247   1.828   3.414   7.494  0.3380 -0.2786 -0.8669
 2872SOL     OW20248   1.244   3.596   1.368 -0.2609  0.3034  0.5202
 2872SOL    HW120249   1.166   3.546   1.389  0.5110 -1.5910 -1.1707
 2872SOL    HW220250   1.267   3.640   1.450 -1.0438  2.2770 -0.3200
 2873SOL     OW20251   4.056   3.621   7.606  0.2261  0.3152 -0.4058
 2873SOL    HW120252   4.115   3.562   7.560 -0.7178 -0.5101 -0.5543
 2873SOL    HW220253   4.015   3.668   7.533 -0.0972 -0.9352 -1.0289
 2874SOL     OW20254   1.676   3.746   8.591 -0.0143  0.4356  0.0471
 2874SOL    HW120255   1.626   3.797   8.528  1.1771 -0.5242 -1.6737
 2874SOL    HW220256   1.751   3.722   8.537  0.3634  0.6210  0.4914
 2875SOL     OW20257   1.633   4.029   1.831  0.7722 -0.0352 -0.3532
 2875SOL    HW120258   1.647   4.065   1.743 -3.7751  0.0994 -1.0198
 2875SOL    HW220259   1.658   4.097   1.893  2.5766  0.0879 -1.2116
 2876SOL     OW20260   2.344   1.191   7.015  0.5186  0.0695  0.3711
 2876SOL    HW120261   2.377   1.148   7.094  1.6120  0.4210  0.1087
 2876SOL    HW220262   2.384   1.136   6.948  1.8331 -1.5618  2.4836
 2877SOL     OW20263   2.504   0.632  10.719  0.4003  0.1567 -0.2190
 2877SOL    HW120264   2.490   0.725  10.699  0.4583  0.3505  0.6077
 2877SOL    HW220265   2.565   0.634  10.793  0.4778  1.0375 -0.2996
 2878SOL     OW20266   4.624   1.924  10.475 -0.2104 -0.0775  0.3988
 2878SOL    HW120267   4.632   1.839  10.517  3.7544 -0.9691 -2.2096
 2878SOL    HW220268   4.557   1.892  10.414 -0.1965  3.7137 -1.6420
 2879SOL     OW20269   2.310   3.344   4.914 -0.1198  0.3316  0.0736
 2879SOL    HW120270   2.357   3.260   4.914 -0.5382  0.0964  1.3396
 2879SOL    HW220271   2.260   3.323   4.835 -1.1443 -2.4713  1.4360
 2880SOL     OW20272   3.148   4.228   8.240  0.6633 -0.0441  0.0859
 2880SOL    HW120273   3.112   4.313   8.212  0.0502 -0.3261  0.0126
 2880SOL    HW220274   3.145   4.224   8.335 -1.6642 -1.3332 -0.0344
 2881SOL     OW20275   0.522   4.448   4.478  0.2317 -0.1268 -0.1982
 2881SOL    HW120276   0.482   4.532   4.455  2.5916  1.0212 -0.0941
 2881SOL    HW220277   0.448   4.415   4.530 -0.7486 -3.0481 -3.4072
 2882SOL     OW20278   0.640   3.862   3.262 -0.5523 -0.8706 -0.0988
 2882SOL    HW120279   0.545   3.873   3.256 -0.4132 -0.8903 -2.3182
 2882SOL    HW220280   0.656   3.844   3.169 -0.1188 -1.0556  0.0133
 2883SOL     OW20281   2.317   1.455  12.454  0.6010 -0.2788 -0.2984
 2883SOL    HW120282   2.302   1.549  12.462  1.6567 -0.2678  1.4467
 2883SOL    HW220283   2.327   1.421  12.542 -1.4139 -1.2846 -0.4745
 2884SOL     OW20284   3.188   4.682   4.586 -0.1063 -0.2811 -0.0843
 2884SOL    HW120285   3.182   4.587   4.577  1.4742 -0.3390 -0.3648
 2884SOL    HW220286   3.248   4.721   4.523 -1.0650  2.4427  0.6782
 2885SOL     OW20287   4.523   4.717   4.707 -0.7095  0.4140 -0.2454
 2885SOL    HW120288   4.544   0.017   4.793 -0.4427 -0.4175  0.0471
 2885SOL    HW220289   4.444   4.669   4.732 -0.9489  0.7712 -0.3030
 2886SOL     OW20290   3.907   0.984   1.947 -0.1643 -0.2172 -0.7904
 2886SOL    HW120291   3.815   0.972   1.972 -0.0200  1.5024  0.5474
 2886SOL    HW220292   3.899   0.961   1.854  1.1829 -2.4016 -0.3548
 2887SOL     OW20293   1.084   2.205   3.495  0.3228  0.5632 -0.1634
 2887SOL    HW120294   0.995   2.200   3.459  0.4978 -0.3286 -0.4750
 2887SOL    HW220295   1.125   2.161   3.420  0.1958  0.6162 -0.2648
 2888SOL     OW20296   4.288   0.808   1.568 -0.3010 -0.6663 -0.5495
 2888SOL    HW120297   4.215   0.804   1.629 -0.2136  1.3620 -0.3099
 2888SOL    HW220298   4.256   0.741   1.508 -0.9148 -1.2472  0.4239
 2889SOL     OW20299   2.183   1.917   4.606  0.7174 -0.2743  0.3668
 2889SOL    HW120300   2.169   1.836   4.655 -0.1726  0.0241  0.5924
 2889SOL    HW220301   2.167   1.875   4.521 -0.2961 -0.6613  0.7532
 2890SOL     OW20302   3.857   4.338   8.496  0.8742  0.2296 -0.1005
 2890SOL    HW120303   3.883   4.422   8.535 -0.1283  0.9734 -1.0406
 2890SOL    HW220304   3.791   4.306   8.556  1.7147  1.2279  1.3501
 2891SOL     OW20305   0.878   1.912  10.998 -0.1546  0.0936  0.2401
 2891SOL    HW120306   0.866   1.945  11.086  1.2222  1.2764 -0.0207
 2891SOL    HW220307   0.923   1.830  11.019 -0.9596 -0.7850 -1.3567
 2892SOL     OW20308   2.172   2.854   5.964 -0.2313  0.0091 -0.3185
 2892SOL    HW120309   2.142   2.870   6.054 -1.0317 -0.9629 -0.4120
 2892SOL    HW220310   2.218   2.770   5.970  2.1568  1.1179 -3.2110
 2893SOL     OW20311   0.728   0.315   7.940  0.0953 -0.8844 -0.1619
 2893SOL    HW120312   0.653   0.353   7.895 -0.7902 -2.9409 -0.4183
 2893SOL    HW220313   0.700   0.224   7.934 -1.7114 -0.4800  2.4102
 2894SOL     OW20314   4.249   2.354   6.634  0.2187 -0.3632 -0.2293
 2894SOL    HW120315   4.330   2.394   6.602 -0.6840  1.6819  0.0749
 2894SOL    HW220316   4.186   2.425   6.642 -1.8983 -2.1842 -0.9265
 2895SOL     OW20317   0.311   3.785   6.676 -0.0698 -0.1711  0.4077
 2895SOL    HW120318   0.400   3.754   6.663 -0.4143 -1.3660  0.8712
 2895SOL    HW220319   0.276   3.699   6.699  0.1967 -0.3941 -0.0164
 2896SOL     OW20320   4.105   2.186   7.696  0.3828  0.0789  0.4295
 2896SOL    HW120321   4.193   2.222   7.703  0.9663 -1.2919  0.1406
 2896SOL    HW220322   4.055   2.224   7.768  1.7592  2.3817  0.1526
 2897SOL     OW20323   3.862   0.975   2.597 -0.2758 -0.3036  0.4283
 2897SOL    HW120324   3.911   0.991   2.678  0.3352 -1.4120  0.2730
 2897SOL    HW220325   3.771   0.977   2.628 -0.0510 -0.7690  1.1111
 2898SOL     OW20326   4.421   2.012   1.729  0.1746 -1.0767  0.3920
 2898SOL    HW120327   4.389   2.019   1.639 -1.1405  0.2291  0.9486
 2898SOL    HW220328   4.498   1.959   1.710 -0.3816 -0.9698 -2.0767
 2899SOL     OW20329   1.318   0.877   4.780  0.2426 -0.2090  0.3392
 2899SOL    HW120330   1.289   0.940   4.715  1.1814 -1.4885 -1.3227
 2899SOL    HW220331   1.239   0.822   4.788 -0.8364  1.3463  0.2345
 2900SOL     OW20332   4.513   4.598   5.067  0.5272 -0.1142 -0.1429
 2900SOL    HW120333   4.507   4.528   5.002  2.0554  1.6048 -2.1068
 2900SOL    HW220334   4.584   4.649   5.029  1.4192 -1.8099 -0.7446
 2901SOL     OW20335   4.425   1.553   8.807 -0.0080  0.0103 -0.0173
 2901SOL    HW120336   4.338   1.541   8.846 -0.3107 -0.2973 -0.7922
 2901SOL    HW220337   4.464   1.603   8.879  1.3673  0.1133 -0.8331
 2902SOL     OW20338   2.577   3.444   8.034  0.7176 -0.2402  0.6378
 2902SOL    HW120339   2.652   3.403   8.076  1.5001  0.3673 -0.1668
 2902SOL    HW220340   2.507   3.407   8.088  0.3527  0.6520  0.7742
 2903SOL     OW20341   3.360   3.210  11.031  0.2405  0.2526  0.4976
 2903SOL    HW120342   3.392   3.299  11.043 -2.5463  1.0098  2.3616
 2903SOL    HW220343   3.343   3.222  10.937 -0.9170 -1.6488  0.4543
 2904SOL     OW20344   3.590   4.518  12.229 -0.3638 -0.2755  0.4493
 2904SOL    HW120345   3.602   4.486  12.319 -1.7879 -1.1235  0.3470
 2904SOL    HW220346   3.628   4.450  12.173 -2.8544 -0.2459 -1.2546
 2905SOL     OW20347   2.596   0.613   4.910 -0.5028 -0.0926  0.8198
 2905SOL    HW120348   2.650   0.536   4.890 -0.1047  0.7766 -1.4981
 2905SOL    HW220349   2.580   0.583   4.999  0.2295  1.9648  1.6302
 2906SOL     OW20350   0.878   4.421   2.114  0.3295 -0.0295  0.1718
 2906SOL    HW120351   0.890   4.334   2.153  1.0444 -0.1894 -0.4165
 2906SOL    HW220352   0.970   4.448   2.107  0.3636 -0.1661  0.0939
 2907SOL     OW20353   2.889   2.684   5.071 -0.1534  0.5612  0.3662
 2907SOL    HW120354   2.812   2.720   5.114 -0.4774  0.1533  0.1275
 2907SOL    HW220355   2.892   2.746   4.998 -0.2443 -0.0787 -0.1872
 2908SOL     OW20356   0.486   0.904   8.414  0.7708 -0.0049  0.0288
 2908SOL    HW120357   0.467   0.986   8.460  0.6401 -0.1513  0.2415
 2908SOL    HW220358   0.559   0.878   8.471  1.7267 -1.7402 -1.9973
 2909SOL     OW20359   2.452   2.993   6.320 -0.5243 -0.1922 -0.0014
 2909SOL    HW120360   2.471   2.947   6.401  0.2702 -0.2956 -0.2447
 2909SOL    HW220361   2.371   3.040   6.342  1.4731  3.8342 -1.3220
 2910SOL     OW20362   0.940   0.043   7.673  0.1777  0.1890 -0.1027
 2910SOL    HW120363   0.975   0.107   7.736  0.4277  0.5594 -0.6127
 2910SOL    HW220364   0.848   0.047   7.699  0.0255 -0.0751 -0.5928
 2911SOL     OW20365   1.859   2.634   7.513 -0.0396  0.6965 -0.3801
 2911SOL    HW120366   1.850   2.550   7.557  0.9884  1.5041  1.3728
 2911SOL    HW220367   1.779   2.676   7.544  0.0332  0.1844  0.4912
 2912SOL     OW20368   1.021   3.855   3.401  0.2166 -0.5354  0.1090
 2912SOL    HW120369   0.967   3.931   3.379 -0.3015 -1.0559 -0.4169
 2912SOL    HW220370   0.989   3.841   3.490  0.7764 -0.0001  0.3982
 2913SOL     OW20371   0.656   0.102   2.023  0.1800  0.3709  0.3931
 2913SOL    HW120372   0.615   0.177   1.980  0.8069  1.6483  2.0338
 2913SOL    HW220373   0.722   0.151   2.071 -2.4410  1.9128  2.3986
 2914SOL     OW20374   1.627   3.863   8.347 -0.0025 -0.0846 -0.5660
 2914SOL    HW120375   1.661   3.951   8.332 -0.8811  0.2259 -0.7101
 2914SOL    HW220376   1.592   3.851   8.259 -2.0968 -1.8687  0.5158
 2915SOL     OW20377   4.498   0.727   6.953 -0.3917  0.3787 -0.4889
 2915SOL    HW120378   4.498   0.632   6.962 -0.7419  0.3174 -1.1425
 2915SOL    HW220379   4.554   0.748   7.028  2.2688  0.9783 -2.6309
 2916SOL     OW20380   3.673   0.497  14.062 -0.2918 -0.2842  0.4029
 2916SOL    HW120381   3.619   0.463  14.133  0.0259  0.2648  0.9091
 2916SOL    HW220382   3.760   0.510  14.098  0.2830 -1.1714 -0.6951
 2917SOL     OW20383   3.164   2.267   9.129 -0.3292  0.5388 -0.2841
 2917SOL    HW120384   3.117   2.335   9.080  2.0283  1.5204 -1.2025
 2917SOL    HW220385   3.257   2.271   9.108 -0.6292  2.9528 -1.1825
 2918SOL     OW20386   0.549   1.269   3.377 -0.0156  0.1378 -0.1925
 2918SOL    HW120387   0.547   1.256   3.282  1.7591 -1.5647 -0.0048
 2918SOL    HW220388   0.623   1.330   3.383  1.7083 -1.9646 -0.2092
 2919SOL     OW20389   2.498   0.443   9.301 -0.1776 -1.0828  0.7202
 2919SOL    HW120390   2.540   0.473   9.221 -1.4423 -2.4857 -0.4759
 2919SOL    HW220391   2.410   0.421   9.268 -0.9768  1.4359  1.2103
 2920SOL     OW20392   1.855   2.352   9.508  0.1076 -0.3157 -0.3596
 2920SOL    HW120393   1.799   2.348   9.586 -0.3881  2.0235 -0.5835
 2920SOL    HW220394   1.808   2.300   9.442  0.6485 -0.3346 -0.7309
 2921SOL     OW20395   4.591   3.636   8.460  0.1030 -0.2988 -0.0010
 2921SOL    HW120396   4.584   3.730   8.476  0.8997 -0.5163  1.7022
 2921SOL    HW220397   4.496   3.629   8.465  0.3198 -3.0688  0.5475
 2922SOL     OW20398   3.842   1.301   2.193  0.7283  0.3547 -0.3301
 2922SOL    HW120399   3.863   1.394   2.208 -0.2333  0.5123  0.0187
 2922SOL    HW220400   3.903   1.257   2.252  0.3129 -0.4226 -0.4860
 2923SOL     OW20401   0.205   4.435   1.071  0.0718  0.1427  0.0786
 2923SOL    HW120402   0.231   4.469   1.157  1.0562  0.7421 -0.4591
 2923SOL    HW220403   0.224   4.341   1.079  0.8164  0.3131  0.3596
 2924SOL     OW20404   3.812   3.505   3.562  0.3934 -0.5799 -0.5596
 2924SOL    HW120405   3.858   3.515   3.478 -0.6576  0.8962 -0.9521
 2924SOL    HW220406   3.889   3.500   3.619  0.2120  1.2396 -0.1534
 2925SOL     OW20407   2.058   4.164   5.032 -0.0883 -0.0700  0.4591
 2925SOL    HW120408   2.118   4.235   5.011  1.0833 -1.3499 -0.4991
 2925SOL    HW220409   2.072   4.166   5.127  1.8310  0.6967  0.1582
 2926SOL     OW20410   1.486   4.516   5.408  0.0833  0.6178  0.2843
 2926SOL    HW120411   1.400   4.508   5.449  1.0111  0.8552  2.2952
 2926SOL    HW220412   1.489   4.432   5.363 -0.8129  1.3930 -1.2639
 2927SOL     OW20413   3.298   3.845   9.571  0.5503 -0.1833 -0.3102
 2927SOL    HW120414   3.248   3.818   9.647  1.2265  0.3117  0.3127
 2927SOL    HW220415   3.251   3.922   9.538 -1.1847 -1.0948  0.0751
 2928SOL     OW20416   1.410   3.490   5.211 -0.1275  0.0534  0.3402
 2928SOL    HW120417   1.401   3.536   5.127  2.1132  2.2493  1.3381
 2928SOL    HW220418   1.502   3.468   5.204 -0.3204 -0.5785 -0.3228
 2929SOL     OW20419   0.610   1.393   2.225 -0.5836 -0.3671  0.0120
 2929SOL    HW120420   0.650   1.308   2.207 -0.0038  0.4338 -2.4502
 2929SOL    HW220421   0.621   1.402   2.320 -1.0847  0.6799 -0.0221
 2930SOL     OW20422   2.461   1.769   5.619 -0.1240 -0.0268  0.0601
 2930SOL    HW120423   2.539   1.764   5.674  0.4387 -0.5258 -0.7933
 2930SOL    HW220424   2.467   1.853   5.574  2.3425 -0.4870 -0.4474
 2931SOL     OW20425   0.435   2.603   6.943 -0.1034  0.2742  0.1912
 2931SOL    HW120426   0.427   2.619   6.849  1.7585 -0.7314 -0.1369
 2931SOL    HW220427   0.529   2.599   6.957 -0.3400 -1.1828  1.4374
 2932SOL     OW20428   1.900   3.307   4.389  0.4474 -0.6782  0.7331
 2932SOL    HW120429   1.857   3.232   4.349 -0.7805 -1.5044  3.6027
 2932SOL    HW220430   1.834   3.367   4.353  0.1684 -2.1191 -1.1634
 2933SOL     OW20431   4.239   2.314   1.708 -0.0803  0.7410  0.6041
 2933SOL    HW120432   4.309   2.337   1.769 -0.5367  1.4979  0.8422
 2933SOL    HW220433   4.245   2.220   1.722 -0.8432  0.4768 -0.8349
 2934SOL     OW20434   3.384   1.299   5.444 -0.3585 -0.2192  0.4432
 2934SOL    HW120435   3.467   1.255   5.465 -0.5582 -0.5004  0.6485
 2934SOL    HW220436   3.347   1.311   5.532 -0.4211 -0.9040  0.5094
 2935SOL     OW20437   1.763   2.884   5.436  0.1067  0.0138 -0.7056
 2935SOL    HW120438   1.803   2.835   5.508 -1.4570 -0.3381 -0.0777
 2935SOL    HW220439   1.674   2.902   5.466 -0.0771  0.2165 -1.3737
 2936SOL     OW20440   1.163   0.137   6.422 -0.3652  0.3168  0.3977
 2936SOL    HW120441   1.154   0.067   6.357  0.4850 -0.4069  1.0619
 2936SOL    HW220442   1.248   0.174   6.398 -0.4096 -0.6836 -1.3246
 2937SOL     OW20443   2.980   2.777   6.402  0.3037  0.5068  0.3173
 2937SOL    HW120444   2.948   2.861   6.435  0.6446  0.0957  1.6992
 2937SOL    HW220445   2.958   2.795   6.310  2.7174 -0.9174 -0.5169
 2938SOL     OW20446   1.919   0.299   8.972 -0.0546 -0.1510 -0.4014
 2938SOL    HW120447   1.944   0.218   8.927 -0.2182  0.1529 -1.0451
 2938SOL    HW220448   2.006   0.337   8.981  0.6975 -1.6620 -1.2701
 2939SOL     OW20449   4.322   1.848   3.060 -0.1362 -0.3337  0.1586
 2939SOL    HW120450   4.327   1.776   2.997 -0.1769 -0.5624  0.4168
 2939SOL    HW220451   4.237   1.887   3.041  0.2376 -0.7999 -2.4054
 2940SOL     OW20452   4.031   0.473  17.627 -0.0500  0.1252  0.0685
 2940SOL    HW120453   4.009   0.441  17.540  0.5273 -0.2836  0.0795
 2940SOL    HW220454   4.059   0.562  17.603  3.6920 -1.0044  0.1734
 2941SOL     OW20455   1.120   4.584   1.335 -0.3493  0.3382  0.0961
 2941SOL    HW120456   1.110   4.594   1.240  3.8261 -1.5697 -0.5531
 2941SOL    HW220457   1.173   4.658   1.364 -0.1054 -0.1899  0.9811
 2942SOL     OW20458   2.769   2.031   5.838 -0.0699  0.9109  0.3942
 2942SOL    HW120459   2.724   1.947   5.824  1.5473  0.2644 -1.0266
 2942SOL    HW220460   2.775   2.056   5.746 -0.4407  1.4463  0.5170
 2943SOL     OW20461   4.609   0.670   6.416 -0.0931  0.2385  0.0794
 2943SOL    HW120462   4.568   0.684   6.502 -2.3683 -2.3118 -0.5697
 2943SOL    HW220463   4.534   0.623   6.380 -0.2274  0.5980 -0.1035
 2944SOL     OW20464   2.303   2.664   9.157  0.5939 -0.5792 -0.6050
 2944SOL    HW120465   2.252   2.624   9.229  0.1821 -0.5540 -0.8815
 2944SOL    HW220466   2.305   2.587   9.100  1.3395 -1.2476  0.3133
 2945SOL     OW20467   4.180   1.879  11.341  0.1104 -0.1797  0.2185
 2945SOL    HW120468   4.165   1.877  11.247  2.1754 -1.2749 -0.0863
 2945SOL    HW220469   4.095   1.842  11.365  0.7415 -1.2066  0.8866
 2946SOL     OW20470   2.510   3.553   6.746  0.1759 -0.0095 -0.2108
 2946SOL    HW120471   2.501   3.591   6.833  0.0905 -0.2023 -0.1369
 2946SOL    HW220472   2.536   3.465   6.771  1.3520  0.5291  0.4508
 2947SOL     OW20473   2.476   4.375  11.815  0.0696 -0.2611  0.2960
 2947SOL    HW120474   2.476   4.346  11.906  1.9209 -1.7138 -0.1672
 2947SOL    HW220475   2.571   4.372  11.802 -0.1513 -2.8825 -0.6637
 2948SOL     OW20476   1.659   0.234   3.768 -0.0418 -0.1520  0.2908
 2948SOL    HW120477   1.694   0.175   3.835  0.7943  1.6542  1.4551
 2948SOL    HW220478   1.730   0.296   3.751  1.6002 -1.6762  1.5033
 2949SOL     OW20479   4.531   2.992   2.860  0.1445  0.6948  0.3181
 2949SOL    HW120480   4.565   2.903   2.874 -1.3364  0.0199 -0.3434
 2949SOL    HW220481   4.450   2.974   2.813 -0.3230 -1.0642  1.8172
 2950SOL     OW20482   3.281   1.623   3.749 -0.3786  0.2880  0.1663
 2950SOL    HW120483   3.333   1.704   3.748  0.2537 -0.1119  0.8689
 2950SOL    HW220484   3.260   1.632   3.842  0.8132 -0.4569  0.5105
 2951SOL     OW20485   3.098   3.821   9.779 -0.4192 -0.2020 -0.2916
 2951SOL    HW120486   3.060   3.869   9.852 -1.8513 -0.6180 -0.7645
 2951SOL    HW220487   3.144   3.751   9.826 -1.4997  0.0396  1.1161
 2952SOL     OW20488   3.972   3.737   5.269  0.2219 -0.0780  0.4232
 2952SOL    HW120489   3.980   3.647   5.301 -2.0262 -0.0178  1.1868
 2952SOL    HW220490   4.062   3.763   5.289  0.0721  0.6372  0.1561
 2953SOL     OW20491   4.134   3.341   8.816 -0.4625 -0.7942 -0.4005
 2953SOL    HW120492   4.171   3.426   8.794  1.0195 -0.5688  3.0681
 2953SOL    HW220493   4.184   3.287   8.754 -0.5466 -1.3871  0.0480
 2954SOL     OW20494   2.280   1.258   3.684  0.3975  0.4666 -0.5424
 2954SOL    HW120495   2.340   1.290   3.616  1.8870 -0.5663  0.2849
 2954SOL    HW220496   2.198   1.295   3.654 -0.0145  1.7175  2.0833
 2955SOL     OW20497   3.405   2.308   7.075  0.7294  0.0452 -0.2323
 2955SOL    HW120498   3.446   2.380   7.029  1.8306  1.0078  2.2259
 2955SOL    HW220499   3.404   2.241   7.007 -0.3726  0.4517 -0.6179
 2956SOL     OW20500   1.005   0.449   7.054 -0.4942 -0.8081 -0.1433
 2956SOL    HW120501   0.974   0.506   6.984  0.8320  1.6484  1.2899
 2956SOL    HW220502   1.030   0.377   6.996  0.9195  0.2065 -0.8075
 2957SOL     OW20503   2.842   2.293   9.926  0.4459 -0.5110  0.5181
 2957SOL    HW120504   2.918   2.318   9.977  0.9423 -0.1574 -0.3998
 2957SOL    HW220505   2.790   2.368   9.957  1.9843  0.5471  0.5214
 2958SOL     OW20506   2.164   0.759   3.855  0.5707 -0.0991 -0.2068
 2958SOL    HW120507   2.087   0.812   3.871  0.0779 -0.4538 -1.3730
 2958SOL    HW220508   2.229   0.826   3.832  1.6129 -1.1204 -0.2457
 2959SOL     OW20509   4.191   0.701   0.124  0.4201 -0.4078 -0.1389
 2959SOL    HW120510   4.284   0.685   0.108  0.8021 -1.1193  2.8214
 2959SOL    HW220511   4.160   0.666   0.041 -0.1273  3.2003 -1.4393
 2960SOL     OW20512   1.516   2.098   8.287  0.2164  0.2667 -0.1789
 2960SOL    HW120513   1.547   2.163   8.350 -0.0383  1.1012 -0.9083
 2960SOL    HW220514   1.581   2.114   8.219  0.4141 -0.1708 -0.0928
 2961SOL     OW20515   3.278   0.793   9.357 -0.3665  0.1713 -0.3181
 2961SOL    HW120516   3.344   0.725   9.343  0.6856  1.0988  0.1658
 2961SOL    HW220517   3.218   0.771   9.285 -1.8497 -0.0395  0.9633
 2962SOL     OW20518   1.028   1.178   5.984 -0.1717 -0.3334  0.2054
 2962SOL    HW120519   0.957   1.119   5.958 -1.2018  0.6376  0.8481
 2962SOL    HW220520   1.034   1.159   6.077 -1.0691 -1.1243  0.0915
 2963SOL     OW20521   1.501   1.823   4.599 -0.1530  0.1761  0.0714
 2963SOL    HW120522   1.407   1.834   4.588  0.0690  1.2721 -0.7166
 2963SOL    HW220523   1.521   1.771   4.521  1.2242 -5.1453  3.9684
 2964SOL     OW20524   3.229   2.125  12.111 -0.0496 -0.2689 -0.5388
 2964SOL    HW120525   3.215   2.111  12.018  0.9906 -0.2148 -0.7089
 2964SOL    HW220526   3.229   2.036  12.147 -0.5274 -1.2390 -2.9854
 2965SOL     OW20527   3.430   0.287   5.807  0.8126 -0.3116 -0.2617
 2965SOL    HW120528   3.411   0.360   5.866  2.0325  0.4904 -0.8766
 2965SOL    HW220529   3.443   0.215   5.870 -2.8644  0.6663  1.6231
 2966SOL     OW20530   1.318   2.692  15.592 -0.3219  0.1928 -0.0300
 2966SOL    HW120531   1.321   2.711  15.499 -1.7942  1.0147  0.0864
 2966SOL    HW220532   1.386   2.749  15.629 -2.4261  1.6363  1.6816
 2967SOL     OW20533   4.616   0.035   8.503  0.7963  0.3209 -0.2593
 2967SOL    HW120534   4.644   4.681   8.497  0.1217  0.0941  0.0540
 2967SOL    HW220535   4.551   0.025   8.573 -0.1241  1.5123 -0.9492
 2968SOL     OW20536   4.553   0.365   3.442  0.0815 -0.1342 -0.7395
 2968SOL    HW120537   4.528   0.450   3.478 -2.7108 -0.4707 -1.9119
 2968SOL    HW220538   4.564   0.319   3.525 -2.5552 -0.1592 -0.4296
 2969SOL     OW20539   0.070   2.776   6.126 -0.2884  1.0022  0.5287
 2969SOL    HW120540   0.067   2.752   6.218 -1.0160 -2.5580 -0.4323
 2969SOL    HW220541   0.163   2.799   6.123  0.1374 -0.8643 -0.2963
 2970SOL     OW20542   1.070   4.178   3.000  0.0026 -0.1748  0.5517
 2970SOL    HW120543   1.141   4.113   2.999 -0.2479 -0.3917 -1.7115
 2970SOL    HW220544   1.118   4.250   3.040 -1.8737  0.9580  0.7642
 2971SOL     OW20545   1.140   1.139  16.397  0.5364 -0.1046  0.2817
 2971SOL    HW120546   1.097   1.080  16.459  0.4415  0.8704  1.1405
 2971SOL    HW220547   1.060   1.187  16.374  0.2835 -0.9552 -0.6130
 2972SOL     OW20548   1.035   1.890   3.308  0.3490 -0.0350  0.5653
 2972SOL    HW120549   1.096   1.963   3.308  1.2551 -0.7906  1.5942
 2972SOL    HW220550   1.000   1.911   3.221 -1.9116 -0.4120  1.3862
 2973SOL     OW20551   3.319   3.936   0.789 -0.0270 -0.6742  0.4357
 2973SOL    HW120552   3.251   3.990   0.749 -1.0211 -0.4713  2.3884
 2973SOL    HW220553   3.302   3.954   0.882  0.8014 -0.0298  0.4532
 2974SOL     OW20554   1.512   1.680   3.648  0.2439 -0.1676 -0.5022
 2974SOL    HW120555   1.536   1.588   3.641 -1.7626 -0.8578  2.0060
 2974SOL    HW220556   1.466   1.681   3.731  1.9221 -0.9568  0.4323
 2975SOL     OW20557   1.076   4.158   5.094  0.4772 -0.9932 -0.3529
 2975SOL    HW120558   0.986   4.143   5.124  1.2142 -0.5398  2.0862
 2975SOL    HW220559   1.085   4.244   5.134 -0.6655  0.2669 -2.8499
 2976SOL     OW20560   1.586   3.165   4.934 -0.3404 -0.5294 -0.3590
 2976SOL    HW120561   1.651   3.169   4.864 -0.0660  3.6064  0.1174
 2976SOL    HW220562   1.606   3.225   5.006 -2.1054  0.0721 -0.3418
 2977SOL     OW20563   3.934   2.588  11.521  0.1399  0.3398  0.3603
 2977SOL    HW120564   4.001   2.520  11.513 -1.7795 -1.4094 -0.6959
 2977SOL    HW220565   3.854   2.537  11.524  0.4900 -0.2598 -0.7408
 2978SOL     OW20566   4.049   4.696   2.939  0.0512 -0.4643  0.2177
 2978SOL    HW120567   4.094   0.041   2.918  2.0210 -1.7183 -0.4460
 2978SOL    HW220568   4.050   4.663   2.849  3.3391 -1.0668  0.4543
 2979SOL     OW20569   1.258   3.235   5.257 -0.3875 -0.1518 -0.5340
 2979SOL    HW120570   1.190   3.279   5.205 -0.4079  2.3656  1.6087
 2979SOL    HW220571   1.272   3.310   5.315  1.1134 -0.8549  0.0003
 2980SOL     OW20572   3.811   2.910  17.253  0.3667 -0.0783  0.8613
 2980SOL    HW120573   3.807   2.893  17.159  1.5847 -1.6990  1.1073
 2980SOL    HW220574   3.775   2.831  17.294  0.6339 -0.4331  0.4111
 2981SOL     OW20575   3.206   3.341  16.490  0.7502 -0.1915 -0.8405
 2981SOL    HW120576   3.155   3.263  16.471  2.1432 -0.8852 -1.7653
 2981SOL    HW220577   3.285   3.315  16.537  0.0483  3.0062  2.1051
 2982SOL     OW20578   3.802   2.887  13.806 -0.3473 -0.7635 -0.5857
 2982SOL    HW120579   3.810   2.848  13.719  0.3176 -1.8137 -0.0516
 2982SOL    HW220580   3.711   2.917  13.811 -0.0922 -0.0965 -0.0031
 2983SOL     OW20581   1.915   3.822   7.530  0.1909  0.0307  0.1530
 2983SOL    HW120582   1.967   3.900   7.510 -1.3763  1.4911  1.7551
 2983SOL    HW220583   1.873   3.805   7.446  0.5160  0.6782 -0.1480
 2984SOL     OW20584   3.080   2.929  15.377  0.1292 -0.2122  0.4275
 2984SOL    HW120585   3.106   2.850  15.331  2.2761  0.7001  0.0684
 2984SOL    HW220586   3.168   2.960  15.399 -0.1225  1.8860 -1.5337
 2985SOL     OW20587   2.026   3.918   3.433 -0.0350 -0.7694  0.0808
 2985SOL    HW120588   2.032   3.988   3.498  0.9036 -1.7044  1.0037
 2985SOL    HW220589   1.957   3.954   3.379 -0.5984  0.1847  1.4306
 2986SOL     OW20590   0.625   4.496   5.599  0.5907 -0.2449  0.0680
 2986SOL    HW120591   0.531   4.487   5.614  0.5418 -0.5175 -0.3811
 2986SOL    HW220592   0.650   4.404   5.588  2.3241  0.0270  1.7932
 2987SOL     OW20593   0.171   1.717   9.300  0.0713  0.4701 -0.0295
 2987SOL    HW120594   0.254   1.762   9.281  0.1236  0.9159  1.1882
 2987SOL    HW220595   0.196   1.640   9.249 -0.5299 -1.4455  2.5185
 2988SOL     OW20596   1.502   3.780   2.136  0.1304 -0.6568 -0.6488
 2988SOL    HW120597   1.548   3.699   2.111  0.6621 -0.9884  1.3903
 2988SOL    HW220598   1.420   3.733   2.151 -0.3469  0.2279 -0.4826
 2989SOL     OW20599   3.160   3.007   9.378  0.0805  0.3390 -0.4954
 2989SOL    HW120600   3.124   3.089   9.412  2.0428  0.5855  0.9664
 2989SOL    HW220601   3.208   2.974   9.454 -0.5966  1.9042  0.6019
 2990SOL     OW20602   2.232   2.878   6.494  0.2022  0.1931 -0.2757
 2990SOL    HW120603   2.217   2.785   6.479  1.4103  0.2932 -2.1071
 2990SOL    HW220604   2.173   2.918   6.430  0.5132 -0.8565 -1.2067
 2991SOL     OW20605   2.670   0.148   2.260 -0.0953  0.0639 -0.2653
 2991SOL    HW120606   2.650   0.187   2.175 -2.1229  1.0757  0.6731
 2991SOL    HW220607   2.679   0.224   2.318 -0.7189 -1.2014  1.5057
 2992SOL     OW20608   2.210   1.049   8.839  0.3446  0.0114 -0.2551
 2992SOL    HW120609   2.171   1.006   8.763 -2.1793  2.1306 -0.1883
 2992SOL    HW220610   2.299   1.032   8.809 -0.0993 -1.8420 -0.5335
 2993SOL     OW20611   0.022   3.224   8.948  0.0512  0.4616 -0.2031
 2993SOL    HW120612   0.046   3.150   8.892  0.1637  0.1115  0.3047
 2993SOL    HW220613   0.021   3.191   9.038 -1.3431 -1.2599 -0.8283
 2994SOL     OW20614   2.183   4.351   9.553 -0.1479  0.0729  0.2245
 2994SOL    HW120615   2.162   4.440   9.525 -1.8315  0.4360  2.6043
 2994SOL    HW220616   2.160   4.363   9.645  2.9084  0.4895  0.9269
 2995SOL     OW20617   1.243   3.835   8.202 -0.2017 -0.5511 -0.2361
 2995SOL    HW120618   1.311   3.877   8.255  0.8665 -2.4000 -0.1515
 2995SOL    HW220619   1.260   3.883   8.120 -0.2411 -0.3467 -0.1249
 2996SOL     OW20620   0.478   3.375  16.759  0.4609 -0.1694 -0.1586
 2996SOL    HW120621   0.442   3.314  16.824  2.0093 -0.7494  0.1442
 2996SOL    HW220622   0.425   3.334  16.690  0.5934 -1.2311  0.3698
 2997SOL     OW20623   1.258   2.631  13.717 -0.1523  0.4229  0.4313
 2997SOL    HW120624   1.170   2.629  13.755 -1.0384 -1.8231 -1.7396
 2997SOL    HW220625   1.259   2.721  13.685  0.2859 -0.7446 -2.8667
 2998SOL     OW20626   4.066   0.347   5.199  0.4119  0.4083 -0.0179
 2998SOL    HW120627   4.097   0.421   5.251 -1.8420  2.2377 -1.2802
 2998SOL    HW220628   4.127   0.338   5.127 -0.9666  0.5372 -1.2058
 2999SOL     OW20629   2.958   2.090   6.034  0.0783 -0.1910 -0.5167
 2999SOL    HW120630   2.920   2.041   5.962  0.5034 -1.1408 -0.0953
 2999SOL    HW220631   2.935   2.042   6.114 -1.8751  2.8994  0.7897
 3000SOL     OW20632   4.023   3.125   5.283 -0.5068  0.4454 -0.6672
 3000SOL    HW120633   4.022   3.034   5.312 -1.9523  0.4895 -0.5920
 3000SOL    HW220634   3.938   3.148   5.320  0.8725  1.2575  1.9996
 3001SOL     OW20635   1.107   3.491   3.281 -0.2741  0.5874  0.4891
 3001SOL    HW120636   1.139   3.420   3.337 -2.9278  0.0117  1.2989
 3001SOL    HW220637   1.015   3.503   3.304 -0.7850 -0.2709 -1.1218
 3002SOL     OW20638   0.744   1.839   5.431 -0.3290 -0.2918  0.3093
 3002SOL    HW120639   0.772   1.755   5.468  0.8385 -1.6911 -3.7267
 3002SOL    HW220640   0.832   1.871   5.416  0.0300 -1.0882  0.7021
 3003SOL     OW20641   4.132   1.250   8.713  0.4067  0.2401 -0.4946
 3003SOL    HW120642   4.120   1.342   8.691  3.6946  1.2578  1.9719
 3003SOL    HW220643   4.196   1.221   8.649 -0.4698 -0.4964 -1.0310
 3004SOL     OW20644   1.549   3.910   7.504 -0.1467 -0.0709 -0.4200
 3004SOL    HW120645   1.570   3.832   7.556 -0.5596 -0.4575 -0.8333
 3004SOL    HW220646   1.454   3.901   7.495 -0.5586  1.7329  2.1907
 3005SOL     OW20647   1.194   4.571   9.376 -0.6992 -0.7239  0.3027
 3005SOL    HW120648   1.189   4.536   9.465  1.6553 -1.7257  0.0372
 3005SOL    HW220649   1.289   4.583   9.375 -0.9062  0.7998 -0.8462
 3006SOL     OW20650   0.502   4.666   0.151  0.2985 -0.0201  0.3171
 3006SOL    HW120651   0.505   4.608   0.227 -0.4847 -0.3072  0.1280
 3006SOL    HW220652   0.517   0.015   0.189  0.6687 -0.9577  2.3182
 3007SOL     OW20653   1.748   3.351   3.955 -0.4246  0.0382  0.5153
 3007SOL    HW120654   1.708   3.264   3.953  2.6640 -1.4052  1.8112
 3007SOL    HW220655   1.825   3.331   3.902 -0.7576  0.5904 -0.1761
 3008SOL     OW20656   3.485   2.339   1.639 -0.2578 -1.0163 -0.3057
 3008SOL    HW120657   3.527   2.423   1.620  2.2556 -2.1135  0.3853
 3008SOL    HW220658   3.493   2.294   1.555 -0.1306  0.8357 -1.2963
 3009SOL     OW20659   1.889   4.400   1.663 -0.1291  0.0531  1.3389
 3009SOL    HW120660   1.825   4.407   1.733  0.2348 -0.1176  1.6880
 3009SOL    HW220661   1.947   4.330   1.693  0.5518  0.3080  0.6388
 3010SOL     OW20662   4.163   1.174   6.159 -0.7057 -0.5808 -0.4333
 3010SOL    HW120663   4.241   1.165   6.213 -0.0437 -0.5258 -1.3764
 3010SOL    HW220664   4.174   1.256   6.111  0.2424 -1.0067 -0.9471
 3011SOL     OW20665   0.269   4.704   8.012 -0.2611  0.0641 -0.5719
 3011SOL    HW120666   0.232   4.637   7.955 -1.2652 -1.0844  1.4494
 3011SOL    HW220667   0.211   4.699   8.087 -0.5249  0.3434 -0.7581
 3012SOL     OW20668   2.699   0.836  14.648  0.5284  0.9080 -0.4783
 3012SOL    HW120669   2.767   0.841  14.581 -0.4607  0.5351 -1.4923
 3012SOL    HW220670   2.634   0.778  14.610  0.2267 -0.0615  1.4966
 3013SOL     OW20671   2.629   1.516   4.496  0.5622 -0.2663  0.1500
 3013SOL    HW120672   2.657   1.482   4.412 -1.8127 -1.3611 -0.1995
 3013SOL    HW220673   2.568   1.447   4.524 -0.5637  0.7407  0.1934
 3014SOL     OW20674   2.024   1.692   6.683 -0.1845  0.4300 -0.6360
 3014SOL    HW120675   1.934   1.702   6.653 -1.0676 -1.0062  1.6069
 3014SOL    HW220676   2.014   1.627   6.752  0.9068 -0.5444 -1.3894
 3015SOL     OW20677   3.744   1.317  10.934  0.4056  0.1594 -0.6824
 3015SOL    HW120678   3.802   1.389  10.959 -2.4945  1.7882  1.3767
 3015SOL    HW220679   3.663   1.345  10.976  1.0456  2.0916 -0.7678
 3016SOL     OW20680   4.112   2.643   1.769 -0.0165 -0.1721  0.4838
 3016SOL    HW120681   4.139   2.576   1.705  1.9482  0.0769  1.0407
 3016SOL    HW220682   4.198   2.677   1.794  0.0911  1.2077 -1.7231
 3017SOL     OW20683   4.428   4.660   7.291  0.2218  0.2542  0.2764
 3017SOL    HW120684   4.481   4.593   7.334 -0.0194  0.2500  0.5709
 3017SOL    HW220685   4.342   4.632   7.325  0.9432  0.0114  1.9115
 3018SOL     OW20686   0.570   3.325   4.965  0.3491  0.6573  0.0451
 3018SOL    HW120687   0.518   3.250   4.937  1.6374  0.1758 -1.0189
 3018SOL    HW220688   0.522   3.366   5.037  1.2361  2.9158 -0.6475
 3019SOL     OW20689   1.743   0.331   9.948 -0.2136 -0.1479 -0.0167
 3019SOL    HW120690   1.835   0.315   9.928 -0.7297 -0.2752 -2.2407
 3019SOL    HW220691   1.724   0.404   9.889  0.5123  1.0067  1.1660
 3020SOL     OW20692   2.023   3.676  14.534  0.0159 -0.2169  0.2173
 3020SOL    HW120693   2.091   3.744  14.531  0.1694 -0.4344 -1.5346
 3020SOL    HW220694   1.952   3.740  14.537 -0.9674 -1.3821  1.5179
 3021SOL     OW20695   0.915   1.519   2.173 -0.4958 -0.0375 -0.0368
 3021SOL    HW120696   0.936   1.567   2.093 -2.4707 -0.9926 -1.1153
 3021SOL    HW220697   0.881   1.586   2.232 -0.2958 -0.2977  0.3721
 3022SOL     OW20698   3.094   2.091   8.050  0.2092  0.3179 -0.0267
 3022SOL    HW120699   3.182   2.129   8.038 -0.1676  1.5845  1.3335
 3022SOL    HW220700   3.116   2.000   8.071 -2.3801 -0.1619  0.5891
 3023SOL     OW20701   3.503   3.416   1.479  0.0743 -0.2455  0.1733
 3023SOL    HW120702   3.575   3.357   1.457  1.2086  1.7043 -1.3121
 3023SOL    HW220703   3.429   3.401   1.419  0.5358  1.3275 -0.7671
 3024SOL     OW20704   4.705   3.945   3.983 -0.1373  0.5298 -0.3544
 3024SOL    HW120705   4.709   4.016   3.920 -0.7611  1.0017  0.1407
 3024SOL    HW220706   4.671   3.871   3.934 -1.8917 -0.4167  2.3159
 3025SOL     OW20707   4.576   3.385   9.688 -0.5077  0.1911 -0.0708
 3025SOL    HW120708   4.596   3.409   9.779 -0.3781 -3.6775  0.9435
 3025SOL    HW220709   4.596   3.471   9.651  1.9329 -1.0260 -1.6193
 3026SOL     OW20710   3.427   1.821   5.363 -0.1236 -0.3028 -0.1501
 3026SOL    HW120711   3.518   1.849   5.375 -0.6863  0.2317  2.7099
 3026SOL    HW220712   3.426   1.736   5.406  0.0246  0.5365  1.5178
 3027SOL     OW20713   4.638   2.659   1.982  0.1469 -0.2251 -0.1742
 3027SOL    HW120714   4.654   2.578   2.030  0.3028 -1.3410 -2.1125
 3027SOL    HW220715   4.571   2.705   2.034 -1.0371 -1.8621 -0.2644
 3028SOL     OW20716   0.129   2.779   8.651  0.6297  0.1977 -0.2694
 3028SOL    HW120717   0.196   2.716   8.676  0.8960  0.5881 -0.0133
 3028SOL    HW220718   0.178   2.860   8.662  1.9032 -0.4761 -1.0460
 3029SOL     OW20719   3.448   0.785   0.005 -0.3492  0.0251  0.0157
 3029SOL    HW120720   3.511   0.783   0.077  0.9507  2.3930 -1.0597
 3029SOL    HW220721   3.389   0.715   0.034 -1.0159  0.3985 -0.4298
 3030SOL     OW20722   3.558   3.989  10.257  0.1126 -0.4026  0.0902
 3030SOL    HW120723   3.653   3.991  10.253 -0.0099  2.3174 -1.2137
 3030SOL    HW220724   3.544   3.901  10.221  1.8604 -1.4674  2.0241
 3031SOL     OW20725   1.694   2.694   6.621  0.5741  0.3171  0.5846
 3031SOL    HW120726   1.685   2.603   6.594 -2.0508  0.6586  0.2895
 3031SOL    HW220727   1.665   2.745   6.545 -1.7216 -3.0022 -0.7465
 3032SOL     OW20728   2.270   3.645   4.453  0.4095  0.0324 -0.3389
 3032SOL    HW120729   2.341   3.641   4.388  1.2021  2.4033  0.3644
 3032SOL    HW220730   2.194   3.668   4.399  0.4017  0.8616  0.0306
 3033SOL     OW20731   2.351   2.462  17.520 -0.2078 -0.2666  0.6275
 3033SOL    HW120732   2.352   2.409  17.600  2.5568  1.1833  1.5755
 3033SOL    HW220733   2.343   2.551  17.553 -0.5893 -0.2242  0.4164
 3034SOL     OW20734   1.927   1.343   8.942  0.1682 -0.1976  0.2411
 3034SOL    HW120735   1.889   1.263   8.908  0.4040 -0.7305  1.2197
 3034SOL    HW220736   1.897   1.409   8.879  0.8158  0.5147  0.6675
 3035SOL     OW20737   2.624   1.423  10.738  0.2645 -0.3486  0.3281
 3035SOL    HW120738   2.618   1.398  10.830  1.2654  0.1461  0.5312
 3035SOL    HW220739   2.580   1.355  10.687 -1.3563 -1.4138  3.1903
 3036SOL     OW20740   4.240   4.505   5.778  0.1916  0.1328  0.4270
 3036SOL    HW120741   4.292   4.585   5.779 -0.5686  0.6368 -0.6657
 3036SOL    HW220742   4.307   4.446   5.743 -1.1735 -1.4253  0.4397
 3037SOL     OW20743   2.985   4.693   8.179  0.1705 -0.6021 -0.9505
 3037SOL    HW120744   2.955   4.613   8.135 -1.1308  0.1139 -1.3678
 3037SOL    HW220745   2.919   0.021   8.155 -1.3102 -1.2884  1.3124
 3038SOL     OW20746   2.727   0.937  17.735 -0.4572  0.4030 -0.1224
 3038SOL    HW120747   2.674   1.017  17.730 -0.8329  0.1626 -0.0078
 3038SOL    HW220748   2.686   0.896   0.063 -4.4040  1.7716 -1.4799
 3039SOL     OW20749   2.950   2.249  11.853  0.2080  0.1017 -0.1163
 3039SOL    HW120750   2.943   2.319  11.787 -0.2274 -1.5077 -1.7843
 3039SOL    HW220751   2.869   2.264  11.901  1.1672  2.0543  0.9195
 3040SOL     OW20752   2.732   2.213   7.555 -0.3107 -0.0800 -0.0985
 3040SOL    HW120753   2.783   2.139   7.589  2.0774  1.6093 -0.0399
 3040SOL    HW220754   2.799   2.282   7.559 -0.6590  0.2359  0.2019
 3041SOL     OW20755   1.310   4.506   9.628 -0.3344  0.6908 -0.7869
 3041SOL    HW120756   1.382   4.443   9.624 -0.2483  0.8287 -1.5311
 3041SOL    HW220757   1.350   4.573   9.684 -0.2108  0.1862 -0.2812
 3042SOL     OW20758   1.847   2.757  13.158 -0.0746 -0.4935 -0.1281
 3042SOL    HW120759   1.913   2.803  13.105 -2.7653  0.8428 -2.3059
 3042SOL    HW220760   1.809   2.834  13.200  2.2607  1.1189 -0.9437
 3043SOL     OW20761   0.422   2.628   8.523  0.4732  0.0691  0.3303
 3043SOL    HW120762   0.394   2.616   8.614 -1.2375  0.1819 -0.1779
 3043SOL    HW220763   0.514   2.613   8.541  0.5745 -1.3304 -1.3822
 3044SOL     OW20764   2.433   4.457   3.829  0.4293 -0.5198 -0.2264
 3044SOL    HW120765   2.508   4.477   3.773 -0.9627  1.9481 -1.2082
 3044SOL    HW220766   2.439   4.524   3.896  0.9508 -0.5901 -0.2017
 3045SOL     OW20767   4.260   2.172   5.234 -0.0031 -0.0220  0.4339
 3045SOL    HW120768   4.180   2.183   5.286 -2.1874 -1.6676 -2.5637
 3045SOL    HW220769   4.269   2.259   5.195 -1.0182  0.0931  0.4512
 3046SOL     OW20770   4.323   4.522   4.763  0.2234 -0.1117 -0.3012
 3046SOL    HW120771   4.345   4.429   4.766 -0.9088 -0.3506  0.6716
 3046SOL    HW220772   4.262   4.526   4.837  2.4099 -0.2917  1.4875
 3047SOL     OW20773   0.333   0.727   2.990  0.8922  0.2406 -0.1315
 3047SOL    HW120774   0.239   0.743   2.986  1.0679  1.4318  0.3753
 3047SOL    HW220775   0.335   0.633   2.971 -1.0633  0.2431 -0.3360
 3048SOL     OW20776   0.377   4.222   1.066  0.1625  0.1246  0.3455
 3048SOL    HW120777   0.450   4.260   1.017 -0.3581  1.4211  0.5757
 3048SOL    HW220778   0.409   4.132   1.068 -0.9621 -0.2411  1.7565
 3049SOL     OW20779   3.673   4.606   5.687  0.0403  0.4662 -0.1631
 3049SOL    HW120780   3.606   4.671   5.666 -2.4103 -1.9546  0.1712
 3049SOL    HW220781   3.750   4.649   5.648  0.9461 -0.7265  0.2879
 3050SOL     OW20782   2.333   2.622   5.953  0.4836  0.5151  0.0425
 3050SOL    HW120783   2.385   2.546   5.925  0.1643  1.1292 -2.2418
 3050SOL    HW220784   2.360   2.648   6.040 -2.2528 -2.2784  1.7674
 3051SOL     OW20785   2.415   2.731   2.941 -0.1533 -0.0794 -0.1890
 3051SOL    HW120786   2.428   2.825   2.935  0.8125 -0.0736  2.0634
 3051SOL    HW220787   2.452   2.723   3.029 -1.0325  1.0551  0.2862
 3052SOL     OW20788   2.272   2.432   7.329 -0.2430 -0.1793 -0.5348
 3052SOL    HW120789   2.359   2.471   7.326  0.8240 -2.3978  0.8163
 3052SOL    HW220790   2.295   2.358   7.273  3.9310  0.7955 -0.1711
 3053SOL     OW20791   0.057   4.715   7.570  0.5002 -0.2642 -0.4385
 3053SOL    HW120792   0.041   4.621   7.573  0.5565 -0.2578  0.0851
 3053SOL    HW220793   0.064   0.006   7.661  1.4460 -0.4880 -0.4324
 3054SOL     OW20794   4.255   2.448   4.481 -0.9812 -0.1026  0.5321
 3054SOL    HW120795   4.198   2.520   4.453 -0.6855 -0.7527 -1.7686
 3054SOL    HW220796   4.263   2.386   4.408 -0.5198  0.7190 -0.1145
 3055SOL     OW20797   0.538   4.223   5.154  0.3107 -0.6664  0.4150
 3055SOL    HW120798   0.573   4.212   5.066  1.8316  0.7584  0.8400
 3055SOL    HW220799   0.512   4.315   5.148  0.5481 -0.5861  0.6405
 3056SOL     OW20800   4.375   1.796  11.965 -0.6220 -0.3604 -0.0272
 3056SOL    HW120801   4.283   1.771  11.973 -0.2621 -1.4109  0.8431
 3056SOL    HW220802   4.404   1.804  12.056  1.9540 -1.1450 -0.7683
 3057SOL     OW20803   4.629   1.759   6.081  0.9620  0.0201  0.7894
 3057SOL    HW120804   4.593   1.823   6.019  0.8633 -0.5609  0.2484
 3057SOL    HW220805   4.555   1.731   6.134  0.6128  1.9888  1.3243
 3058SOL     OW20806   3.965   3.748   1.516 -0.5425  0.4674  0.3175
 3058SOL    HW120807   3.900   3.684   1.545 -0.9178  0.6087 -0.2034
 3058SOL    HW220808   3.965   3.815   1.585  0.6761  0.0826  0.6880
 3059SOL     OW20809   4.005   1.145   7.503  0.0772 -0.4008  0.0168
 3059SOL    HW120810   3.967   1.087   7.569 -1.0209  1.0666  0.6765
 3059SOL    HW220811   3.986   1.233   7.536  0.7299  0.1727 -1.1474
 3060SOL     OW20812   2.722   1.968   7.872  0.0480  0.1620 -0.2953
 3060SOL    HW120813   2.772   2.046   7.895 -0.6562  0.2498  0.8985
 3060SOL    HW220814   2.635   2.002   7.890  0.1235  0.2686 -0.1315
 3061SOL     OW20815   2.887   0.521   6.462 -0.2160  0.4471  0.2223
 3061SOL    HW120816   2.978   0.548   6.471 -0.0705  0.6306 -1.7801
 3061SOL    HW220817   2.893   0.490   6.372  0.3049 -1.6641  1.0018
 3062SOL     OW20818   4.406   4.226   5.058 -0.3114 -0.4516  0.2223
 3062SOL    HW120819   4.443   4.153   5.008  0.4114 -0.1358  0.2910
 3062SOL    HW220820   4.442   4.301   5.011  0.6223 -0.6138  0.6710
 3063SOL     OW20821   0.852   0.759  12.208 -0.2312 -0.0688 -0.2827
 3063SOL    HW120822   0.827   0.750  12.300 -1.0562 -0.0904 -0.5031
 3063SOL    HW220823   0.846   0.670  12.174  0.3557  0.9609 -3.0901
 3064SOL     OW20824   0.594   4.426  17.556  0.0748  0.1967  0.1326
 3064SOL    HW120825   0.676   4.379  17.568 -0.0180  0.4056  1.6084
 3064SOL    HW220826   0.544   4.353  17.520 -1.4597  2.0955 -1.6336
 3065SOL     OW20827   0.070   0.149   6.078 -0.3304  0.0753  0.0578
 3065SOL    HW120828   0.157   0.117   6.102 -0.2780  1.1932  1.3066
 3065SOL    HW220829   0.048   0.165   6.170 -3.6552 -0.6811 -0.6059
 3066SOL     OW20830   2.220   3.332   2.670  0.4522 -0.3440 -0.0700
 3066SOL    HW120831   2.144   3.379   2.702  0.5879  0.0779 -0.3691
 3066SOL    HW220832   2.275   3.357   2.744  1.6550 -0.8233 -0.7983
 3067SOL     OW20833   0.579   2.163   9.563 -0.1190 -0.5865  0.6034
 3067SOL    HW120834   0.603   2.214   9.640 -1.7923  1.8954 -0.5045
 3067SOL    HW220835   0.661   2.115   9.554 -0.9363 -1.3700 -2.8666
 3068SOL     OW20836   1.203   4.176   4.539 -0.0501 -0.1630  0.0339
 3068SOL    HW120837   1.216   4.216   4.625 -0.3230 -2.0605  0.9461
 3068SOL    HW220838   1.132   4.231   4.504  0.1997  1.2305  1.7426
 3069SOL     OW20839   3.136   0.114  10.237 -0.2371 -0.1103  0.5514
 3069SOL    HW120840   3.209   0.156  10.192 -0.1683 -1.2480 -0.4162
 3069SOL    HW220841   3.121   0.159  10.320 -0.2749  0.0920  0.4342
 3070SOL     OW20842   0.375   0.412   7.441 -0.4327  0.7102 -0.0875
 3070SOL    HW120843   0.403   0.503   7.427 -0.4144  0.4825 -1.4631
 3070SOL    HW220844   0.397   0.398   7.533  2.6073  2.2344 -0.5649
 3071SOL     OW20845   3.264   1.034  16.003  0.1528  0.9120  0.6465
 3071SOL    HW120846   3.316   1.030  16.083  0.7523  0.9796  0.2524
 3071SOL    HW220847   3.305   1.091  15.938 -0.9062  0.4677 -0.4199
 3072SOL     OW20848   1.213   3.459   2.664 -0.4741 -0.4800  0.2043
 3072SOL    HW120849   1.230   3.391   2.729  0.4872 -2.0214 -1.6631
 3072SOL    HW220850   1.127   3.485   2.696  0.1172 -0.8065  2.0656
 3073SOL     OW20851   2.635   3.893  11.344 -0.1735 -0.0853  0.6603
 3073SOL    HW120852   2.564   3.857  11.397 -0.6311 -0.5035 -0.2475
 3073SOL    HW220853   2.637   3.988  11.361 -2.7838  0.2289 -0.8183
 3074SOL     OW20854   1.251   1.785   5.811  0.5844 -0.2334  0.0888
 3074SOL    HW120855   1.169   1.739   5.833 -0.4057  2.0409  1.1698
 3074SOL    HW220856   1.311   1.749   5.877 -0.4351 -3.8712 -0.9385
 3075SOL     OW20857   0.374   2.618   2.150  0.0682 -0.1630  0.2265
 3075SOL    HW120858   0.426   2.681   2.100 -0.9528 -0.5124 -1.2786
 3075SOL    HW220859   0.441   2.556   2.178  1.0287  0.3971 -0.8475
 3076SOL     OW20860   4.469   4.304  11.588  0.1955  0.3015  0.3735
 3076SOL    HW120861   4.521   4.377  11.554  0.0687 -0.0805 -0.6477
 3076SOL    HW220862   4.398   4.299  11.524  0.9568  3.1054 -0.6784
 3077SOL     OW20863   4.716   0.677  15.930 -0.1746 -0.1337 -0.2794
 3077SOL    HW120864   0.051   0.712  15.878  0.3358 -2.3475 -1.0886
 3077SOL    HW220865   0.010   0.589  15.954 -1.1713 -0.6025 -0.6702
 3078SOL     OW20866   4.391   4.725   1.756  0.0875 -0.9945  0.2405
 3078SOL    HW120867   4.357   4.687   1.837 -2.2659  1.7014  0.5187
 3078SOL    HW220868   4.474   0.026   1.783 -0.0034  1.0011 -2.3765
 3079SOL     OW20869   1.299   2.298   7.151  0.6085 -0.2128 -0.4991
 3079SOL    HW120870   1.366   2.353   7.110 -1.0945  1.9050 -0.4392
 3079SOL    HW220871   1.333   2.287   7.240 -1.3878  0.1090  0.3051
 3080SOL     OW20872   0.845   2.758  12.538 -0.1934 -0.5570 -0.4235
 3080SOL    HW120873   0.765   2.775  12.488 -0.9966  1.1743  1.4670
 3080SOL    HW220874   0.914   2.762  12.471  0.1885 -0.1785 -0.0078
 3081SOL     OW20875   0.346   3.130   4.893  0.2533 -0.3930 -0.5677
 3081SOL    HW120876   0.300   3.127   4.977  0.7334 -1.1414 -0.3330
 3081SOL    HW220877   0.352   3.035   4.879  0.1385 -0.1041 -2.5657
 3082SOL     OW20878   0.353   1.934   3.524  0.2007  0.6581  0.3257
 3082SOL    HW120879   0.347   1.841   3.541  1.3463  0.1274 -2.1520
 3082SOL    HW220880   0.394   1.964   3.605 -1.6211 -1.9163  2.2104
 3083SOL     OW20881   3.439   4.447  10.504 -0.0494 -0.1356  0.0275
 3083SOL    HW120882   3.487   4.498  10.438  0.1109 -0.6743 -0.2671
 3083SOL    HW220883   3.383   4.401  10.442 -0.2671 -1.6535  1.3584
 3084SOL     OW20884   1.051   1.174   6.260  0.1358  0.8023 -0.2171
 3084SOL    HW120885   0.994   1.226   6.318 -1.1987 -0.6735 -0.2077
 3084SOL    HW220886   1.101   1.122   6.323 -2.0779  0.0397  0.8988
 3085SOL     OW20887   4.002   0.023   1.284  0.6719 -0.5247  0.2958
 3085SOL    HW120888   4.040   4.673   1.287 -1.8715 -1.6822 -0.5449
 3085SOL    HW220889   3.998   0.034   1.189 -1.8968  1.8971  0.6599
 3086SOL     OW20890   1.732   0.119   5.903  0.1460 -0.1386  0.0561
 3086SOL    HW120891   1.656   0.169   5.876  1.9440  1.4518 -2.0873
 3086SOL    HW220892   1.797   0.189   5.906 -0.6532  0.5620  0.8038
 3087SOL     OW20893   0.074   2.639   3.228  0.1057  0.2496 -0.2537
 3087SOL    HW120894   0.041   2.728   3.235 -0.0720  0.0904  0.9283
 3087SOL    HW220895   0.065   2.619   3.135 -0.6877 -0.2102 -0.0789
 3088SOL     OW20896   2.706   3.138   3.362 -0.1765  0.0896  0.1605
 3088SOL    HW120897   2.764   3.198   3.315 -1.4130 -0.1482 -1.6548
 3088SOL    HW220898   2.762   3.063   3.381  0.6944  0.5815 -0.4701
 3089SOL     OW20899   2.874   1.478   2.498  0.2305  0.2933 -0.0636
 3089SOL    HW120900   2.869   1.386   2.526  1.2681  0.2552  0.0115
 3089SOL    HW220901   2.792   1.489   2.450 -0.8389 -0.6034  1.5473
 3090SOL     OW20902   0.327   2.378   3.564 -0.2720  0.8865  0.2782
 3090SOL    HW120903   0.354   2.367   3.473  1.1815 -2.5045  1.1189
 3090SOL    HW220904   0.312   2.473   3.558  1.7071  1.2120  0.4643
 3091SOL     OW20905   1.526   3.069  11.830 -0.0764 -0.3993  0.3258
 3091SOL    HW120906   1.462   3.119  11.779 -0.2989 -0.3097  0.6956
 3091SOL    HW220907   1.594   3.137  11.827 -1.2321  0.7990  1.1061
 3092SOL     OW20908   3.052   0.020   7.560 -0.6861  0.3295  0.1332
 3092SOL    HW120909   3.086   4.690   7.501  0.8846 -0.1863  1.6044
 3092SOL    HW220910   3.126   0.040   7.618 -0.1851 -0.6839 -0.1445
 3093SOL     OW20911   4.123   3.309   6.450 -0.8602  0.1987 -0.5012
 3093SOL    HW120912   4.172   3.364   6.389  2.0064 -1.1916  0.5118
 3093SOL    HW220913   4.139   3.225   6.408 -2.7738  0.3991 -1.5898
 3094SOL     OW20914   3.141   0.968   6.145  0.1782 -0.1258 -0.3629
 3094SOL    HW120915   3.100   0.968   6.059  1.7927  1.6577 -1.1254
 3094SOL    HW220916   3.167   0.876   6.152 -0.4530 -0.3099 -0.3999
 3095SOL     OW20917   1.420   1.240   3.067  0.3011 -0.1247 -0.1661
 3095SOL    HW120918   1.439   1.282   3.151  0.2802 -1.1890  0.3706
 3095SOL    HW220919   1.364   1.169   3.099  1.2079 -1.1466 -0.8498
 3096SOL     OW20920   1.554   1.797   9.388 -0.0662  0.1242 -0.3166
 3096SOL    HW120921   1.546   1.872   9.448  0.8758  1.7988 -2.2957
 3096SOL    HW220922   1.610   1.828   9.317 -0.0998  2.2085  0.5460
 3097SOL     OW20923   3.697   3.735   2.620  0.1595 -0.3473 -0.2131
 3097SOL    HW120924   3.759   3.808   2.630 -0.1578 -0.0169 -0.6718
 3097SOL    HW220925   3.625   3.767   2.676  2.0424  1.0628  1.4151
 3098SOL     OW20926   2.724   0.899   4.527 -0.6900 -1.0066  0.0594
 3098SOL    HW120927   2.802   0.884   4.580 -0.6784  0.0944  0.3453
 3098SOL    HW220928   2.660   0.847   4.577 -0.7900 -1.9030 -1.0071
 3099SOL     OW20929   3.974   0.728   5.163 -0.4474 -0.2979 -0.1767
 3099SOL    HW120930   4.048   0.686   5.207  0.2416 -2.5003 -3.3301
 3099SOL    HW220931   3.893   0.681   5.185 -1.2620  0.7509 -0.9237
 3100SOL     OW20932   0.180   0.075   4.563 -0.3075  0.6571  0.1122
 3100SOL    HW120933   0.113   0.011   4.590  0.3630  0.1301  0.5189
 3100SOL    HW220934   0.228   0.098   4.643  0.3594  0.0439 -0.1185
 3101SOL     OW20935   1.579   0.332  11.906  0.1649 -0.3221 -0.5885
 3101SOL    HW120936   1.554   0.239  11.904 -0.1356 -0.2591  0.1787
 3101SOL    HW220937   1.510   0.377  11.858  0.4829 -0.7925 -1.4747
 3102SOL     OW20938   3.655   2.303   7.451 -0.3129 -0.1454 -0.6714
 3102SOL    HW120939   3.562   2.323   7.454 -0.1714  0.6633 -2.1839
 3102SOL    HW220940   3.661   2.208   7.462 -1.5089 -0.2256 -0.7251
 3103SOL     OW20941   0.564   1.081   1.496 -0.2785 -0.0196  0.9862
 3103SOL    HW120942   0.586   1.143   1.426 -3.3822  1.2701  1.1471
 3103SOL    HW220943   0.645   1.033   1.510  0.5155  1.5700  1.8505
 3104SOL     OW20944   2.290   4.142   3.802  0.5078 -0.3790 -0.4796
 3104SOL    HW120945   2.239   4.197   3.861  1.0330  0.5455 -0.8833
 3104SOL    HW220946   2.326   4.192   3.729  0.3164 -0.6485 -0.7631
 3105SOL     OW20947   4.268   1.966   0.330  0.2576 -0.4182  0.0534
 3105SOL    HW120948   4.232   2.047   0.367 -0.2890 -1.5226  1.9108
 3105SOL    HW220949   4.318   1.938   0.407  2.9408 -2.2468 -2.3616
 3106SOL     OW20950   0.326   2.810   6.074 -0.5834 -0.1360 -0.0182
 3106SOL    HW120951   0.407   2.769   6.043 -0.3938  0.0720  0.1998
 3106SOL    HW220952   0.345   2.893   6.031 -1.1455  0.3655  0.7048
 3107SOL     OW20953   3.411   2.578  16.541  0.4311  0.1865 -0.2520
 3107SOL    HW120954   3.415   2.546  16.631 -1.5822  2.7315  0.7699
 3107SOL    HW220955   3.473   2.650  16.553  0.2398  0.0129  1.7287
 3108SOL     OW20956   1.865   2.310   5.564 -0.3098 -0.1697  0.3433
 3108SOL    HW120957   1.848   2.217   5.552 -3.6874  0.6245 -1.0105
 3108SOL    HW220958   1.780   2.342   5.595 -0.6512  1.9947 -2.8279
 3109SOL     OW20959   1.752   0.587  14.347 -0.1552 -0.0416 -0.4935
 3109SOL    HW120960   1.793   0.614  14.429  1.8701  1.1667 -1.8919
 3109SOL    HW220961   1.828   0.600  14.289  0.1574 -1.5984 -0.4510
 3110SOL     OW20962   1.960   4.150   7.728 -0.1562 -0.1712 -0.0988
 3110SOL    HW120963   1.895   4.091   7.767 -0.3142 -0.5033 -0.8628
 3110SOL    HW220964   1.965   4.210   7.802  0.1196  0.2492 -0.4598
 3111SOL     OW20965   2.103   0.834   8.700 -0.6127 -0.3427 -0.3244
 3111SOL    HW120966   2.060   0.749   8.693 -1.7254  0.3040 -1.1917
 3111SOL    HW220967   2.194   0.812   8.680 -1.0553 -1.5416 -1.0299
 3112SOL     OW20968   3.629   3.165  14.122  0.9174 -0.2116 -0.5803
 3112SOL    HW120969   3.695   3.227  14.093  2.7301 -2.1031 -0.4704
 3112SOL    HW220970   3.630   3.184  14.215 -0.0410 -1.7414 -0.2541
 3113SOL     OW20971   2.137   2.629   6.423  0.6783  0.4803 -0.5260
 3113SOL    HW120972   2.228   2.600   6.427  0.9590  1.5960  1.1178
 3113SOL    HW220973   2.096   2.544   6.439 -2.3075  1.9673 -0.2402
 3114SOL     OW20974   2.643   0.962   3.919 -0.1076 -0.3195 -0.3336
 3114SOL    HW120975   2.708   1.022   3.883 -2.1349  1.7025 -0.5643
 3114SOL    HW220976   2.567   0.980   3.864 -1.2758 -1.0631  1.0308
 3115SOL     OW20977   1.594   2.907  17.708 -0.7201  0.0400  0.1116
 3115SOL    HW120978   1.662   2.883  17.644 -0.9776 -2.1938  0.6761
 3115SOL    HW220979   1.521   2.924  17.648 -0.6076 -1.0947 -0.3341
 3116SOL     OW20980   0.599   2.010   5.211  0.1931  0.5236  1.2966
 3116SOL    HW120981   0.556   2.048   5.288  1.0181  3.2918  0.3939
 3116SOL    HW220982   0.667   1.960   5.256  0.3737 -0.1149  0.3005
 3117SOL     OW20983   3.408   2.711   8.367  0.2752 -0.4553 -0.1337
 3117SOL    HW120984   3.323   2.719   8.323  2.0165  4.5235 -2.5791
 3117SOL    HW220985   3.390   2.732   8.459  1.8952  0.8815 -0.1315
 3118SOL     OW20986   0.918   4.006   6.921  0.5219 -0.2709 -0.0876
 3118SOL    HW120987   0.825   4.020   6.900  0.4453  1.8128  1.6191
 3118SOL    HW220988   0.933   4.059   6.999 -1.0400 -1.8032  1.2565
 3119SOL     OW20989   4.640   1.328   3.442 -0.7176  0.6018 -0.4008
 3119SOL    HW120990   4.632   1.366   3.529  0.8674  0.2306 -0.0883
 3119SOL    HW220991   4.592   1.391   3.388  0.5571 -0.5044 -2.8483
 3120SOL     OW20992   0.582   1.721  10.583  0.2314  0.2303 -0.1206
 3120SOL    HW120993   0.524   1.705  10.508  2.4562 -2.0769 -1.3688
 3120SOL    HW220994   0.612   1.636  10.615  2.2711  1.3222  0.8392
 3121SOL     OW20995   3.193   4.557   3.964  0.1603 -0.2030  0.1463
 3121SOL    HW120996   3.244   4.632   3.933 -1.7438  0.5419 -1.1533
 3121SOL    HW220997   3.116   4.569   3.909 -0.2814  1.7041  1.2099
 3122SOL     OW20998   3.569   2.766   2.568  0.2262  0.4590  0.1550
 3122SOL    HW120999   3.615   2.849   2.581 -0.5418  1.2299 -2.0888
 3122SOL    HW221000   3.485   2.798   2.602 -0.0564 -0.1122 -0.0134
 3123SOL     OW21001   2.340   2.940   7.676  0.3116 -0.1291 -0.5772
 3123SOL    HW121002   2.318   2.890   7.598 -0.4721  2.1654 -1.8479
 3123SOL    HW221003   2.434   2.952   7.664  0.3720 -0.8841 -0.8102
 3124SOL     OW21004   1.400   0.409   1.028 -0.1594 -0.3390  0.5183
 3124SOL    HW121005   1.395   0.463   0.948  0.4828 -0.7796  0.1811
 3124SOL    HW221006   1.327   0.352   1.000 -0.5101  0.6612 -0.6246
 3125SOL     OW21007   3.534   1.019   8.777 -0.3875  0.3887  0.3877
 3125SOL    HW121008   3.573   1.099   8.812  0.4878  0.6615 -1.1968
 3125SOL    HW221009   3.501   1.042   8.690  0.9470 -0.5334 -0.3634
 3126SOL     OW21010   2.441   3.189  11.227 -0.7930  0.3117 -0.0449
 3126SOL    HW121011   2.529   3.226  11.232 -0.5170 -0.1129 -1.8950
 3126SOL    HW221012   2.435   3.196  11.323  0.8215 -0.4807  0.1243
 3127SOL     OW21013   0.292   0.476   2.908  0.5031  0.2258 -0.2573
 3127SOL    HW121014   0.317   0.390   2.941 -0.2545  0.9586  2.2821
 3127SOL    HW221015   0.199   0.456   2.907  0.2897  1.1841  0.1770
 3128SOL     OW21016   4.291   2.430   0.759 -0.1935  0.0879  0.4526
 3128SOL    HW121017   4.261   2.339   0.765 -0.3644  0.0657 -0.7487
 3128SOL    HW221018   4.380   2.413   0.729 -0.4523 -0.1944 -0.1455
 3129SOL     OW21019   3.246   1.962   3.041  1.0165  0.4137  0.3211
 3129SOL    HW121020   3.183   2.019   3.084  1.5711  0.1243  1.5057
 3129SOL    HW221021   3.229   1.994   2.952 -1.7120 -2.5983 -0.2186
 3130SOL     OW21022   3.731   4.279   7.878  0.4622 -0.7097  0.4079
 3130SOL    HW121023   3.637   4.281   7.862  0.9605  0.0429 -2.3614
 3130SOL    HW221024   3.729   4.343   7.949 -1.3206 -1.2073  0.7948
 3131SOL     OW21025   1.425   4.138   8.481 -0.1698  0.4570  0.4157
 3131SOL    HW121026   1.374   4.122   8.402 -1.0051 -0.2077  1.1058
 3131SOL    HW221027   1.364   4.180   8.541  0.7220  1.1045  0.8823
 3132SOL     OW21028   4.506   3.541   7.130 -0.1032 -0.4740 -0.5580
 3132SOL    HW121029   4.436   3.480   7.107  0.2330 -1.1256  0.1790
 3132SOL    HW221030   4.575   3.475   7.129  0.1356 -0.2163 -1.4480
 3133SOL     OW21031   4.665   4.082   8.971  0.3496 -0.0511 -0.0450
 3133SOL    HW121032   4.649   3.988   8.960 -1.5222 -0.2615  4.3817
 3133SOL    HW221033   4.643   4.110   8.882 -0.0009 -1.2919 -0.3476
 3134SOL     OW21034   2.101   1.562   7.562 -0.0987  0.7629  0.3750
 3134SOL    HW121035   2.192   1.559   7.532  0.4217 -2.8648  2.3090
 3134SOL    HW221036   2.095   1.648   7.602  0.6221  1.4678 -1.0544
 3135SOL     OW21037   3.349   3.752  13.763 -0.4506  0.4533 -0.3342
 3135SOL    HW121038   3.289   3.797  13.823  0.3946 -1.5237  1.9804
 3135SOL    HW221039   3.323   3.777  13.674  0.0289  1.4684 -0.1931
 3136SOL     OW21040   4.448   0.459  10.714 -0.1140  0.5182 -0.1712
 3136SOL    HW121041   4.444   0.553  10.693 -1.6055 -0.1534 -2.7876
 3136SOL    HW221042   4.420   0.448  10.805 -0.9452  1.4040 -0.3131
 3137SOL     OW21043   3.254   0.179   1.506 -0.3245  0.0735  0.5215
 3137SOL    HW121044   3.159   0.169   1.514 -0.4508 -1.4982 -2.8368
 3137SOL    HW221045   3.264   0.272   1.489  1.5128 -0.2097  0.0561
 3138SOL     OW21046   1.305   2.792   2.019  0.3560  0.4422  0.0775
 3138SOL    HW121047   1.212   2.786   2.000  0.6458 -0.0768 -1.2054
 3138SOL    HW221048   1.333   2.716   1.967  0.3612  0.0343  0.6790
 3139SOL     OW21049   2.923   3.890   9.577  0.6686  0.3313 -0.8383
 3139SOL    HW121050   2.983   3.859   9.645 -1.3795 -0.9413  0.3998
 3139SOL    HW221051   2.992   3.932   9.526 -0.6671  3.1768 -0.2743
 3140SOL     OW21052   1.024   4.492  12.672  0.3586  0.4090 -0.2248
 3140SOL    HW121053   0.998   4.424  12.735  1.1199  0.7377  0.4416
 3140SOL    HW221054   1.112   4.508  12.707 -0.0913 -0.5400  1.3870
 3141SOL     OW21055   3.514   0.157   3.211 -0.4610  0.6689  0.3938
 3141SOL    HW121056   3.444   0.187   3.152  0.2225 -0.8760 -1.1777
 3141SOL    HW221057   3.492   0.206   3.291  2.7933  0.6853  1.2827
 3142SOL     OW21058   0.542   4.499   4.078 -0.0892 -0.6077  0.7642
 3142SOL    HW121059   0.609   4.567   4.089  0.6833 -1.3335  0.6217
 3142SOL    HW221060   0.469   4.538   4.126 -0.0197 -2.0116  2.0096
 3143SOL     OW21061   0.450   0.495   4.936 -0.0737 -0.0283  0.7691
 3143SOL    HW121062   0.525   0.551   4.959 -0.2243  0.1373  0.8554
 3143SOL    HW221063   0.432   0.542   4.855  0.5269  2.4679  2.0901
 3144SOL     OW21064   4.495   3.673   6.793 -0.5970  0.5255  0.2315
 3144SOL    HW121065   4.501   3.584   6.828  2.3259  0.2946 -0.8490
 3144SOL    HW221066   4.494   3.642   6.703  0.5389 -2.8131  1.3456
 3145SOL     OW21067   2.748   0.044   3.573  0.5160 -0.2327 -0.2835
 3145SOL    HW121068   2.786   0.101   3.507 -2.1292 -2.2924 -3.5674
 3145SOL    HW221069   2.734   0.112   3.639  1.3351 -2.3228  2.0545
 3146SOL     OW21070   2.485   3.168   4.384 -0.8498  0.2407 -0.0399
 3146SOL    HW121071   2.415   3.226   4.355 -1.4848 -1.5477 -2.1459
 3146SOL    HW221072   2.510   3.211   4.466 -0.7008  0.4486 -0.1941
 3147SOL     OW21073   3.417   3.420   1.730  0.0920  0.0436 -0.4608
 3147SOL    HW121074   3.468   3.393   1.653 -0.3690  0.2489 -0.8327
 3147SOL    HW221075   3.486   3.457   1.786  0.0275 -2.8172  1.4844
 3148SOL     OW21076   1.580   0.616  14.994  0.2856  0.0024 -0.4511
 3148SOL    HW121077   1.497   0.583  15.028 -0.2330  2.3298  0.5481
 3148SOL    HW221078   1.557   0.636  14.903  2.9663  2.0664 -0.6733
 3149SOL     OW21079   4.524   2.929   1.309  0.3422 -0.2806  0.3091
 3149SOL    HW121080   4.519   2.991   1.381 -0.6912  0.0599 -0.0621
 3149SOL    HW221081   4.446   2.969   1.270  1.1437  1.1819  0.2125
 3150SOL     OW21082   1.348   2.946   1.197 -0.0205 -0.5397  0.1964
 3150SOL    HW121083   1.408   2.888   1.243  0.6036 -0.5985 -0.7019
 3150SOL    HW221084   1.359   3.038   1.222  0.8829 -0.6085  0.0365
 3151SOL     OW21085   2.033   2.293   7.476 -0.1439 -0.4169 -0.2034
 3151SOL    HW121086   1.993   2.225   7.421  0.6346 -1.0002 -0.0557
 3151SOL    HW221087   2.120   2.298   7.436 -0.7539 -1.7426 -1.7023
 3152SOL     OW21088   3.861   1.268  12.783 -0.3191 -0.2430  0.0805
 3152SOL    HW121089   3.765   1.271  12.785 -0.2047  2.8673  1.0859
 3152SOL    HW221090   3.874   1.176  12.804  0.5872  0.1634  1.2670
 3153SOL     OW21091   3.901   2.667   2.888  0.1781 -0.3950 -0.3716
 3153SOL    HW121092   3.921   2.666   2.794  2.6930  1.8499  0.1469
 3153SOL    HW221093   3.820   2.617   2.896  0.5754 -1.1843 -1.2717
 3154SOL     OW21094   2.134   2.454  13.199 -0.7514 -0.4383 -0.5147
 3154SOL    HW121095   2.047   2.449  13.238 -1.4880 -1.4944 -2.2936
 3154SOL    HW221096   2.143   2.546  13.223 -0.2437 -0.0644 -2.1042
 3155SOL     OW21097   4.297   3.063   3.826 -0.3333 -0.2185 -0.0799
 3155SOL    HW121098   4.297   3.005   3.902  0.6335  0.2731  0.2975
 3155SOL    HW221099   4.330   3.006   3.756  0.1475  0.9484 -0.7970
 3156SOL     OW21100   3.562   3.583  12.668 -0.2157  0.4462  0.0438
 3156SOL    HW121101   3.472   3.570  12.699 -0.7214 -0.1871 -1.6867
 3156SOL    HW221102   3.561   3.619  12.580  1.1671 -2.2130 -1.0756
 3157SOL     OW21103   0.884   4.672  16.977  0.4161 -0.8889 -0.5085
 3157SOL    HW121104   0.864   4.582  17.003  0.0807 -0.2472  1.4761
 3157SOL    HW221105   0.801   4.719  16.983 -0.1957 -1.9850 -0.3902
 3158SOL     OW21106   3.569   1.637   8.133  0.1914 -0.0048  0.0826
 3158SOL    HW121107   3.649   1.677   8.100 -0.3079  0.6131 -0.3684
 3158SOL    HW221108   3.613   1.571   8.187 -0.2922  0.3557  0.9230
 3159SOL     OW21109   1.803   3.819   5.511  0.0395 -0.1736  0.5564
 3159SOL    HW121110   1.775   3.882   5.445 -1.9633 -1.8216 -0.1564
 3159SOL    HW221111   1.883   3.785   5.471  0.8449 -0.1943  2.1567
 3160SOL     OW21112   2.470   4.719   7.632  0.3578 -0.4261 -0.2094
 3160SOL    HW121113   2.509   4.685   7.713 -1.9150  1.3117  1.5815
 3160SOL    HW221114   2.447   4.642   7.581  0.1080 -0.7916  0.4498
 3161SOL     OW21115   2.227   2.992   8.014  0.3391  0.2393  0.6650
 3161SOL    HW121116   2.272   3.067   7.974 -0.7729  1.0368  0.8963
 3161SOL    HW221117   2.264   2.987   8.102 -0.5019  3.2483  1.1993
 3162SOL     OW21118   4.686   3.074   0.465 -0.1292  0.5106  0.2223
 3162SOL    HW121119   0.020   3.117   0.512  1.8547 -0.4934 -1.8167
 3162SOL    HW221120   4.607   3.119   0.493  0.8462  0.8316  2.4472
 3163SOL     OW21121   3.683   0.879   5.240 -0.4939 -0.3653 -0.2526
 3163SOL    HW121122   3.716   0.796   5.204  2.2051  1.4075 -1.8986
 3163SOL    HW221123   3.590   0.875   5.220 -0.4919 -1.3040 -0.0977
 3164SOL     OW21124   3.271   4.645   2.934  0.1849 -0.1758 -0.4395
 3164SOL    HW121125   3.250   4.707   3.004  1.2172  0.6322 -0.8381
 3164SOL    HW221126   3.284   4.558   2.972 -1.1305 -0.1571  0.0545
 3165SOL     OW21127   0.772   2.334   7.829  0.1288 -0.0870 -0.2343
 3165SOL    HW121128   0.738   2.415   7.791  0.3871  1.1125  2.1231
 3165SOL    HW221129   0.771   2.274   7.754  1.1685  0.5971 -0.7914
 3166SOL     OW21130   1.026   1.991   8.285 -0.1538  0.4653  0.0139
 3166SOL    HW121131   1.082   1.925   8.327  0.3805 -0.9633 -2.9276
 3166SOL    HW221132   0.982   2.027   8.362 -1.8839  2.2330 -1.8031
 3167SOL     OW21133   1.986   3.816  12.742  0.1661  0.1578 -0.0669
 3167SOL    HW121134   1.979   3.864  12.825 -1.3172 -0.5377  0.2060
 3167SOL    HW221135   1.895   3.798  12.720  0.1564  0.8915 -0.6091
 3168SOL     OW21136   0.190   1.609  13.226 -0.1935 -0.0622  0.5126
 3168SOL    HW121137   0.243   1.540  13.265 -0.0664  0.2991  0.9796
 3168SOL    HW221138   0.174   1.573  13.139 -0.3262 -0.2423  0.6087
 3169SOL     OW21139   3.668   1.995   3.519 -0.0028  0.3198 -0.1541
 3169SOL    HW121140   3.615   1.943   3.458  2.1312 -0.5359 -1.2764
 3169SOL    HW221141   3.692   1.928   3.583 -0.6015  0.8729  0.6593
 3170SOL     OW21142   0.618   2.897   0.726 -0.0812 -0.5169 -0.3275
 3170SOL    HW121143   0.632   2.978   0.776 -0.9998 -1.1183  0.9016
 3170SOL    HW221144   0.710   2.884   0.702 -0.0005 -0.3226 -0.1279
 3171SOL     OW21145   0.134   3.278   9.357 -0.0702 -0.0214 -0.1295
 3171SOL    HW121146   0.077   3.355   9.342  1.8164  1.2799 -0.6053
 3171SOL    HW221147   0.221   3.314   9.342 -0.1072 -0.3560 -1.1061
 3172SOL     OW21148   4.585   4.294   5.498  0.2294 -0.0386 -0.6280
 3172SOL    HW121149   4.630   4.350   5.562 -0.1592 -0.2262 -0.1891
 3172SOL    HW221150   4.517   4.246   5.545  1.0371 -2.0099 -1.4840
 3173SOL     OW21151   2.963   2.689  16.271 -0.0057 -0.3548 -0.4262
 3173SOL    HW121152   2.891   2.626  16.266 -2.1292  2.0601 -0.0805
 3173SOL    HW221153   2.959   2.690  16.367 -0.2637  0.6608 -0.4472
 3174SOL     OW21154   1.331   3.663   3.550  0.1727 -0.4380 -0.1717
 3174SOL    HW121155   1.325   3.601   3.478 -1.9661  0.0365 -0.4066
 3174SOL    HW221156   1.414   3.649   3.595  0.6542  2.2364 -0.1956
 3175SOL     OW21157   0.514   3.754   4.609 -0.5478  0.3332  0.9338
 3175SOL    HW121158   0.514   3.674   4.557  2.8668  0.3756  0.8978
 3175SOL    HW221159   0.430   3.734   4.649 -1.0528 -2.5101 -1.5678
 3176SOL     OW21160   3.236   2.301  14.736  0.0602  0.1286  0.6962
 3176SOL    HW121161   3.304   2.329  14.797 -0.2997 -0.0520  1.1833
 3176SOL    HW221162   3.196   2.222  14.772 -1.1499 -0.6557 -2.3424
 3177SOL     OW21163   1.122   3.931  15.553 -0.0334 -0.5252 -0.2901
 3177SOL    HW121164   1.114   3.838  15.531  0.1777 -1.4646  3.5884
 3177SOL    HW221165   1.217   3.941  15.556 -0.1124  0.9343 -3.5102
 3178SOL     OW21166   0.870   1.287   2.712 -0.1633 -0.4353 -0.0753
 3178SOL    HW121167   0.879   1.195   2.690 -1.5682 -0.2780 -1.3432
 3178SOL    HW221168   0.796   1.306   2.653  1.5489  1.4605 -1.6106
 3179SOL     OW21169   2.823   0.248   6.223  0.2154  0.6640  0.5446
 3179SOL    HW121170   2.837   0.216   6.133  1.1029  2.4592  0.0513
 3179SOL    HW221171   2.760   0.320   6.215  0.4385  0.8793  0.7501
 3180SOL     OW21172   1.125   2.884   3.719  0.8899 -0.0019  0.2812
 3180SOL    HW121173   1.034   2.914   3.726  0.8594 -0.2000  0.7743
 3180SOL    HW221174   1.147   2.921   3.634 -0.5977 -0.2676 -0.2336
 3181SOL     OW21175   4.002   0.365   5.996 -0.7941  0.2276 -0.1639
 3181SOL    HW121176   3.937   0.296   5.985 -1.1732  0.7107 -0.9305
 3181SOL    HW221177   4.085   0.325   5.972 -1.0858 -0.8857  0.7074
 3182SOL     OW21178   1.420   3.863  15.570  0.0526 -0.2453 -0.0686
 3182SOL    HW121179   1.507   3.879  15.606 -0.8308 -0.9442  2.4269
 3182SOL    HW221180   1.409   3.774  15.604 -1.8646 -0.1458 -0.4445
 3183SOL     OW21181   1.408   3.282  11.298 -0.1228 -0.2400  0.1978
 3183SOL    HW121182   1.334   3.341  11.310  0.0753 -0.5556  2.8359
 3183SOL    HW221183   1.474   3.304  11.364  0.7058  2.7969 -1.6262
 3184SOL     OW21184   0.665   1.999   3.556  0.2401  0.2002  0.1403
 3184SOL    HW121185   0.760   2.003   3.567 -0.0884  2.3567  2.3365
 3184SOL    HW221186   0.646   1.980   3.648  0.2775  1.1649  0.3525
 3185SOL     OW21187   0.584   0.143   6.100  0.1322 -0.0913 -1.0372
 3185SOL    HW121188   0.603   0.098   6.183 -0.5263  0.4983 -0.5623
 3185SOL    HW221189   0.578   0.231   6.137 -1.2742 -0.2154 -0.9421
 3186SOL     OW21190   3.596   3.265   8.911 -0.2000  0.3379  0.6465
 3186SOL    HW121191   3.542   3.344   8.912  1.2149  1.3249 -0.0455
 3186SOL    HW221192   3.540   3.207   8.962 -0.9447 -0.7827 -1.4406
 3187SOL     OW21193   4.609   0.910   0.345  0.0060 -0.0608  0.2923
 3187SOL    HW121194   4.533   0.854   0.333  0.0616  0.1849 -1.1309
 3187SOL    HW221195   4.586   0.982   0.286 -1.7271 -0.1049  0.9080
 3188SOL     OW21196   4.440   2.362  17.145 -0.7852 -0.2900  0.1028
 3188SOL    HW121197   4.533   2.343  17.157 -0.9548 -0.2660  1.4713
 3188SOL    HW221198   4.435   2.350  17.050 -3.2953 -2.2610  0.4596
 3189SOL     OW21199   1.749   4.376   6.923 -0.8823 -0.3177 -0.2827
 3189SOL    HW121200   1.724   4.459   6.963 -0.2404 -0.5411  0.6047
 3189SOL    HW221201   1.668   4.328   6.943 -0.2600 -2.1531 -2.2158
 3190SOL     OW21202   1.404   4.523   7.717 -0.0896 -0.3358  0.3079
 3190SOL    HW121203   1.363   4.449   7.672 -0.6047  0.5139 -0.6056
 3190SOL    HW221204   1.424   4.595   7.657 -0.4184 -0.7221 -0.2719
 3191SOL     OW21205   0.606   2.372   3.662 -0.1944 -0.1061 -0.1242
 3191SOL    HW121206   0.532   2.374   3.723 -0.9776 -0.6801 -1.0656
 3191SOL    HW221207   0.678   2.381   3.725 -1.2632  0.4621  1.0222
 3192SOL     OW21208   1.120   1.237   9.883  1.2066  0.1476  0.7002
 3192SOL    HW121209   1.214   1.254   9.887  0.9076  1.8843  0.5937
 3192SOL    HW221210   1.090   1.301   9.818  0.1689 -0.4599  0.5774
 3193SOL     OW21211   3.430   4.531   2.013  1.0498  0.0804 -0.1198
 3193SOL    HW121212   3.375   4.452   2.012 -0.2516  0.9783 -0.2028
 3193SOL    HW221213   3.361   4.597   2.022  2.4383  1.3685  1.0344
 3194SOL     OW21214   1.146   1.725   2.508  0.2721  0.1871 -0.9923
 3194SOL    HW121215   1.152   1.809   2.555 -1.1990 -0.0228 -0.4195
 3194SOL    HW221216   1.232   1.684   2.513 -0.1141 -0.7315 -1.8794
 3195SOL     OW21217   2.435   1.906   8.585 -0.6147 -0.2422 -0.0874
 3195SOL    HW121218   2.468   1.819   8.609  2.3533  0.4404 -1.7979
 3195SOL    HW221219   2.439   1.896   8.490  0.0937 -1.7023  0.0923
 3196SOL     OW21220   0.889   3.454   7.691  0.3487  0.5504  0.3816
 3196SOL    HW121221   0.807   3.485   7.652  1.4574  0.9940 -1.6150
 3196SOL    HW221222   0.898   3.512   7.767  0.6337 -1.2852  1.7306
 3197SOL     OW21223   3.152   0.195   2.828  0.1188  0.0599  0.2283
 3197SOL    HW121224   3.228   0.196   2.887  1.1602 -1.9543 -1.0975
 3197SOL    HW221225   3.087   0.157   2.887 -0.1991 -1.5138 -1.1283
 3198SOL     OW21226   0.435   3.826   2.510  0.4763 -0.0698 -0.4855
 3198SOL    HW121227   0.389   3.786   2.436  0.1454 -3.7784  1.7797
 3198SOL    HW221228   0.529   3.810   2.501  0.6860  0.4281  0.8990
 3199SOL     OW21229   1.680   0.749   8.762 -0.0607  0.1719  0.1643
 3199SOL    HW121230   1.593   0.712   8.753 -0.9431  2.4367 -0.8083
 3199SOL    HW221231   1.718   0.698   8.690  3.0684  1.0924  1.1356
 3200SOL     OW21232   3.865   1.919   2.339  0.5071 -0.8806 -0.1473
 3200SOL    HW121233   3.902   1.911   2.428  1.5760 -2.4064 -0.7263
 3200SOL    HW221234   3.894   2.009   2.326 -2.6289  0.3169  1.1570
 3201SOL     OW21235   0.142   0.229   4.824  0.2756  0.1519  0.2466
 3201SOL    HW121236   0.116   0.315   4.856 -0.4026 -0.1585  0.5305
 3201SOL    HW221237   0.220   0.257   4.775  0.5190  0.1134  0.6134
 3202SOL     OW21238   2.016   0.724   1.375  0.0732  0.2698 -0.0105
 3202SOL    HW121239   2.059   0.649   1.335  2.0177  1.4713 -0.1948
 3202SOL    HW221240   1.925   0.696   1.376 -0.0523  0.6382 -2.7898
 3203SOL     OW21241   1.382   0.293   4.176  0.3202 -0.5316  0.1350
 3203SOL    HW121242   1.333   0.296   4.259  0.0705 -0.8248  0.0006
 3203SOL    HW221243   1.413   0.203   4.192  0.8706  0.0303  2.3062
 3204SOL     OW21244   2.561   1.514   6.456 -0.3309 -0.1538 -0.1530
 3204SOL    HW121245   2.530   1.605   6.450 -0.2904 -0.1343 -0.0705
 3204SOL    HW221246   2.494   1.474   6.401 -0.4617  0.0289 -0.1270
 3205SOL     OW21247   0.303   2.882  10.019  0.3796 -0.1721  0.4027
 3205SOL    HW121248   0.397   2.878  10.034  0.6560 -1.9137 -1.8910
 3205SOL    HW221249   0.285   2.823   9.946 -1.6450  0.1875  0.6020
 3206SOL     OW21250   3.265   1.690  12.465 -0.1876  0.1235  0.0157
 3206SOL    HW121251   3.193   1.752  12.477 -1.4300 -1.1774 -0.6847
 3206SOL    HW221252   3.351   1.733  12.468  0.3262 -0.6274 -4.2801
 3207SOL     OW21253   0.919   0.793   9.197  0.2891  0.1801 -0.3042
 3207SOL    HW121254   0.979   0.864   9.173  0.9341 -0.6611 -1.1973
 3207SOL    HW221255   0.895   0.762   9.109 -2.0664 -0.6361  0.6444
 3208SOL     OW21256   4.154   3.217   7.641  0.3093  0.4243 -0.7651
 3208SOL    HW121257   4.122   3.127   7.655  0.2507  0.9260  2.1541
 3208SOL    HW221258   4.097   3.249   7.571 -0.5030  1.0818  0.2064
 3209SOL     OW21259   1.015   4.561  14.266  0.0721  0.3528  0.1132
 3209SOL    HW121260   0.964   4.538  14.188 -1.3125 -3.6128  2.1349
 3209SOL    HW221261   0.958   4.616  14.319 -0.3686  1.2786 -1.3154
 3210SOL     OW21262   4.146   1.819  16.338 -0.1961 -0.7288  0.1915
 3210SOL    HW121263   4.234   1.789  16.316 -0.3280  0.2892 -1.7767
 3210SOL    HW221264   4.161   1.814  16.432 -1.7248 -0.2955  0.4609
 3211SOL     OW21265   3.790   2.921   2.142  0.0381 -0.7042 -0.3853
 3211SOL    HW121266   3.813   2.963   2.225  0.3588  1.4421 -1.5596
 3211SOL    HW221267   3.814   2.995   2.086  2.2731 -0.8473  0.3723
 3212SOL     OW21268   4.367   1.000   2.868  0.2888 -0.8395 -0.2496
 3212SOL    HW121269   4.298   0.944   2.904  0.8048 -0.6579  1.0105
 3212SOL    HW221270   4.434   0.941   2.834  1.0336 -0.6891  0.9638
 3213SOL     OW21271   4.588   1.849   3.134  0.0422 -0.6827 -0.3229
 3213SOL    HW121272   4.615   1.874   3.045  4.4269  0.2876  1.2640
 3213SOL    HW221273   4.493   1.847   3.123 -0.1355 -0.8216  1.2959
 3214SOL     OW21274   4.723   2.306   7.931  0.4427 -0.2491  0.0793
 3214SOL    HW121275   4.687   2.317   8.020  0.0751 -0.7489 -0.0067
 3214SOL    HW221276   4.686   2.219   7.918  1.2555 -0.7848  1.3496
 3215SOL     OW21277   1.195   2.462  13.182  0.2722 -0.0687  0.3895
 3215SOL    HW121278   1.102   2.448  13.195 -0.2562  1.7348 -1.4170
 3215SOL    HW221279   1.226   2.474  13.272  0.5566  0.5985  0.2084
 3216SOL     OW21280   4.385   0.863   3.460 -0.1125 -0.0085 -0.5779
 3216SOL    HW121281   4.295   0.848   3.489  0.4985 -1.6829  0.4135
 3216SOL    HW221282   4.380   0.898   3.371 -1.6094  1.0035 -0.1030
 3217SOL     OW21283   4.518   1.089   7.888 -0.3325 -0.1834  0.0690
 3217SOL    HW121284   4.499   1.039   7.968  0.6300  1.1596  1.1289
 3217SOL    HW221285   4.470   1.032   7.827  1.1494 -0.5174 -0.7907
 3218SOL     OW21286   1.409   1.120   8.624  0.5338  0.3835  0.5453
 3218SOL    HW121287   1.407   1.044   8.565 -1.1300  0.3147  0.6776
 3218SOL    HW221288   1.488   1.100   8.674  2.0371  0.3444 -1.8048
 3219SOL     OW21289   2.206   2.197   1.074  0.0174 -0.0655 -0.4531
 3219SOL    HW121290   2.269   2.264   1.045  2.1284 -0.7821  2.5771
 3219SOL    HW221291   2.127   2.251   1.076  1.3546  1.9018 -0.0542
 3220SOL     OW21292   0.625   3.790   0.333  0.4089  0.1139 -0.0910
 3220SOL    HW121293   0.669   3.871   0.360 -0.7134  0.7576 -0.2283
 3220SOL    HW221294   0.681   3.723   0.373  1.5451  0.5101 -1.0156
 3221SOL     OW21295   3.138   3.796   2.362 -0.2775 -0.5347 -0.6562
 3221SOL    HW121296   3.098   3.760   2.283  0.2553 -1.3114 -0.5690
 3221SOL    HW221297   3.070   3.798   2.428  2.0847 -0.3944  1.7782
 3222SOL     OW21298   3.141   1.507   8.683  0.5002 -0.2348  0.3275
 3222SOL    HW121299   3.132   1.413   8.666  2.4031 -0.0931 -1.3578
 3222SOL    HW221300   3.233   1.520   8.663  0.4475  1.1860  1.0302
 3223SOL     OW21301   2.109   2.076   6.482 -0.2432 -0.7317  0.3242
 3223SOL    HW121302   2.163   1.998   6.470 -0.2792 -0.9027  1.2158
 3223SOL    HW221303   2.138   2.095   6.572  0.5369  3.3036 -0.8185
 3224SOL     OW21304   1.008   0.083   5.425  0.3202  0.5776  0.2666
 3224SOL    HW121305   0.952   0.005   5.424  1.0135  0.1380 -2.3411
 3224SOL    HW221306   0.965   0.140   5.361 -1.6346 -1.6310 -0.4067
 3225SOL     OW21307   0.169   0.068   3.205 -0.1727 -0.4583  0.5927
 3225SOL    HW121308   0.221   0.056   3.285  0.7396  1.6761  0.3331
 3225SOL    HW221309   0.090   0.110   3.237  0.7919  0.5672  1.6463
 3226SOL     OW21310   3.323   4.722  10.438 -0.3482 -0.3890  0.5284
 3226SOL    HW121311   3.247   4.666  10.422 -0.8483  0.6888 -0.8584
 3226SOL    HW221312   3.395   4.692  10.382 -2.6675 -2.7187 -1.2049
 3227SOL     OW21313   0.536   2.233   1.870  0.2024  0.0806 -0.0083
 3227SOL    HW121314   0.557   2.291   1.797  0.9129  0.0321  0.1537
 3227SOL    HW221315   0.623   2.207   1.901 -0.1078 -2.6007 -1.3813
 3228SOL     OW21316   2.659   0.912   3.534  0.2769  0.2023 -0.0318
 3228SOL    HW121317   2.690   0.987   3.585 -0.8153 -1.3482  2.8603
 3228SOL    HW221318   2.565   0.930   3.528 -0.0235 -1.6358 -0.7908
 3229SOL     OW21319   3.592   3.799   8.841  0.0511  0.4824  0.2786
 3229SOL    HW121320   3.625   3.730   8.898  2.0785  1.2850  0.0683
 3229SOL    HW221321   3.592   3.876   8.897  1.2304 -0.7194  1.9322
 3230SOL     OW21322   1.226   2.701  14.135 -0.1249 -0.1471 -0.1209
 3230SOL    HW121323   1.161   2.686  14.203  1.0131 -0.6694  0.8540
 3230SOL    HW221324   1.169   2.689  14.059  0.7642  1.6132 -1.0663
 3231SOL     OW21325   2.569   1.936   5.439 -0.4487 -0.3142 -0.4159
 3231SOL    HW121326   2.517   1.999   5.389 -1.8310 -0.7427  0.5093
 3231SOL    HW221327   2.655   1.978   5.430 -0.5592 -0.3237 -1.5828
 3232SOL     OW21328   2.171   0.328   6.975  0.4205 -0.2547 -0.5024
 3232SOL    HW121329   2.098   0.381   6.943  0.3091  0.4043  0.8535
 3232SOL    HW221330   2.248   0.385   6.975 -1.2541  2.0156 -1.1594
 3233SOL     OW21331   4.450   0.553   8.580 -0.5293 -0.1487  0.2432
 3233SOL    HW121332   4.544   0.548   8.563 -0.3077  1.7026  0.8950
 3233SOL    HW221333   4.446   0.519   8.670 -1.2811 -0.4516  0.0911
 3234SOL     OW21334   0.323   1.942   6.163 -0.4173  0.0108  0.0650
 3234SOL    HW121335   0.404   1.992   6.170  0.0016 -0.3801 -1.9936
 3234SOL    HW221336   0.250   2.003   6.171  0.1672  0.6421  0.4358
 3235SOL     OW21337   1.355   0.538   3.194  0.1694 -0.4144  0.0195
 3235SOL    HW121338   1.449   0.548   3.207  0.1732  1.0651 -1.0873
 3235SOL    HW221339   1.324   0.570   3.279  3.6439  1.0898  0.7162
 3236SOL     OW21340   3.772   4.112  11.278 -0.0268  0.3910  0.0424
 3236SOL    HW121341   3.711   4.178  11.309 -1.6765 -1.0542 -0.1135
 3236SOL    HW221342   3.847   4.122  11.336  2.2029  0.8700 -2.8867
 3237SOL     OW21343   0.704   1.255   5.998  0.3200  0.7309 -0.5917
 3237SOL    HW121344   0.777   1.262   5.936  1.9368  0.4780  1.2694
 3237SOL    HW221345   0.704   1.161   6.018  0.2519  0.5545 -1.4290
 3238SOL     OW21346   3.628   2.603   5.600  0.1333 -0.0050 -0.3695
 3238SOL    HW121347   3.619   2.556   5.683  2.3917  1.5048  0.7229
 3238SOL    HW221348   3.538   2.592   5.567  1.0161 -2.1362 -2.0347
 3239SOL     OW21349   2.735   1.917  15.110  0.0206  0.0262  0.2463
 3239SOL    HW121350   2.823   1.902  15.075 -0.3823 -1.4847 -0.1433
 3239SOL    HW221351   2.698   1.839  15.067  1.4854  0.1069 -1.1860
 3240SOL     OW21352   3.332   1.848   6.288  0.1569  0.4983 -0.6089
 3240SOL    HW121353   3.368   1.932   6.260 -0.5030  1.7050  2.1640
 3240SOL    HW221354   3.237   1.856   6.278 -0.0543 -0.4345  0.7385
 3241SOL     OW21355   3.930   2.930   6.915 -0.1123  0.0118  0.0546
 3241SOL    HW121356   3.866   2.871   6.956  0.5508 -1.1957 -0.6233
 3241SOL    HW221357   3.875   2.998   6.876 -0.2427  0.4421  0.9975
 3242SOL     OW21358   3.351   0.279   7.582  0.3268 -0.2108  0.2536
 3242SOL    HW121359   3.406   0.330   7.641 -3.1269 -0.0801  3.3086
 3242SOL    HW221360   3.314   0.208   7.635 -2.8166  1.5578  0.3655
 3243SOL     OW21361   2.545   2.778   1.559 -0.2199  0.2875  0.1241
 3243SOL    HW121362   2.587   2.701   1.596  0.5619  0.9058  0.5423
 3243SOL    HW221363   2.476   2.783   1.625 -1.7316  1.2952 -1.5285
 3244SOL     OW21364   0.782   0.345  15.477  0.1225  0.2223  0.3158
 3244SOL    HW121365   0.751   0.282  15.412 -1.3563  0.7875  0.4563
 3244SOL    HW221366   0.695   0.378  15.499 -0.9988 -1.5434 -1.4471
 3245SOL     OW21367   3.843   1.803   9.330  0.5038  0.0206  1.4813
 3245SOL    HW121368   3.753   1.829   9.306 -0.0641 -1.3324  2.1717
 3245SOL    HW221369   3.841   1.836   9.420 -1.4038 -0.7991  1.7481
 3246SOL     OW21370   4.388   0.345   1.442  0.0862  0.1987 -0.0800
 3246SOL    HW121371   4.415   0.255   1.423  0.8487  0.2284  0.8194
 3246SOL    HW221372   4.406   0.354   1.536  0.8456  2.4004 -0.4446
 3247SOL     OW21373   0.557   1.669   4.812 -0.2751 -0.7556 -0.3905
 3247SOL    HW121374   0.575   1.601   4.748 -0.4354 -1.5950  0.4653
 3247SOL    HW221375   0.638   1.673   4.864 -0.8033  1.2886  0.2824
 3248SOL     OW21376   0.092   3.027  10.140 -0.2300  0.0667  0.2152
 3248SOL    HW121377   0.170   2.988  10.099 -0.2274 -0.7050  0.9551
 3248SOL    HW221378   0.033   2.954  10.118 -2.6689  2.3987 -0.8915
 3249SOL     OW21379   1.903   2.260   7.113  0.3508  0.0013  0.9333
 3249SOL    HW121380   1.914   2.178   7.066 -0.1570  0.2877  0.3125
 3249SOL    HW221381   1.876   2.233   7.200 -1.7677  3.4745  1.3620
 3250SOL     OW21382   2.874   2.634  17.631 -0.0703  0.1646  0.2611
 3250SOL    HW121383   2.936   2.702  17.658  0.4998 -0.6954  1.1503
 3250SOL    HW221384   2.901   2.635  17.540  0.7626  1.1110  0.5171
 3251SOL     OW21385   3.613   3.539   1.873  0.3835 -0.3396 -0.4058
 3251SOL    HW121386   3.668   3.479   1.925  0.3504  0.7063  0.8482
 3251SOL    HW221387   3.575   3.579   1.951  0.1715  1.4224 -1.4236
 3252SOL     OW21388   2.456   3.225   3.779  0.0958  0.2132  0.0532
 3252SOL    HW121389   2.537   3.178   3.759  0.7081  1.9333 -1.4491
 3252SOL    HW221390   2.426   3.170   3.851  2.3337  1.3742  1.8640
 3253SOL     OW21391   3.462   1.942   9.206 -0.2733 -0.8303  0.8839
 3253SOL    HW121392   3.491   1.996   9.279 -0.2213 -0.5350  0.6456
 3253SOL    HW221393   3.516   1.977   9.135 -0.9065  0.0037  0.8211
 3254SOL     OW21394   2.875   4.080   3.082 -0.3204  0.2951  0.9653
 3254SOL    HW121395   2.952   4.033   3.051 -1.4703 -0.4079 -0.7966
 3254SOL    HW221396   2.848   4.132   3.007  0.4144  1.9812  1.8617
 3255SOL     OW21397   2.325   0.786   8.570 -0.0621 -0.4101  0.2395
 3255SOL    HW121398   2.318   0.734   8.489 -0.7119 -1.6381  1.0855
 3255SOL    HW221399   2.393   0.843   8.534  1.1388 -1.4531  0.8666
 3256SOL     OW21400   2.603   0.106   9.867 -0.4583  0.0209  0.0348
 3256SOL    HW121401   2.665   0.153   9.922 -2.9800  2.1756  1.0432
 3256SOL    HW221402   2.534   0.092   9.932  0.3138  0.2744  0.9169
 3257SOL     OW21403   3.130   0.116   0.254  0.3616  0.4919 -0.6177
 3257SOL    HW121404   3.218   0.129   0.291 -1.1955  1.2918  2.7866
 3257SOL    HW221405   3.136   0.029   0.214  3.0841 -0.0927  1.0591
 3258SOL     OW21406   3.382   0.705  14.121  0.0559  0.3930  0.3012
 3258SOL    HW121407   3.372   0.626  14.173  0.6143 -0.8565 -1.4860
 3258SOL    HW221408   3.477   0.715  14.120  0.3020 -2.1088  0.4256
 3259SOL     OW21409   0.983   2.641  12.304 -0.5728  0.5112  0.0971
 3259SOL    HW121410   1.073   2.610  12.319 -0.0973  2.5699  1.6000
 3259SOL    HW221411   0.996   2.736  12.316  4.3261  0.0193 -1.2915
 3260SOL     OW21412   1.966   3.462  11.817 -0.4254 -0.9092 -0.2577
 3260SOL    HW121413   2.046   3.508  11.792 -0.8366  1.0023  1.9185
 3260SOL    HW221414   2.005   3.375  11.825  1.7806  0.0549 -0.5142
 3261SOL     OW21415   2.181   3.334   9.576  0.3453 -0.0543  0.1861
 3261SOL    HW121416   2.109   3.397   9.577 -0.7915 -1.3232 -1.3567
 3261SOL    HW221417   2.137   3.254   9.547 -0.9070  0.4447  0.6918
 3262SOL     OW21418   3.798   0.032   6.484 -0.1242 -0.4906  0.3639
 3262SOL    HW121419   3.810   0.096   6.554 -0.6796 -0.1836  0.1730
 3262SOL    HW221420   3.816   4.687   6.530  1.3341 -0.4309 -0.0885
 3263SOL     OW21421   4.055   2.932   5.033  0.4131  0.3712  0.2199
 3263SOL    HW121422   4.046   3.023   5.005  1.2813  0.8137  1.3525
 3263SOL    HW221423   3.980   2.920   5.091  0.7917  1.3436  0.9125
 3264SOL     OW21424   0.680   3.866   5.312 -0.1002 -0.0814 -0.1017
 3264SOL    HW121425   0.759   3.896   5.266 -0.7383  2.3750  0.3862
 3264SOL    HW221426   0.715   3.818   5.387 -0.9823 -1.7831 -0.7906
 3265SOL     OW21427   4.700   0.902   3.305 -0.1109  0.0410  0.2988
 3265SOL    HW121428   0.024   0.971   3.332  0.7166 -0.6827  0.2700
 3265SOL    HW221429   4.662   0.946   3.228 -1.1381 -0.9869  0.2209
 3266SOL     OW21430   4.288   1.139   1.789  0.2134  0.2734 -0.5909
 3266SOL    HW121431   4.224   1.210   1.781  1.3776  1.2797 -0.8888
 3266SOL    HW221432   4.243   1.076   1.844 -2.1481  1.8090 -0.7457
 3267SOL     OW21433   2.517   4.115   8.725  0.0681 -0.0107  0.1541
 3267SOL    HW121434   2.488   4.071   8.805 -0.1388 -1.8501 -0.9427
 3267SOL    HW221435   2.588   4.055   8.700 -0.7736 -0.9579  0.0587
 3268SOL     OW21436   2.700   4.359   9.081  0.8716 -0.3181 -0.0968
 3268SOL    HW121437   2.681   4.364   8.987 -0.1648 -1.9114  0.0432
 3268SOL    HW221438   2.747   4.276   9.091 -0.5225 -1.1357 -0.4338
 3269SOL     OW21439   3.068   3.237  10.167 -0.3724  0.4847  0.0316
 3269SOL    HW121440   3.060   3.233  10.072 -2.0018  3.3846  0.0450
 3269SOL    HW221441   2.978   3.244  10.198  0.0786  0.2789  1.3968
 3270SOL     OW21442   0.674   2.599  15.083  1.1053 -0.2053  0.5045
 3270SOL    HW121443   0.688   2.537  15.154  0.2311 -0.1372  0.7276
 3270SOL    HW221444   0.699   2.682  15.123  2.2959 -0.1903 -0.2626
 3271SOL     OW21445   3.130   3.876   5.449 -0.1280  0.5114 -0.2206
 3271SOL    HW121446   3.083   3.929   5.513  2.7427  1.2821  1.2467
 3271SOL    HW221447   3.193   3.833   5.507  0.8318  0.2042 -1.4973
 3272SOL     OW21448   1.797   0.870   2.220 -0.2389 -0.6629  0.1515
 3272SOL    HW121449   1.804   0.796   2.160 -2.0209 -0.4661 -0.2853
 3272SOL    HW221450   1.765   0.822   2.297  1.8902 -1.2962  0.6508
 3273SOL     OW21451   3.537   2.629   2.305  0.2471 -0.4729  0.5050
 3273SOL    HW121452   3.583   2.666   2.380 -0.4585  0.4610  0.4817
 3273SOL    HW221453   3.583   2.546   2.297 -0.0975 -0.7764  1.5253
 3274SOL     OW21454   0.002   2.645  12.544 -0.2297 -0.4096  0.1344
 3274SOL    HW121455   4.715   2.736  12.523  4.2780  0.1184 -2.8079
 3274SOL    HW221456   0.049   2.652  12.628 -1.2313  0.8805  0.5865
 3275SOL     OW21457   3.320   4.242   8.521  0.2964 -0.0277  0.0342
 3275SOL    HW121458   3.388   4.310   8.525 -0.2742  0.5388 -0.0057
 3275SOL    HW221459   3.358   4.169   8.471  0.6140  0.3693 -0.3134
 3276SOL     OW21460   1.429   1.764   2.124  0.2082 -0.6193  0.0329
 3276SOL    HW121461   1.485   1.815   2.067  0.7233 -1.4226 -0.1825
 3276SOL    HW221462   1.339   1.790   2.105  0.7775  0.9788 -0.4681
 3277SOL     OW21463   3.341   1.575   8.898 -0.0303 -0.0896 -0.2825
 3277SOL    HW121464   3.347   1.482   8.918 -1.1918  0.2170  1.4723
 3277SOL    HW221465   3.423   1.588   8.850  1.4323  0.2317  2.3142
 3278SOL     OW21466   1.018   4.488   5.667  0.1012 -0.6880  0.7585
 3278SOL    HW121467   1.047   4.568   5.710 -0.0349  0.0499 -0.4999
 3278SOL    HW221468   0.946   4.526   5.616  2.0379  1.1095 -0.6280
 3279SOL     OW21469   2.152   1.087   9.609  0.8252  0.1711  0.3576
 3279SOL    HW121470   2.188   1.003   9.639 -1.5601 -1.1312 -0.4607
 3279SOL    HW221471   2.201   1.144   9.668 -1.7373  3.4307 -0.6969
 3280SOL     OW21472   0.223   3.884   5.114 -0.0715  0.3968  0.0424
 3280SOL    HW121473   0.299   3.926   5.155 -0.0409  0.5336 -0.1582
 3280SOL    HW221474   0.222   3.922   5.027  1.4411  2.0571  0.7431
 3281SOL     OW21475   0.825   3.308   5.057  0.7369  0.5631 -1.4245
 3281SOL    HW121476   0.740   3.329   5.018 -0.2639  0.0492  0.4721
 3281SOL    HW221477   0.872   3.392   5.050  2.7442 -0.2676  1.6141
 3282SOL     OW21478   4.247   1.003  16.886  0.2130  0.3539 -1.0807
 3282SOL    HW121479   4.323   0.961  16.845 -0.2497 -0.6139 -0.9391
 3282SOL    HW221480   4.226   1.085  16.840 -0.9854  0.1379 -0.9135
 3283SOL     OW21481   3.939   2.937   3.603 -0.4902 -0.3016 -0.2895
 3283SOL    HW121482   4.017   2.892   3.570  0.0146  0.4991 -0.1909
 3283SOL    HW221483   3.921   2.989   3.524 -0.7647 -1.4239 -0.9542
 3284SOL     OW21484   2.182   0.508  14.347  0.1798  0.1430 -0.2769
 3284SOL    HW121485   2.196   0.602  14.363  3.9586 -0.3254 -0.7304
 3284SOL    HW221486   2.257   0.486  14.401  0.4513  0.3873 -0.5525
 3285SOL     OW21487   2.521   3.375   6.121  0.0333 -0.2454  0.1261
 3285SOL    HW121488   2.535   3.346   6.211  2.1893 -2.3468 -0.8971
 3285SOL    HW221489   2.606   3.361   6.080  0.0338  0.9858 -0.2959
 3286SOL     OW21490   1.594   1.474   4.002 -0.0123  0.2168  0.4160
 3286SOL    HW121491   1.591   1.427   4.085 -0.1299  1.5558  1.1677
 3286SOL    HW221492   1.677   1.520   4.011 -1.1074  1.5609  3.5432
 3287SOL     OW21493   3.209   3.732   0.128  0.0668  0.8217  0.2353
 3287SOL    HW121494   3.126   3.693   0.156  0.5812 -0.6643 -0.3044
 3287SOL    HW221495   3.261   3.744   0.207  0.2480 -1.6822  0.4940
 3288SOL     OW21496   0.840   2.403   6.335 -0.4058 -0.4355 -0.0027
 3288SOL    HW121497   0.774   2.334   6.345 -0.6950 -0.4049 -1.7633
 3288SOL    HW221498   0.844   2.406   6.240 -2.4732  4.0267  0.0753
 3289SOL     OW21499   1.683   3.906  15.663 -0.3731  0.2098  0.4279
 3289SOL    HW121500   1.744   3.948  15.724  0.2808 -1.3527  0.8417
 3289SOL    HW221501   1.718   3.817  15.657 -0.8120 -0.1239  2.7927
 3290SOL     OW21502   2.154   4.362   4.696 -0.5617 -0.3895  0.0465
 3290SOL    HW121503   2.138   4.268   4.710  1.1606 -0.3383  2.3047
 3290SOL    HW221504   2.249   4.367   4.707 -0.7383  0.7348  0.9850
 3291SOL     OW21505   1.216   4.281   2.603 -0.2275 -0.4030 -0.3725
 3291SOL    HW121506   1.143   4.325   2.646  0.8538  1.3901 -0.4071
 3291SOL    HW221507   1.180   4.276   2.514  0.0991 -1.4020 -0.4483
 3292SOL     OW21508   3.796   4.735  10.771  0.2838 -0.0929  0.6113
 3292SOL    HW121509   3.885   0.000  10.735 -0.2129 -0.8206 -0.7044
 3292SOL    HW221510   3.758   4.647  10.770 -0.3928  0.2151 -2.2428
 3293SOL     OW21511   0.882   1.794  13.148  0.2287  0.2222 -0.4424
 3293SOL    HW121512   0.952   1.850  13.113  0.1799  0.3094 -0.4012
 3293SOL    HW221513   0.804   1.832  13.106 -0.8713 -0.4345  0.9964
 3294SOL     OW21514   3.537   1.067  15.763 -0.5065 -0.4640  0.3005
 3294SOL    HW121515   3.564   1.034  15.677 -0.7445  1.5319 -0.5301
 3294SOL    HW221516   3.461   1.121  15.742  1.0137  1.8183  0.7511
 3295SOL     OW21517   2.472   1.732  10.744  0.5471 -0.2507  0.4545
 3295SOL    HW121518   2.482   1.696  10.832 -0.8880 -0.9581  0.3244
 3295SOL    HW221519   2.533   1.677  10.695 -1.4728 -1.5641 -0.6258
 3296SOL     OW21520   0.655   1.362   8.277 -0.2467 -0.3720 -0.0014
 3296SOL    HW121521   0.695   1.368   8.364  0.0078 -2.8495  0.0635
 3296SOL    HW221522   0.737   1.361   8.228 -1.3403 -0.2913 -1.7969
 3297SOL     OW21523   2.367   2.210   6.341 -0.3499  0.2284 -0.2497
 3297SOL    HW121524   2.399   2.165   6.420  1.1047  0.4067 -0.7419
 3297SOL    HW221525   2.276   2.229   6.364 -0.7638 -2.0149 -0.0094
 3298SOL     OW21526   4.390   0.096   7.081 -0.7460  0.4808  0.9057
 3298SOL    HW121527   4.302   0.099   7.118 -0.2901  1.5630  1.8905
 3298SOL    HW221528   4.443   0.039   7.135  1.4548  3.3635  1.7769
 3299SOL     OW21529   3.002   2.568   5.452 -0.1719 -0.0281 -0.6540
 3299SOL    HW121530   3.050   2.493   5.487 -0.0662  0.3193 -0.0608
 3299SOL    HW221531   2.913   2.534   5.458 -0.6563  0.8111 -3.2595
 3300SOL     OW21532   0.188   4.710   0.186  0.1296 -0.1779 -0.2369
 3300SOL    HW121533   0.270   4.731   0.230 -0.2920  1.2213 -0.1165
 3300SOL    HW221534   0.217   4.702   0.095 -0.9256  1.6906 -0.7243
 3301SOL     OW21535   0.826   3.433   4.179 -0.2101  0.0106 -0.0909
 3301SOL    HW121536   0.882   3.508   4.157  2.3353 -2.2507 -1.4717
 3301SOL    HW221537   0.854   3.365   4.118  0.5278 -0.1969  0.4849
 3302SOL     OW21538   4.234   1.158   6.942  0.1363 -0.0996 -0.3320
 3302SOL    HW121539   4.268   1.070   6.958 -0.5263 -0.0955  1.1206
 3302SOL    HW221540   4.150   1.136   6.901  0.0407 -0.9593  0.3235
 3303SOL     OW21541   2.965   3.065   8.685 -0.9910 -0.0564 -0.7336
 3303SOL    HW121542   2.903   3.002   8.721  1.0410 -1.2128  0.7661
 3303SOL    HW221543   2.914   3.141   8.658 -2.0804 -0.7063 -0.5371
 3304SOL     OW21544   2.557   1.962   1.053  0.1150 -0.0017  0.2966
 3304SOL    HW121545   2.466   1.934   1.060  0.1070  0.5335  2.3427
 3304SOL    HW221546   2.603   1.889   1.094  0.9276  1.3946  1.8561
 3305SOL     OW21547   1.422   1.672   6.002 -0.0217  0.2158 -0.7423
 3305SOL    HW121548   1.398   1.709   6.087  1.8091 -1.4881  0.5207
 3305SOL    HW221549   1.501   1.723   5.980  0.2642  0.3951  0.7381
 3306SOL     OW21550   0.751   0.136  17.529  0.4898  0.5653  0.1235
 3306SOL    HW121551   0.710   0.194  17.594  0.2051 -0.0413  0.4831
 3306SOL    HW221552   0.713   0.052  17.555 -1.1224  1.9506  2.2712
 3307SOL     OW21553   4.115   4.224   4.874  0.3093 -0.1763  0.0769
 3307SOL    HW121554   4.100   4.312   4.840  1.0009  0.4835  1.4432
 3307SOL    HW221555   4.088   4.172   4.799  3.0715  0.4977 -1.3615
 3308SOL     OW21556   1.037   2.799   1.944  1.2350  0.1696  0.8571
 3308SOL    HW121557   1.001   2.721   1.901 -0.4833  1.5073 -0.0920
 3308SOL    HW221558   0.965   2.861   1.946  1.2661  0.1707  2.1761
 3309SOL     OW21559   0.776   4.585   2.769 -0.2374 -0.1485  0.3109
 3309SOL    HW121560   0.766   4.630   2.852 -0.8898  0.1491  0.0739
 3309SOL    HW221561   0.687   4.567   2.737 -0.2866  1.4543 -0.4538
 3310SOL     OW21562   4.063   3.164   9.264  0.0825 -0.1972 -0.3113
 3310SOL    HW121563   4.116   3.210   9.199 -0.9984  2.3712  0.6500
 3310SOL    HW221564   4.041   3.232   9.327  1.2441 -0.1170 -0.0052
 3311SOL     OW21565   0.711   2.506   4.997 -0.6539 -0.5367 -0.0886
 3311SOL    HW121566   0.784   2.509   5.058  0.0421 -0.9752 -0.8968
 3311SOL    HW221567   0.688   2.599   5.000  1.6597  0.0910 -2.6512
 3312SOL     OW21568   4.307   4.024   9.390  0.0439 -0.6941 -0.2670
 3312SOL    HW121569   4.239   3.964   9.419 -1.7075  1.8231  0.8196
 3312SOL    HW221570   4.337   4.038   9.480 -1.7891 -1.0957  0.3974
 3313SOL     OW21571   0.431   1.064   9.081 -0.0066  0.3970  0.1547
 3313SOL    HW121572   0.453   1.098   9.168 -0.5824  0.5151  0.2547
 3313SOL    HW221573   0.394   0.979   9.105  0.4911 -0.0999 -0.8374
 3314SOL     OW21574   0.053   2.468   7.559  0.1642 -0.2022 -0.7406
 3314SOL    HW121575   0.105   2.417   7.497  0.6259 -1.5939  0.8101
 3314SOL    HW221576   0.118   2.485   7.627  1.1527 -0.4205 -1.6255
 3315SOL     OW21577   2.401   0.579   3.309  0.3255  0.1696 -0.0414
 3315SOL    HW121578   2.419   0.494   3.268 -1.5487 -0.2969  0.0714
 3315SOL    HW221579   2.307   0.583   3.289  0.2455  0.2991  0.3511
 3316SOL     OW21580   0.696   3.084  14.320 -0.1242  0.3248 -0.0499
 3316SOL    HW121581   0.723   3.023  14.389  1.2482  0.8601 -0.1065
 3316SOL    HW221582   0.747   3.163  14.337 -1.1617  0.9907 -0.0663
 3317SOL     OW21583   1.496   0.475   6.586 -0.2049  0.1557 -0.1509
 3317SOL    HW121584   1.456   0.398   6.544 -2.4736  0.5381  1.3216
 3317SOL    HW221585   1.543   0.438   6.660 -0.5851  0.8183  0.4149
 3318SOL     OW21586   3.436   4.204   6.670 -0.2017  0.6042  0.4208
 3318SOL    HW121587   3.454   4.209   6.576 -0.1097 -0.5256  0.3719
 3318SOL    HW221588   3.342   4.183   6.667  0.3724 -1.4464 -3.6466
 3319SOL     OW21589   4.306   4.384   7.881  0.3494  0.3386 -0.4231
 3319SOL    HW121590   4.325   4.291   7.893  0.5841  0.4604  0.1482
 3319SOL    HW221591   4.229   4.390   7.938  0.4666 -1.6439 -0.0339
 3320SOL     OW21592   3.373   3.507   5.448 -0.6089  0.2366 -0.3051
 3320SOL    HW121593   3.407   3.524   5.360 -0.5552  1.4565 -0.0505
 3320SOL    HW221594   3.306   3.444   5.424 -1.2590  1.1430 -0.8561
 3321SOL     OW21595   2.195   2.560   3.055 -0.0332 -0.0938 -0.1053
 3321SOL    HW121596   2.257   2.610   3.001  1.3817 -0.2267  1.3857
 3321SOL    HW221597   2.170   2.630   3.115  0.2797  0.1104 -0.2140
 3322SOL     OW21598   3.145   2.946  10.165  0.2363 -0.5871 -0.5105
 3322SOL    HW121599   3.228   2.959  10.211  0.1809 -1.5630 -0.1531
 3322SOL    HW221600   3.119   3.039  10.164 -0.7280 -0.8585 -2.3861
 3323SOL     OW21601   4.543   1.619   8.578  0.2127 -0.9501  0.2061
 3323SOL    HW121602   4.486   1.604   8.654 -1.2535 -1.3388 -0.9778
 3323SOL    HW221603   4.615   1.558   8.595  0.4017 -1.3012 -1.9018
 3324SOL     OW21604   4.693   3.044   7.639 -0.3173 -0.1774 -0.0282
 3324SOL    HW121605   4.697   3.012   7.730  0.1518  0.8094  0.2964
 3324SOL    HW221606   4.645   3.125   7.655  1.1514  0.5908  0.4861
 3325SOL     OW21607   3.156   1.548   2.422  0.0566 -0.1428 -0.7844
 3325SOL    HW121608   3.136   1.467   2.376 -1.3819  0.7757 -1.7935
 3325SOL    HW221609   3.069   1.586   2.440 -0.1961 -1.0643 -0.0663
 3326SOL     OW21610   0.753   2.988   3.248 -0.6142 -0.4585  0.0598
 3326SOL    HW121611   0.696   3.064   3.235 -2.0975 -1.3039  1.5844
 3326SOL    HW221612   0.715   2.915   3.199  1.5108 -2.2100  1.0056
 3327SOL     OW21613   0.847   4.332   7.820 -0.1623  0.3594  0.2649
 3327SOL    HW121614   0.752   4.322   7.826 -0.6013  2.6518 -2.8581
 3327SOL    HW221615   0.870   4.377   7.901 -0.3073 -0.1750  0.6051
 3328SOL     OW21616   0.538   2.792  15.830 -0.2630  0.4051 -0.0179
 3328SOL    HW121617   0.484   2.713  15.835  0.9336 -0.2874  2.1195
 3328SOL    HW221618   0.559   2.800  15.923  1.0114 -0.7337 -0.1983
 3329SOL     OW21619   1.063   3.877  16.019 -0.4861 -0.0017 -0.4449
 3329SOL    HW121620   1.126   3.924  16.074  1.6122 -1.3563 -1.7347
 3329SOL    HW221621   1.036   3.950  15.964  1.5427  2.0106  1.2100
 3330SOL     OW21622   0.283   4.468   1.329 -0.6035  0.1634  0.3632
 3330SOL    HW121623   0.371   4.438   1.306  0.2133  1.0612  2.3415
 3330SOL    HW221624   0.310   4.539   1.387  0.1456 -1.3872  1.9127
 3331SOL     OW21625   0.919   4.727   7.311 -0.5780 -0.6708 -0.0229
 3331SOL    HW121626   0.930   4.678   7.230 -2.0303 -1.2557  0.1460
 3331SOL    HW221627   0.941   0.078   7.282  0.0396 -0.9753 -0.4984
 3332SOL     OW21628   1.908   4.366  11.967 -0.0156 -0.0130 -0.0613
 3332SOL    HW121629   1.905   4.401  12.057  1.9981 -0.3923  0.1595
 3332SOL    HW221630   2.003   4.364  11.951  0.5292  1.0080  2.9732
 3333SOL     OW21631   4.463   0.109  17.368  0.6126  0.3514 -0.0476
 3333SOL    HW121632   4.500   0.066  17.291 -0.5946  0.2334 -0.5641
 3333SOL    HW221633   4.472   0.198  17.334  1.9426  0.5517  0.8128
 3334SOL     OW21634   1.170   1.043   7.472 -0.0138  0.6615 -0.1797
 3334SOL    HW121635   1.106   1.106   7.438 -1.7186 -0.7044  0.4829
 3334SOL    HW221636   1.132   1.011   7.554  1.1549  0.8270  0.4213
 3335SOL     OW21637   1.769   0.687   7.371  0.0934 -0.3099  0.3666
 3335SOL    HW121638   1.694   0.628   7.359  0.9193 -1.1963 -0.3437
 3335SOL    HW221639   1.778   0.702   7.277 -1.3244 -0.5609  0.1784
 3336SOL     OW21640   1.580   2.301   9.644 -0.7873 -0.1421  0.2600
 3336SOL    HW121641   1.546   2.214   9.623  1.1228 -1.1137  1.1671
 3336SOL    HW221642   1.596   2.310   9.738 -1.1285  2.0038  0.1150
 3337SOL     OW21643   4.566   3.709   3.583 -0.1069 -0.2236 -0.4042
 3337SOL    HW121644   4.558   3.768   3.508  0.2934  0.8750  0.4131
 3337SOL    HW221645   4.577   3.768   3.658  1.4885 -0.4784 -0.4448
 3338SOL     OW21646   2.831   0.322   3.884  0.4319 -0.2029 -0.0056
 3338SOL    HW121647   2.859   0.372   3.807  1.5604 -0.9509 -0.0842
 3338SOL    HW221648   2.736   0.310   3.876  0.1888  0.7613  1.5040
 3339SOL     OW21649   4.308   2.054   7.356  0.0299  0.1883 -0.0548
 3339SOL    HW121650   4.306   1.982   7.292  0.6022  0.4505 -0.3658
 3339SOL    HW221651   4.401   2.041   7.373 -0.0890  1.7390  1.7887
 3340SOL     OW21652   3.352   2.446   3.034 -0.1713 -0.0164 -0.0738
 3340SOL    HW121653   3.319   2.440   3.124 -1.6559  0.7579 -0.5658
 3340SOL    HW221654   3.297   2.382   2.988  1.5180 -2.2640  1.0193
 3341SOL     OW21655   2.833   2.530   9.716  0.2122 -0.5781  0.1386
 3341SOL    HW121656   2.818   2.542   9.810  2.3914  0.7043  0.3094
 3341SOL    HW221657   2.769   2.592   9.681  1.3812  0.8198  0.4820
 3342SOL     OW21658   1.100   2.568   1.711 -0.5891  0.2114  0.2629
 3342SOL    HW121659   1.037   2.567   1.783 -1.9545 -0.2708 -0.9662
 3342SOL    HW221660   1.037   2.538   1.646  1.7148  1.7656 -2.7281
 3343SOL     OW21661   0.498   0.929   4.246 -0.3643 -0.6527 -0.2005
 3343SOL    HW121662   0.452   0.928   4.330  0.6611 -1.2435  0.3476
 3343SOL    HW221663   0.467   0.846   4.211  0.0688 -0.7950 -0.2516
 3344SOL     OW21664   1.407   2.889   8.653 -0.6983 -0.5187  0.8627
 3344SOL    HW121665   1.480   2.950   8.660 -1.9244  0.9209  1.0145
 3344SOL    HW221666   1.441   2.845   8.575 -0.3648 -1.9994  1.8479
 3345SOL     OW21667   0.481   4.054   1.253  0.0829  0.0037 -0.0555
 3345SOL    HW121668   0.441   4.019   1.333 -1.5681  0.4438 -0.6796
 3345SOL    HW221669   0.539   3.985   1.218 -1.2522 -2.3020  2.2675
 3346SOL     OW21670   2.479   2.418   5.204  0.2286  0.5498  0.2750
 3346SOL    HW121671   2.563   2.463   5.220  0.8634 -0.2456 -0.8236
 3346SOL    HW221672   2.438   2.427   5.290 -0.4185 -1.4161  0.1651
 3347SOL     OW21673   3.069   1.347   5.753  0.8222  0.0549  0.1316
 3347SOL    HW121674   3.034   1.378   5.669 -1.1436  0.0879  0.9771
 3347SOL    HW221675   3.154   1.390   5.748  0.9417 -0.2674 -0.6593
 3348SOL     OW21676   1.444   1.447   3.300  0.0890  0.2067  0.1459
 3348SOL    HW121677   1.415   1.458   3.391  1.4122 -0.8430  0.6921
 3348SOL    HW221678   1.539   1.452   3.311  0.0707  0.0646  0.3652
 3349SOL     OW21679   1.207   2.508   3.777 -0.0142  0.6738 -0.0825
 3349SOL    HW121680   1.157   2.431   3.751  1.2985 -0.9155  2.0526
 3349SOL    HW221681   1.184   2.522   3.869 -2.2260  0.2401 -0.5748
 3350SOL     OW21682   4.500   0.197   7.429 -0.0146  0.1336 -0.6359
 3350SOL    HW121683   4.448   0.127   7.388 -1.8505  2.2340 -1.9018
 3350SOL    HW221684   4.587   0.189   7.390 -0.0199 -2.8615 -0.0710
 3351SOL     OW21685   2.643   1.481   3.393 -0.1259 -0.6469 -0.1942
 3351SOL    HW121686   2.602   1.484   3.479  1.7816 -0.6986  0.7140
 3351SOL    HW221687   2.686   1.397   3.412  0.0534  0.1436  2.8509
 3352SOL     OW21688   3.379   3.778   3.392  0.0110  0.0686 -0.3251
 3352SOL    HW121689   3.393   3.731   3.310 -0.1461  0.7698 -0.7538
 3352SOL    HW221690   3.362   3.711   3.458  3.4828 -0.0852  0.3829
 3353SOL     OW21691   3.903   3.257   5.586 -0.1405  0.3751  0.1883
 3353SOL    HW121692   3.941   3.342   5.563 -1.1312  0.7523 -0.0408
 3353SOL    HW221693   3.814   3.287   5.604 -0.6659 -0.6685 -0.7033
 3354SOL     OW21694   2.078   2.554  16.047 -0.3383 -0.5159 -0.1093
 3354SOL    HW121695   2.157   2.588  16.088  1.1414 -3.7806 -0.2904
 3354SOL    HW221696   2.099   2.520  15.960 -0.9208 -0.7487 -0.1628
 3355SOL     OW21697   0.268   0.957   1.335  0.6775 -0.6030 -0.5364
 3355SOL    HW121698   0.333   0.921   1.395 -0.3061  0.3480  1.1096
 3355SOL    HW221699   0.302   1.040   1.303  0.0653  0.1653  0.7964
 3356SOL     OW21700   0.592   1.152   8.072 -0.5754  0.1952 -0.7730
 3356SOL    HW121701   0.631   1.213   8.135 -0.8880  0.7606 -1.1322
 3356SOL    HW221702   0.515   1.201   8.042 -0.6909  0.7657  0.4372
 3357SOL     OW21703   0.079   4.342   2.979  0.1095 -0.3915  0.3829
 3357SOL    HW121704   0.005   4.380   3.026 -0.0043 -1.5184  1.1101
 3357SOL    HW221705   0.146   4.344   3.046  0.9625 -1.1874 -0.4451
 3358SOL     OW21706   2.959   0.918   7.495  0.3603  0.2681  0.0761
 3358SOL    HW121707   2.985   0.878   7.412  1.0811  0.6130  0.1301
 3358SOL    HW221708   2.899   0.847   7.515 -1.3727  1.8120  0.3466
 3359SOL     OW21709   4.486   3.743   3.023  0.4919  0.2104  0.4125
 3359SOL    HW121710   4.493   3.650   2.999  0.8724  0.3793 -0.1574
 3359SOL    HW221711   4.411   3.771   2.970 -1.2899 -1.2761  2.1597
 3360SOL     OW21712   3.689   0.154   8.417  0.6552 -0.6498 -0.4913
 3360SOL    HW121713   3.723   0.168   8.328  0.6645 -1.0655 -0.5518
 3360SOL    HW221714   3.737   0.224   8.461  1.1647 -0.6085 -1.0927
 3361SOL     OW21715   1.469   1.041   2.512  0.5179  0.4431 -0.2686
 3361SOL    HW121716   1.502   1.130   2.508  0.6955  0.2889 -1.9884
 3361SOL    HW221717   1.553   0.995   2.500  1.4963  2.1470  0.0218
 3362SOL     OW21718   3.136   3.155   8.167  0.0576 -0.0695 -0.1628
 3362SOL    HW121719   3.158   3.196   8.083 -1.2967 -1.0686 -1.0027
 3362SOL    HW221720   3.182   3.072   8.161 -0.4698 -0.4342  0.9586
 3363SOL     OW21721   1.693   2.116   8.080  0.8404 -0.2426  0.4328
 3363SOL    HW121722   1.637   2.120   8.002 -1.2617  0.1647  1.9756
 3363SOL    HW221723   1.754   2.187   8.062 -0.0981  0.4104 -0.2211
 3364SOL     OW21724   1.722   0.955   3.539 -0.0984 -0.4237 -0.1708
 3364SOL    HW121725   1.721   1.021   3.469  0.6919  0.3610  0.5565
 3364SOL    HW221726   1.705   0.876   3.487  1.2988  0.5665 -2.1317
 3365SOL     OW21727   0.601   3.158   6.683  0.0411 -0.1943  0.8585
 3365SOL    HW121728   0.566   3.138   6.770 -0.9839 -0.7623  0.3149
 3365SOL    HW221729   0.517   3.165   6.637 -0.1295 -0.2421  1.1672
 3366SOL     OW21730   2.380   2.104   5.313  0.1156  0.0929 -0.1581
 3366SOL    HW121731   2.387   2.193   5.346  1.7198  0.4233 -1.4186
 3366SOL    HW221732   2.308   2.075   5.370 -0.8532  0.1570 -1.3429
 3367SOL     OW21733   1.055   0.665   9.376 -0.0514  0.0243  0.0340
 3367SOL    HW121734   1.000   0.626   9.444  0.1992 -0.5040 -0.0613
 3367SOL    HW221735   0.996   0.703   9.311 -0.2638 -0.1559  0.1197
 3368SOL     OW21736   2.422   0.148   8.732 -0.6688  0.4070  0.0576
 3368SOL    HW121737   2.370   0.071   8.759 -0.2369 -0.1408 -0.6836
 3368SOL    HW221738   2.418   0.197   8.815 -0.6576  3.1001 -1.5444
 3369SOL     OW21739   3.502   1.095  16.174  0.6224  0.5638 -0.4825
 3369SOL    HW121740   3.587   1.114  16.213 -1.1731  2.6648  2.4011
 3369SOL    HW221741   3.457   1.073  16.256 -1.4249  1.2307 -1.4065
 3370SOL     OW21742   0.180   3.180   2.484 -0.4820  0.1014 -0.8460
 3370SOL    HW121743   0.268   3.197   2.518 -0.9221  0.8581 -0.0787
 3370SOL    HW221744   0.131   3.247   2.532  0.5254  0.5254 -0.3913
 3371SOL     OW21745   3.069   3.055  11.847  0.7344 -0.9008  0.1207
 3371SOL    HW121746   3.070   2.960  11.842 -1.3608 -0.7376 -2.9517
 3371SOL    HW221747   3.163   3.077  11.847  0.5066  0.0883  0.7116
 3372SOL     OW21748   3.434   4.423   0.824 -0.0096  0.0286 -0.7707
 3372SOL    HW121749   3.379   4.347   0.843 -0.7263  0.4615 -1.1093
 3372SOL    HW221750   3.500   4.413   0.893 -0.1140  1.4100 -0.4616
 3373SOL     OW21751   1.143   2.536   2.888  0.2687 -0.6531 -0.1356
 3373SOL    HW121752   1.229   2.571   2.911  0.1096 -0.4594  0.1737
 3373SOL    HW221753   1.152   2.441   2.900 -1.6937 -1.0104 -1.5060
 3374SOL     OW21754   2.427   0.655   1.713 -0.0414  0.1658 -0.2954
 3374SOL    HW121755   2.417   0.694   1.800  0.1399 -1.6629  0.5613
 3374SOL    HW221756   2.339   0.670   1.678 -0.2012 -1.5076 -0.6363
 3375SOL     OW21757   2.003   3.359  12.102  0.3296  0.2444 -0.0053
 3375SOL    HW121758   1.978   3.429  12.041 -0.0904  0.4972  0.4512
 3375SOL    HW221759   2.085   3.392  12.138 -0.2163  0.6481  0.8805
 3376SOL     OW21760   4.707   2.817   2.630  0.3012  0.1372 -0.7169
 3376SOL    HW121761   0.057   2.853   2.645  0.0651 -0.0460  1.0158
 3376SOL    HW221762   4.702   2.822   2.534  4.4553 -0.2085 -0.9541
 3377SOL     OW21763   1.023   0.348   0.363 -0.3688  0.4039  0.0332
 3377SOL    HW121764   0.949   0.325   0.420 -1.8461  3.5645 -0.5453
 3377SOL    HW221765   1.082   0.395   0.422 -0.4572 -0.2110  0.6050
 3378SOL     OW21766   4.187   1.256  16.743 -0.3656  0.1428  0.0044
 3378SOL    HW121767   4.181   1.279  16.651  0.4711  0.8268  0.1268
 3378SOL    HW221768   4.143   1.330  16.784 -2.3611 -0.4995 -0.9548
 3379SOL     OW21769   1.427   3.814   1.810  0.0269  0.1660 -0.0756
 3379SOL    HW121770   1.366   3.830   1.882  2.4915  1.0158  1.8386
 3379SOL    HW221771   1.503   3.865   1.838  0.9760 -0.8970 -0.7147
 3380SOL     OW21772   0.874   1.098   9.960  0.1877  0.4347  0.2096
 3380SOL    HW121773   0.941   1.167   9.961  0.3177  0.3021  0.9898
 3380SOL    HW221774   0.848   1.084  10.051 -0.0503 -1.0041 -0.0892
 3381SOL     OW21775   4.232   3.655   5.363 -0.0224 -0.1332  0.0651
 3381SOL    HW121776   4.259   3.599   5.291 -2.3518 -0.6066 -0.4632
 3381SOL    HW221777   4.267   3.614   5.442  1.2189  0.9163  0.0648
 3382SOL     OW21778   2.780   1.902  15.705 -0.1191 -0.2517  0.1768
 3382SOL    HW121779   2.850   1.890  15.642  0.4796  1.7504  0.4577
 3382SOL    HW221780   2.727   1.825  15.687 -1.0743  0.3817  0.2458
 3383SOL     OW21781   2.472   1.306   3.934  0.1203  0.3587 -0.3909
 3383SOL    HW121782   2.414   1.280   4.005 -0.6613  0.5339 -0.9630
 3383SOL    HW221783   2.429   1.264   3.860  1.6645 -2.4000  0.3074
 3384SOL     OW21784   2.029   2.764   2.578  0.0617  0.3957 -0.0393
 3384SOL    HW121785   2.095   2.710   2.622 -1.9067 -0.9838  1.2764
 3384SOL    HW221786   2.070   2.774   2.492 -1.1685 -1.5716 -0.8743
 3385SOL     OW21787   3.280   4.072   5.752 -0.5060 -0.1256  0.8809
 3385SOL    HW121788   3.323   4.057   5.667 -1.5302  1.1027  0.1510
 3385SOL    HW221789   3.254   4.164   5.759 -2.0458 -0.5648  0.8603
 3386SOL     OW21790   0.829   1.897   8.111  0.7059  0.4545 -0.3540
 3386SOL    HW121791   0.906   1.888   8.167 -0.0665 -1.3177  0.4291
 3386SOL    HW221792   0.775   1.952   8.167  1.2065 -1.0380  1.5859
 3387SOL     OW21793   3.855   1.486   6.511 -0.6231 -0.0043 -0.2593
 3387SOL    HW121794   3.900   1.517   6.589 -2.2073  0.1160  0.6128
 3387SOL    HW221795   3.928   1.440   6.469  0.9651  0.9058  1.5090
 3388SOL     OW21796   0.064   2.040   8.103  0.6967  0.4083 -0.6012
 3388SOL    HW121797   0.039   2.033   8.195 -1.3692  1.6571 -1.0829
 3388SOL    HW221798   0.159   2.035   8.114  0.7644  1.8737 -0.5749
 3389SOL     OW21799   2.517   2.292   3.727  0.5508  0.3564 -0.3966
 3389SOL    HW121800   2.479   2.243   3.800  1.8482 -0.6720 -0.4141
 3389SOL    HW221801   2.554   2.222   3.673 -2.5992 -0.7232 -1.1887
 3390SOL     OW21802   2.999   2.250   4.497 -0.2714  0.5057 -0.0619
 3390SOL    HW121803   3.010   2.233   4.591 -2.0024 -0.7872 -0.0787
 3390SOL    HW221804   3.071   2.196   4.465 -1.5311  0.3442 -2.6718
 3391SOL     OW21805   0.574   1.594  10.355  0.1968 -0.0665 -0.0826
 3391SOL    HW121806   0.578   1.519  10.295 -1.2921 -0.0123 -0.2404
 3391SOL    HW221807   0.660   1.585  10.395 -0.1268 -3.0807 -0.0628
 3392SOL     OW21808   0.268   3.992   8.665 -0.0093  0.3183 -0.1397
 3392SOL    HW121809   0.312   4.077   8.653 -1.2944  1.1048  0.7019
 3392SOL    HW221810   0.212   3.985   8.587 -0.5626  1.1100  0.1841
 3393SOL     OW21811   4.183   0.179   1.685 -0.2469  0.2678 -0.0398
 3393SOL    HW121812   4.118   0.125   1.640 -0.3969  1.8081 -1.6396
 3393SOL    HW221813   4.266   0.131   1.682 -0.7483 -0.6042  0.0397
 3394SOL     OW21814   1.020   0.151   4.017  0.8890  1.0191 -0.2788
 3394SOL    HW121815   0.977   0.138   4.101 -1.8474 -0.7951 -1.9787
 3394SOL    HW221816   1.047   0.243   4.028  1.4281  0.6513  1.5371
 3395SOL     OW21817   0.110   3.462   2.953 -0.5896 -0.2429  0.1449
 3395SOL    HW121818   0.132   3.439   2.863 -2.1749  2.3901 -0.8981
 3395SOL    HW221819   0.054   3.539   2.951 -0.4079 -0.0621  2.1462
 3396SOL     OW21820   4.713   0.357  14.964 -0.0732  0.6557  0.8190
 3396SOL    HW121821   4.716   0.420  14.893 -5.4060 -0.1517 -0.0873
 3396SOL    HW221822   4.736   0.279  14.913  0.8347  1.4265  0.0531
 3397SOL     OW21823   2.118   3.911   1.023 -0.1831  0.5524 -0.3376
 3397SOL    HW121824   2.157   3.967   0.956  2.7488 -3.1167 -1.6839
 3397SOL    HW221825   2.091   3.845   0.959 -0.9187  1.1272 -0.6190
 3398SOL     OW21826   1.774   2.983  13.352 -0.6465 -0.1350 -0.6089
 3398SOL    HW121827   1.824   3.017  13.426 -1.8411  0.0760  0.0981
 3398SOL    HW221828   1.705   3.046  13.331 -0.0211  0.6092 -0.4466
 3399SOL     OW21829   1.637   0.086   6.865 -0.0899  0.1696 -0.6598
 3399SOL    HW121830   1.718   0.123   6.902 -0.1435 -2.4636  2.0172
 3399SOL    HW221831   1.632   4.735   6.901 -0.5155  0.1517 -0.7691
 3400SOL     OW21832   2.756   3.006   8.024 -1.0511  0.2192 -0.0888
 3400SOL    HW121833   2.686   3.023   8.087 -1.7693  0.4166 -0.9404
 3400SOL    HW221834   2.723   2.930   7.976 -0.6846  0.6452 -0.9978
 3401SOL     OW21835   3.983   4.621   3.210 -0.1230  0.0128  0.2570
 3401SOL    HW121836   4.015   4.643   3.122  1.2162 -0.4387  0.6366
 3401SOL    HW221837   4.056   4.576   3.253 -0.2713 -0.3036  0.1811
 3402SOL     OW21838   0.461   4.098   8.292  0.2345  0.2861 -0.3818
 3402SOL    HW121839   0.507   4.082   8.374 -0.4880 -1.3503 -0.2939
 3402SOL    HW221840   0.524   4.158   8.253 -0.1232 -0.1190 -1.5770
 3403SOL     OW21841   0.649   0.459  12.504 -0.2911 -0.0006 -0.2558
 3403SOL    HW121842   0.651   0.374  12.547 -2.2575 -0.0076 -0.1909
 3403SOL    HW221843   0.615   0.433  12.418  0.3329  2.3761 -1.2223
 3404SOL     OW21844   3.083   1.573  17.209  0.3680 -0.0878  0.6377
 3404SOL    HW121845   3.177   1.594  17.207  0.4659 -0.6871 -0.7964
 3404SOL    HW221846   3.068   1.616  17.125 -1.1555 -2.0233 -0.0668
 3405SOL     OW21847   0.675   3.075   4.093 -0.2201  0.0616 -0.5063
 3405SOL    HW121848   0.598   3.091   4.147  0.3354  0.6977  0.0819
 3405SOL    HW221849   0.746   3.095   4.154  1.5031 -0.4586 -2.3384
 3406SOL     OW21850   4.388   2.670  16.100  0.3998 -0.3326 -0.1178
 3406SOL    HW121851   4.335   2.727  16.156  0.7332 -0.1530  0.0093
 3406SOL    HW221852   4.371   2.588  16.146  0.4907  0.2511  0.9525
 3407SOL     OW21853   3.975   4.198  14.407 -0.1080  0.2697 -0.3653
 3407SOL    HW121854   4.036   4.151  14.350  0.3103  0.3344  0.0249
 3407SOL    HW221855   3.894   4.168  14.366  0.9653 -1.1464 -1.4559
 3408SOL     OW21856   0.108   1.652   8.404  0.5793 -0.3069  0.5066
 3408SOL    HW121857   0.067   1.738   8.395  1.2847  0.1511  1.6222
 3408SOL    HW221858   0.193   1.667   8.362  0.2641  0.2523  0.0666
 3409SOL     OW21859   1.433   0.478   1.311  0.2495 -0.1883  0.1621
 3409SOL    HW121860   1.526   0.454   1.305 -0.0053 -0.8264 -1.1765
 3409SOL    HW221861   1.396   0.480   1.223  0.1967 -2.0152  0.1418
 3410SOL     OW21862   2.835   2.685  13.133 -0.0629  0.7255 -0.2667
 3410SOL    HW121863   2.764   2.638  13.089 -0.4016  2.2652 -1.3347
 3410SOL    HW221864   2.893   2.689  13.057  1.3856  0.8333  0.8279
 3411SOL     OW21865   4.677   4.633  13.035 -0.2938  0.2723 -0.2923
 3411SOL    HW121866   4.629   4.596  12.961  0.7534  3.0959 -2.3715
 3411SOL    HW221867   4.640   4.572  13.098  0.7981 -1.8598 -1.7050
 3412SOL     OW21868   0.800   1.419  15.645  0.5904  0.4681  0.1163
 3412SOL    HW121869   0.781   1.346  15.586 -2.9659  1.1968  0.3382
 3412SOL    HW221870   0.810   1.366  15.725  1.4262  1.7471  0.8559
 3413SOL     OW21871   1.551   3.440   6.877  0.3248 -0.0308  0.2525
 3413SOL    HW121872   1.615   3.379   6.914 -0.0473 -2.1173 -2.5132
 3413SOL    HW221873   1.563   3.526   6.917  1.7692  0.1672 -0.5699
 3414SOL     OW21874   3.507   3.094   9.099  0.3961  0.1077 -0.4165
 3414SOL    HW121875   3.536   3.003   9.092  1.2511  0.3649 -0.2628
 3414SOL    HW221876   3.424   3.083   9.144  1.0650 -1.9446  0.3343
 3415SOL     OW21877   1.455   3.295   4.248  0.1597 -0.2299  0.0825
 3415SOL    HW121878   1.375   3.343   4.266  1.2934  0.7856  2.4616
 3415SOL    HW221879   1.482   3.255   4.331 -0.1154  0.1489  0.3547
 3416SOL     OW21880   1.465   0.789   9.463 -0.1645 -0.5019 -0.2993
 3416SOL    HW121881   1.542   0.844   9.444 -0.0325  0.1776  2.2697
 3416SOL    HW221882   1.452   0.741   9.381 -1.2914 -0.2213 -0.2860
 3417SOL     OW21883   4.388   3.934   8.317 -0.5742 -1.1059 -0.0254
 3417SOL    HW121884   4.406   3.843   8.292  2.4716 -0.7839  1.0292
 3417SOL    HW221885   4.328   3.961   8.247 -0.9864  0.4629  0.9234
 3418SOL     OW21886   3.433   2.835   3.273 -0.3945 -0.0663 -0.0774
 3418SOL    HW121887   3.358   2.789   3.310  0.5304 -2.6128 -1.3631
 3418SOL    HW221888   3.473   2.885   3.344 -1.0634 -1.8674  1.5662
 3419SOL     OW21889   4.519   0.129  14.083 -0.0537  0.5316  0.4254
 3419SOL    HW121890   4.528   0.117  14.177 -1.7792 -3.2693  0.1132
 3419SOL    HW221891   4.430   0.093  14.078  1.4064 -3.3735  2.8438
 3420SOL     OW21892   1.697   2.802   2.437  0.4126 -0.5545  0.1545
 3420SOL    HW121893   1.766   2.737   2.449  0.4461 -0.2479  1.5598
 3420SOL    HW221894   1.645   2.759   2.369 -1.3164 -0.7131  1.5555
 3421SOL     OW21895   3.583   4.526   4.108  0.4252 -0.2506 -0.9628
 3421SOL    HW121896   3.541   4.583   4.044 -0.0625 -2.0764 -2.2695
 3421SOL    HW221897   3.505   4.514   4.163  0.4955  0.0276 -0.8054
 3422SOL     OW21898   4.289   0.756   4.972  0.3100  0.4090  1.1475
 3422SOL    HW121899   4.240   0.740   5.053  0.3112  0.7072  1.2064
 3422SOL    HW221900   4.343   0.679   4.954  0.6204  0.6624  0.9695
 3423SOL     OW21901   3.352   4.735   2.700  0.4933 -0.5925 -0.1619
 3423SOL    HW121902   3.263   0.032   2.713  0.4509 -0.5829 -0.4757
 3423SOL    HW221903   3.390   4.724   2.787  1.0469 -1.4187 -0.5057
 3424SOL     OW21904   2.565   3.778   5.054 -0.1263  0.1435  0.0956
 3424SOL    HW121905   2.514   3.697   5.047  0.1044  0.0361 -0.3690
 3424SOL    HW221906   2.511   3.830   5.113 -2.0825 -0.8979 -0.7752
 3425SOL     OW21907   0.313   2.232   7.424  0.2119 -0.2140  0.2512
 3425SOL    HW121908   0.294   2.160   7.484 -1.4925 -1.3945 -1.7197
 3425SOL    HW221909   0.310   2.200   7.334  0.0972 -1.0284  0.5480
 3426SOL     OW21910   1.105   2.846   9.663 -0.2398  0.0894 -0.1341
 3426SOL    HW121911   1.016   2.812   9.671  0.0411 -0.2445  1.5252
 3426SOL    HW221912   1.093   2.936   9.695 -2.3735 -0.0632 -0.5303
 3427SOL     OW21913   0.863   4.622   8.494  0.0129  0.2307  0.0915
 3427SOL    HW121914   0.809   4.547   8.520 -1.2082  0.7993 -0.7906
 3427SOL    HW221915   0.869   4.671   8.577 -2.8463  1.5281 -0.4435
 3428SOL     OW21916   3.007   1.177   7.412 -0.1014  0.6389  0.2176
 3428SOL    HW121917   2.936   1.216   7.362 -0.0279 -1.9343 -1.9050
 3428SOL    HW221918   2.975   1.096   7.451 -3.2697  2.3535  1.1358
 3429SOL     OW21919   4.074   2.642   9.077  0.2908 -0.3928  0.6828
 3429SOL    HW121920   4.123   2.722   9.098 -0.3422 -0.0892  0.9904
 3429SOL    HW221921   4.056   2.597   9.159 -1.3639  2.9876  2.2064
 3430SOL     OW21922   1.002   0.253   7.243 -0.0455 -0.6173 -0.1570
 3430SOL    HW121923   1.008   0.331   7.187 -0.8712  0.0333  0.6549
 3430SOL    HW221924   1.077   0.267   7.301  0.1961 -0.3573 -0.5275
 3431SOL     OW21925   2.883   4.025   4.788 -0.9208 -0.3790  0.0845
 3431SOL    HW121926   2.822   4.096   4.768 -1.6598 -1.2788 -0.8363
 3431SOL    HW221927   2.833   3.948   4.762  0.9126 -1.4582 -0.2036
 3432SOL     OW21928   0.039   0.752   1.027  0.3952  0.3940 -0.1417
 3432SOL    HW121929   4.715   0.715   1.090  0.9396 -1.0617 -0.4692
 3432SOL    HW221930   0.045   0.839   1.067 -1.3912  0.6701 -0.4985
 3433SOL     OW21931   1.664   0.869   1.215 -0.4187  0.6490  0.8867
 3433SOL    HW121932   1.641   0.947   1.165  1.7444  0.8170  0.1676
 3433SOL    HW221933   1.737   0.913   1.258  0.3758  1.6887 -1.5397
 3434SOL     OW21934   1.449   0.412   7.946  0.5952 -0.4854 -0.0081
 3434SOL    HW121935   1.374   0.383   7.999  0.9278  1.7057  1.6739
 3434SOL    HW221936   1.465   0.498   7.985 -0.3400  0.3312 -1.4341
 3435SOL     OW21937   4.643   4.649   5.421 -0.0907  0.6156  0.5009
 3435SOL    HW121938   4.666   4.566   5.380 -1.0121  0.4288  0.3637
 3435SOL    HW221939   4.684   4.709   5.359  1.1736 -0.2011  0.5565
 3436SOL     OW21940   2.974   4.310   6.406 -0.2799 -0.2792 -0.6352
 3436SOL    HW121941   2.985   4.394   6.451  0.3316 -0.5937 -0.1995
 3436SOL    HW221942   3.028   4.313   6.327  0.0356  0.1913 -0.4082
 3437SOL     OW21943   2.674   3.258   9.381  0.5698 -0.4583  0.2393
 3437SOL    HW121944   2.744   3.320   9.364 -2.3871  2.6801 -0.4461
 3437SOL    HW221945   2.713   3.188   9.433  0.0919 -1.3137 -0.5393
 3438SOL     OW21946   4.723   0.624  16.312  0.6128  0.3656  0.1347
 3438SOL    HW121947   0.068   0.667  16.288  1.8177 -2.5630 -0.9705
 3438SOL    HW221948   4.665   0.698  16.291  0.8310  0.8227  1.1371
 3439SOL     OW21949   2.276   3.751   9.295  0.4179  0.0046  0.3431
 3439SOL    HW121950   2.354   3.715   9.254 -0.9358 -0.1819 -2.0546
 3439SOL    HW221951   2.322   3.756   9.379 -0.6247  0.1871  0.9140
 3440SOL     OW21952   4.343   0.399   4.363 -0.4439  0.0123  0.2683
 3440SOL    HW121953   4.397   0.347   4.422 -0.2460  1.0042  0.9730
 3440SOL    HW221954   4.286   0.445   4.424  0.3911 -0.7273  1.6198
 3441SOL     OW21955   4.273   3.068   1.797  0.3666 -0.0349  0.1503
 3441SOL    HW121956   4.233   2.988   1.831  0.2451  0.0262  0.1534
 3441SOL    HW221957   4.193   3.094   1.749  0.3352 -0.8555 -0.2476
 3442SOL     OW21958   3.087   1.112   9.936 -0.7677 -0.4279  0.0025
 3442SOL    HW121959   3.081   1.017   9.930 -0.9413 -0.3652 -0.9158
 3442SOL    HW221960   3.051   1.147  10.017  2.2151 -0.4603  1.3656
 3443SOL     OW21961   3.746   1.116   6.356  0.2187  0.0856 -0.2482
 3443SOL    HW121962   3.678   1.051   6.373  1.1158 -0.8623 -0.2441
 3443SOL    HW221963   3.776   1.129   6.446 -2.0757  0.3874  0.4630
 3444SOL     OW21964   2.818   3.212  10.301 -0.2172  0.4161 -0.1929
 3444SOL    HW121965   2.809   3.139  10.363  0.8516 -0.6143 -1.2587
 3444SOL    HW221966   2.727   3.238  10.287 -0.5187 -0.8028 -0.4755
 3445SOL     OW21967   2.759   2.855   5.238  0.0186 -0.0048  0.9199
 3445SOL    HW121968   2.791   2.873   5.326  3.4154  3.1610 -0.9793
 3445SOL    HW221969   2.708   2.933   5.214 -1.4959 -0.8769  1.2506
 3446SOL     OW21970   1.602   4.331   9.101  0.2183  0.2228  0.2960
 3446SOL    HW121971   1.681   4.373   9.134  1.4235 -0.0764 -2.2033
 3446SOL    HW221972   1.537   4.332   9.172 -0.8421 -0.8727 -0.6433
 3447SOL     OW21973   2.149   4.174  14.083 -0.4831  0.3807 -0.2714
 3447SOL    HW121974   2.137   4.191  13.990  0.3864  0.5912 -0.3457
 3447SOL    HW221975   2.203   4.249  14.109  1.3288 -2.2414  3.6166
 3448SOL     OW21976   4.550   4.714   3.759 -0.3381 -0.3330  0.1003
 3448SOL    HW121977   4.580   4.625   3.738  1.2139 -0.0660  1.1961
 3448SOL    HW221978   4.531   0.007   3.670 -0.4946 -0.8206 -0.0371
 3449SOL     OW21979   1.106   3.424   5.100 -0.2688  0.8040  0.7230
 3449SOL    HW121980   1.111   3.407   5.006 -0.0639  0.4474  0.7970
 3449SOL    HW221981   1.090   3.518   5.102  0.9042  1.0519 -1.7180
 3450SOL     OW21982   2.399   3.037   3.966  0.0514  0.1755  0.7539
 3450SOL    HW121983   2.380   3.020   4.059  1.9973  1.6142  1.4221
 3450SOL    HW221984   2.398   2.947   3.933 -0.5424 -0.6431  2.9749
 3451SOL     OW21985   4.664   1.371   7.089 -0.0567 -0.1337 -0.3428
 3451SOL    HW121986   4.633   1.410   7.171 -0.6919  1.6111 -1.4072
 3451SOL    HW221987   0.020   1.359   7.108 -0.5977 -1.1021  1.7199
 3452SOL     OW21988   0.242   1.784   1.514  0.3770  0.4248  0.0102
 3452SOL    HW121989   0.237   1.878   1.530 -1.0113  0.1685  1.1688
 3452SOL    HW221990   0.245   1.784   1.418 -0.9585  2.3291 -0.0428
 3453SOL     OW21991   1.944   3.984  16.594 -0.3283  0.2789 -0.3506
 3453SOL    HW121992   1.911   3.997  16.682 -1.5924 -3.0882 -0.3213
 3453SOL    HW221993   1.932   3.889  16.588 -0.1843  0.3503 -1.8888
 3454SOL     OW21994   1.174   3.501  10.175  0.2576  0.0155 -0.2502
 3454SOL    HW121995   1.243   3.453  10.220 -1.8133 -1.7807  0.9863
 3454SOL    HW221996   1.194   3.482  10.083  3.6659 -1.7852  0.8928
 3455SOL     OW21997   3.047   4.590  17.013 -0.0965 -0.1171  0.2774
 3455SOL    HW121998   3.000   4.643  16.948 -1.2886  0.0068  1.2358
 3455SOL    HW221999   2.991   4.599  17.090 -0.6979  0.9466 -0.2809
 3456SOL     OW22000   3.253   4.554   7.444 -0.1144 -0.2341  0.3390
 3456SOL    HW122001   3.322   4.620   7.455 -0.5101  0.2110  0.1413
 3456SOL    HW222002   3.253   4.542   7.349 -0.7899  0.8864  0.1980
 3457SOL     OW22003   3.904   1.289   4.784 -0.0016 -0.2825 -0.0372
 3457SOL    HW122004   3.903   1.215   4.724 -0.8037  1.3133 -2.0150
 3457SOL    HW222005   3.818   1.332   4.785 -0.9219 -2.0862 -2.0701
 3458SOL     OW22006   1.272   4.071   9.864 -0.2029 -0.2754  0.2857
 3458SOL    HW122007   1.217   4.146   9.888 -0.4981 -0.3446 -0.1856
 3458SOL    HW222008   1.361   4.106   9.862 -0.7486  1.0825 -0.1185
 3459SOL     OW22009   2.026   1.367   3.642 -0.1050 -0.4381  0.2203
 3459SOL    HW122010   1.936   1.340   3.622  0.1235  0.4795 -2.1622
 3459SOL    HW222011   1.999   1.423   3.715  0.0073  0.1684 -0.1951
 3460SOL     OW22012   4.127   3.310   4.441  0.6742 -0.2747 -0.0956
 3460SOL    HW122013   4.221   3.295   4.449  0.8403  0.9474  0.1917
 3460SOL    HW222014   4.084   3.279   4.521  0.4506  2.3529  0.8069
 3461SOL     OW22015   4.461   0.179   4.531  0.2630 -0.4461  0.1994
 3461SOL    HW122016   4.461   0.097   4.580 -0.2898 -0.3379  0.3712
 3461SOL    HW222017   4.400   0.221   4.592 -1.4883 -2.3484 -0.2978
 3462SOL     OW22018   1.566   1.802   2.919  0.0872 -0.2952  0.3302
 3462SOL    HW122019   1.598   1.867   2.982 -3.4271  2.0052 -0.2681
 3462SOL    HW222020   1.521   1.744   2.981 -0.6878 -2.1061 -1.9338
 3463SOL     OW22021   4.237   3.410   6.061 -0.4226  0.1854 -0.3026
 3463SOL    HW122022   4.296   3.349   6.106 -0.0528  0.6566 -0.1524
 3463SOL    HW222023   4.289   3.459   5.997 -0.6045  2.0717  0.9999
 3464SOL     OW22024   4.651   0.557   5.999  0.6367 -0.0319  0.0903
 3464SOL    HW122025   4.641   0.573   6.093 -0.3631  0.8113 -0.1666
 3464SOL    HW222026   4.575   0.605   5.966  0.7360  0.2828  0.3176
 3465SOL     OW22027   0.151   0.564   5.839  0.1476 -0.7029 -0.1728
 3465SOL    HW122028   0.162   0.521   5.755 -0.5699  1.2105 -1.2490
 3465SOL    HW222029   0.070   0.535   5.880  0.3332 -2.1490 -0.8411
 3466SOL     OW22030   3.421   3.961  17.670 -0.1430 -0.1392 -0.0687
 3466SOL    HW122031   3.508   3.926  17.691 -1.1081 -1.6199  1.4956
 3466SOL    HW222032   3.449   4.035  17.616  1.0484  0.1710  0.9736
 3467SOL     OW22033   4.333   2.332   7.715 -0.7425  0.1154  0.4177
 3467SOL    HW122034   4.284   2.402   7.672 -0.5643 -0.9565 -1.4914
 3467SOL    HW222035   4.403   2.381   7.759  1.5492 -1.0174 -1.9699
 3468SOL     OW22036   1.737   4.305   6.009 -0.0239  0.0649  0.4155
 3468SOL    HW122037   1.649   4.331   6.036 -0.1012  0.7200 -0.4400
 3468SOL    HW222038   1.721   4.217   5.976  1.0413  0.8495 -2.2391
 3469SOL     OW22039   1.700   3.230   7.057 -0.3464  0.1352 -0.2646
 3469SOL    HW122040   1.785   3.211   7.095 -0.2490 -2.2573 -1.6683
 3469SOL    HW222041   1.650   3.270   7.128 -1.2427 -1.6689  0.1507
 3470SOL     OW22042   2.680   2.906  15.165  0.6017  0.1674 -0.8609
 3470SOL    HW122043   2.716   2.906  15.254  0.7380 -0.1048 -0.9169
 3470SOL    HW222044   2.618   2.833  15.167  0.0845  0.6074 -0.5253
 3471SOL     OW22045   3.181   2.593   5.659 -0.2153 -0.1394  0.3716
 3471SOL    HW122046   3.128   2.636   5.591  0.0581  0.8636  0.7959
 3471SOL    HW222047   3.227   2.666   5.700  1.1949 -0.1549 -1.1639
 3472SOL     OW22048   3.662   0.478   6.916  0.1513  0.2378 -0.6441
 3472SOL    HW122049   3.745   0.483   6.963 -0.6744 -1.2094  0.9912
 3472SOL    HW222050   3.639   0.569   6.896  2.1990  0.8538 -0.1935
 3473SOL     OW22051   2.674   4.723  10.253  0.0305  0.0904 -0.5517
 3473SOL    HW122052   2.637   0.065  10.213 -0.5357 -0.1176 -0.4369
 3473SOL    HW222053   2.760   0.001  10.214 -0.0617  0.5360 -0.5821
 3474SOL     OW22054   4.354   3.562   5.831  0.0132  0.0656  0.4515
 3474SOL    HW122055   4.371   3.530   5.743  0.1243  1.3257  0.0139
 3474SOL    HW222056   4.444   3.553   5.862 -0.2522  0.2726  1.2778
 3475SOL     OW22057   2.392   1.536   3.298  0.2362 -0.3404 -0.0075
 3475SOL    HW122058   2.353   1.477   3.363  1.9924 -1.3634  0.1165
 3475SOL    HW222059   2.485   1.513   3.308  0.2048  0.0139  1.2104
 3476SOL     OW22060   1.405   4.162  12.618 -0.1615  0.1893  0.4726
 3476SOL    HW122061   1.404   4.122  12.705 -0.1713  0.0794  0.4219
 3476SOL    HW222062   1.434   4.089  12.563 -0.9434  0.4470 -0.2856
 3477SOL     OW22063   2.620   2.434   7.111 -0.0922 -0.1478 -0.0749
 3477SOL    HW122064   2.675   2.509   7.138 -1.3377  0.8972 -0.4489
 3477SOL    HW222065   2.558   2.438   7.184  0.8251 -0.6862  0.7406
 3478SOL     OW22066   1.051   1.225   2.909 -0.4715 -0.1681  0.5895
 3478SOL    HW122067   0.990   1.259   2.843  2.0736  2.2825 -0.4625
 3478SOL    HW222068   1.022   1.135   2.923  4.0495 -1.6453  0.1672
 3479SOL     OW22069   1.859   2.414   9.128 -0.1447 -0.3888 -0.4799
 3479SOL    HW122070   1.857   2.500   9.084  1.7658 -0.5229 -0.8253
 3479SOL    HW222071   1.953   2.408   9.144  0.0519  0.7889 -1.1925
 3480SOL     OW22072   3.214   3.701   8.781  0.2479  0.1602  0.1210
 3480SOL    HW122073   3.163   3.682   8.860  1.2151 -0.6253  0.5607
 3480SOL    HW222074   3.150   3.761   8.741 -0.5205  0.2179  1.4390
 3481SOL     OW22075   1.343   0.427   9.451 -0.2096  0.0232  0.5553
 3481SOL    HW122076   1.289   0.504   9.471 -3.0700 -1.3307 -1.8741
 3481SOL    HW222077   1.297   0.383   9.380 -1.0527  2.9191 -0.7211
 3482SOL     OW22078   0.491   0.143   5.841 -0.1935 -0.3250 -0.2539
 3482SOL    HW122079   0.567   0.091   5.816 -1.1236 -2.0181  0.4766
 3482SOL    HW222080   0.485   0.146   5.937  1.8299 -0.6339 -0.1273
 3483SOL     OW22081   4.611   3.856  15.086 -0.2932 -0.1513 -0.1893
 3483SOL    HW122082   4.542   3.909  15.045 -0.9164 -2.3150 -1.9276
 3483SOL    HW222083   4.685   3.867  15.026  1.0788  2.0863  1.9293
 3484SOL     OW22084   4.151   3.950   1.541 -0.0474 -0.2927  0.3720
 3484SOL    HW122085   4.110   3.992   1.617 -0.1325  2.7336 -1.3053
 3484SOL    HW222086   4.111   3.992   1.465 -0.1436 -0.0298  0.5642
 3485SOL     OW22087   4.331   3.800   4.519 -0.3964  0.2185 -0.1130
 3485SOL    HW122088   4.420   3.813   4.552 -0.1666 -2.0254  0.1537
 3485SOL    HW222089   4.343   3.717   4.473  0.9259 -1.2247  2.8142
 3486SOL     OW22090   4.325   3.113  16.163 -0.1491 -0.3268  0.5956
 3486SOL    HW122091   4.247   3.069  16.195  0.2058 -1.6593 -0.3711
 3486SOL    HW222092   4.282   3.188  16.122 -0.1168 -0.5388  0.1679
 3487SOL     OW22093   3.935   3.750  13.453 -0.1767  0.3106 -0.1367
 3487SOL    HW122094   3.972   3.685  13.512 -0.7257  1.8930  1.9495
 3487SOL    HW222095   3.978   3.734  13.369 -0.5992  0.4719 -0.3840
 3488SOL     OW22096   1.193   4.693   3.209  0.0827 -0.0509 -0.1793
 3488SOL    HW122097   1.242   4.700   3.127 -0.1194 -0.2713 -0.3194
 3488SOL    HW222098   1.164   4.601   3.206  0.2580 -0.1318  0.4796
 3489SOL     OW22099   4.375   1.206   8.551  0.6019 -0.0885 -0.9824
 3489SOL    HW122100   4.420   1.260   8.616 -1.9421  0.7876  0.0554
 3489SOL    HW222101   4.451   1.179   8.499  1.1666 -2.5118  1.0999
 3490SOL     OW22102   2.817   2.011   5.290  0.1081  0.5809 -0.1913
 3490SOL    HW122103   2.911   2.026   5.280  0.2260  0.0214  0.1036
 3490SOL    HW222104   2.811   1.923   5.254 -1.7362  0.1044  1.2864
 3491SOL     OW22105   3.934   4.678   8.173  0.5650 -0.1143 -0.0090
 3491SOL    HW122106   3.898   4.703   8.089 -1.8884  1.1563  1.4103
 3491SOL    HW222107   3.887   4.596   8.191  0.8011 -0.5363 -1.3656
 3492SOL     OW22108   1.002   3.587   8.558  0.6090  0.3434  0.5490
 3492SOL    HW122109   1.031   3.559   8.645 -0.3103  0.5132  0.9089
 3492SOL    HW222110   0.950   3.664   8.582  1.8489  1.2058  0.4523
 3493SOL     OW22111   2.225   2.572   9.668 -0.5695  0.2365 -0.5582
 3493SOL    HW122112   2.220   2.547   9.576 -0.4319  1.3770 -0.8739
 3493SOL    HW222113   2.312   2.540   9.691 -1.6392 -2.4237 -0.2844
 3494SOL     OW22114   2.120   0.049   1.571 -0.3117  0.2043  0.2228
 3494SOL    HW122115   2.109   0.051   1.666  3.2360 -1.8513  0.6916
 3494SOL    HW222116   2.193   4.724   1.568  1.2525  1.9608  1.9189
 3495SOL     OW22117   4.449   2.471   2.342 -0.5834 -0.1426 -0.2998
 3495SOL    HW122118   4.497   2.458   2.261 -1.7849  1.6259 -1.2810
 3495SOL    HW222119   4.514   2.512   2.400 -0.2449 -1.2275  0.0977
 3496SOL     OW22120   1.317   4.731   1.842  0.3903 -0.6054 -0.1014
 3496SOL    HW122121   1.359   4.707   1.924 -1.3767  0.3157  1.0614
 3496SOL    HW222122   1.303   4.648   1.796  0.6425 -0.7606  0.1033
 3497SOL     OW22123   4.096   4.562   6.833  0.5707 -0.1815 -0.1763
 3497SOL    HW122124   4.111   4.528   6.921 -2.4025  0.2724  0.5076
 3497SOL    HW222125   4.157   4.503   6.787  0.9176 -0.1492  0.2491
 3498SOL     OW22126   3.312   1.650   3.328  0.1927  0.4104  0.2658
 3498SOL    HW122127   3.257   1.639   3.405 -0.7773 -1.0120 -0.6443
 3498SOL    HW222128   3.250   1.627   3.259 -0.3046  0.6086  0.6474
 3499SOL     OW22129   4.046   4.476   0.250  0.5481  0.1287  0.3760
 3499SOL    HW122130   4.092   4.435   0.324  0.3232 -2.8220 -1.0995
 3499SOL    HW222131   3.959   4.470   0.290  0.9175  1.7441  1.3797
 3500SOL     OW22132   0.445   3.896   6.238  1.0040 -0.2089  0.2526
 3500SOL    HW122133   0.393   3.882   6.318 -0.3267 -1.4622 -0.8140
 3500SOL    HW222134   0.528   3.929   6.270  1.9404 -0.2930 -2.0522
 3501SOL     OW22135   4.540   4.209  16.633 -0.0037 -0.7317  0.0507
 3501SOL    HW122136   4.581   4.261  16.702 -1.3526 -0.2879  0.5002
 3501SOL    HW222137   4.595   4.229  16.557  0.1843 -0.7358  0.1858
 3502SOL     OW22138   2.217   2.473   7.948  0.2056  0.3919  0.0495
 3502SOL    HW122139   2.196   2.403   7.885  1.5256  0.1824 -0.1592
 3502SOL    HW222140   2.152   2.534   7.914 -1.5696 -1.4040  0.2425
 3503SOL     OW22141   2.655   1.208  15.169 -0.3784 -0.4271 -0.1106
 3503SOL    HW122142   2.648   1.168  15.255  0.3863  1.8587  1.0072
 3503SOL    HW222143   2.680   1.298  15.191  0.9812 -0.4612 -1.4999
 3504SOL     OW22144   2.416   4.579   6.546 -0.2746  0.1412 -0.2202
 3504SOL    HW122145   2.438   4.498   6.499 -2.1200 -0.0097 -0.8084
 3504SOL    HW222146   2.502   4.612   6.571  0.0865 -0.6507 -0.4270
 3505SOL     OW22147   4.383   2.157   2.760 -0.2267  0.6073 -0.5079
 3505SOL    HW122148   4.398   2.191   2.672 -0.3693  2.1691  0.0593
 3505SOL    HW222149   4.347   2.070   2.743 -1.0688  0.9509 -0.4721
 3506SOL     OW22150   1.769   3.066   4.028 -0.3049 -0.0083  0.1768
 3506SOL    HW122151   1.771   2.983   3.981  0.2417  0.4639 -0.6338
 3506SOL    HW222152   1.854   3.103   4.004  0.2407 -2.1140 -1.1890
 3507SOL     OW22153   3.862   0.696  13.035 -0.1782 -0.2574  0.2728
 3507SOL    HW122154   3.799   0.686  12.965  2.0789 -0.4992 -1.7143
 3507SOL    HW222155   3.944   0.673  12.992 -0.3228 -1.2297  0.5265
 3508SOL     OW22156   0.614   1.464   5.246  0.4944 -0.2558  0.4795
 3508SOL    HW122157   0.703   1.499   5.246 -0.5017  2.2417  1.2600
 3508SOL    HW222158   0.565   1.535   5.287  1.0084 -0.0254  0.6894
 3509SOL     OW22159   1.295   1.618   4.264 -0.4226 -0.2210  0.3427
 3509SOL    HW122160   1.224   1.637   4.202  0.8381  3.2128 -0.0003
 3509SOL    HW222161   1.359   1.677   4.226 -1.4583 -0.0646 -1.1755
 3510SOL     OW22162   1.600   2.848   8.464  0.2169 -0.8428 -0.3599
 3510SOL    HW122163   1.668   2.916   8.465  0.2223 -0.8581  1.1284
 3510SOL    HW222164   1.652   2.772   8.440  2.4057 -0.1337  2.1357
 3511SOL     OW22165   2.902   1.687   7.876  1.1228 -0.4260 -0.6731
 3511SOL    HW122166   2.821   1.711   7.830  0.3557  0.4077  1.1248
 3511SOL    HW222167   2.960   1.747   7.829  2.3051 -0.5177  0.6993
 3512SOL     OW22168   0.911   3.654  14.850  0.1207 -0.4941 -0.1925
 3512SOL    HW122169   0.931   3.693  14.935 -1.2081  2.9186 -1.4024
 3512SOL    HW222170   0.900   3.735  14.799  0.3882 -1.6285 -2.0323
 3513SOL     OW22171   0.403   3.493   7.956 -0.2775  0.5826 -0.1721
 3513SOL    HW122172   0.453   3.472   7.877 -2.0978 -2.7076 -0.4606
 3513SOL    HW222173   0.468   3.457   8.016  0.1733 -0.9286 -1.5701
 3514SOL     OW22174   1.092   3.331   2.452  0.4269  0.1702 -0.5044
 3514SOL    HW122175   1.147   3.365   2.522 -1.2197 -1.2892  1.4669
 3514SOL    HW222176   1.041   3.406   2.421 -0.3667 -1.4079 -3.0524
 3515SOL     OW22177   1.339   3.803  13.012  0.2315 -0.1941  0.2450
 3515SOL    HW122178   1.246   3.824  13.026  0.8988  1.4422  2.1705
 3515SOL    HW222179   1.354   3.868  12.944  0.3182  1.5483  1.9302
 3516SOL     OW22180   3.174   0.233   2.465 -0.0392  0.1329 -0.4704
 3516SOL    HW122181   3.255   0.183   2.481  0.2517  0.7395 -0.0572
 3516SOL    HW222182   3.201   0.318   2.499  0.1424 -1.6541  3.8005
 3517SOL     OW22183   0.436   4.497   8.949  0.3450 -0.3442  0.6958
 3517SOL    HW122184   0.526   4.531   8.957 -0.5721  2.1430  0.6104
 3517SOL    HW222185   0.421   4.537   8.863  3.6438 -0.2980  0.1045
 3518SOL     OW22186   4.400   2.808   6.309 -0.2642 -0.0412 -0.3849
 3518SOL    HW122187   4.313   2.780   6.281 -0.1127  1.8408 -2.6713
 3518SOL    HW222188   4.447   2.775   6.233 -0.3696 -0.2512 -0.3613
 3519SOL     OW22189   2.030   4.039   6.975  0.0966  0.5944 -0.1097
 3519SOL    HW122190   2.028   4.132   6.953 -2.7505  0.2111 -1.5559
 3519SOL    HW222191   2.120   4.032   7.005 -0.2053  1.4485  0.9706
 3520SOL     OW22192   2.666   1.672   5.421 -0.3332 -0.2292 -0.6239
 3520SOL    HW122193   2.740   1.694   5.477 -1.3861  2.4512 -0.2867
 3520SOL    HW222194   2.626   1.759   5.430  1.1136  0.3986 -0.1380
 3521SOL     OW22195   4.545   1.174   6.935  0.1905  0.1925  0.2430
 3521SOL    HW122196   4.591   1.221   7.004  1.9024 -0.7329 -0.2502
 3521SOL    HW222197   4.613   1.117   6.898  1.0267  1.9406 -0.8744
 3522SOL     OW22198   1.439   0.210   7.044  0.3505 -0.1230  0.1700
 3522SOL    HW122199   1.529   0.225   7.017 -0.5897 -1.5939 -3.8096
 3522SOL    HW222200   1.429   0.120   7.014 -0.5935 -0.0532  0.2522
 3523SOL     OW22201   2.996   1.064  16.060  0.4949 -0.0816 -0.3690
 3523SOL    HW122202   3.090   1.077  16.045  0.6965 -2.1646 -0.9704
 3523SOL    HW222203   2.994   0.969  16.075  0.9928 -0.1392 -0.6611
 3524SOL     OW22204   4.532   0.911   4.891 -0.0679 -0.2540  0.1644
 3524SOL    HW122205   4.476   0.844   4.929 -0.5580 -0.8489 -1.5933
 3524SOL    HW222206   4.616   0.897   4.934 -1.4497 -0.0701  2.9301
 3525SOL     OW22207   2.823   0.754   6.609  0.5661  0.2054 -0.3265
 3525SOL    HW122208   2.877   0.802   6.546  1.9972  0.6653  1.2486
 3525SOL    HW222209   2.815   0.671   6.563  1.0952  0.7461 -1.3945
 3526SOL     OW22210   1.461   1.305  11.855  0.1405  0.2539  0.6071
 3526SOL    HW122211   1.531   1.370  11.862 -0.2486  0.6368  0.9867
 3526SOL    HW222212   1.504   1.232  11.811 -2.2614 -0.9536  0.2431
 3527SOL     OW22213   0.084   0.567  15.502 -0.2358 -0.3692 -0.8990
 3527SOL    HW122214   0.127   0.482  15.485  0.2664 -0.4174  0.6206
 3527SOL    HW222215   0.055   0.539  15.589 -3.1485  1.3048 -1.3627
 3528SOL     OW22216   2.008   0.612   7.461 -0.0174  0.0990 -0.6006
 3528SOL    HW122217   2.062   0.567   7.396 -1.1358 -0.2371 -1.3140
 3528SOL    HW222218   1.922   0.619   7.419 -0.1480  0.4381 -0.2687
 3529SOL     OW22219   0.142   0.634   5.440  0.1594  0.2210  0.0024
 3529SOL    HW122220   0.210   0.702   5.441 -0.2803  0.6956 -1.5845
 3529SOL    HW222221   0.073   0.681   5.486  0.5428  1.7371 -0.9605
 3530SOL     OW22222   4.658   1.887   1.091 -0.8640  0.4437 -0.2444
 3530SOL    HW122223   4.673   1.982   1.089 -3.4856  0.8646  0.3941
 3530SOL    HW222224   4.597   1.883   1.164  0.8425  0.8539  1.2293
 3531SOL     OW22225   3.927   3.108   0.957  0.2723  0.2138 -0.3476
 3531SOL    HW122226   4.001   3.059   0.922  0.5023  1.6468 -1.8776
 3531SOL    HW222227   3.943   3.198   0.928  1.7108 -0.3535 -1.3156
 3532SOL     OW22228   1.740   4.518   2.093 -0.2602 -0.0902 -0.2278
 3532SOL    HW122229   1.727   4.424   2.103  1.8875 -0.2146  1.3863
 3532SOL    HW222230   1.733   4.539   2.000  0.5778 -0.9171 -0.4700
 3533SOL     OW22231   0.437   2.262   4.775  0.0988 -0.0724  0.5221
 3533SOL    HW122232   0.355   2.231   4.737  0.5358  0.4411 -0.8562
 3533SOL    HW222233   0.468   2.189   4.829  0.9163  2.5127  3.5641
 3534SOL     OW22234   1.292   2.713   4.678 -0.1977 -0.3089 -0.0198
 3534SOL    HW122235   1.275   2.650   4.608  0.3872  1.5180 -1.7873
 3534SOL    HW222236   1.297   2.660   4.758 -1.7105  0.6841  0.7486
 3535SOL     OW22237   1.173   1.914  14.941  0.1019  0.1764  0.8386
 3535SOL    HW122238   1.100   1.866  14.901 -1.3219  0.8419  2.6472
 3535SOL    HW222239   1.251   1.872  14.906 -1.2021 -0.6383 -1.0958
 3536SOL     OW22240   1.009   2.196   4.489 -0.6371  0.0434  0.4385
 3536SOL    HW122241   0.930   2.155   4.526  0.2091 -1.3837  0.6619
 3536SOL    HW222242   1.043   2.137   4.422 -0.4465  0.3851  0.2367
 3537SOL     OW22243   2.795   0.688   8.893 -0.1823 -0.5462 -0.0901
 3537SOL    HW122244   2.806   0.755   8.960 -0.4648  0.5762 -1.1638
 3537SOL    HW222245   2.723   0.722   8.840  0.6178 -1.8780 -2.0359
 3538SOL     OW22246   2.450   1.884   7.468  0.3599 -1.1762 -0.5044
 3538SOL    HW122247   2.494   1.966   7.446 -0.6077 -0.5830 -0.2458
 3538SOL    HW222248   2.506   1.845   7.536 -2.5144 -0.2314  2.4321
 3539SOL     OW22249   0.510   2.166   2.434  0.2030 -0.1911 -0.2326
 3539SOL    HW122250   0.550   2.149   2.349  2.9852  0.8663  0.8474
 3539SOL    HW222251   0.581   2.213   2.480 -0.0055  0.6837 -0.8042
 3540SOL     OW22252   0.986   2.992   6.898 -0.0272 -0.1027  0.6927
 3540SOL    HW122253   1.046   2.986   6.824 -0.1594 -1.8223  0.7279
 3540SOL    HW222254   0.898   3.005   6.862 -0.9915 -0.5164  2.8618
 3541SOL     OW22255   3.530   2.805   9.597 -0.4668 -0.0152 -0.1888
 3541SOL    HW122256   3.542   2.723   9.551 -2.6552 -0.0286 -0.7521
 3541SOL    HW222257   3.616   2.831   9.629 -0.3259  0.3425 -0.8700
 3542SOL     OW22258   1.764   4.154   8.160 -0.1733  0.3610  0.4344
 3542SOL    HW122259   1.710   4.231   8.176 -2.7571 -1.4156  0.1666
 3542SOL    HW222260   1.814   4.143   8.241 -1.4533 -0.3780  1.1212
 3543SOL     OW22261   4.634   4.455   0.798 -0.4632 -0.2400  0.4367
 3543SOL    HW122262   4.636   4.474   0.704 -0.6857  0.1570  0.5123
 3543SOL    HW222263   4.598   4.539   0.826  0.0204  0.4821 -1.0735
 3544SOL     OW22264   0.063   4.167   3.446 -0.2657 -0.8759 -0.0589
 3544SOL    HW122265   4.724   4.214   3.481  0.0494  0.8639 -1.7549
 3544SOL    HW222266   0.091   4.112   3.519 -1.8167 -1.0539  0.3937
 3545SOL     OW22267   2.061   2.166   4.581  0.4795  0.0466 -0.0766
 3545SOL    HW122268   2.118   2.195   4.510 -1.5583  0.2353 -1.6445
 3545SOL    HW222269   2.108   2.088   4.611 -0.8672 -0.5882  0.3663
 3546SOL     OW22270   0.992   3.904   0.978 -0.2154  0.0967 -0.0839
 3546SOL    HW122271   0.938   3.969   1.023 -1.0551 -2.5952  2.7933
 3546SOL    HW222272   1.047   3.873   1.050  0.4490  1.7665  0.1394
 3547SOL     OW22273   0.721   1.567   2.618  0.5465 -0.5276  0.1621
 3547SOL    HW122274   0.694   1.608   2.700  1.0549 -0.1522  0.1403
 3547SOL    HW222275   0.815   1.586   2.624  0.2477  0.6622  1.0062
 3548SOL     OW22276   0.159   3.541   6.748 -0.0917  0.1382 -0.2462
 3548SOL    HW122277   0.222   3.496   6.803 -2.5433 -2.0981  0.7522
 3548SOL    HW222278   0.088   3.537   6.812  1.1078 -0.9741  0.9959
 3549SOL     OW22279   2.893   2.241   0.861 -0.1273 -0.6023  0.7649
 3549SOL    HW122280   2.930   2.279   0.781 -1.3554 -0.4158  0.2889
 3549SOL    HW222281   2.927   2.151   0.856  0.4211 -0.3955  0.8073
 3550SOL     OW22282   1.324   2.800  15.908  0.1629  0.0598  0.4151
 3550SOL    HW122283   1.383   2.727  15.924 -0.8363 -0.6317  0.9916
 3550SOL    HW222284   1.268   2.798  15.986  0.2273  0.1095  0.4620
 3551SOL     OW22285   4.192   0.476   6.389  0.3718 -0.4473  0.4016
 3551SOL    HW122286   4.148   0.392   6.397  0.1926 -0.1525  2.6078
 3551SOL    HW222287   4.125   0.529   6.345  1.9073  0.8163 -0.4250
 3552SOL     OW22288   0.985   3.321   6.718 -0.1055  0.0699  0.3492
 3552SOL    HW122289   1.007   3.256   6.651  1.3273 -1.0723  1.9373
 3552SOL    HW222290   1.072   3.331   6.758 -0.5779  0.1183  1.3688
 3553SOL     OW22291   3.602   0.016   2.548  0.2598  0.3473  0.9418
 3553SOL    HW122292   3.514   0.001   2.582 -0.2473 -0.6572 -0.8470
 3553SOL    HW222293   3.582   0.100   2.507 -1.8287 -2.2362 -3.2671
 3554SOL     OW22294   2.018   2.772   6.227 -0.3781 -0.1782  0.3164
 3554SOL    HW122295   2.057   2.708   6.287  1.9842 -0.3102 -1.3480
 3554SOL    HW222296   1.983   2.836   6.289  0.4614  1.4740 -0.8911
 3555SOL     OW22297   0.747   3.099   3.732 -0.5665  0.4460 -0.2472
 3555SOL    HW122298   0.675   3.160   3.715 -0.6230  0.2221 -0.8042
 3555SOL    HW222299   0.783   3.098   3.644 -1.9926 -1.7336 -0.8279
 3556SOL     OW22300   1.510   4.602   6.239  0.6122  0.7330  0.0322
 3556SOL    HW122301   1.586   4.614   6.183 -0.2682  0.4648 -1.2098
 3556SOL    HW222302   1.483   4.513   6.218 -2.8856  0.9810  3.2943
 3557SOL     OW22303   0.825   2.956   6.159 -0.3778 -0.7207 -0.0518
 3557SOL    HW122304   0.891   3.025   6.169  1.6214 -2.3763 -1.7966
 3557SOL    HW222305   0.867   2.873   6.179  0.9355  0.0273  0.3486
 3558SOL     OW22306   3.441   0.325   1.766  0.5247 -0.3767 -0.0708
 3558SOL    HW122307   3.408   0.277   1.690 -0.1065 -0.5351  0.3083
 3558SOL    HW222308   3.520   0.362   1.726  0.3519 -1.9590 -1.8610
 3559SOL     OW22309   1.418   3.089   2.553 -0.8296  0.4141 -0.0451
 3559SOL    HW122310   1.509   3.072   2.574 -0.6498 -0.8983 -1.8986
 3559SOL    HW222311   1.420   3.044   2.469 -0.8807 -2.2240  1.3552
 3560SOL     OW22312   4.346   0.950   6.640 -0.3677  0.0874 -0.2816
 3560SOL    HW122313   4.418   1.000   6.599 -0.1411  0.9543  1.1896
 3560SOL    HW222314   4.283   1.022   6.643 -0.8477 -0.4105  1.1133
 3561SOL     OW22315   4.479   3.708   7.939  0.0352 -0.6997 -0.2438
 3561SOL    HW122316   4.401   3.705   7.885  0.7575 -0.5333 -1.2862
 3561SOL    HW222317   4.465   3.699   8.034 -2.4011  1.1211 -0.4416
 3562SOL     OW22318   0.843   2.976   4.629  0.0391 -0.1871  0.0571
 3562SOL    HW122319   0.792   2.905   4.668 -3.1354  1.4391 -1.2027
 3562SOL    HW222320   0.907   2.927   4.577  0.2277 -1.4292  1.4526
 3563SOL     OW22321   1.033   4.574   3.899  0.1536  0.2802  0.0931
 3563SOL    HW122322   1.041   4.651   3.843  3.3510  0.5957  0.9903
 3563SOL    HW222323   1.063   4.606   3.984  0.0364 -0.8684  0.5663
 3564SOL     OW22324   2.291   0.506   4.823  0.1692 -0.2062 -0.1787
 3564SOL    HW122325   2.303   0.448   4.748  2.5423  1.0237 -0.7532
 3564SOL    HW222326   2.287   0.589   4.775 -1.9499  0.2111  0.6948
 3565SOL     OW22327   2.199   4.626   5.871 -0.0676 -0.6600 -0.6862
 3565SOL    HW122328   2.231   4.716   5.884 -0.6866 -0.6412  0.7413
 3565SOL    HW222329   2.117   4.631   5.921 -0.8031 -0.4243 -1.9139
 3566SOL     OW22330   3.363   3.399   9.950 -0.1214 -0.3411 -0.3098
 3566SOL    HW122331   3.354   3.424  10.042  0.7651 -0.6772 -0.1311
 3566SOL    HW222332   3.440   3.342   9.942  1.0682  1.1082  0.7166
 3567SOL     OW22333   4.443   3.091   4.645 -0.2569 -0.1029 -0.7967
 3567SOL    HW122334   4.466   3.011   4.693  0.5202  1.2175  1.0495
 3567SOL    HW222335   4.475   3.071   4.557 -0.4001 -0.2760 -0.8110
 3568SOL     OW22336   2.929   0.886   4.798 -0.3162 -0.6191 -0.1018
 3568SOL    HW122337   2.981   0.904   4.876 -1.4825 -0.7294  0.6937
 3568SOL    HW222338   2.991   0.855   4.731 -1.6667 -2.0323 -0.6871
 3569SOL     OW22339   4.703   1.941   1.684 -0.5806  0.5500  0.0350
 3569SOL    HW122340   0.009   2.001   1.623 -1.1406  0.3196 -0.5940
 3569SOL    HW222341   0.040   1.900   1.727  0.6488  2.2552 -0.4304
 3570SOL     OW22342   3.515   1.705   2.669 -0.5931 -0.1989 -0.2250
 3570SOL    HW122343   3.482   1.765   2.602 -0.9453 -0.2933 -0.1355
 3570SOL    HW222344   3.468   1.733   2.747 -1.5707  3.0322 -1.9667
 3571SOL     OW22345   3.980   4.032  13.362 -0.2580 -0.1885 -0.5153
 3571SOL    HW122346   4.026   3.949  13.369  0.1198  0.1067  0.5365
 3571SOL    HW222347   3.890   3.999  13.368  0.5508 -2.5024 -1.2365
 3572SOL     OW22348   3.459   1.627   4.294  0.2441 -0.0515 -0.5710
 3572SOL    HW122349   3.496   1.618   4.382 -0.3222 -1.0533 -0.4295
 3572SOL    HW222350   3.482   1.537   4.268 -0.0337 -0.8099  1.7638
 3573SOL     OW22351   3.370   4.541  11.506 -0.4757 -0.1574 -0.2665
 3573SOL    HW122352   3.397   4.452  11.483  0.5308 -0.1893  1.0357
 3573SOL    HW222353   3.448   4.594  11.492  1.0490 -1.8945  1.6818
 3574SOL     OW22354   3.898   0.403  10.367  0.2546  0.0031  0.2290
 3574SOL    HW122355   3.970   0.399  10.304 -1.4861  3.6357 -2.0140
 3574SOL    HW222356   3.935   0.457  10.437 -1.3052  2.0194 -0.4840
 3575SOL     OW22357   4.103   2.207   2.465  0.8387  0.3716  0.5942
 3575SOL    HW122358   4.056   2.134   2.505 -1.9143  1.6867 -0.2539
 3575SOL    HW222359   4.031   2.267   2.447 -0.2567 -1.0715  0.1510
 3576SOL     OW22360   4.330   1.972  12.448  0.2583  0.5004 -0.1802
 3576SOL    HW122361   4.340   1.997  12.540  0.2094  1.5013 -0.4399
 3576SOL    HW222362   4.304   2.052  12.401 -1.2729  0.4047  0.5191
 3577SOL     OW22363   3.256   2.609  14.049  0.3587  0.2595 -0.0160
 3577SOL    HW122364   3.240   2.618  14.143 -0.1611  2.0062 -0.2891
 3577SOL    HW222365   3.170   2.589  14.014 -0.0703 -1.4878  1.9872
 3578SOL     OW22366   0.419   1.316   8.459 -0.2657  0.3211  0.3075
 3578SOL    HW122367   0.436   1.235   8.508 -0.4985 -0.9522 -1.7130
 3578SOL    HW222368   0.500   1.321   8.408 -1.3687  0.0448 -1.4798
 3579SOL     OW22369   1.933   4.460  14.802  0.3985 -0.3527 -0.1002
 3579SOL    HW122370   1.846   4.420  14.800  0.5221 -0.6980  1.0687
 3579SOL    HW222371   1.920   4.521  14.730 -2.9056 -0.5782  0.2943
 3580SOL     OW22372   3.446   4.241   7.878 -0.4043 -0.2717  0.0606
 3580SOL    HW122373   3.371   4.263   7.933 -1.4823  1.7961 -2.2419
 3580SOL    HW222374   3.448   4.147   7.896 -1.7105  0.2401  2.8704
 3581SOL     OW22375   4.076   0.314   6.588 -0.4033  0.1224 -0.3914
 3581SOL    HW122376   4.151   0.351   6.635 -0.3923  2.2959 -2.0890
 3581SOL    HW222377   4.053   0.234   6.635  0.2118 -0.3885 -0.9705
 3582SOL     OW22378   2.680   4.028   5.121  0.5694 -0.2206 -0.1422
 3582SOL    HW122379   2.702   3.938   5.146 -2.0535 -1.1279 -1.1582
 3582SOL    HW222380   2.620   4.011   5.049 -1.8083  2.1783  1.2634
 3583SOL     OW22381   2.087   3.659   5.778 -0.2450  0.1723 -0.0181
 3583SOL    HW122382   2.175   3.683   5.748 -0.0006  0.0819  0.6358
 3583SOL    HW222383   2.106   3.651   5.872 -0.3337 -2.2522 -0.2069
 3584SOL     OW22384   2.951   4.580   8.796 -0.2944 -0.1718 -0.0451
 3584SOL    HW122385   2.901   4.632   8.859  0.6435 -0.2837  0.7732
 3584SOL    HW222386   3.031   4.632   8.798 -0.9301  0.7455  1.5570
 3585SOL     OW22387   2.537   4.132   0.732 -0.4370  0.1515  0.0267
 3585SOL    HW122388   2.508   4.223   0.735  1.8235  0.9661 -2.2920
 3585SOL    HW222389   2.488   4.091   0.661 -0.1906  0.6945 -0.4598
 3586SOL     OW22390   3.581   2.504   7.010 -0.1145  0.8606  0.5760
 3586SOL    HW122391   3.560   2.567   7.079 -1.4355  1.7526 -0.6607
 3586SOL    HW222392   3.641   2.453   7.066 -1.8082 -4.3915 -2.4621
 3587SOL     OW22393   1.742   1.046   8.031  0.0903  0.4195  0.1884
 3587SOL    HW122394   1.731   1.108   8.104 -0.9025  0.2549  0.1752
 3587SOL    HW222395   1.835   1.054   8.010  0.1986  2.2479  1.3714
 3588SOL     OW22396   3.204   2.521   8.674 -0.6854 -0.0406  0.2402
 3588SOL    HW122397   3.266   2.450   8.689  0.0142  0.5958  0.3755
 3588SOL    HW222398   3.183   2.523   8.581 -0.6349  0.6909  0.2442
 3589SOL     OW22399   2.356   4.002  13.105  0.2257  0.4234 -0.2310
 3589SOL    HW122400   2.357   4.074  13.168  0.5336 -0.2314  0.5296
 3589SOL    HW222401   2.273   4.018  13.060 -0.3056  0.5286  0.7813
 3590SOL     OW22402   2.421   0.324   7.202 -0.2842 -0.1376 -0.6005
 3590SOL    HW122403   2.464   0.274   7.132 -3.2319 -1.4936 -1.4264
 3590SOL    HW222404   2.455   0.283   7.281  1.2685  0.4125 -0.9778
 3591SOL     OW22405   3.642   3.489  16.282 -0.8760 -0.3896 -0.0793
 3591SOL    HW122406   3.592   3.569  16.297 -1.1883 -1.0788  2.5079
 3591SOL    HW222407   3.732   3.521  16.289 -1.1689  1.2310 -3.6162
 3592SOL     OW22408   2.733   1.177   5.805 -0.7787  0.1730  0.0503
 3592SOL    HW122409   2.698   1.266   5.806  0.7836  0.7789  0.1769
 3592SOL    HW222410   2.698   1.141   5.887 -2.1388  1.7724  0.1744
 3593SOL     OW22411   3.920   4.349   8.971 -0.6557 -0.1707 -0.1111
 3593SOL    HW122412   3.964   4.285   9.027  0.3963 -0.3375 -1.1350
 3593SOL    HW222413   3.844   4.300   8.941 -1.2827  1.0787 -0.5903
 3594SOL     OW22414   0.833   3.530   9.178 -0.3714  0.2134  0.1165
 3594SOL    HW122415   0.773   3.470   9.222  2.1141 -1.8451  0.7794
 3594SOL    HW222416   0.786   3.613   9.177 -2.8879 -1.2125  1.0782
 3595SOL     OW22417   3.247   3.662   7.777 -0.3581 -0.0354  0.2328
 3595SOL    HW122418   3.309   3.709   7.832  0.4080  0.9139 -1.4138
 3595SOL    HW222419   3.177   3.634   7.836  0.5896  0.2511  1.4601
 3596SOL     OW22420   4.550   3.899   8.530 -0.4234  0.0929  0.2202
 3596SOL    HW122421   4.500   3.955   8.471  1.0984  0.2676 -0.9253
 3596SOL    HW222422   4.499   3.916   8.609  1.5455  1.8694  1.1165
 3597SOL     OW22423   2.416   0.889  10.999  0.1597  0.3479  0.7046
 3597SOL    HW122424   2.446   0.980  11.004 -2.4255  1.1480  1.4515
 3597SOL    HW222425   2.407   0.887  10.903 -3.3246 -0.0741  1.0345
 3598SOL     OW22426   2.581   2.083   9.499 -0.3099  0.3990 -0.6269
 3598SOL    HW122427   2.572   2.072   9.404  0.9452  0.5730 -0.7697
 3598SOL    HW222428   2.615   2.172   9.503  0.0632  0.3249 -2.3388
 3599SOL     OW22429   0.985   2.641   4.211  0.3815  0.0140  0.3416
 3599SOL    HW122430   1.063   2.685   4.246 -1.0658  3.2343 -0.4716
 3599SOL    HW222431   0.966   2.697   4.136  0.0828 -0.4603  0.0623
 3600SOL     OW22432   3.337   3.361   8.850  0.4662  0.4794  0.0602
 3600SOL    HW122433   3.356   3.432   8.789 -1.0534 -0.1551 -1.1415
 3600SOL    HW222434   3.274   3.306   8.803  1.4158 -0.8078  0.2929
 3601SOL     OW22435   3.084   0.204  11.965 -0.2777  0.1079  0.3143
 3601SOL    HW122436   3.124   0.187  12.050 -1.0206 -0.9415  0.4631
 3601SOL    HW222437   3.094   0.299  11.966  0.8804 -0.0011 -0.9803
 3602SOL     OW22438   3.883   0.804   8.496  0.2233 -0.0948  0.2432
 3602SOL    HW122439   3.884   0.806   8.400  1.6012 -0.4677  0.2462
 3602SOL    HW222440   3.977   0.793   8.510  0.0527  0.0653  1.5438
 3603SOL     OW22441   0.567   0.888   8.149 -0.0157 -0.2630 -0.3913
 3603SOL    HW122442   0.501   0.917   8.213 -1.2296 -1.4583 -1.0832
 3603SOL    HW222443   0.614   0.967   8.123  3.1863 -1.3457  2.1616
 3604SOL     OW22444   4.660   3.581   0.184  0.3870 -0.1244  0.2143
 3604SOL    HW122445   4.717   3.510   0.156 -0.9342  0.1465 -3.0981
 3604SOL    HW222446   4.610   3.596   0.104  1.2860  1.5670 -0.0392
 3605SOL     OW22447   1.182   0.685  12.702 -0.1353 -0.5885 -0.3146
 3605SOL    HW122448   1.257   0.655  12.651 -1.2678 -0.7130 -1.8730
 3605SOL    HW222449   1.202   0.646  12.787 -3.0200 -1.7116 -0.1577
 3606SOL     OW22450   2.053   1.991   8.717 -0.2201 -0.0336  0.7155
 3606SOL    HW122451   2.079   2.083   8.708 -0.9667  0.2472  1.4124
 3606SOL    HW222452   2.138   1.962   8.748  0.3122  0.9191  0.1504
 3607SOL     OW22453   3.219   0.275   6.203 -0.0953 -0.3877  0.7823
 3607SOL    HW122454   3.310   0.291   6.228  0.0800 -0.8664  0.4478
 3607SOL    HW222455   3.223   0.182   6.182  0.1318 -0.2040  0.0062
 3608SOL     OW22456   2.256   1.990   1.283  0.0406 -0.4190  0.0496
 3608SOL    HW122457   2.180   1.931   1.283 -1.2601  1.2329  0.2502
 3608SOL    HW222458   2.221   2.042   1.211  0.5439  0.9349  0.7800
 3609SOL     OW22459   3.708   0.907  12.491  0.1601  0.1555 -0.5063
 3609SOL    HW122460   3.761   0.981  12.521 -0.9154  0.6063  0.2710
 3609SOL    HW222461   3.764   0.831  12.507 -0.6377 -0.1548  0.8204
 3610SOL     OW22462   3.947   2.839   4.023  0.0514  0.2300 -0.1362
 3610SOL    HW122463   3.884   2.838   3.951 -2.6395 -0.9273  2.2440
 3610SOL    HW222464   3.984   2.928   4.025  0.0425  0.2054  1.2012
 3611SOL     OW22465   0.171   3.755   8.213  0.3429 -0.6063 -0.3330
 3611SOL    HW122466   0.161   3.662   8.235  0.0073 -0.0238  1.9803
 3611SOL    HW222467   0.243   3.749   8.150  0.2160 -0.8355 -0.4604
 3612SOL     OW22468   3.108   3.007   3.259 -0.2347 -0.2572 -0.0896
 3612SOL    HW122469   3.049   3.035   3.189 -1.6758  0.0858  1.2686
 3612SOL    HW222470   3.150   2.926   3.230 -0.5476  0.1604 -1.6952
 3613SOL     OW22471   2.673   3.325   5.563  0.1248 -0.7939 -0.2360
 3613SOL    HW122472   2.581   3.339   5.585 -0.3482 -0.9308 -2.1191
 3613SOL    HW222473   2.665   3.297   5.472 -0.1142 -0.2885 -0.3729
 3614SOL     OW22474   1.003   2.737  10.442  0.6622  0.7215  0.5066
 3614SOL    HW122475   1.016   2.647  10.472 -0.5118  1.0185  1.9137
 3614SOL    HW222476   1.015   2.778  10.527  0.3046  0.0081  0.8982
 3615SOL     OW22477   3.168   3.472   4.604 -0.3518  0.4485  0.3528
 3615SOL    HW122478   3.156   3.545   4.665  0.5711  0.5168  0.4504
 3615SOL    HW222479   3.241   3.512   4.556 -0.9929  2.8876  1.4033
 3616SOL     OW22480   0.696   0.374  17.401  0.0775 -0.2392 -0.2616
 3616SOL    HW122481   0.738   0.329  17.474 -0.1763  1.6016  1.0141
 3616SOL    HW222482   0.616   0.323  17.388 -0.7918  1.1546 -0.3965
 3617SOL     OW22483   3.168   4.405   5.092 -0.2330 -0.1732  0.6017
 3617SOL    HW122484   3.134   4.451   5.169  0.0480 -0.4525  0.8932
 3617SOL    HW222485   3.094   4.348   5.070 -0.2313 -0.0877  0.3731
 3618SOL     OW22486   1.883   3.795   3.896  0.0454  0.5570 -0.1813
 3618SOL    HW122487   1.808   3.738   3.879 -0.1074  1.2906 -2.0412
 3618SOL    HW222488   1.955   3.737   3.920 -1.5713 -1.6977 -0.7907
 3619SOL     OW22489   3.260   0.627   4.303  0.6087 -0.0685  0.0638
 3619SOL    HW122490   3.164   0.632   4.302  0.5966 -0.5079 -0.7480
 3619SOL    HW222491   3.278   0.592   4.390 -2.5393 -0.3561  0.6108
 3620SOL     OW22492   3.344   1.225   6.493  0.5378  0.2001  0.6563
 3620SOL    HW122493   3.374   1.304   6.448  1.8255 -0.8258 -0.2295
 3620SOL    HW222494   3.295   1.267   6.565 -2.0999  0.8369 -1.4827
 3621SOL     OW22495   0.926   1.427   4.762 -0.0957 -0.2502  0.3143
 3621SOL    HW122496   0.832   1.421   4.741 -0.1293  0.2856  0.3002
 3621SOL    HW222497   0.959   1.438   4.673 -1.8067 -0.4781 -0.3534
 3622SOL     OW22498   4.511   3.963  10.538 -0.3431  0.6046 -0.1805
 3622SOL    HW122499   4.580   3.916  10.585  0.0253  1.2377 -0.0839
 3622SOL    HW222500   4.494   3.892  10.475 -2.0661 -1.1882  2.3159
 3623SOL     OW22501   3.767   1.773   2.756  0.4879 -0.2141  0.2205
 3623SOL    HW122502   3.677   1.745   2.744  1.4577 -3.5309  0.8359
 3623SOL    HW222503   3.809   1.724   2.686 -1.6383  0.6472 -1.6406
 3624SOL     OW22504   4.527   3.389   6.246  0.3115  0.4123 -0.4476
 3624SOL    HW122505   4.492   3.301   6.261 -0.1350  0.7891  0.7197
 3624SOL    HW222506   4.599   3.391   6.308  0.0302 -0.9346 -0.0823
 3625SOL     OW22507   2.500   3.949   7.699  0.3467 -1.0101  0.6927
 3625SOL    HW122508   2.490   4.025   7.757 -0.0537 -1.9728  1.8976
 3625SOL    HW222509   2.509   3.876   7.760  1.8956 -0.2493  1.3747
 3626SOL     OW22510   1.150   1.138   5.170 -0.1580  0.2860 -0.0741
 3626SOL    HW122511   1.188   1.156   5.084  0.0163  1.0896  0.1713
 3626SOL    HW222512   1.211   1.071   5.202 -0.1125  1.4340  2.2182
 3627SOL     OW22513   1.396   3.288  16.740  0.2758 -0.0167 -0.0044
 3627SOL    HW122514   1.474   3.298  16.686  1.1405 -1.8417  0.9075
 3627SOL    HW222515   1.416   3.229  16.813  0.5085 -1.8970 -1.5758
 3628SOL     OW22516   0.622   1.136  13.099 -0.2581 -0.2944 -0.2976
 3628SOL    HW122517   0.574   1.114  13.019 -0.8907  0.7701 -0.2091
 3628SOL    HW222518   0.569   1.097  13.168 -1.5824 -0.8368 -1.6200
 3629SOL     OW22519   1.354   2.641   6.201  0.1242  0.3113  0.2392
 3629SOL    HW122520   1.289   2.571   6.205  0.9108 -0.2700  3.4374
 3629SOL    HW222521   1.296   2.697   6.253 -0.3476  0.1648 -0.1327
 3630SOL     OW22522   0.905   3.106   5.232  0.0690  0.1183 -0.3389
 3630SOL    HW122523   0.883   3.163   5.159 -0.3343 -0.8510 -0.9762
 3630SOL    HW222524   0.818   3.079   5.261  0.3715  1.0604  1.4712
 3631SOL     OW22525   0.680   3.997   8.770 -0.6311 -0.8690 -0.6395
 3631SOL    HW122526   0.765   4.019   8.810 -1.8355  0.3498  1.2248
 3631SOL    HW222527   0.631   3.948   8.836 -0.7931  0.7742  0.4599
 3632SOL     OW22528   4.188   3.038   5.879 -0.1222 -0.0143  0.2733
 3632SOL    HW122529   4.245   3.015   5.806  1.5564  3.2577  0.5499
 3632SOL    HW222530   4.210   3.127   5.908 -3.7362  1.4673 -1.5828
 3633SOL     OW22531   1.093   0.008   3.673  0.0398  0.0443 -0.8257
 3633SOL    HW122532   1.117   0.100   3.657  0.5130  0.2610  1.0397
 3633SOL    HW222533   1.153   4.704   3.611  0.1040  1.0436 -1.4392
 3634SOL     OW22534   0.373   3.387   4.203  0.8784  0.1216  0.1640
 3634SOL    HW122535   0.315   3.429   4.267  1.5442 -0.2591  1.0131
 3634SOL    HW222536   0.338   3.298   4.209  0.8258  0.2630  1.9449
 3635SOL     OW22537   1.517   4.327   6.170 -0.1256  0.1742  0.2926
 3635SOL    HW122538   1.476   4.266   6.232 -2.2999 -0.0262 -1.3801
 3635SOL    HW222539   1.458   4.305   6.098  0.7733 -0.0741 -0.3745
 3636SOL     OW22540   1.452   2.283   7.367 -0.6395  0.3555 -0.6304
 3636SOL    HW122541   1.478   2.193   7.388 -1.3267  0.1175 -0.8301
 3636SOL    HW222542   1.518   2.334   7.415  0.0887 -0.1742 -1.0570
 3637SOL     OW22543   1.032   2.980  12.012 -0.1547 -0.4659 -0.3049
 3637SOL    HW122544   1.023   2.917  11.941 -2.7413 -1.1848  0.6655
 3637SOL    HW222545   1.113   3.029  12.001 -0.0748 -0.2514  1.2120
 3638SOL     OW22546   0.124   3.977   2.268 -0.7224 -0.5810  0.0228
 3638SOL    HW122547   0.100   4.003   2.179 -0.8477  0.1470  0.2677
 3638SOL    HW222548   0.168   3.893   2.257 -2.6330 -1.5124 -0.4469
 3639SOL     OW22549   3.328   1.053  11.431  0.1886  0.4859  0.0679
 3639SOL    HW122550   3.249   1.089  11.392  0.0574  0.8079  0.6496
 3639SOL    HW222551   3.392   1.066  11.361 -1.2316  0.8486 -1.1524
 3640SOL     OW22552   4.539   3.776   7.250 -0.2022  0.3668 -0.5468
 3640SOL    HW122553   4.523   3.785   7.156  0.9019  1.5801 -0.6123
 3640SOL    HW222554   4.511   3.685   7.265  2.7613 -0.6674 -1.1518
 3641SOL     OW22555   4.613   3.402   3.246  0.8142 -0.1947  0.9887
 3641SOL    HW122556   4.526   3.363   3.250  0.3470  0.7932  0.1920
 3641SOL    HW222557   4.659   3.354   3.177 -1.1430  0.3613 -0.6814
 3642SOL     OW22558   4.735   0.489   3.765 -0.5220  0.0700 -0.0998
 3642SOL    HW122559   0.001   0.522   3.675 -1.7170  0.6211  0.0528
 3642SOL    HW222560   4.724   0.397   3.738 -1.5163  0.3965 -0.8102
 3643SOL     OW22561   1.561   3.024   7.446 -0.3422 -0.0230  0.7021
 3643SOL    HW122562   1.485   3.081   7.460  0.5148  1.6165 -1.3418
 3643SOL    HW222563   1.565   2.991   7.536 -0.3026 -1.1003  0.3095
 3644SOL     OW22564   1.264   2.723  15.303  0.4169  0.0819 -0.3047
 3644SOL    HW122565   1.261   2.777  15.225 -0.8262  1.4278  0.6709
 3644SOL    HW222566   1.174   2.696  15.321 -0.0192  1.8069  0.1032
 3645SOL     OW22567   2.528   2.520   2.257 -1.2668  0.1585  0.5507
 3645SOL    HW122568   2.612   2.535   2.215 -1.5656 -0.8887 -0.4245
 3645SOL    HW222569   2.524   2.425   2.251  0.4329 -0.0749  3.2716
 3646SOL     OW22570   1.820   1.472   4.669 -0.3690 -0.3377 -0.2146
 3646SOL    HW122571   1.783   1.385   4.683 -0.6445 -0.2925 -0.6726
 3646SOL    HW222572   1.870   1.458   4.588  0.5801  3.5367 -0.2957
 3647SOL     OW22573   4.007   3.466  11.494  0.4070 -0.0750 -0.2139
 3647SOL    HW122574   3.922   3.506  11.477 -0.2623 -1.1861  0.5068
 3647SOL    HW222575   4.037   3.472  11.403 -1.6343 -0.0652 -0.9042
 3648SOL     OW22576   4.234   1.731   3.996 -0.0405  0.0018  0.2662
 3648SOL    HW122577   4.181   1.795   4.044 -0.4870 -0.0325 -0.1770
 3648SOL    HW222578   4.287   1.790   3.942 -0.0641 -0.6493 -0.4702
 3649SOL     OW22579   1.358   4.700   7.904  0.0618 -0.2994 -0.5788
 3649SOL    HW122580   1.356   4.630   7.838  1.0794  0.3785 -1.3269
 3649SOL    HW222581   1.267   4.709   7.934  0.6911  1.5860  0.7239
 3650SOL     OW22582   2.220   0.540   1.316  0.7800 -0.3516 -0.6166
 3650SOL    HW122583   2.270   0.505   1.243 -1.7977 -2.2772 -1.4669
 3650SOL    HW222584   2.278   0.533   1.392 -1.5549  0.9642  1.3029
 3651SOL     OW22585   4.044   3.941  11.207  0.3873 -0.0360 -0.0592
 3651SOL    HW122586   4.034   4.021  11.258 -0.0197  1.6687 -2.7797
 3651SOL    HW222587   4.052   3.879  11.279 -2.6136 -0.3442 -0.0029
 3652SOL     OW22588   3.769   2.854   1.103 -0.2978  0.1225  0.1758
 3652SOL    HW122589   3.679   2.887   1.093  0.0137  0.7869 -0.5109
 3652SOL    HW222590   3.805   2.921   1.044 -0.9504  0.8428  0.5905
 3653SOL     OW22591   4.506   3.963   5.014 -0.2770 -0.4594  0.6125
 3653SOL    HW122592   4.512   3.870   4.994  1.8582 -0.5977  1.8518
 3653SOL    HW222593   4.574   3.963   5.082  0.5445 -1.3025 -0.2036
 3654SOL     OW22594   1.793   0.015   3.242 -0.4464  0.0633 -0.3464
 3654SOL    HW122595   1.801   4.673   3.189  1.2658  1.8993 -2.8312
 3654SOL    HW222596   1.817   4.713   3.326 -0.8598 -0.1908 -0.3474
 3655SOL     OW22597   1.094   3.257   3.631  0.1572  0.2156  0.3607
 3655SOL    HW122598   1.119   3.299   3.714  0.3635 -1.0404  0.9339
 3655SOL    HW222599   1.011   3.300   3.615 -0.0356 -0.4719 -0.4591
 3656SOL     OW22600   3.324   4.265  13.458 -0.4458  0.3298  0.1998
 3656SOL    HW122601   3.350   4.274  13.366  2.9168  0.6069  1.1632
 3656SOL    HW222602   3.246   4.209  13.462  1.1211 -1.7845  1.3828
 3657SOL     OW22603   1.401   2.013   6.443 -0.3694 -0.2327 -0.2447
 3657SOL    HW122604   1.449   2.004   6.525 -1.4168 -1.1330  0.2620
 3657SOL    HW222605   1.370   2.102   6.459 -0.0787 -0.0848 -0.5032
 3658SOL     OW22606   4.498   0.982   6.215  0.4129 -0.3379 -0.2548
 3658SOL    HW122607   4.568   0.926   6.247  2.0967  2.7258  1.4665
 3658SOL    HW222608   4.428   0.920   6.194 -0.1338  0.4192 -0.7197
 3659SOL     OW22609   4.472   0.706   2.772  0.2583 -0.5491 -0.0353
 3659SOL    HW122610   4.538   0.683   2.706 -0.9011  0.2225 -1.4505
 3659SOL    HW222611   4.393   0.692   2.720 -0.3114  0.9064  0.4411
 3660SOL     OW22612   0.335   3.603   7.147  0.0455 -0.3599  0.1742
 3660SOL    HW122613   0.272   3.543   7.107 -1.1102 -0.1520  1.6990
 3660SOL    HW222614   0.276   3.626   7.219 -1.6337 -0.0484 -1.3100
 3661SOL     OW22615   0.601   0.243   6.510 -0.4060  0.0811  0.5022
 3661SOL    HW122616   0.586   0.227   6.603 -0.5975 -1.6329  0.1898
 3661SOL    HW222617   0.511   0.254   6.479 -0.8438 -0.0259  1.7352
 3662SOL     OW22618   3.623   4.262   3.582 -0.4567  0.1639 -0.2717
 3662SOL    HW122619   3.618   4.177   3.537 -1.4957  0.1031 -0.0347
 3662SOL    HW222620   3.562   4.254   3.655  1.1349  0.3239  1.0591
 3663SOL     OW22621   2.649   0.842   2.953 -0.2927 -0.0670 -0.3994
 3663SOL    HW122622   2.589   0.914   2.932 -0.3943 -0.3983 -1.2465
 3663SOL    HW222623   2.601   0.803   3.026  0.5204 -0.3696 -0.0223
 3664SOL     OW22624   1.136   3.570   2.956 -0.2779 -0.4814 -0.1982
 3664SOL    HW122625   1.160   3.663   2.954 -2.6736  0.1170 -0.6195
 3664SOL    HW222626   1.219   3.525   2.973 -0.2917 -0.0850  0.9296
 3665SOL     OW22627   0.854   2.496  11.566 -0.0729 -0.3535  0.3989
 3665SOL    HW122628   0.797   2.491  11.643 -1.8465  1.7573 -0.7380
 3665SOL    HW222629   0.873   2.403  11.563 -0.3119 -0.4243  1.3322
 3666SOL     OW22630   1.561   2.315   0.300  0.0911  0.5843  0.0498
 3666SOL    HW122631   1.561   2.220   0.312  1.2804  0.4151 -1.2658
 3666SOL    HW222632   1.589   2.331   0.210  1.5430  0.2745  0.4609
 3667SOL     OW22633   3.697   1.065   0.115 -0.1690 -0.0188  0.9489
 3667SOL    HW122634   3.654   1.107   0.041 -0.0275 -2.3013 -0.4219
 3667SOL    HW222635   3.771   1.124   0.130 -0.4995  0.6387  0.0074
 3668SOL     OW22636   0.148   1.245   5.844  0.2262  0.3687  0.0166
 3668SOL    HW122637   0.122   1.235   5.752 -0.1808 -2.3013  0.4384
 3668SOL    HW222638   0.082   1.305   5.879 -0.9837  0.7895 -2.9569
 3669SOL     OW22639   1.201   4.201   3.694 -0.2037 -0.7634 -0.1668
 3669SOL    HW122640   1.223   4.263   3.625 -0.2243  0.0634  0.5769
 3669SOL    HW222641   1.106   4.209   3.703 -0.3463 -0.5867 -1.7744
 3670SOL     OW22642   0.349   3.169  13.730  0.3652  0.6443  0.0667
 3670SOL    HW122643   0.439   3.175  13.696  0.0682  0.7831 -0.7007
 3670SOL    HW222644   0.327   3.261  13.742 -1.3010  0.4559 -1.5965
 3671SOL     OW22645   1.934   0.154   4.521 -0.7166  0.8280  0.1261
 3671SOL    HW122646   1.884   0.204   4.586 -0.7387  0.6711  0.2314
 3671SOL    HW222647   1.861   0.122   4.469 -1.0519  0.9999  0.4886
 3672SOL     OW22648   1.758   2.000   6.054 -0.2512  0.4583  0.4136
 3672SOL    HW122649   1.769   2.087   6.016  2.0198 -0.0874 -0.1626
 3672SOL    HW222650   1.839   1.966   6.016  0.5834  0.8141  1.8826
 3673SOL     OW22651   4.464   2.552  10.537 -0.1968 -0.0484 -0.0745
 3673SOL    HW122652   4.559   2.549  10.545 -0.0295  0.1735 -1.8075
 3673SOL    HW222653   4.458   2.609  10.460 -2.1934 -0.5589 -0.2970
 3674SOL     OW22654   2.053   4.548   5.405  0.2370 -0.2169 -0.1091
 3674SOL    HW122655   1.970   4.587   5.432  1.6778  0.5078  3.2838
 3674SOL    HW222656   2.111   4.603   5.458  1.7602 -2.5557  0.6483
 3675SOL     OW22657   2.818   0.488   0.940 -0.0185  0.2566  0.3217
 3675SOL    HW122658   2.854   0.558   0.994  0.2184 -0.1741  0.7233
 3675SOL    HW222659   2.901   0.451   0.910 -1.5154 -2.8604  0.0643
 3676SOL     OW22660   1.423   1.427   2.825  0.2532 -0.0477  0.6883
 3676SOL    HW122661   1.345   1.388   2.863 -0.8061  0.7190 -0.6992
 3676SOL    HW222662   1.397   1.492   2.760  0.3185 -2.2892 -1.5439
 3677SOL     OW22663   2.671   0.496   2.877  0.4869  0.0769 -0.2521
 3677SOL    HW122664   2.588   0.527   2.841  0.3428 -0.0094  0.0109
 3677SOL    HW222665   2.719   0.477   2.796  0.7063 -1.7765  0.3113
 3678SOL     OW22666   3.071   2.296   5.824 -0.2719  0.5884  0.1037
 3678SOL    HW122667   3.053   2.381   5.865 -0.0670 -0.5968  2.7022
 3678SOL    HW222668   3.061   2.227   5.890 -0.2133 -1.4637 -2.0606
 3679SOL     OW22669   3.971   2.955  11.830  0.5032  0.1565  0.1235
 3679SOL    HW122670   3.946   2.863  11.823  2.9281 -0.5377  0.5483
 3679SOL    HW222671   4.023   2.966  11.910  0.9586  2.6338 -0.5110
 3680SOL     OW22672   3.987   4.190   3.052  0.4114  0.1782  0.5794
 3680SOL    HW122673   3.970   4.284   3.045 -3.7444 -0.6537 -0.4943
 3680SOL    HW222674   3.992   4.171   3.146 -2.9866  0.3915  0.7815
 3681SOL     OW22675   0.596   4.295   8.825  0.0414 -0.2526  0.2997
 3681SOL    HW122676   0.646   4.219   8.796 -0.7741 -1.1696  1.2961
 3681SOL    HW222677   0.541   4.246   8.886 -0.6199  1.1409  0.8316
 3682SOL     OW22678   2.795   1.370   7.321 -0.2484 -0.4172 -0.1234
 3682SOL    HW122679   2.875   1.422   7.320  0.0590 -0.8807  1.0679
 3682SOL    HW222680   2.744   1.424   7.381  0.5284  3.0058 -2.5525
 3683SOL     OW22681   3.543   3.251  13.737  0.0055  0.2512 -0.2025
 3683SOL    HW122682   3.614   3.311  13.716  1.6284 -0.6566  2.6640
 3683SOL    HW222683   3.492   3.289  13.809 -0.5748 -2.1855  0.6755
 3684SOL     OW22684   3.930   2.620   2.621  0.5950 -0.1812  0.0674
 3684SOL    HW122685   4.006   2.619   2.563 -0.7060  1.1946 -1.6792
 3684SOL    HW222686   3.872   2.560   2.574  0.7718  1.1756 -1.9253
 3685SOL     OW22687   3.862   3.692   8.021 -0.0089 -0.2450  0.0849
 3685SOL    HW122688   3.793   3.729   8.076 -0.4304  1.4545 -1.5908
 3685SOL    HW222689   3.817   3.669   7.940  2.0187  3.2694 -2.0585
 3686SOL     OW22690   0.933   2.314  14.730 -0.0828 -0.0758 -0.4330
 3686SOL    HW122691   0.981   2.231  14.729 -0.3088 -0.2080 -0.4625
 3686SOL    HW222692   0.842   2.287  14.738  0.2985 -0.7181  1.6456
 3687SOL     OW22693   3.775   2.253   1.708  0.2048  0.3095 -0.2757
 3687SOL    HW122694   3.739   2.180   1.759 -0.9383  0.4235 -0.9195
 3687SOL    HW222695   3.767   2.324   1.771 -0.6791  1.7310 -1.9930
 3688SOL     OW22696   3.101   1.468   6.146 -0.6952 -0.3358 -0.1880
 3688SOL    HW122697   3.113   1.527   6.219 -0.1738 -1.0387  0.2939
 3688SOL    HW222698   3.099   1.382   6.188  0.5661 -0.0070  0.5367
 3689SOL     OW22699   1.407   0.049   0.975  0.4302 -0.4350  1.0068
 3689SOL    HW122700   1.403   0.015   1.065  2.3141 -1.0079  0.8755
 3689SOL    HW222701   1.458   0.129   0.986  0.6915 -0.3621 -0.8259
 3690SOL     OW22702   3.965   2.253   7.915  0.2170 -0.3182 -0.3242
 3690SOL    HW122703   3.879   2.293   7.928 -0.3499 -0.7728 -2.7093
 3690SOL    HW222704   3.970   2.229   8.007  0.0684  1.7886  0.2237
 3691SOL     OW22705   0.947   2.668   7.665 -0.2625  0.1791 -0.2129
 3691SOL    HW122706   0.907   2.726   7.601  2.1801  1.5299 -0.5142
 3691SOL    HW222707   0.887   2.671   7.739 -0.0555  1.9822 -0.1235
 3692SOL     OW22708   3.386   0.417  10.081 -0.0384 -0.0900  0.0463
 3692SOL    HW122709   3.458   0.380  10.030 -0.7157 -0.2024 -0.8216
 3692SOL    HW222710   3.385   0.343  10.143 -1.2418  0.3317  0.5311
 3693SOL     OW22711   1.639   4.730  12.000 -0.1084 -0.1297 -0.1784
 3693SOL    HW122712   1.603   0.007  12.087 -0.4654 -0.6550 -0.2376
 3693SOL    HW222713   1.556   4.709  11.956 -0.8031 -1.5394  1.8244
 3694SOL     OW22714   3.146   0.803   1.523  0.0632  0.2063 -0.1192
 3694SOL    HW122715   3.174   0.837   1.608  1.5246 -0.8730 -0.1651
 3694SOL    HW222716   3.142   0.709   1.543  2.0391 -0.7128 -4.1128
 3695SOL     OW22717   3.684   2.136   1.458 -0.3641  0.2933 -0.2769
 3695SOL    HW122718   3.589   2.121   1.460 -0.3168  0.3103  2.2342
 3695SOL    HW222719   3.706   2.150   1.550 -2.7778  0.9710  0.1925
 3696SOL     OW22720   3.699   1.347   0.729 -0.5806  0.1346  0.2601
 3696SOL    HW122721   3.669   1.277   0.786 -1.3785  0.1052 -0.1915
 3696SOL    HW222722   3.734   1.410   0.791 -1.8477  0.5349  0.5615
 3697SOL     OW22723   3.869   0.494   1.966  0.0535  0.1639 -0.3085
 3697SOL    HW122724   3.953   0.524   2.001 -1.0807  0.2615  2.3123
 3697SOL    HW222725   3.896   0.405   1.942  1.2990  0.7886 -1.2395
 3698SOL     OW22726   0.658   3.998   2.825 -0.0936  0.1997  0.4228
 3698SOL    HW122727   0.584   4.045   2.787 -0.4053 -1.3187 -0.8376
 3698SOL    HW222728   0.730   4.060   2.817 -1.0873  1.3141  0.1824
 3699SOL     OW22729   0.864   0.808   9.902 -0.3382  0.0441  0.3781
 3699SOL    HW122730   0.917   0.887   9.917  2.2923 -1.5091 -0.6587
 3699SOL    HW222731   0.855   0.774   9.991  0.1258 -0.0640  0.3853
 3700SOL     OW22732   4.157   1.870   9.505 -0.8109 -0.1021  0.0570
 3700SOL    HW122733   4.177   1.853   9.413  0.7297 -1.5742  0.6709
 3700SOL    HW222734   4.114   1.789   9.533  2.4118 -1.0580  2.2941
 3701SOL     OW22735   1.083   3.188  11.160 -0.1126 -0.1771  0.0648
 3701SOL    HW122736   1.176   3.196  11.136 -0.1162  0.2713  0.1992
 3701SOL    HW222737   1.074   3.260  11.222  2.3502  0.6045 -0.4772
 3702SOL     OW22738   3.900   0.936   5.378 -0.5886  0.2555  0.0846
 3702SOL    HW122739   3.941   0.983   5.304  1.7584 -1.4112  0.3353
 3702SOL    HW222740   3.826   0.904   5.328 -0.9600  1.1917  0.0207
 3703SOL     OW22741   0.423   0.727   5.843 -0.9321  0.1922 -1.0816
 3703SOL    HW122742   0.352   0.788   5.823 -0.9047 -0.2340 -2.5133
 3703SOL    HW222743   0.483   0.742   5.769  2.0536  1.0723  1.5059
 3704SOL     OW22744   2.240   2.158   3.524 -0.5399 -0.2691 -0.7271
 3704SOL    HW122745   2.208   2.248   3.530 -1.5666 -0.7229  0.6717
 3704SOL    HW222746   2.316   2.151   3.582 -0.4640  1.1014 -0.6688
 3705SOL     OW22747   0.153   0.905   0.283 -0.6084  0.2282 -0.2579
 3705SOL    HW122748   0.189   0.956   0.355 -1.6116  1.7185 -0.8114
 3705SOL    HW222749   0.063   0.908   0.315  0.1711 -0.1392  1.9405
 3706SOL     OW22750   1.063   0.594   0.037 -0.3937  0.0346 -0.0900
 3706SOL    HW122751   1.044   0.667   0.096 -2.6396  1.0544 -2.1167
 3706SOL    HW222752   1.052   0.641  17.702 -1.6855 -0.9452 -0.4741
 3707SOL     OW22753   1.203   1.903   2.040  0.0178  0.4615  0.5707
 3707SOL    HW122754   1.261   1.962   1.991  0.7669  0.6264  1.6539
 3707SOL    HW222755   1.179   1.963   2.110 -2.4868 -0.0273  0.1173
 3708SOL     OW22756   4.208   1.622   6.387  0.3296  0.4002 -0.4227
 3708SOL    HW122757   4.176   1.551   6.443 -1.0138  2.8864  1.9914
 3708SOL    HW222758   4.124   1.627   6.342 -0.3024  1.6895  0.8762
 3709SOL     OW22759   0.140   2.541   5.497 -0.0646  0.0621 -0.2884
 3709SOL    HW122760   0.223   2.529   5.544 -0.5996 -1.3994  0.2990
 3709SOL    HW222761   0.133   2.463   5.442 -0.3798  1.1932 -1.8435
 3710SOL     OW22762   3.640   1.326   8.544 -0.3351 -0.4025  0.4326
 3710SOL    HW122763   3.656   1.242   8.502  1.2033 -0.0610  0.3258
 3710SOL    HW222764   3.626   1.395   8.479  1.3186  0.3971  0.9130
 3711SOL     OW22765   4.615   0.972   0.619 -0.0059 -0.2409  0.3339
 3711SOL    HW122766   4.597   0.938   0.531 -2.5980  1.2165  0.3077
 3711SOL    HW222767   4.593   0.898   0.674 -2.9827  0.6545  0.3149
 3712SOL     OW22768   1.952   4.221   7.248 -0.4511  0.0860  0.2007
 3712SOL    HW122769   2.037   4.246   7.284 -1.2753  0.7044  1.7384
 3712SOL    HW222770   1.986   4.181   7.169  2.0676  1.6709  0.4567
 3713SOL     OW22771   2.834   2.737   9.117 -0.3782  0.2376  0.8777
 3713SOL    HW122772   2.817   2.818   9.164 -0.6635  0.2725  0.7127
 3713SOL    HW222773   2.748   2.724   9.077 -0.4497  1.4685  0.6408
 3714SOL     OW22774   2.698   1.668  10.249 -0.6425 -0.4265 -0.6011
 3714SOL    HW122775   2.694   1.577  10.218 -1.4610 -0.6017  0.0146
 3714SOL    HW222776   2.779   1.703  10.212 -0.4867  0.8980  0.9911
 3715SOL     OW22777   3.072   2.497   3.404  0.1288  0.3537  0.3481
 3715SOL    HW122778   3.152   2.515   3.355  0.1272  0.8671  0.5310
 3715SOL    HW222779   3.097   2.434   3.471  1.1615  2.2282  1.7315
 3716SOL     OW22780   0.703   3.316   9.324 -0.4011 -0.4051 -0.0151
 3716SOL    HW122781   0.620   3.284   9.359 -0.0447 -3.0422 -1.6352
 3716SOL    HW222782   0.748   3.236   9.296  0.3430  0.7190 -2.0829
 3717SOL     OW22783   2.345   1.529   9.757 -0.1156  0.4559  0.2670
 3717SOL    HW122784   2.430   1.559   9.724  1.4953 -1.4213  2.7815
 3717SOL    HW222785   2.294   1.564   9.683 -3.0885  0.3519  2.3025
 3718SOL     OW22786   4.211   3.611   6.629 -0.3551  0.4919  0.0545
 3718SOL    HW122787   4.253   3.529   6.601 -0.8760 -0.2562  1.4240
 3718SOL    HW222788   4.190   3.651   6.545  0.1255  0.3466 -0.1341
 3719SOL     OW22789   2.003   1.796   2.828 -0.2466  0.7109  0.2906
 3719SOL    HW122790   2.070   1.831   2.887 -0.4322 -0.4384  1.1839
 3719SOL    HW222791   2.053   1.738   2.770 -0.9534  0.6783 -0.2912
 3720SOL     OW22792   1.407   0.601  12.574  0.7081  0.1166 -0.1145
 3720SOL    HW122793   1.467   0.671  12.547  1.8846 -1.4078 -1.4890
 3720SOL    HW222794   1.422   0.528  12.514 -0.7577  0.6653 -1.1589
 3721SOL     OW22795   2.790   3.325   3.185 -0.4264  0.6538  0.6257
 3721SOL    HW122796   2.854   3.322   3.114  1.0685  1.1156  1.9578
 3721SOL    HW222797   2.771   3.419   3.191 -0.8366  0.5405  1.1151
 3722SOL     OW22798   0.445   4.209   9.044 -0.2317 -0.5582 -0.1277
 3722SOL    HW122799   0.432   4.303   9.033  2.1082 -0.3045 -0.7603
 3722SOL    HW222800   0.360   4.186   9.083 -0.2944 -0.1990 -0.0562
 3723SOL     OW22801   2.630   2.685   5.566 -0.0390 -0.3690 -0.0848
 3723SOL    HW122802   2.684   2.617   5.528 -1.1411 -0.5568 -1.3146
 3723SOL    HW222803   2.648   2.667   5.658  1.5565  0.3231 -0.2702
 3724SOL     OW22804   0.732   1.948   2.600  0.7748  0.5085  0.0916
 3724SOL    HW122805   0.736   1.867   2.549  0.1584  0.6664 -0.1962
 3724SOL    HW222806   0.694   2.000   2.530  0.0103  1.9912  1.6086
 3725SOL     OW22807   0.659   0.125   1.344 -0.6007 -0.1753  0.0482
 3725SOL    HW122808   0.672   0.078   1.426  0.9755  0.6098  0.2576
 3725SOL    HW222809   0.567   0.140   1.325 -0.9420 -0.4094  1.4840
 3726SOL     OW22810   2.624   0.096   4.515 -0.2463 -0.3484 -0.0937
 3726SOL    HW122811   2.709   0.051   4.512 -0.3427 -0.5458  0.2049
 3726SOL    HW222812   2.630   0.157   4.589  0.6155 -0.2153 -0.2730
 3727SOL     OW22813   4.531   3.095   2.466  0.3742  0.0629 -0.0808
 3727SOL    HW122814   4.473   3.088   2.391 -0.4169 -1.7727  0.7133
 3727SOL    HW222815   4.469   3.065   2.533  0.9202 -3.1428 -1.0369
 3728SOL     OW22816   2.750   0.433   3.363  0.1068 -0.2355 -0.1980
 3728SOL    HW122817   2.752   0.515   3.413  1.2269 -2.0106  2.6984
 3728SOL    HW222818   2.754   0.470   3.275  1.6747 -0.7134 -0.3199
 3729SOL     OW22819   1.279   0.964   0.688 -0.1200 -0.0686 -0.3329
 3729SOL    HW122820   1.204   0.924   0.645 -0.0862  0.8968 -1.2933
 3729SOL    HW222821   1.331   1.008   0.621 -0.4634  1.1345  0.1850
 3730SOL     OW22822   3.972   3.457  16.543 -0.4972  0.0133  1.0191
 3730SOL    HW122823   4.047   3.423  16.495 -0.6131  1.5955 -0.2770
 3730SOL    HW222824   3.957   3.523  16.475 -0.4591 -1.6719 -0.6148
 3731SOL     OW22825   0.519   2.991  10.925  0.0484  0.3408  0.1678
 3731SOL    HW122826   0.491   3.066  10.872 -1.3242 -0.0207  0.3964
 3731SOL    HW222827   0.576   2.949  10.861  1.4854 -0.5026  2.0054
 3732SOL     OW22828   2.950   1.334   3.366  0.6563 -0.0615 -0.5297
 3732SOL    HW122829   2.895   1.361   3.440  1.0428 -2.5390  0.6642
 3732SOL    HW222830   2.974   1.416   3.324 -0.4129  0.9660  0.8367
 3733SOL     OW22831   2.002   3.193  14.522  0.4015  0.4070  0.3890
 3733SOL    HW122832   2.096   3.188  14.541 -0.0504 -0.4684  2.4150
 3733SOL    HW222833   1.984   3.284  14.543  2.2754  0.6506  0.9126
 3734SOL     OW22834   2.334   3.111   5.865 -0.1493 -0.3217 -0.3453
 3734SOL    HW122835   2.390   3.038   5.893 -2.8135 -0.7103  3.9826
 3734SOL    HW222836   2.339   3.110   5.770  2.0603  2.2811 -0.2699
 3735SOL     OW22837   4.592   4.184   0.663  0.3427  0.7131 -0.3633
 3735SOL    HW122838   4.624   4.272   0.683 -0.1095  0.7716  0.1015
 3735SOL    HW222839   4.664   4.127   0.690  0.6465  2.2401  1.9840
 3736SOL     OW22840   4.576   2.227  13.581 -0.0192  0.0891  0.2116
 3736SOL    HW122841   4.575   2.211  13.676 -0.3781 -0.3857  0.1266
 3736SOL    HW222842   4.594   2.136  13.558 -0.4055 -0.0528  0.4640
 3737SOL     OW22843   1.593   4.054   4.430  0.0733 -0.0866 -0.2175
 3737SOL    HW122844   1.675   4.072   4.384 -0.3588  1.0293 -0.5804
 3737SOL    HW222845   1.595   4.094   4.517 -2.2453  1.2526 -0.7509
 3738SOL     OW22846   3.076   1.412  17.736  0.6457  0.0070 -0.2056
 3738SOL    HW122847   3.124   1.442   0.065 -1.0548  1.8026  0.1413
 3738SOL    HW222848   3.124   1.471  17.678 -0.8698  0.1398 -1.3103
 3739SOL     OW22849   3.970   3.579   4.437  0.0611  0.0131  0.4745
 3739SOL    HW122850   4.010   3.644   4.495 -2.3079  1.7178  0.1905
 3739SOL    HW222851   4.032   3.506   4.444  0.3907  0.3407  0.9536
 3740SOL     OW22852   3.563   0.577   6.417  0.6600 -0.5210 -0.3586
 3740SOL    HW122853   3.558   0.586   6.322 -2.7302 -1.3112 -0.2722
 3740SOL    HW222854   3.656   0.556   6.411  0.4963 -0.5886 -2.4702
 3741SOL     OW22855   0.773   2.378   3.861  0.0421  0.6686  0.6957
 3741SOL    HW122856   0.779   2.331   3.944 -0.4629 -1.0656 -0.2457
 3741SOL    HW222857   0.862   2.409   3.845 -0.6260  0.2182 -3.9491
 3742SOL     OW22858   0.623   3.571   4.437  0.3150 -0.0573  0.6031
 3742SOL    HW122859   0.601   3.586   4.345  0.4010  2.0086  0.9391
 3742SOL    HW222860   0.681   3.642   4.465 -0.5252  1.5809 -1.8022
 3743SOL     OW22861   1.302   1.990   7.625 -0.1096  0.1845 -0.3860
 3743SOL    HW122862   1.287   1.967   7.716 -0.0041  0.5634 -0.2731
 3743SOL    HW222863   1.276   2.082   7.615 -2.0221 -0.5059 -1.7097
 3744SOL     OW22864   3.843   2.041  12.418 -0.1343  0.0912 -0.2702
 3744SOL    HW122865   3.806   2.113  12.470 -1.3517 -0.6245 -0.1390
 3744SOL    HW222866   3.902   2.005  12.484  2.4764  1.4004 -1.9166
 3745SOL     OW22867   1.553   1.427   8.517 -0.2859  0.3458  0.3595
 3745SOL    HW122868   1.527   1.337   8.498 -0.2657  0.4547 -0.1630
 3745SOL    HW222869   1.531   1.465   8.433  0.8095 -2.7640 -1.3319
 3746SOL     OW22870   0.715   0.634  17.476 -0.3319 -0.7686  0.4803
 3746SOL    HW122871   0.693   0.546  17.446  0.1478 -1.0971  1.0764
 3746SOL    HW222872   0.786   0.657  17.417  0.0721 -1.9306  0.5201
 3747SOL     OW22873   2.231   1.577   3.607  0.3367  0.3476  0.0388
 3747SOL    HW122874   2.184   1.496   3.625 -0.0478  0.9091  1.5021
 3747SOL    HW222875   2.157   1.615   3.559 -0.6050  0.1503  1.3487
 3748SOL     OW22876   3.124   2.642   5.225 -0.3401 -0.0903  0.1180
 3748SOL    HW122877   3.036   2.668   5.197 -0.7061 -1.1616  0.2836
 3748SOL    HW222878   3.101   2.618   5.314  1.4292 -0.6615  0.4040
 3749SOL     OW22879   3.725   0.036   3.518 -0.6235  0.9940  0.3775
 3749SOL    HW122880   3.799   0.043   3.458 -1.6051  0.6444 -0.8873
 3749SOL    HW222881   3.705   0.128   3.534 -0.5011  1.4389 -2.0831
 3750SOL     OW22882   4.140   0.675   3.469 -0.7369  0.3827 -0.1655
 3750SOL    HW122883   4.114   0.694   3.559 -1.8756 -1.8099 -0.0348
 3750SOL    HW222884   4.176   0.587   3.474 -1.3401  0.0280 -1.8991
 3751SOL     OW22885   0.559   2.981   6.068  0.5730 -0.2138  0.3750
 3751SOL    HW122886   0.504   3.051   6.104 -1.3036 -0.5055 -1.8972
 3751SOL    HW222887   0.643   2.979   6.115  1.4580 -1.1985 -1.2427
 3752SOL     OW22888   2.513   1.166   9.367 -0.2286 -0.3320 -0.5992
 3752SOL    HW122889   2.489   1.222   9.293  0.2809  1.1745  0.3839
 3752SOL    HW222890   2.518   1.238   9.430 -1.5591 -2.2503  1.6907
 3753SOL     OW22891   3.662   3.444   5.932 -0.3538 -0.3442  0.4481
 3753SOL    HW122892   3.673   3.439   5.837 -0.6125  0.6279  0.3712
 3753SOL    HW222893   3.737   3.398   5.970 -0.3352  0.0040  0.8379
 3754SOL     OW22894   2.001   3.068   9.112  0.2132 -0.2439  0.0501
 3754SOL    HW122895   2.056   3.043   9.186  1.8061 -1.8952 -1.7309
 3754SOL    HW222896   1.923   3.088   9.164  1.2419  3.3686  0.2077
 3755SOL     OW22897   4.106   0.192   3.421 -0.4782  0.0056 -0.0997
 3755SOL    HW122898   4.146   0.272   3.457 -1.4689  0.8648 -0.9222
 3755SOL    HW222899   4.096   0.219   3.330 -0.7569 -0.3375 -0.1662
 3756SOL     OW22900   0.466   2.439   0.202 -0.7888  0.0963  0.1868
 3756SOL    HW122901   0.505   2.510   0.254  2.2321 -1.2296 -0.2690
 3756SOL    HW222902   0.418   2.397   0.273 -1.9584  2.3479  0.7212
 3757SOL     OW22903   0.102   1.132   3.380  0.1036  0.1929 -0.1379
 3757SOL    HW122904   0.128   1.120   3.471  0.1500  1.2580 -0.0154
 3757SOL    HW222905   0.054   1.212   3.398 -3.1203 -1.5601 -1.0626
 3758SOL     OW22906   1.099   1.801  12.688 -0.1577 -0.1160 -0.6117
 3758SOL    HW122907   1.106   1.729  12.751 -0.3712 -0.1697 -0.6483
 3758SOL    HW222908   1.070   1.875  12.740 -2.9553 -0.1469 -2.1095
 3759SOL     OW22909   2.150   0.401   2.585 -0.3553 -0.5639  1.0325
 3759SOL    HW122910   2.062   0.399   2.546 -0.1463  0.0780  0.5177
 3759SOL    HW222911   2.171   0.308   2.591 -1.1383 -0.7461  0.9750
 3760SOL     OW22912   3.089   3.441   4.344 -0.4591 -0.3464  0.0194
 3760SOL    HW122913   2.995   3.454   4.352 -0.6433 -1.4248 -0.4082
 3760SOL    HW222914   3.111   3.499   4.417  1.2234  1.9650 -2.2949
 3761SOL     OW22915   1.527   2.943   5.924  0.7966 -0.2499 -0.2333
 3761SOL    HW122916   1.529   3.001   5.848 -2.0407  0.0839 -0.0645
 3761SOL    HW222917   1.472   2.986   5.990  1.4681  0.3789 -0.0851
 3762SOL     OW22918   1.979   1.389   3.316 -0.3459  0.1223  0.3171
 3762SOL    HW122919   1.989   1.302   3.353 -0.8122  0.5388  1.4240
 3762SOL    HW222920   2.035   1.370   3.240 -0.0186  0.1646  0.5488
 3763SOL     OW22921   3.601   3.175   2.217  0.3741  0.0471  0.3597
 3763SOL    HW122922   3.641   3.152   2.133 -1.3839  1.4698 -0.8295
 3763SOL    HW222923   3.676   3.213   2.263 -0.4590  0.7521  1.1215
 3764SOL     OW22924   3.857   2.883   5.240  0.5210 -0.1467  0.4552
 3764SOL    HW122925   3.907   2.835   5.306  0.4077  0.3018  0.8622
 3764SOL    HW222926   3.766   2.859   5.259 -0.4157  2.1245 -1.1522
 3765SOL     OW22927   1.911   3.657   7.728 -0.5800  0.0742 -0.3228
 3765SOL    HW122928   1.884   3.604   7.653  0.3778 -0.1718 -0.4875
 3765SOL    HW222929   1.919   3.736   7.675  0.2899 -0.1290 -0.4896
 3766SOL     OW22930   0.515   3.158   6.300 -0.1151 -1.0111  0.2467
 3766SOL    HW122931   0.583   3.226   6.300 -2.5997  1.5056  2.5228
 3766SOL    HW222932   0.545   3.097   6.367 -2.5661 -0.8607  1.5023
 3767SOL     OW22933   1.227   2.558   8.133  0.0987 -0.4900 -0.4793
 3767SOL    HW122934   1.318   2.545   8.159  0.8386 -1.6363 -3.6404
 3767SOL    HW222935   1.246   2.581   8.042 -2.4462 -0.7293 -1.0779
 3768SOL     OW22936   3.137   0.420  11.106 -0.3239  0.2089 -0.0134
 3768SOL    HW122937   3.063   0.459  11.060 -0.0620 -0.7349 -1.2333
 3768SOL    HW222938   3.116   0.327  11.098 -0.9965  0.3419  0.1833
 3769SOL     OW22939   4.091   4.262   9.156  0.3246  0.3955  0.3943
 3769SOL    HW122940   4.173   4.215   9.143 -0.0419  0.3762 -1.7640
 3769SOL    HW222941   4.056   4.198   9.218  0.1135 -0.9073 -1.0767
 3770SOL     OW22942   0.512   2.861   3.176 -0.5799 -0.3402  0.5886
 3770SOL    HW122943   0.426   2.900   3.162 -0.0078  1.2186  1.3045
 3770SOL    HW222944   0.512   2.848   3.271  0.9077 -0.7492  0.5310
 3771SOL     OW22945   3.360   2.362   4.151 -0.2872  0.9538  0.4419
 3771SOL    HW122946   3.398   2.308   4.082  0.0192  3.9440 -1.7092
 3771SOL    HW222947   3.374   2.452   4.123  0.2796  0.7747  0.1397
 3772SOL     OW22948   3.642   3.011   0.911 -0.1947 -0.3100 -0.3046
 3772SOL    HW122949   3.675   3.040   0.826  1.0124  1.3002  0.7038
 3772SOL    HW222950   3.578   2.942   0.890 -1.5603  1.2988 -1.4021
 3773SOL     OW22951   2.976   2.091   6.868 -0.0746  0.0997  0.0357
 3773SOL    HW122952   2.897   2.135   6.902  0.6032  1.0960  0.3246
 3773SOL    HW222953   3.045   2.137   6.915 -1.0966  0.8509  0.8319
 3774SOL     OW22954   1.588   2.816   3.836  0.9082 -1.1039 -0.1165
 3774SOL    HW122955   1.622   2.865   3.760  0.9285  1.8541  1.7734
 3774SOL    HW222956   1.500   2.790   3.809 -0.3458  0.7913  2.1590
 3775SOL     OW22957   0.737   0.169  11.202 -0.7910 -0.5000  0.5233
 3775SOL    HW122958   0.706   0.237  11.141 -0.8598 -1.4467 -0.5074
 3775SOL    HW222959   0.825   0.194  11.231 -0.1078 -1.5015 -0.6540
 3776SOL     OW22960   0.634   1.428   6.858 -0.1892 -0.1584  0.6889
 3776SOL    HW122961   0.689   1.502   6.886  0.5880 -0.1316 -0.9148
 3776SOL    HW222962   0.687   1.351   6.879 -2.2726 -2.1634 -1.3606
 3777SOL     OW22963   2.032   0.453   7.803 -0.2257  0.3110  0.1473
 3777SOL    HW122964   2.028   0.408   7.719  1.8102  2.7786 -1.2865
 3777SOL    HW222965   2.102   0.513   7.780  0.6814 -0.8770 -0.1476
 3778SOL     OW22966   1.197   2.555   5.229  0.0414  0.0334  0.6414
 3778SOL    HW122967   1.249   2.527   5.304  2.0275  1.1140 -0.3051
 3778SOL    HW222968   1.249   2.531   5.152  0.5346 -1.4658  1.4369
 3779SOL     OW22969   1.400   0.978   8.315  0.1633 -0.2369 -1.2277
 3779SOL    HW122970   1.489   1.013   8.311  0.1844 -0.1457 -0.1630
 3779SOL    HW222971   1.414   0.885   8.298  3.7405  0.0478  0.1616
 3780SOL     OW22972   2.550   3.495   7.260  0.0937  0.0902  0.3593
 3780SOL    HW122973   2.518   3.441   7.332  0.6813 -0.5252  0.1569
 3780SOL    HW222974   2.624   3.445   7.228 -1.0642 -1.4625  0.1092
 3781SOL     OW22975   2.668   4.393   7.468 -0.0185 -0.2009 -0.3751
 3781SOL    HW122976   2.696   4.402   7.559 -1.2671 -0.9084  0.0799
 3781SOL    HW222977   2.591   4.449   7.475  1.2758  1.2277  2.2749
 3782SOL     OW22978   3.010   4.540   0.001 -0.3836 -0.1412 -0.0483
 3782SOL    HW122979   2.953   4.575   0.070 -1.5904 -0.9754 -0.6136
 3782SOL    HW222980   3.076   4.609   0.006  0.1848 -0.7739  1.1915
 3783SOL     OW22981   4.138   1.027   3.586 -0.2714  0.0499 -0.4520
 3783SOL    HW122982   4.064   1.084   3.606 -0.3868  0.0385 -0.8563
 3783SOL    HW222983   4.146   0.971   3.663 -0.4757  1.7024  0.7694
 3784SOL     OW22984   4.433   3.700  10.996  0.6859 -0.1449 -0.0684
 3784SOL    HW122985   4.398   3.676  10.909 -1.0713 -0.1012  0.6205
 3784SOL    HW222986   4.405   3.791  10.990  2.3755  0.3352 -0.5086
 3785SOL     OW22987   0.029   2.507   8.364 -0.2993 -0.3001 -0.2821
 3785SOL    HW122988   4.730   2.578   8.311  0.2504  2.2134  2.7122
 3785SOL    HW222989   4.731   2.529   8.450  5.0935  1.6933  1.4661
 3786SOL     OW22990   1.741   0.960  12.372  0.7143 -0.3138 -0.2991
 3786SOL    HW122991   1.693   1.041  12.353 -0.0217 -0.8454 -0.6836
 3786SOL    HW222992   1.799   0.946  12.297 -0.0594  1.3670 -1.2295
 3787SOL     OW22993   3.189   0.586   7.057 -0.2808 -0.0424  0.4450
 3787SOL    HW122994   3.133   0.594   7.135 -2.1090 -0.0279 -0.8782
 3787SOL    HW222995   3.175   0.665   7.005  0.2426  0.2277  0.7178
 3788SOL     OW22996   1.427   4.076   8.219  0.4203  0.4850  0.1659
 3788SOL    HW122997   1.510   4.073   8.170  0.8219  1.2365  0.7957
 3788SOL    HW222998   1.380   4.146   8.175  1.5620  1.1137 -0.0690
 3789SOL     OW22999   3.405   2.207   2.081 -0.0096  0.1849 -0.4004
 3789SOL    HW123000   3.343   2.258   2.132  0.0166 -1.1607  0.9534
 3789SOL    HW223001   3.379   2.238   1.994  3.2047 -2.4762 -2.3034
 3790SOL     OW23002   1.075   4.610  11.962  0.3886 -0.3894  0.1219
 3790SOL    HW123003   1.067   4.611  12.058 -2.8269 -0.9878 -0.1324
 3790SOL    HW223004   0.991   4.574  11.932  0.1987  0.3393 -0.2216
 3791SOL     OW23005   4.628   0.907   7.605 -0.3708 -0.0428 -0.3710
 3791SOL    HW123006   4.542   0.890   7.644 -0.2257 -1.1561 -0.5349
 3791SOL    HW223007   4.608   0.850   7.531 -2.1639 -1.3087  1.0663
 3792SOL     OW23008   1.807   4.689  12.966  0.2485  0.0648 -0.0150
 3792SOL    HW123009   1.770   4.613  12.921 -2.2940 -0.3565  2.7447
 3792SOL    HW223010   1.890   4.705  12.923  0.0757  0.2223 -0.2937
 3793SOL     OW23011   0.730   1.731   8.374 -0.6821 -0.4219 -0.4537
 3793SOL    HW123012   0.775   1.815   8.368  1.5222 -1.4788  1.1229
 3793SOL    HW223013   0.713   1.736   8.469  0.6857 -0.4160 -0.2194
 3794SOL     OW23014   2.969   2.432   0.074 -0.1306 -0.2904  0.3131
 3794SOL    HW123015   2.929   2.479   0.001 -0.2318  1.5235  1.5636
 3794SOL    HW223016   2.900   2.429   0.141  0.4110 -1.2533  0.8314
 3795SOL     OW23017   4.364   3.810   8.897 -0.2427 -0.1476 -0.4808
 3795SOL    HW123018   4.294   3.841   8.955  0.9459  0.9538  0.3735
 3795SOL    HW223019   4.385   3.898   8.865  2.3039 -1.3607 -2.1330
 3796SOL     OW23020   4.023   3.252  11.660 -0.2277 -0.6382 -0.6181
 3796SOL    HW123021   4.095   3.208  11.615 -0.5143  0.3472 -2.0473
 3796SOL    HW223022   4.018   3.338  11.619 -0.0627  0.5684  1.9070
 3797SOL     OW23023   3.427   1.334   1.058 -0.3528  0.0193  0.3189
 3797SOL    HW123024   3.442   1.366   1.147 -2.1491  1.9881 -0.0797
 3797SOL    HW223025   3.335   1.306   1.060 -0.0885 -0.7021  2.2933
 3798SOL     OW23026   0.584   3.623   7.217 -0.4001  0.1050  0.1010
 3798SOL    HW123027   0.492   3.602   7.198 -0.1935 -1.4841  0.8613
 3798SOL    HW223028   0.580   3.717   7.200 -0.5301  0.3117  1.2773
 3799SOL     OW23029   2.389   3.209   9.726  0.5134 -0.3725  0.2183
 3799SOL    HW123030   2.310   3.236   9.679  1.4689  1.3614 -0.3959
 3799SOL    HW223031   2.393   3.261   9.806 -1.4554 -2.8696  1.9587
 3800SOL     OW23032   3.958   1.124   7.880 -0.1634  0.5660 -0.0455
 3800SOL    HW123033   3.946   1.054   7.816  2.8382  0.4140 -0.4146
 3800SOL    HW223034   4.000   1.074   7.950 -1.3889 -0.2634  0.0977
 3801SOL     OW23035   0.309   2.437   8.349  0.2443 -0.0938  0.0587
 3801SOL    HW123036   0.336   2.506   8.410 -0.5894  1.1863 -1.0043
 3801SOL    HW223037   0.218   2.461   8.330  0.0624  0.7924  2.0684
 3802SOL     OW23038   1.816   4.181   3.429 -0.1955 -0.4579 -0.0903
 3802SOL    HW123039   1.889   4.242   3.430 -0.3594 -0.2195 -2.8816
 3802SOL    HW223040   1.757   4.230   3.487  0.0137 -1.3957  0.9211
 3803SOL     OW23041   3.684   2.681   9.346 -0.4008 -0.4894  0.0518
 3803SOL    HW123042   3.708   2.764   9.387 -0.1824 -0.9087  0.7688
 3803SOL    HW223043   3.627   2.716   9.278 -0.7027  1.1941  1.1573
 3804SOL     OW23044   3.748   2.517   8.841 -0.2864 -0.5292 -0.0059
 3804SOL    HW123045   3.742   2.602   8.886  1.2551 -0.2323 -0.3470
 3804SOL    HW223046   3.720   2.542   8.753  0.3975 -0.6648 -0.2644
 3805SOL     OW23047   1.881   1.097   1.666  0.3523  0.5226 -0.2686
 3805SOL    HW123048   1.963   1.087   1.715 -0.6705  0.0115  1.3002
 3805SOL    HW223049   1.911   1.099   1.575 -0.4176 -0.3803 -0.5378
 3806SOL     OW23050   4.340   2.258  11.377 -0.3123 -0.4904 -0.0144
 3806SOL    HW123051   4.308   2.220  11.295  2.2139 -1.4649 -0.5381
 3806SOL    HW223052   4.327   2.191  11.444  0.4621  0.6794  1.3244
 3807SOL     OW23053   1.991   4.068  10.534  0.0392 -0.3305 -0.1848
 3807SOL    HW123054   2.076   4.029  10.512  0.0850  0.5307 -1.5050
 3807SOL    HW223055   1.940   3.997  10.496 -2.1634  1.6883 -0.9572
 3808SOL     OW23056   4.509   0.811  16.035  0.0354 -0.3588 -0.6022
 3808SOL    HW123057   4.588   0.761  16.013  0.0161 -0.7893  0.2865
 3808SOL    HW223058   4.441   0.756  15.996  1.1754 -0.1646 -2.8681
 3809SOL     OW23059   3.858   1.740   3.013 -0.1226 -0.1508  0.3049
 3809SOL    HW123060   3.908   1.667   2.976 -1.3629 -0.4916 -0.6889
 3809SOL    HW223061   3.828   1.782   2.933  1.2448 -0.4432 -0.3516
 3810SOL     OW23062   3.448   4.347   2.659  0.2385  0.2059 -0.3568
 3810SOL    HW123063   3.421   4.428   2.702  1.2837  0.6287 -0.5044
 3810SOL    HW223064   3.383   4.284   2.690 -0.3814  1.6752  1.3314
 3811SOL     OW23065   2.909   1.261   4.082  0.6681 -0.1146 -0.3976
 3811SOL    HW123066   2.968   1.332   4.109 -1.2658  0.9103  1.0882
 3811SOL    HW223067   2.968   1.199   4.038  0.0074 -0.7329 -0.4014
 3812SOL     OW23068   2.083   2.835   7.691 -0.2017  0.3599 -0.0212
 3812SOL    HW123069   2.170   2.870   7.671  0.3304  0.1318  1.9061
 3812SOL    HW223070   2.077   2.743   7.667 -3.0387  0.9493 -1.6042
 3813SOL     OW23071   1.447   2.018   2.788  0.0805  0.2380  0.2320
 3813SOL    HW123072   1.393   1.998   2.711  0.8387  0.5219 -0.3702
 3813SOL    HW223073   1.473   1.930   2.815 -0.5127  0.2839  0.9494
 3814SOL     OW23074   1.224   1.108  16.144 -0.5902  0.4283  0.3463
 3814SOL    HW123075   1.140   1.064  16.135 -0.0493 -0.4001 -0.6153
 3814SOL    HW223076   1.227   1.106  16.240 -1.4383 -1.4207  0.3374
 3815SOL     OW23077   2.154   2.889   7.224 -0.5130 -0.2044 -0.1393
 3815SOL    HW123078   2.068   2.911   7.261 -0.3536 -0.9668  0.7070
 3815SOL    HW223079   2.127   2.834   7.150 -1.0697  0.3138 -0.3139
 3816SOL     OW23080   3.226   1.222   9.329 -0.2792 -0.0234 -0.1605
 3816SOL    HW123081   3.198   1.150   9.272  0.9736 -0.8031  0.2027
 3816SOL    HW223082   3.142   1.260   9.355  1.5617  2.3261  2.4148
 3817SOL     OW23083   4.244   0.417   3.522  0.3558 -0.1586 -0.1523
 3817SOL    HW123084   4.216   0.408   3.613  1.0141 -2.0219 -0.1413
 3817SOL    HW223085   4.330   0.375   3.514 -0.1789 -1.3272  0.2106
 3818SOL     OW23086   4.709   2.738  16.353  0.0978  0.2138 -0.3010
 3818SOL    HW123087   4.683   2.788  16.430  1.8244  0.7083 -0.0289
 3818SOL    HW223088   4.664   2.790  16.286  0.6598 -0.0773 -0.9065
 3819SOL     OW23089   0.787   1.712   7.289 -0.2973 -0.0067 -0.1730
 3819SOL    HW123090   0.744   1.634   7.325  2.5001 -1.4807  0.0315
 3819SOL    HW223091   0.870   1.675   7.259  1.0721  0.7628  2.5950
 3820SOL     OW23092   4.480   4.545   1.553  0.3918 -0.2882  0.0543
 3820SOL    HW123093   4.444   4.550   1.641  3.5045  0.1699  1.2941
 3820SOL    HW223094   4.395   4.575   1.519 -0.1993  0.3302  2.0969
 3821SOL     OW23095   1.781   3.865   9.358 -0.5156 -0.0083 -0.1030
 3821SOL    HW123096   1.756   3.787   9.308  0.1467 -0.0088 -0.4340
 3821SOL    HW223097   1.877   3.861   9.353 -0.6146 -0.5432 -1.4355
 3822SOL     OW23098   3.944   2.020   6.754 -0.1762 -0.4618  0.6479
 3822SOL    HW123099   3.890   1.968   6.695  1.3226 -1.4316  0.1316
 3822SOL    HW223100   3.895   2.022   6.837 -1.4687  2.7204 -0.1964
 3823SOL     OW23101   4.115   4.571  15.117  0.5474  0.0312 -0.1118
 3823SOL    HW123102   4.154   4.589  15.031  3.9352 -0.1175  1.4023
 3823SOL    HW223103   4.184   4.546  15.178  0.2191 -0.2239  0.1540
 3824SOL     OW23104   1.573   1.242   0.425  0.0786  0.1818 -0.0197
 3824SOL    HW123105   1.564   1.329   0.464 -2.2566 -0.3380  0.6072
 3824SOL    HW223106   1.653   1.252   0.373  0.4958 -0.7174  0.4449
 3825SOL     OW23107   4.341   0.712   9.997  0.1548 -0.0985  0.4134
 3825SOL    HW123108   4.372   0.799   9.971 -0.3271  0.8544  3.0640
 3825SOL    HW223109   4.250   0.726  10.020 -0.0842 -0.5497 -0.2466
 3826SOL     OW23110   4.409   2.760   3.052 -0.6301  0.2425  0.0614
 3826SOL    HW123111   4.471   2.748   2.981  1.6185  3.7864  1.3860
 3826SOL    HW223112   4.329   2.798   3.016 -0.9554  0.8761  1.4173
 3827SOL     OW23113   0.478   0.235   6.771 -0.0976  0.7335  0.9087
 3827SOL    HW123114   0.444   0.324   6.765 -1.7599 -0.1217 -2.5441
 3827SOL    HW223115   0.448   0.213   6.859 -3.3598  3.9215  0.5951
 3828SOL     OW23116   3.130   1.838   7.856  0.9220  0.1158  0.5765
 3828SOL    HW123117   3.223   1.827   7.877  0.6426 -0.1964  1.6585
 3828SOL    HW223118   3.107   1.830   7.949  3.6512  0.8006  1.3226
 3829SOL     OW23119   1.349   2.266   0.493 -0.0389 -0.0319 -0.3682
 3829SOL    HW123120   1.378   2.297   0.407  1.5143 -0.2701  0.0654
 3829SOL    HW223121   1.282   2.203   0.466 -0.0622 -0.2289  0.1392
 3830SOL     OW23122   3.435   3.584  11.488  0.1516  0.1870 -0.2361
 3830SOL    HW123123   3.381   3.583  11.409  0.2700 -1.6443 -0.2977
 3830SOL    HW223124   3.366   3.566  11.552 -1.1484  1.6910 -1.1985
 3831SOL     OW23125   2.584   1.333  11.009 -0.6976 -0.4107 -0.2093
 3831SOL    HW123126   2.662   1.349  11.062  0.6698 -0.9175 -2.0652
 3831SOL    HW223127   2.578   1.238  11.012  2.1143 -0.5980 -0.4655
 3832SOL     OW23128   3.576   0.129  13.820  0.1455 -0.2444  0.4545
 3832SOL    HW123129   3.487   0.160  13.836  0.0076 -1.0855  1.2659
 3832SOL    HW223130   3.562   0.043  13.780  0.1007  0.8530 -1.9336
 3833SOL     OW23131   2.718   0.042   4.018 -0.5545  0.2113  0.3017
 3833SOL    HW123132   2.767   0.069   4.096 -0.8423  0.5846  0.3499
 3833SOL    HW223133   2.789   0.013   3.961  0.3928  1.0203  1.0692
 3834SOL     OW23134   2.480   4.680  11.780 -0.1607 -0.1885  0.1890
 3834SOL    HW123135   2.488   4.585  11.774 -0.9895 -0.2443 -0.1059
 3834SOL    HW223136   2.523   4.691  11.865 -1.7721  2.7733  0.6264
 3835SOL     OW23137   1.694   3.075   8.617  0.1361  0.1160 -0.4302
 3835SOL    HW123138   1.654   3.159   8.636 -0.7250  0.1241 -2.2185
 3835SOL    HW223139   1.752   3.083   8.541  0.1193  1.2946 -0.3120
 3836SOL     OW23140   3.747   3.970   3.325 -0.0131  0.3795 -0.3506
 3836SOL    HW123141   3.842   3.962   3.335  0.2218  2.8152 -0.4233
 3836SOL    HW223142   3.728   3.954   3.417  2.2434  0.4563  0.1336
 3837SOL     OW23143   2.151   1.079   3.151  0.0338 -0.4324 -0.1364
 3837SOL    HW123144   2.097   1.025   3.093  0.9744  0.7247 -2.1054
 3837SOL    HW223145   2.141   1.165   3.110  0.7980 -1.7761 -3.1632
 3838SOL     OW23146   4.345   1.271   0.200 -0.3132  0.7543 -0.2196
 3838SOL    HW123147   4.287   1.347   0.203  0.1299  1.1113 -0.5540
 3838SOL    HW223148   4.309   1.212   0.266  1.6901  0.7657  0.8634
 3839SOL     OW23149   3.091   4.005   9.403 -0.2493  0.3503 -0.2914
 3839SOL    HW123150   3.143   4.083   9.386 -0.0525  0.1355 -0.6796
 3839SOL    HW223151   3.005   4.041   9.379 -0.6144 -1.1227 -1.2495
 3840SOL     OW23152   3.515   1.437   2.619  0.5088  0.4749 -0.1993
 3840SOL    HW123153   3.457   1.446   2.694 -1.2217  0.6214 -1.5505
 3840SOL    HW223154   3.537   1.530   2.609 -0.9399  1.0364  1.8067
 3841SOL     OW23155   1.867   2.793   9.550  0.1165  0.6559 -0.5439
 3841SOL    HW123156   1.947   2.801   9.602  0.1763  0.4607 -0.6067
 3841SOL    HW223157   1.891   2.722   9.491 -0.8934  0.3543 -0.5957
 3842SOL     OW23158   4.390   1.213   3.604 -0.6998 -0.0847  0.2247
 3842SOL    HW123159   4.377   1.305   3.629 -2.0687  0.0248 -0.8775
 3842SOL    HW223160   4.296   1.197   3.593 -1.4117  3.5283  1.0187
 3843SOL     OW23161   3.566   0.458   8.374 -0.1628 -0.8309 -0.1468
 3843SOL    HW123162   3.572   0.445   8.469  0.1370 -0.3549 -0.0987
 3843SOL    HW223163   3.656   0.484   8.352 -0.8045  1.6696  0.1806
 3844SOL     OW23164   2.021   1.868   1.234 -0.3159  0.4133  0.3444
 3844SOL    HW123165   2.009   1.786   1.187  0.9122  1.5450 -1.9381
 3844SOL    HW223166   1.934   1.907   1.222 -0.6755 -0.0942  1.2304
 3845SOL     OW23167   3.301   3.457   7.584  0.9050 -0.0738  0.2579
 3845SOL    HW123168   3.390   3.447   7.615  1.7446  0.9004 -1.8194
 3845SOL    HW223169   3.268   3.516   7.651 -0.2231 -0.0263 -0.3207
 3846SOL     OW23170   2.252   1.152   4.266 -1.0550  0.5658  0.9819
 3846SOL    HW123171   2.219   1.109   4.344 -1.3301  0.7518  0.9670
 3846SOL    HW223172   2.278   1.241   4.289  0.1208  0.0897  1.4890
 3847SOL     OW23173   0.469   1.078   8.606 -0.1491  0.2847  0.1733
 3847SOL    HW123174   0.528   1.079   8.681  1.9001 -0.0307 -1.4242
 3847SOL    HW223175   0.415   1.003   8.634  0.4770  1.1066  3.6337
 3848SOL     OW23176   2.752   0.781  14.923  0.5924 -0.1964  0.2725
 3848SOL    HW123177   2.672   0.816  14.962 -0.1998 -2.4031  0.6714
 3848SOL    HW223178   2.747   0.827  14.839  0.1564  1.1468  1.0426
 3849SOL     OW23179   1.372   0.053  12.739  0.1774 -0.0607  0.3267
 3849SOL    HW123180   1.361   0.148  12.741  0.9272  0.0241  0.1914
 3849SOL    HW223181   1.336   0.039  12.827 -1.9054 -1.6327 -0.7532
 3850SOL     OW23182   4.154   0.454   7.630 -0.4791  0.1014  0.7166
 3850SOL    HW123183   4.113   0.415   7.552 -2.0860  1.0740  1.0677
 3850SOL    HW223184   4.245   0.456   7.600 -1.4697  1.2610 -2.2802
 3851SOL     OW23185   0.160   4.515  12.364  0.1676 -0.2461 -0.2076
 3851SOL    HW123186   0.217   4.441  12.386 -1.0503 -0.6165  1.6476
 3851SOL    HW223187   0.073   4.478  12.375  0.6482 -0.8388  1.6032
 3852SOL     OW23188   0.322   0.397   4.610  0.4555  0.0209 -0.2532
 3852SOL    HW123189   0.271   0.474   4.633 -1.7662 -1.9686  1.5424
 3852SOL    HW223190   0.280   0.365   4.530  2.7296 -0.8240 -1.1080
 3853SOL     OW23191   4.165   2.800   4.840  0.4422 -0.5111  0.2204
 3853SOL    HW123192   4.155   2.723   4.896  0.6967 -0.1683  0.7417
 3853SOL    HW223193   4.132   2.867   4.900  0.8829  0.4209 -0.5716
 3854SOL     OW23194   3.691   1.174  13.935  0.3195  0.1424  0.0620
 3854SOL    HW123195   3.661   1.214  13.854  1.2080  0.6374 -0.0238
 3854SOL    HW223196   3.669   1.234  14.006 -1.1089 -0.0143 -0.2555
 3855SOL     OW23197   1.104   3.795  15.052  0.3412 -0.0651 -0.0067
 3855SOL    HW123198   1.151   3.722  15.093  0.4862  0.4280  0.7097
 3855SOL    HW223199   1.159   3.874  15.061  0.9141 -0.7251  2.3536
 3856SOL     OW23200   4.137   4.668   6.483  1.0220 -0.0042  0.4626
 3856SOL    HW123201   4.093   0.013   6.463 -0.0491 -0.1211  2.3622
 3856SOL    HW223202   4.217   4.669   6.431 -1.4095  1.9691 -3.2502
 3857SOL     OW23203   1.359   1.293  16.496  0.4672  0.9537 -0.2212
 3857SOL    HW123204   1.373   1.361  16.430 -0.6792 -0.0721 -1.5100
 3857SOL    HW223205   1.282   1.247  16.461  1.1440  0.1426 -0.6426
 3858SOL     OW23206   4.727   4.524   3.168  0.8901  0.1395 -0.1550
 3858SOL    HW123207   4.631   4.523   3.170  0.9283 -1.1126  0.8521
 3858SOL    HW223208   0.000   4.597   3.107  0.6975  1.2941  1.1924
 3859SOL     OW23209   1.293   0.444  15.931 -0.1980  0.4068  0.3015
 3859SOL    HW123210   1.257   0.465  15.845  1.1557 -0.8279 -0.5727
 3859SOL    HW223211   1.329   0.356  15.919  0.7077  0.4010  3.0186
 3860SOL     OW23212   0.656   1.009   1.145 -0.3017  0.5264  0.8369
 3860SOL    HW123213   0.695   1.015   1.058 -1.1354  1.2053  0.5110
 3860SOL    HW223214   0.671   1.096   1.181 -1.6320  0.1563  2.3328
 3861SOL     OW23215   0.774   4.597  11.884 -0.3739  0.2509 -0.3578
 3861SOL    HW123216   0.793   4.690  11.871  0.1432  0.1285 -0.5116
 3861SOL    HW223217   0.765   4.588  11.978  2.4208  1.6847  0.0487
 3862SOL     OW23218   4.579   2.972  16.228  0.2670  0.2016  0.0775
 3862SOL    HW123219   4.502   3.029  16.214 -0.5318 -1.3461 -1.8683
 3862SOL    HW223220   4.651   2.997  16.170  0.3574  2.6655  1.2523
 3863SOL     OW23221   1.857   3.262   5.052 -0.0308 -0.3066  0.3327
 3863SOL    HW123222   1.932   3.234   4.999 -0.9045  1.0728 -1.6287
 3863SOL    HW223223   1.829   3.180   5.093  1.3560 -0.4935  0.9431
 3864SOL     OW23224   3.748   3.818   2.960  0.0952  0.0904  0.2176
 3864SOL    HW123225   3.749   3.763   3.039  0.2259 -1.0797 -0.6071
 3864SOL    HW223226   3.706   3.896   2.997  2.6640  1.3863  0.4357
 3865SOL     OW23227   1.284   2.677  13.007 -0.2513  0.2687 -0.0444
 3865SOL    HW123228   1.268   2.617  13.080 -0.7848  1.1198  0.5391
 3865SOL    HW223229   1.246   2.758  13.039  1.8104  0.3268  2.2130
 3866SOL     OW23230   0.482   1.766   5.753  0.4405 -0.2852  0.1821
 3866SOL    HW123231   0.578   1.763   5.745  0.3903 -1.7644  0.0252
 3866SOL    HW223232   0.475   1.737   5.843  1.3794 -1.2000 -0.0269
 3867SOL     OW23233   2.360   3.243  12.092  0.0614 -0.3003  0.5546
 3867SOL    HW123234   2.314   3.271  12.172 -2.0015  0.6587 -0.9632
 3867SOL    HW223235   2.322   3.292  12.019  1.3585 -0.1987 -0.0450
 3868SOL     OW23236   2.206   2.689   6.769 -0.3425  0.5190  0.1731
 3868SOL    HW123237   2.276   2.652   6.714 -1.3871 -1.5630  0.2388
 3868SOL    HW223238   2.126   2.686   6.717  1.0581 -0.1923 -1.9318
 3869SOL     OW23239   2.951   4.200   5.168 -0.0692 -0.1750  0.9549
 3869SOL    HW123240   2.983   4.111   5.159 -3.3431 -1.0960 -1.8245
 3869SOL    HW223241   2.982   4.229   5.254  0.3488 -0.5277  0.9187
 3870SOL     OW23242   1.220   1.197   9.183  0.0216 -0.2573  0.0801
 3870SOL    HW123243   1.270   1.115   9.192  1.7123  0.6403 -1.1653
 3870SOL    HW223244   1.293   1.259   9.174 -0.1549 -0.1138 -0.3352
 3871SOL     OW23245   1.150   1.165  10.914 -0.0707 -0.1092  0.3494
 3871SOL    HW123246   1.139   1.079  10.954  0.5363  0.1827  1.1377
 3871SOL    HW223247   1.186   1.213  10.988  0.5745 -0.9632  0.5883
 3872SOL     OW23248   0.056   4.043   4.234  0.4702 -0.4296  0.8372
 3872SOL    HW123249   0.094   4.120   4.193 -1.1952  0.2287  0.5234
 3872SOL    HW223250   0.001   4.005   4.165  0.6991  0.8875 -0.0590
 3873SOL     OW23251   0.945   0.493  15.679  0.3552 -0.3278  0.1887
 3873SOL    HW123252   1.002   0.518  15.607 -0.0557  1.4874  0.4909
 3873SOL    HW223253   0.868   0.473  15.626  2.0675 -1.0275 -2.0515
 3874SOL     OW23254   0.247   1.518   9.151 -0.3029  0.2177 -0.1890
 3874SOL    HW123255   0.221   1.501   9.061  1.1540 -1.7156 -0.2473
 3874SOL    HW223256   0.342   1.525   9.149 -0.1671 -1.5220  0.1440
 3875SOL     OW23257   0.664   1.761   8.926  0.5054  0.1898  0.3273
 3875SOL    HW123258   0.571   1.780   8.917  0.5825 -0.1330 -1.0928
 3875SOL    HW223259   0.659   1.748   9.021 -0.8898  1.5867  0.4495
 3876SOL     OW23260   2.951   1.718  10.141  0.1547 -0.0841  0.4234
 3876SOL    HW123261   3.025   1.661  10.121 -0.4427 -0.5672 -0.4343
 3876SOL    HW223262   2.944   1.758  10.054  3.1690  0.6831  0.5344
 3877SOL     OW23263   4.626   3.796   9.000 -0.1267 -0.8292  0.5208
 3877SOL    HW123264   4.676   3.761   8.926  1.0245  2.1351 -0.1082
 3877SOL    HW223265   4.537   3.769   8.980 -0.2212 -0.4565  0.4300
 3878SOL     OW23266   3.612   3.152  10.689  0.0152  0.1464 -0.0860
 3878SOL    HW123267   3.649   3.139  10.777  2.8806  0.8491 -1.1980
 3878SOL    HW223268   3.619   3.065  10.651 -1.5530 -0.4409  0.9457
 3879SOL     OW23269   1.533   2.999   5.557 -0.3134  0.5651  0.5677
 3879SOL    HW123270   1.502   3.047   5.634 -0.9940  0.8247  0.1318
 3879SOL    HW223271   1.575   3.067   5.505 -2.5409  0.8503 -0.8698
 3880SOL     OW23272   1.941   4.312   4.484  0.2088 -0.6976 -0.8942
 3880SOL    HW123273   1.978   4.251   4.548  1.0440  0.5805 -0.1505
 3880SOL    HW223274   1.998   4.386   4.507 -0.2201 -1.5486  2.8362
 3881SOL     OW23275   3.829   2.430   7.624  0.7682 -0.6590 -0.1837
 3881SOL    HW123276   3.752   2.394   7.581 -0.7108 -0.4281  2.2461
 3881SOL    HW223277   3.899   2.428   7.560 -0.7104  0.0666 -1.8028
 3882SOL     OW23278   1.492   4.298   9.595 -0.1742  0.3957 -0.4758
 3882SOL    HW123279   1.550   4.237   9.549  1.1855  0.8966  0.5813
 3882SOL    HW223280   1.487   4.273   9.687  1.3206 -3.3941 -1.4263
 3883SOL     OW23281   1.870   3.052  15.533  0.1152 -0.1369 -0.9652
 3883SOL    HW123282   1.889   3.144  15.547 -1.0836 -0.3579  2.2034
 3883SOL    HW223283   1.808   3.028  15.602 -0.4249 -1.4479 -1.9074
 3884SOL     OW23284   1.240   3.557   6.250  0.1243  0.0617 -0.6378
 3884SOL    HW123285   1.236   3.630   6.189  2.7065 -0.8315 -1.8625
 3884SOL    HW223286   1.283   3.597   6.326 -0.6972 -2.0091  0.9159
 3885SOL     OW23287   0.487   4.543   8.033  0.3899 -0.0206 -0.1742
 3885SOL    HW123288   0.456   4.489   8.105 -2.2887 -0.0297 -1.3422
 3885SOL    HW223289   0.422   4.610   8.009  0.3053  0.3729  1.1166
 3886SOL     OW23290   3.713   2.446   1.080 -0.3974  0.0356  1.0302
 3886SOL    HW123291   3.635   2.425   1.029 -0.0910 -0.9991  0.9990
 3886SOL    HW223292   3.680   2.433   1.169 -0.9798 -0.8383  0.6771
 3887SOL     OW23293   1.249   3.346   8.893  0.6300 -0.2061  0.0866
 3887SOL    HW123294   1.322   3.362   8.952  0.7701 -0.4488 -0.0223
 3887SOL    HW223295   1.204   3.430   8.900  0.4717 -0.1694 -1.3778
 3888SOL     OW23296   2.205   0.859  16.590  0.4846  0.4280 -0.0160
 3888SOL    HW123297   2.160   0.890  16.512 -1.5333  2.8502  2.1008
 3888SOL    HW223298   2.165   0.912  16.659  0.1300 -1.2959  1.1038
 3889SOL     OW23299   3.628   1.429   3.996 -0.1933  0.4099 -0.0995
 3889SOL    HW123300   3.561   1.389   4.052  1.2606 -0.0927  1.2565
 3889SOL    HW223301   3.690   1.357   3.987 -0.7025  0.0716 -0.8977
 3890SOL     OW23302   4.392   2.588  16.548 -0.3895  0.4845 -0.4043
 3890SOL    HW123303   4.439   2.521  16.498  1.6192  1.0853  0.6555
 3890SOL    HW223304   4.458   2.657  16.539 -0.7564  0.6627 -1.6973
 3891SOL     OW23305   0.275   0.892   1.591  0.2161  0.4581 -0.1358
 3891SOL    HW123306   0.221   0.916   1.515  0.7411 -0.4883 -0.8077
 3891SOL    HW223307   0.203   0.913   1.651  0.9754 -0.3326  1.0487
 3892SOL     OW23308   3.059   2.708   4.632  0.0208  0.0964 -0.1581
 3892SOL    HW123309   3.124   2.754   4.579  1.4519 -1.1865  0.5079
 3892SOL    HW223310   3.109   2.635   4.666  1.5104  2.4820  2.7925
 3893SOL     OW23311   3.256   3.243   5.133 -0.0572  0.0358 -0.1922
 3893SOL    HW123312   3.293   3.166   5.177 -0.0118 -0.6282 -1.3927
 3893SOL    HW223313   3.340   3.284   5.116  0.7230 -2.0115 -1.3559
 3894SOL     OW23314   2.148   2.678   1.689 -0.4259 -0.0991 -0.2134
 3894SOL    HW123315   2.220   2.625   1.654 -0.9138  0.2885 -1.7999
 3894SOL    HW223316   2.081   2.612   1.669 -0.9816 -0.2386  2.1764
 3895SOL     OW23317   2.445   0.029   1.487 -0.2817  0.2720 -0.0755
 3895SOL    HW123318   2.381   4.695   1.484 -0.4682  0.3549  1.8520
 3895SOL    HW223319   2.411   0.088   1.419  0.2905  1.5196  0.7269
 3896SOL     OW23320   0.653   4.066   8.499  0.0488  0.5173  0.0609
 3896SOL    HW123321   0.642   4.040   8.591  0.8510  0.5581  0.1654
 3896SOL    HW223322   0.683   4.156   8.503  0.1069  0.4318  1.6163
 3897SOL     OW23323   1.818   3.600   9.842 -0.1101  0.1971  0.1912
 3897SOL    HW123324   1.784   3.683   9.875 -1.9312 -0.5492  0.2163
 3897SOL    HW223325   1.816   3.616   9.748 -0.0221 -1.6117 -0.1223
 3898SOL     OW23326   0.579   4.185   4.384 -0.3875  0.4409 -0.1704
 3898SOL    HW123327   0.577   4.266   4.435 -2.8830  0.1625  0.1763
 3898SOL    HW223328   0.613   4.224   4.304  2.6510  0.9421  1.3681
 3899SOL     OW23329   1.821   1.358  11.819 -0.3821  0.0151 -0.2078
 3899SOL    HW123330   1.756   1.419  11.854  1.4209  1.1212  1.2170
 3899SOL    HW223331   1.905   1.393  11.849 -0.8902 -0.4700  1.7960
 3900SOL     OW23332   1.575   3.957   6.465  0.4572 -0.0269  0.4787
 3900SOL    HW123333   1.634   3.882   6.459 -1.9559 -1.8818  0.0106
 3900SOL    HW223334   1.492   3.920   6.497  1.1203 -0.2129  1.9642
 3901SOL     OW23335   4.271   1.142   0.967  0.1829  0.1553 -0.1603
 3901SOL    HW123336   4.310   1.165   0.883 -1.9924 -1.0076 -1.4964
 3901SOL    HW223337   4.232   1.226   0.993 -0.5338 -0.0024 -0.7366
 3902SOL     OW23338   3.952   4.203   6.510  0.1113 -0.1810 -0.4429
 3902SOL    HW123339   3.950   4.186   6.604  2.4000  0.1961 -0.3187
 3902SOL    HW223340   4.019   4.272   6.512  0.7100 -0.8552  2.5436
 3903SOL     OW23341   3.034   4.171   2.145 -0.2549 -0.6661 -0.3170
 3903SOL    HW123342   2.983   4.237   2.192  0.8359  0.6031 -0.9144
 3903SOL    HW223343   3.086   4.124   2.210 -0.3531 -1.4883 -0.8424
 3904SOL     OW23344   3.778   3.230   7.080  0.1643  0.3369 -0.9023
 3904SOL    HW123345   3.835   3.251   7.154  2.0528 -0.5405 -2.1099
 3904SOL    HW223346   3.756   3.140   7.103 -0.4242  0.4596 -0.9925
 3905SOL     OW23347   2.401   4.649   4.508  0.2874 -0.2264 -0.2242
 3905SOL    HW123348   2.448   4.591   4.448  0.2345  0.9884 -1.4367
 3905SOL    HW223349   2.473   4.695   4.552  0.8482 -1.3236 -0.0028
 3906SOL     OW23350   3.138   2.509  16.427 -0.2586  0.7244 -0.7173
 3906SOL    HW123351   3.067   2.562  16.464  0.2524  0.9658 -0.0855
 3906SOL    HW223352   3.212   2.548  16.473 -2.2677  1.5947  1.7891
 3907SOL     OW23353   3.418   0.937   3.690 -0.1698  0.0455  0.2502
 3907SOL    HW123354   3.470   1.009   3.725  4.0556 -1.9613 -1.9400
 3907SOL    HW223355   3.442   0.861   3.743  1.3639  1.1121  1.0925
 3908SOL     OW23356   4.294   0.315   3.784 -0.0824  0.2330 -0.5033
 3908SOL    HW123357   4.362   0.270   3.834 -0.6014 -0.5871 -0.5386
 3908SOL    HW223358   4.230   0.333   3.852 -0.0644  1.4014 -0.7931
 3909SOL     OW23359   3.498   3.470   6.591 -0.5956 -0.6859  0.3936
 3909SOL    HW123360   3.494   3.563   6.572 -1.8804 -0.6864  0.6518
 3909SOL    HW223361   3.442   3.469   6.668 -0.4188 -1.6087  0.5167
 3910SOL     OW23362   4.496   4.136   2.841 -0.4965  0.6833  0.0757
 3910SOL    HW123363   4.479   4.207   2.778 -1.2029  0.0284 -0.4690
 3910SOL    HW223364   4.425   4.145   2.903  1.3393 -0.2321  2.3056
 3911SOL     OW23365   4.456   1.003   1.499  0.9376 -0.2973 -0.0699
 3911SOL    HW123366   4.460   1.053   1.580 -0.6621 -0.2342 -0.0279
 3911SOL    HW223367   4.385   0.939   1.511  0.6573  0.0261  0.0185
 3912SOL     OW23368   1.895   4.566  10.446 -0.1549  0.3352  0.0681
 3912SOL    HW123369   1.893   4.503  10.518  0.1889  0.9580  0.6219
 3912SOL    HW223370   1.977   4.550  10.400 -0.7087  1.6012 -1.3653
 3913SOL     OW23371   1.380   3.513   4.922 -0.0854 -0.1699 -0.1370
 3913SOL    HW123372   1.452   3.494   4.862 -0.6208  0.8891 -1.1047
 3913SOL    HW223373   1.322   3.442   4.893 -1.9878  0.3095  2.5485
 3914SOL     OW23374   1.554   0.574   2.580  0.0111 -0.0091  0.3853
 3914SOL    HW123375   1.481   0.531   2.537  0.6808 -0.1132 -0.6447
 3914SOL    HW223376   1.532   0.549   2.670  0.0155 -1.7696 -0.1079
 3915SOL     OW23377   4.183   3.852   9.071  0.1869 -0.0511  0.0228
 3915SOL    HW123378   4.232   3.922   9.115 -2.1909  1.1590  0.7154
 3915SOL    HW223379   4.092   3.881   9.078  0.6382  1.2250  0.5868
 3916SOL     OW23380   1.903   3.878   8.983 -0.1744 -0.0667 -0.2059
 3916SOL    HW123381   1.955   3.956   8.962  0.7033 -0.7975 -0.7599
 3916SOL    HW223382   1.857   3.912   9.059 -0.2584 -3.2218  1.1260
 3917SOL     OW23383   0.368   2.223   3.843  0.4628  0.6470 -0.1813
 3917SOL    HW123384   0.385   2.130   3.859 -1.7597  0.3527  0.5219
 3917SOL    HW223385   0.339   2.221   3.752 -1.6653 -0.5699  0.5191
 3918SOL     OW23386   1.944   2.131   6.731  0.3813  0.0582 -0.0173
 3918SOL    HW123387   1.892   2.116   6.810 -0.5625 -0.1352 -0.6750
 3918SOL    HW223388   1.956   2.226   6.726  1.4734  0.0063  1.6622
 3919SOL     OW23389   3.257   0.906   7.216  0.2946 -0.0021  0.1503
 3919SOL    HW123390   3.294   0.897   7.304  0.9646  0.3519 -0.0990
 3919SOL    HW223391   3.166   0.878   7.227  0.6379 -0.3142  2.2176
 3920SOL     OW23392   2.437   2.451   8.712  0.3445 -0.1789  0.7339
 3920SOL    HW123393   2.459   2.389   8.643 -1.5169  0.6999 -0.6505
 3920SOL    HW223394   2.423   2.535   8.669  0.3639 -1.9450 -2.6847
 3921SOL     OW23395   0.012   1.442   1.097 -0.5333  0.7602 -0.7586
 3921SOL    HW123396   0.031   1.481   1.182 -2.3142  0.9268 -0.4454
 3921SOL    HW223397   0.036   1.517   1.042  0.0758  1.8524  1.0027
 3922SOL     OW23398   1.231   0.614   5.196 -0.2333 -0.2155 -0.5855
 3922SOL    HW123399   1.220   0.547   5.129 -3.7542 -0.7000  0.4597
 3922SOL    HW223400   1.238   0.561   5.276  0.9958  0.8511  0.0200
 3923SOL     OW23401   2.371   0.666  10.065 -0.0454  0.5736 -0.2413
 3923SOL    HW123402   2.316   0.703   9.995  1.0125  2.0074 -0.3068
 3923SOL    HW223403   2.303   0.613  10.108  2.3728 -0.6430  2.0435
 3924SOL     OW23404   0.077   3.728   7.154 -0.3686 -0.2050  0.1876
 3924SOL    HW123405   4.735   3.749   7.203  0.5351  2.4289  0.5747
 3924SOL    HW223406   0.083   3.635   7.173 -1.0368  0.1191  1.9295
 3925SOL     OW23407   2.639   1.518   8.334  0.5455  0.2704  0.4708
 3925SOL    HW123408   2.707   1.526   8.268  0.9917  0.1122  0.9120
 3925SOL    HW223409   2.557   1.516   8.285 -0.3688 -2.8651  2.0675
 3926SOL     OW23410   2.019   3.158  10.797 -0.5637  0.0666 -0.3179
 3926SOL    HW123411   1.966   3.224  10.751 -2.7909 -0.9557  0.7520
 3926SOL    HW223412   2.029   3.209  10.877  3.4858  0.0500 -0.8490
 3927SOL     OW23413   0.335   1.202  15.647  0.0468  0.0337 -0.0074
 3927SOL    HW123414   0.249   1.200  15.605  0.2258 -4.4344 -0.1829
 3927SOL    HW223415   0.380   1.154  15.577 -2.3246 -1.1102 -0.7628
 3928SOL     OW23416   3.746   1.907  12.210  0.0554 -0.3643  0.2453
 3928SOL    HW123417   3.765   1.964  12.285 -1.4812 -1.3134  1.3349
 3928SOL    HW223418   3.809   1.836  12.221  0.6083 -0.0548 -0.8552
 3929SOL     OW23419   2.976   0.590  14.472 -0.1251 -0.6483  0.3444
 3929SOL    HW123420   3.053   0.584  14.529 -1.3048 -0.3810  1.9547
 3929SOL    HW223421   2.910   0.552  14.530 -1.6763  2.1370  0.3818
 3930SOL     OW23422   4.350   2.546   2.669 -0.0251 -0.7602 -0.2696
 3930SOL    HW123423   4.431   2.513   2.631  0.7301 -0.9173  1.5011
 3930SOL    HW223424   4.292   2.564   2.595  1.3432  1.4386 -0.8310
 3931SOL     OW23425   0.724   0.557   6.399  0.7442 -0.3437  0.2297
 3931SOL    HW123426   0.744   0.554   6.493  0.3470  1.5113  0.3742
 3931SOL    HW223427   0.809   0.524   6.369  0.3110  0.8290 -2.3178
 3932SOL     OW23428   0.600   2.829   3.736  0.2842  0.4292  0.0548
 3932SOL    HW123429   0.666   2.761   3.720  0.2669  0.7800 -1.5244
 3932SOL    HW223430   0.645   2.881   3.802  2.2092  1.6249 -2.1964
 3933SOL     OW23431   3.367   1.352   8.610  1.0162 -0.3137  0.0715
 3933SOL    HW123432   3.457   1.374   8.587  1.0532 -1.4333 -0.8532
 3933SOL    HW223433   3.351   1.268   8.568  1.9378 -0.3187 -0.2624
 3934SOL     OW23434   3.471   1.454   6.403 -0.8168 -0.4150  0.1648
 3934SOL    HW123435   3.549   1.437   6.349  0.0941 -0.5018  1.5047
 3934SOL    HW223436   3.512   1.466   6.488 -2.7739 -0.8282  1.1448
 3935SOL     OW23437   0.957   1.976   8.997 -0.1994 -0.1249 -0.4472
 3935SOL    HW123438   0.890   2.043   8.994 -1.5216 -1.4667 -0.8048
 3935SOL    HW223439   0.955   1.934   8.910 -1.3238  0.0654 -0.5126
 3936SOL     OW23440   0.741   0.369   7.356  0.4370  0.6342 -0.1924
 3936SOL    HW123441   0.817   0.315   7.334  1.0081  0.4664  2.2069
 3936SOL    HW223442   0.779   0.456   7.350  1.5432  0.2139  0.7934
 3937SOL     OW23443   3.863   3.056  16.431  0.4225  0.2288 -0.0731
 3937SOL    HW123444   3.832   3.115  16.362 -0.1959  0.6588  0.5675
 3937SOL    HW223445   3.834   3.094  16.514 -0.5277 -0.5697 -0.0326
 3938SOL     OW23446   0.521   3.416   3.508  0.1488  0.2490  0.1007
 3938SOL    HW123447   0.532   3.348   3.441  1.0204 -1.4326  1.9205
 3938SOL    HW223448   0.433   3.441   3.482 -0.8709 -2.7095  0.7072
 3939SOL     OW23449   4.054   0.717  16.863 -0.1131 -0.9096  0.0531
 3939SOL    HW123450   4.010   0.786  16.812  0.7171  0.3538  1.0639
 3939SOL    HW223451   4.137   0.709  16.817  0.3180  2.0802  0.3045
 3940SOL     OW23452   1.170   0.658   7.522 -0.0096 -0.3539  0.2834
 3940SOL    HW123453   1.166   0.584   7.583 -0.5975 -1.1067 -0.6664
 3940SOL    HW223454   1.163   0.736   7.577  2.0849 -0.2441  0.3915
 3941SOL     OW23455   0.017   4.647   2.523  0.7410  0.4482  0.5062
 3941SOL    HW123456   0.016   4.692   2.608  0.4676  0.1389  0.6648
 3941SOL    HW223457   0.046   4.560   2.552 -2.7058 -0.9160 -0.1259
 3942SOL     OW23458   3.158   4.203   9.770 -0.5159 -0.0444 -0.4893
 3942SOL    HW123459   3.240   4.191   9.819  0.1938  0.0211 -1.6523
 3942SOL    HW223460   3.193   4.220   9.682 -1.5916  0.6744 -0.7738
 3943SOL     OW23461   3.375   0.758  15.030 -0.6181 -0.4058  0.3483
 3943SOL    HW123462   3.345   0.734  14.943  0.2594  1.2499 -0.4069
 3943SOL    HW223463   3.392   0.851  15.014  1.6505 -0.7350  0.8481
 3944SOL     OW23464   0.542   4.583   9.362  0.3306 -0.9928  0.0755
 3944SOL    HW123465   0.584   4.572   9.447  1.3802  0.0516 -0.3012
 3944SOL    HW223466   0.599   4.639   9.309  0.4446 -0.6691  0.5391
 3945SOL     OW23467   0.636   0.588   0.986  0.0171  0.0710 -0.2769
 3945SOL    HW123468   0.577   0.559   1.056 -0.4588  1.3517 -0.1499
 3945SOL    HW223469   0.585   0.552   0.914 -1.1726 -0.6973  0.9382
 3946SOL     OW23470   1.603   3.488  10.266 -0.2161 -0.5430 -0.0963
 3946SOL    HW123471   1.614   3.471  10.173  1.3990 -2.5382  0.4580
 3946SOL    HW223472   1.518   3.453  10.292  0.8674 -1.1771  2.5659
 3947SOL     OW23473   0.899   1.879  15.213 -0.5003  0.0002 -0.0096
 3947SOL    HW123474   0.892   1.900  15.120 -0.7831 -1.2150 -0.2617
 3947SOL    HW223475   0.845   1.947  15.254 -0.6801  0.1947 -0.5666
 3948SOL     OW23476   1.320   4.265   3.126  0.5611  0.1994 -0.0897
 3948SOL    HW123477   1.317   4.355   3.160 -1.7230  0.0330  0.1547
 3948SOL    HW223478   1.376   4.228   3.194  1.9098 -0.1149 -1.3675
 3949SOL     OW23479   2.281   2.145  14.391 -0.4961  0.6396  0.0811
 3949SOL    HW123480   2.225   2.079  14.349  1.2338 -0.7723  0.0297
 3949SOL    HW223481   2.369   2.113  14.374 -2.0223 -2.0646 -2.8274
 3950SOL     OW23482   4.506   1.005   1.013  0.5763  0.4675  0.4306
 3950SOL    HW123483   4.417   1.040   1.008  0.0694 -0.6445  1.9309
 3950SOL    HW223484   4.521   1.015   1.106  2.1548 -0.7844  0.3157
 3951SOL     OW23485   2.236   0.555   6.402  0.5074  0.1776 -0.4797
 3951SOL    HW123486   2.239   0.496   6.327 -1.0361 -0.0605 -0.3500
 3951SOL    HW223487   2.330   0.571   6.412  1.1243 -2.4327 -2.3594
 3952SOL     OW23488   4.001   4.678  10.600  0.1247 -0.7683 -0.2037
 3952SOL    HW123489   4.089   4.640  10.599  1.5251  2.4847 -0.5117
 3952SOL    HW223490   4.012   0.002  10.528  0.3968 -1.9814 -1.1879
 3953SOL     OW23491   0.399   0.628   2.706  0.1563 -0.5481  0.1320
 3953SOL    HW123492   0.485   0.661   2.732  0.8138 -1.7972 -0.4604
 3953SOL    HW223493   0.362   0.575   2.777 -0.8040  0.7766  0.6287
 3954SOL     OW23494   0.624   2.441  13.228 -0.3855  0.0177  0.6103
 3954SOL    HW123495   0.594   2.358  13.264  0.9068 -0.9295 -0.4742
 3954SOL    HW223496   0.540   2.458  13.186 -0.3848 -0.9785  0.2075
 3955SOL     OW23497   2.272   0.956   5.600  0.4080  0.4178 -0.1695
 3955SOL    HW123498   2.225   1.021   5.548 -1.8621 -0.0293  1.3088
 3955SOL    HW223499   2.261   0.981   5.692 -0.8503 -0.6676 -0.0271
 3956SOL     OW23500   1.537   3.197   7.789 -0.3209  0.5404 -0.3040
 3956SOL    HW123501   1.518   3.194   7.883  0.1459  1.8294 -0.1793
 3956SOL    HW223502   1.628   3.227   7.791 -0.3171  0.3883  2.1247
 3957SOL     OW23503   1.566   0.955  15.579 -0.3924 -0.0248 -0.1941
 3957SOL    HW123504   1.571   1.034  15.525 -0.0015  0.1192  0.0501
 3957SOL    HW223505   1.511   0.992  15.648 -0.5292  0.4473 -0.5527
 3958SOL     OW23506   0.050   0.992  14.857 -0.3311  0.0011 -0.1134
 3958SOL    HW123507   0.020   0.902  14.868  2.6263 -1.1426 -1.6382
 3958SOL    HW223508   0.140   0.983  14.888 -0.7773 -0.1483  1.1562
 3959SOL     OW23509   2.115   0.997   4.436  0.2051  0.0787  0.0596
 3959SOL    HW123510   2.077   0.966   4.518 -0.8001  2.2347  0.4030
 3959SOL    HW223511   2.085   0.930   4.374  2.1861 -0.4248 -0.3806
 3960SOL     OW23512   0.552   2.279   5.782  0.0138  0.5663  0.6833
 3960SOL    HW123513   0.611   2.332   5.729  1.8828 -0.9034  1.2698
 3960SOL    HW223514   0.609   2.209   5.815  2.4425  1.4571 -1.6694
 3961SOL     OW23515   1.287   1.066   8.879 -0.2830  0.3449 -0.0003
 3961SOL    HW123516   1.342   1.121   8.936  0.0991  1.3109 -1.2975
 3961SOL    HW223517   1.303   1.092   8.788  0.8707 -1.5207 -0.3285
 3962SOL     OW23518   2.771   3.150   8.425 -0.8027 -0.3760  0.2105
 3962SOL    HW123519   2.820   3.077   8.388 -0.0221 -0.6261  1.7193
 3962SOL    HW223520   2.703   3.097   8.468 -1.4497 -1.1006 -1.7380
 3963SOL     OW23521   3.337   1.862   6.715  0.1586 -0.0076  0.2509
 3963SOL    HW123522   3.363   1.922   6.645 -1.4057 -2.4139 -2.3856
 3963SOL    HW223523   3.320   1.930   6.780  0.6734  1.5829 -1.2838
 3964SOL     OW23524   1.172   1.675  15.503 -0.0085 -0.4926  0.1082
 3964SOL    HW123525   1.169   1.689  15.408  2.0261  1.3662  0.3284
 3964SOL    HW223526   1.229   1.598  15.496  2.3235  1.1138  1.4806
 3965SOL     OW23527   1.706   0.209   1.056  0.4536 -0.1015 -0.5738
 3965SOL    HW123528   1.789   0.214   1.009 -0.2926  0.5954 -1.8260
 3965SOL    HW223529   1.667   0.294   1.037  1.4501  0.5520  0.3155
 3966SOL     OW23530   3.358   0.598  12.081 -0.3702  0.0864 -0.4904
 3966SOL    HW123531   3.343   0.594  12.175  0.3204  0.7535 -0.3559
 3966SOL    HW223532   3.394   0.685  12.064 -0.3177 -0.2461 -2.0995
 3967SOL     OW23533   3.787   3.519   7.479 -0.3618 -0.0430 -0.1890
 3967SOL    HW123534   3.840   3.440   7.489  2.3647  2.1103  2.3204
 3967SOL    HW223535   3.810   3.541   7.389  0.7943  0.7889  0.3095
 3968SOL     OW23536   2.958   0.581   7.240  0.1341 -0.2070 -0.2644
 3968SOL    HW123537   2.994   0.551   7.323 -0.1534  0.5854  0.1509
 3968SOL    HW223538   2.868   0.548   7.244  0.5120 -1.1774  0.2345
 3969SOL     OW23539   1.565   1.380   4.290  0.3233  0.3870 -0.1222
 3969SOL    HW123540   1.587   1.468   4.321  0.1595  1.1417 -2.1476
 3969SOL    HW223541   1.493   1.357   4.349 -0.9808  1.8486 -1.1351
 3970SOL     OW23542   1.111   3.921   6.230 -0.1041  0.1318  0.4626
 3970SOL    HW123543   1.150   3.857   6.171 -1.2450  2.5258 -2.8591
 3970SOL    HW223544   1.018   3.901   6.220  0.5022 -1.5287 -1.6711
 3971SOL     OW23545   2.967   1.497  15.332  0.0494 -0.3487  0.3855
 3971SOL    HW123546   2.994   1.514  15.242  0.5550  2.2910  1.0147
 3971SOL    HW223547   2.872   1.496  15.327  0.0231 -0.1534  0.8373
 3972SOL     OW23548   3.871   4.458   2.996  0.5758 -0.4967 -0.0517
 3972SOL    HW123549   3.816   4.508   3.057  0.8075 -2.7280  1.9882
 3972SOL    HW223550   3.921   4.527   2.952  0.9027 -0.1128  0.9042
 3973SOL     OW23551   1.664   1.598   1.918  0.2353 -0.1477  0.2500
 3973SOL    HW123552   1.594   1.572   1.858  1.1539  1.8842 -1.6467
 3973SOL    HW223553   1.646   1.692   1.921 -0.8013 -0.3009 -1.1381
 3974SOL     OW23554   1.113   1.442   3.107  0.1617 -0.1444 -0.1423
 3974SOL    HW123555   1.097   1.509   3.040  1.1514  0.1218 -0.1098
 3974SOL    HW223556   1.110   1.364   3.051  1.9655  0.3104 -0.8825
 3975SOL     OW23557   1.773   1.379   6.847 -0.4082  0.5594 -0.0581
 3975SOL    HW123558   1.841   1.444   6.861 -0.1562  0.6152 -1.5763
 3975SOL    HW223559   1.768   1.336   6.932  2.9643  0.9189  0.2880
 3976SOL     OW23560   1.982   1.056   4.124 -0.1875  0.3413  0.0824
 3976SOL    HW123561   1.932   1.132   4.155  0.5503  1.0285 -0.4341
 3976SOL    HW223562   2.070   1.084   4.145 -0.0004 -0.1637 -0.0335
 3977SOL     OW23563   0.083   4.076   0.748 -0.0869  0.3020  0.3128
 3977SOL    HW123564   0.172   4.049   0.770 -0.1556 -0.2933 -0.1201
 3977SOL    HW223565   0.058   4.132   0.821 -0.6050 -1.3315  1.3882
 3978SOL     OW23566   2.560   0.739  11.169 -0.0477  0.2828  0.1581
 3978SOL    HW123567   2.506   0.786  11.106 -0.3776  0.8099  0.8230
 3978SOL    HW223568   2.617   0.687  11.112  0.3373  0.5602  0.2936
 3979SOL     OW23569   1.524   3.183   8.826  0.1663 -0.0092 -0.0789
 3979SOL    HW123570   1.567   3.141   8.901  0.9253  0.5329 -0.2057
 3979SOL    HW223571   1.455   3.219   8.882  0.9017 -1.1970  1.5954
 3980SOL     OW23572   1.358   3.967   5.179 -0.4807 -0.2585 -0.2903
 3980SOL    HW123573   1.407   3.933   5.254 -0.8985  1.0816  0.5966
 3980SOL    HW223574   1.360   3.896   5.115  1.0577 -0.3201 -0.1634
 3981SOL     OW23575   2.672   4.024  13.172  0.7583  0.3719  0.7846
 3981SOL    HW123576   2.662   3.962  13.244 -0.6057 -1.7398 -1.2330
 3981SOL    HW223577   2.741   3.995  13.113 -0.3519  0.6669 -0.6408
 3982SOL     OW23578   4.054   2.023  12.624 -0.1821  0.0246  0.3233
 3982SOL    HW123579   4.143   2.025  12.659  0.0723  1.3998 -0.4298
 3982SOL    HW223580   4.014   1.938  12.644  1.7849 -1.2374 -1.1395
 3983SOL     OW23581   1.445   3.965  15.308  0.8391 -0.0113  0.4749
 3983SOL    HW123582   1.422   3.953  15.400  0.8918  0.5863  0.5662
 3983SOL    HW223583   1.485   3.881  15.286 -0.8001  0.0173 -2.5996
 3984SOL     OW23584   0.362   1.068   5.659 -0.1197 -0.3047 -0.9997
 3984SOL    HW123585   0.298   1.002   5.686  0.8045 -1.2757 -1.1861
 3984SOL    HW223586   0.342   1.125   5.733  0.6477 -1.1472 -0.1396
 3985SOL     OW23587   3.515   2.983   1.461  0.1493  0.4620 -0.4751
 3985SOL    HW123588   3.606   2.995   1.433 -0.4485  0.3751 -2.4733
 3985SOL    HW223589   3.462   3.058   1.434  0.6573  1.0227  0.0713
 3986SOL     OW23590   3.624   2.358  16.049 -0.6769  0.4079  0.2100
 3986SOL    HW123591   3.556   2.425  16.052 -0.1529  1.0190 -1.9217
 3986SOL    HW223592   3.697   2.400  16.095  2.0407 -1.2379 -2.6257
 3987SOL     OW23593   0.037   1.488   8.629 -0.0085 -0.2595 -0.0165
 3987SOL    HW123594   0.068   1.548   8.561  0.7433  1.8798  2.1893
 3987SOL    HW223595   0.120   1.488   8.678 -0.0424 -3.0048  0.0060
 3988SOL     OW23596   2.357   3.782   6.359 -0.1475  0.1392 -0.2307
 3988SOL    HW123597   2.447   3.800   6.332 -0.1344  0.9964  0.4235
 3988SOL    HW223598   2.331   3.867   6.393 -1.3623  0.2224 -1.3729
 3989SOL     OW23599   4.018   0.082   6.986  0.0176 -0.4379 -0.2838
 3989SOL    HW123600   4.061   0.040   7.061 -0.1808  0.8191  0.5404
 3989SOL    HW223601   3.929   0.057   7.008  0.8878 -1.1694  2.3952
 3990SOL     OW23602   2.156   0.705   1.608  0.2334 -0.3432  0.2898
 3990SOL    HW123603   2.108   0.677   1.531  1.4010  1.4616 -1.0903
 3990SOL    HW223604   2.118   0.653   1.679 -1.5553  0.3178 -0.2052
 3991SOL     OW23605   0.538   2.773   9.061  0.3611  0.5120  0.4246
 3991SOL    HW123606   0.616   2.794   9.009  0.1816  0.5630  0.1768
 3991SOL    HW223607   0.466   2.782   8.999  0.5523 -0.0878  0.1033
 3992SOL     OW23608   0.742   1.300  12.008  0.1901  0.3396 -0.3380
 3992SOL    HW123609   0.733   1.380  11.957  0.1310  0.3745 -0.2729
 3992SOL    HW223610   0.815   1.266  11.956  0.0600 -1.6482  0.7614
 3993SOL     OW23611   0.897   3.432   3.543 -0.0974 -0.3887 -0.1859
 3993SOL    HW123612   0.865   3.509   3.496  0.6780  1.0332  1.6076
 3993SOL    HW223613   0.940   3.476   3.617  0.1293 -1.8708  0.5504
 3994SOL     OW23614   4.014   1.587   9.256 -0.5537  0.4891 -0.0001
 3994SOL    HW123615   3.954   1.515   9.279  2.4073 -1.8039  0.5542
 3994SOL    HW223616   3.959   1.660   9.284 -1.6131 -0.8157  1.3309
 3995SOL     OW23617   1.112   0.545  10.965  0.0446 -0.4043 -0.1241
 3995SOL    HW123618   1.066   0.465  10.992 -0.2008 -0.9652 -2.1928
 3995SOL    HW223619   1.158   0.560  11.047 -0.7167 -0.1310  0.2557
 3996SOL     OW23620   1.377   3.990   2.227  0.2782 -0.6198  0.4300
 3996SOL    HW123621   1.436   3.922   2.196  3.1059  2.0648 -0.0307
 3996SOL    HW223622   1.396   3.985   2.320 -1.1324  0.4342  0.7766
 3997SOL     OW23623   1.724   4.121  14.217  0.8752  0.1144  0.3603
 3997SOL    HW123624   1.643   4.119  14.167  0.7128 -0.7751  0.6427
 3997SOL    HW223625   1.727   4.210  14.251  0.5351  0.3212 -0.1581
 3998SOL     OW23626   1.322   1.382  11.576 -0.1263  0.1164 -0.4093
 3998SOL    HW123627   1.390   1.450  11.574 -0.4120  0.4951  2.2866
 3998SOL    HW223628   1.285   1.379  11.664  0.3135 -0.6252 -0.2535
 3999SOL     OW23629   3.052   0.170   4.011  0.2065  0.5986 -0.1876
 3999SOL    HW123630   3.124   0.177   3.948 -0.0027  2.1243 -0.2473
 3999SOL    HW223631   2.997   0.227   3.959 -0.6362 -1.6369 -1.7284
 4000SOL     OW23632   2.765   0.508  16.081 -0.0308  0.3097  0.5066
 4000SOL    HW123633   2.722   0.465  16.155  0.0364  0.5887  0.7103
 4000SOL    HW223634   2.831   0.564  16.122  0.8219  0.7982 -1.5458
 4001SOL     OW23635   1.295   0.839   5.847  0.7254  0.0841 -0.6572
 4001SOL    HW123636   1.259   0.928   5.851 -2.2165 -1.1898  1.8475
 4001SOL    HW223637   1.385   0.865   5.828  1.0930 -0.5299  0.2439
 4002SOL     OW23638   2.021   0.842   2.547  0.1377  0.0399  0.0377
 4002SOL    HW123639   2.053   0.777   2.609 -1.1934  0.2905  0.9816
 4002SOL    HW223640   1.939   0.804   2.516 -0.1435 -1.7862  3.1014
 4003SOL     OW23641   4.169   3.943  14.009 -0.1216 -0.1103  0.4171
 4003SOL    HW123642   4.119   4.010  14.056  1.2470  0.7351  0.6640
 4003SOL    HW223643   4.259   3.962  14.036 -0.5356  0.8677  1.0920
 4004SOL     OW23644   2.581   3.783   2.632 -0.0060 -0.4666  0.0086
 4004SOL    HW123645   2.605   3.693   2.654  2.9488  0.8554  2.1588
 4004SOL    HW223646   2.489   3.777   2.659  0.0057  1.4362  0.4725
 4005SOL     OW23647   0.432   0.457   1.128 -1.1667  0.1984 -0.6655
 4005SOL    HW123648   0.376   0.499   1.194 -2.2491 -1.8432 -0.2992
 4005SOL    HW223649   0.364   0.422   1.070  1.3706 -2.6622 -1.8803
 4006SOL     OW23650   0.751   0.664  17.727 -0.4864  0.2716  0.1140
 4006SOL    HW123651   0.757   0.569  17.734 -0.1104  0.2257 -0.7679
 4006SOL    HW223652   0.730   0.663  17.633  0.6075 -0.1302 -0.1237
 4007SOL     OW23653   1.791   4.001   6.803 -0.1151  0.0364  0.5075
 4007SOL    HW123654   1.874   4.049   6.812 -0.1384  0.0996  0.3954
 4007SOL    HW223655   1.823   3.913   6.788 -0.7029 -0.0352 -0.3227
 4008SOL     OW23656   3.792   3.985   8.495  0.1548  0.3843  0.0301
 4008SOL    HW123657   3.814   4.011   8.405 -0.8690  1.2009  0.0080
 4008SOL    HW223658   3.834   3.900   8.508  2.0640  1.3046 -0.1437
 4009SOL     OW23659   2.949   0.326   4.488 -0.3410 -0.6654 -0.2086
 4009SOL    HW123660   2.886   0.302   4.420 -0.9238 -1.7233  0.7003
 4009SOL    HW223661   3.018   0.371   4.439 -0.8833  0.4416  0.0518
 4010SOL     OW23662   3.289   1.293   2.491 -0.0375 -0.4917  0.1100
 4010SOL    HW123663   3.287   1.309   2.586 -0.9765  0.1093 -0.0112
 4010SOL    HW223664   3.312   1.383   2.469  1.8582 -1.2474 -0.9475
 4011SOL     OW23665   3.233   2.040   5.976  0.1023  0.0274  0.4484
 4011SOL    HW123666   3.149   1.994   5.967 -0.2467  0.7922 -0.2059
 4011SOL    HW223667   3.253   2.051   5.883  0.4759  1.0987  0.6662
 4012SOL     OW23668   3.703   0.548   8.046 -0.7651 -0.0656 -0.1189
 4012SOL    HW123669   3.723   0.639   8.069  0.4807 -0.6468  1.0503
 4012SOL    HW223670   3.726   0.539   7.954  1.8118 -0.4733  0.5862
 4013SOL     OW23671   3.794   0.091  17.098 -0.2996 -0.4770 -0.0983
 4013SOL    HW123672   3.818   0.002  17.072  0.0854 -0.8011  1.3972
 4013SOL    HW223673   3.808   0.071  17.190 -0.9354  0.7985  0.2823
 4014SOL     OW23674   2.774   2.467   0.263 -0.5121 -0.7304  0.6032
 4014SOL    HW123675   2.727   2.409   0.204  0.8044 -2.5716  1.3392
 4014SOL    HW223676   2.719   2.545   0.274  3.5488  2.3230 -0.4737
 4015SOL     OW23677   4.607   4.348   6.298  0.4230  0.4290 -0.5086
 4015SOL    HW123678   4.639   4.301   6.375  1.6577  0.9597 -0.6972
 4015SOL    HW223679   4.540   4.292   6.259  0.7621  0.3385 -0.9731
 4016SOL     OW23680   1.543   2.500   3.899 -0.3405  0.3475 -0.2505
 4016SOL    HW123681   1.551   2.586   3.858  1.0059 -0.1219 -0.9739
 4016SOL    HW223682   1.524   2.441   3.827 -1.5288  0.5503 -0.1138
 4017SOL     OW23683   3.204   2.058   8.804  0.1450  0.7153  0.0453
 4017SOL    HW123684   3.220   1.969   8.837 -1.4619 -0.4023 -2.2367
 4017SOL    HW223685   3.174   2.102   8.884 -1.2909 -0.1549 -0.0113
 4018SOL     OW23686   0.751   0.362   6.825  0.1523 -0.1406  0.5314
 4018SOL    HW123687   0.676   0.309   6.798  0.5419 -0.7052  0.5506
 4018SOL    HW223688   0.721   0.388   6.912 -3.8935 -0.3752 -0.8039
 4019SOL     OW23689   0.781   4.627   4.886  0.5706  0.1533 -0.0112
 4019SOL    HW123690   0.736   4.637   4.802 -1.0387 -2.1402  0.5769
 4019SOL    HW223691   0.854   4.687   4.869  0.7745  0.1885  1.0399
 4020SOL     OW23692   0.523   0.798   1.671  0.5409 -0.3444 -0.2833
 4020SOL    HW123693   0.454   0.850   1.630 -0.5628 -3.5554 -2.5475
 4020SOL    HW223694   0.500   0.710   1.641  0.4851 -1.1212  2.0852
 4021SOL     OW23695   0.783   3.442   6.574 -0.0626 -0.2703  0.1374
 4021SOL    HW123696   0.861   3.453   6.629 -0.6414  1.5146  0.5765
 4021SOL    HW223697   0.795   3.350   6.552 -2.2845 -0.2591 -1.0255
 4022SOL     OW23698   0.282   4.239   7.015  0.4405 -0.1817 -0.1002
 4022SOL    HW123699   0.234   4.168   7.059 -0.3677  1.8366  2.2637
 4022SOL    HW223700   0.313   4.287   7.091  3.3209 -0.6676 -0.9827
 4023SOL     OW23701   3.594   4.576   2.821 -0.1852 -0.3501 -0.9833
 4023SOL    HW123702   3.550   4.628   2.753 -0.1207 -1.2545 -1.7145
 4023SOL    HW223703   3.632   4.502   2.773  1.0553 -0.1467 -0.3027
 4024SOL     OW23704   3.593   1.945   3.131 -0.1345 -0.3156 -0.0431
 4024SOL    HW123705   3.519   1.985   3.087  1.3926  1.1149 -1.3283
 4024SOL    HW223706   3.632   2.024   3.169  0.5758 -0.6735 -0.0197
 4025SOL     OW23707   4.151   4.728   0.300 -0.2135  0.1965 -0.1247
 4025SOL    HW123708   4.103   0.072   0.281  1.4254  1.3589  0.7511
 4025SOL    HW223709   4.083   4.663   0.281  2.4216 -2.8618  0.8865
 4026SOL     OW23710   1.829   4.524   2.591 -0.1017 -0.0796 -0.3029
 4026SOL    HW123711   1.898   4.471   2.631  0.4827 -0.7471 -2.1634
 4026SOL    HW223712   1.857   4.536   2.500 -0.5290  1.1514 -0.2666
 4027SOL     OW23713   4.700   1.708   3.518  0.3210  0.5580  0.5170
 4027SOL    HW123714   4.628   1.771   3.520  0.5362  0.8868 -2.1058
 4027SOL    HW223715   0.027   1.746   3.458 -1.4939  1.2047 -1.0064
 4028SOL     OW23716   3.234   3.356   9.300  0.1118  0.5350 -0.3244
 4028SOL    HW123717   3.191   3.420   9.358 -1.0386 -0.7174  0.2113
 4028SOL    HW223718   3.261   3.284   9.356 -1.2209 -0.0922 -0.4874
 4029SOL     OW23719   4.575   0.388   5.748 -0.0731 -0.4849  0.1168
 4029SOL    HW123720   4.601   0.336   5.824 -0.3679 -0.6905  0.0746
 4029SOL    HW223721   4.490   0.420   5.777 -0.3226 -0.5648 -0.5238
 4030SOL     OW23722   0.928   3.253  10.004 -0.7808  0.3209 -0.4490
 4030SOL    HW123723   0.863   3.299  10.058  0.0931  1.6909 -0.5500
 4030SOL    HW223724   0.982   3.212  10.071 -2.2947 -0.8088  0.0853
 4031SOL     OW23725   3.963   1.168  11.025  0.2324 -0.5789 -0.6454
 4031SOL    HW123726   4.025   1.239  11.041 -0.0415 -0.4534 -0.1499
 4031SOL    HW223727   3.889   1.216  10.987 -0.3166 -0.1115  1.0290
 4032SOL     OW23728   1.089   1.328   6.948 -0.1083  0.1532 -0.2164
 4032SOL    HW123729   1.070   1.240   6.913  1.9650 -0.3210 -0.1134
 4032SOL    HW223730   1.184   1.328   6.955 -0.2013  1.6756  0.9594
 4033SOL     OW23731   2.815   1.376   3.589 -0.0565  0.1710 -0.6485
 4033SOL    HW123732   2.902   1.390   3.625 -0.2700 -1.1140  0.4047
 4033SOL    HW223733   2.782   1.357   3.677  0.1753  1.0215 -0.3804
 4034SOL     OW23734   4.425   1.443  17.665 -0.2823 -0.3817 -0.3810
 4034SOL    HW123735   4.351   1.396  17.703 -0.4556 -0.3251 -0.6508
 4034SOL    HW223736   4.459   1.374  17.609  1.2935 -0.9438  1.2722
 4035SOL     OW23737   2.608   3.829   6.607  0.6650 -0.1951 -0.5900
 4035SOL    HW123738   2.561   3.753   6.642  0.2387  0.4279  0.1785
 4035SOL    HW223739   2.596   3.881   6.686  1.5412  0.9197 -1.1860
 4036SOL     OW23740   2.998   3.351   8.574  0.4388 -0.7187  0.7026
 4036SOL    HW123741   3.042   3.358   8.490 -1.6464  1.4220 -0.2224
 4036SOL    HW223742   2.905   3.354   8.549 -0.1906 -1.7966  2.8806
 4037SOL     OW23743   1.796   3.057  14.390 -0.7999 -0.8673 -0.0134
 4037SOL    HW123744   1.876   3.103  14.416 -0.5129  0.0758 -2.5403
 4037SOL    HW223745   1.734   3.105  14.445 -1.1304 -1.5881  0.2446
 4038SOL     OW23746   2.538   0.356  10.642 -0.5259 -0.2448  0.6438
 4038SOL    HW123747   2.557   0.289  10.707 -2.1761  0.2727  1.6710
 4038SOL    HW223748   2.520   0.431  10.699  0.6169  0.7776 -0.3475
 4039SOL     OW23749   3.702   2.113  13.269 -0.0757  0.2805 -0.4238
 4039SOL    HW123750   3.652   2.180  13.315  0.6715 -0.4233  1.4057
 4039SOL    HW223751   3.691   2.045  13.335  0.5404  0.2551 -0.3443
 4040SOL     OW23752   2.726   0.724  17.577 -0.5256  0.2454 -0.1215
 4040SOL    HW123753   2.803   0.669  17.590 -0.1446  0.2216 -2.6219
 4040SOL    HW223754   2.760   0.794  17.633 -0.2410 -0.8983  1.1490
 4041SOL     OW23755   3.778   3.800   4.734  0.5586  0.2830 -0.2190
 4041SOL    HW123756   3.853   3.823   4.679  0.5591  0.7841 -0.0099
 4041SOL    HW223757   3.831   3.770   4.808 -1.7650 -0.3948  1.1643
 4042SOL     OW23758   0.783   2.503   6.738  0.4828  0.5629 -0.5539
 4042SOL    HW123759   0.875   2.527   6.749  0.8951 -2.2758  2.2720
 4042SOL    HW223760   0.789   2.409   6.721 -1.7392  0.3051  0.2202
 4043SOL     OW23761   2.747   1.698  14.489 -0.2696 -0.4150  0.0705
 4043SOL    HW123762   2.684   1.733  14.552 -0.9974 -2.5154  0.5115
 4043SOL    HW223763   2.682   1.693  14.419 -1.9786 -0.4278  1.6634
 4044SOL     OW23764   3.110   3.096   7.408  0.4534 -0.0765 -0.0384
 4044SOL    HW123765   3.101   3.010   7.368 -0.0444  0.2503 -0.6255
 4044SOL    HW223766   3.039   3.138   7.359 -0.0135  1.6452  2.0895
 4045SOL     OW23767   1.524   1.283   6.746  0.4836  0.0128  0.3744
 4045SOL    HW123768   1.512   1.276   6.840  4.3967  0.2295  0.8817
 4045SOL    HW223769   1.616   1.305   6.735  0.3731  0.9162  1.2543
 4046SOL     OW23770   2.232   1.671   6.978 -0.1996  0.3352  0.5130
 4046SOL    HW123771   2.321   1.697   7.001 -0.5202  1.6900  0.2519
 4046SOL    HW223772   2.188   1.751   7.008 -0.8835  0.2434 -0.2197
 4047SOL     OW23773   0.226   3.361   0.305  0.8942  0.0738 -0.0339
 4047SOL    HW123774   0.292   3.428   0.287 -1.0684  1.7559 -1.0763
 4047SOL    HW223775   0.240   3.336   0.396  0.7499  1.0081  0.2457
 4048SOL     OW23776   3.769   2.147   6.333  0.1960  0.4653 -0.1834
 4048SOL    HW123777   3.775   2.242   6.339  0.7206  0.3741  0.7433
 4048SOL    HW223778   3.858   2.117   6.350 -0.0797 -0.3183 -0.0902
 4049SOL     OW23779   4.291   2.699  11.434 -0.0568 -0.2457 -0.5686
 4049SOL    HW123780   4.274   2.761  11.504 -0.7310  0.8287 -1.6984
 4049SOL    HW223781   4.283   2.619  11.486  3.1089  1.8435  3.1208
 4050SOL     OW23782   0.573   2.350  15.226 -0.3127 -0.1117  0.1710
 4050SOL    HW123783   0.570   2.266  15.272 -0.2131 -0.1074  0.1859
 4050SOL    HW223784   0.482   2.379  15.217  0.3754  2.3773  1.3297
 4051SOL     OW23785   0.618   1.786   2.416 -0.4797  0.6946 -0.6256
 4051SOL    HW123786   0.546   1.805   2.356 -2.0335  1.0159  1.3153
 4051SOL    HW223787   0.682   1.732   2.371 -1.1569 -0.2896 -0.4179
 4052SOL     OW23788   2.130   0.723  17.566 -0.0958  0.1032  0.0225
 4052SOL    HW123789   2.119   0.713  17.472 -0.4762 -2.8337  0.3744
 4052SOL    HW223790   2.138   0.633  17.600 -0.6483  0.4041  0.9419
 4053SOL     OW23791   3.192   3.991   1.341 -0.6920  0.9657  0.1112
 4053SOL    HW123792   3.219   3.905   1.373  1.1606  0.8626 -1.7307
 4053SOL    HW223793   3.280   4.029   1.347 -1.2766  2.2628  0.4308
 4054SOL     OW23794   4.707   0.578   0.048  0.2133  0.0294  0.1332
 4054SOL    HW123795   0.005   0.667   0.039  2.8682 -0.8030  2.5772
 4054SOL    HW223796   0.047   0.526   0.065 -1.5578 -1.8081  2.4563
 4055SOL     OW23797   4.112   3.967  17.063  0.3419  0.0136  0.1863
 4055SOL    HW123798   4.091   3.881  17.099  2.2435 -1.0446 -1.2530
 4055SOL    HW223799   4.052   4.029  17.105  0.8225 -1.1553  2.6136
 4056SOL     OW23800   0.834   2.401  10.786 -0.2188 -0.3817 -0.2766
 4056SOL    HW123801   0.920   2.406  10.745 -1.5850  0.3993 -3.0560
 4056SOL    HW223802   0.783   2.469  10.741 -3.0430  0.2031  3.6857
 4057SOL     OW23803   4.223   4.058   8.111  0.1058 -0.0224 -0.3288
 4057SOL    HW123804   4.274   4.083   8.033  0.6344 -2.8358 -0.8845
 4057SOL    HW223805   4.172   3.984   8.079  1.6592 -1.5912  0.8510
 4058SOL     OW23806   1.488   0.102   0.060 -0.1286  0.5473  0.6592
 4058SOL    HW123807   1.404   0.099   0.105  0.8582 -1.5046  2.3463
 4058SOL    HW223808   1.503   0.195   0.041  0.5099 -0.0657 -1.8103
 4059SOL     OW23809   3.913   0.652   7.602  0.2050  0.1426 -0.3288
 4059SOL    HW123810   3.846   0.643   7.534  1.1004  3.5387 -1.6987
 4059SOL    HW223811   3.997   0.630   7.562  0.8043  1.4505  0.2067
 4060SOL     OW23812   2.327   1.265  10.894 -0.3621  0.0432  0.2176
 4060SOL    HW123813   2.312   1.360  10.896  1.2503  0.2874  0.2086
 4060SOL    HW223814   2.413   1.256  10.934  1.3022  0.6164 -3.2638
 4061SOL     OW23815   2.159   0.319   3.325 -0.4691 -0.0360  0.0190
 4061SOL    HW123816   2.100   0.348   3.255  1.2138 -2.3539 -2.3527
 4061SOL    HW223817   2.182   0.233   3.290 -2.7407 -0.8389  0.4510
 4062SOL     OW23818   1.077   1.641  12.088 -0.1551 -0.3457 -0.4273
 4062SOL    HW123819   1.080   1.736  12.095  2.1001 -0.2673 -2.3067
 4062SOL    HW223820   1.170   1.619  12.083 -0.0517  0.7121 -3.1180
 4063SOL     OW23821   1.742   3.278   9.013 -0.7669  0.3817  0.0329
 4063SOL    HW123822   1.815   3.313   9.064 -0.8442 -2.5844  2.1723
 4063SOL    HW223823   1.789   3.228   8.946  1.5876 -1.1088  2.7500
 4064SOL     OW23824   0.776   0.229   2.241  0.5693 -0.2767  0.4221
 4064SOL    HW123825   0.739   0.162   2.298  0.6731 -0.5120  0.2116
 4064SOL    HW223826   0.865   0.216   2.276  0.0408 -3.3448  0.5857
 4065SOL     OW23827   0.019   4.019   2.881 -0.7282 -0.2996  0.2889
 4065SOL    HW123828   4.671   4.061   2.889 -0.3704  0.3306  0.8049
 4065SOL    HW223829   0.046   4.023   2.973  0.4134  0.4516 -0.0776
 4066SOL     OW23830   4.261   2.060   2.164 -0.1062  0.3321  0.0401
 4066SOL    HW123831   4.322   1.990   2.189 -0.3006 -0.1526 -0.8374
 4066SOL    HW223832   4.209   2.071   2.244  0.1052  0.2718  0.1867
 4067SOL     OW23833   2.996   0.446  13.292 -0.1987 -0.5559 -0.1954
 4067SOL    HW123834   3.019   0.432  13.201 -0.1752  1.4419 -0.5049
 4067SOL    HW223835   2.902   0.431  13.296 -0.6540  1.8017 -2.2335
 4068SOL     OW23836   2.203   4.104   6.667  0.1548  0.4266 -0.1757
 4068SOL    HW123837   2.285   4.152   6.659  0.7202 -0.8770 -2.2396
 4068SOL    HW223838   2.219   4.033   6.729  0.0487  1.0331  0.5522
 4069SOL     OW23839   2.553   4.068   5.738 -0.1914  0.2239 -0.5482
 4069SOL    HW123840   2.617   4.079   5.667 -0.2287  0.7345 -0.4993
 4069SOL    HW223841   2.489   4.123   5.693 -3.8142 -3.2377  0.4010
 4070SOL     OW23842   3.990   2.174   9.367 -0.5972  0.5346  0.1020
 4070SOL    HW123843   4.072   2.128   9.386 -0.5053  1.1937  1.3289
 4070SOL    HW223844   4.009   2.234   9.296 -0.5880  1.8150  1.1820
 4071SOL     OW23845   4.024   3.792   9.834  0.7667 -0.3327 -0.0346
 4071SOL    HW123846   3.936   3.824   9.812  1.3518  2.6926  2.1393
 4071SOL    HW223847   4.002   3.698   9.836  2.3202 -0.8209 -4.3835
 4072SOL     OW23848   0.046   1.897  15.837  0.9190  0.1041  0.2631
 4072SOL    HW123849   0.063   1.804  15.819 -1.1445  0.1707 -2.0491
 4072SOL    HW223850   0.019   1.895  15.929  1.5489 -1.9751  0.4099
 4073SOL     OW23851   4.519   2.422   3.256 -0.3233  0.2733  0.5398
 4073SOL    HW123852   4.555   2.490   3.199 -0.3150  0.7775  1.1444
 4073SOL    HW223853   4.543   2.341   3.210  0.3966 -0.2837  1.9190
 4074SOL     OW23854   4.260   1.251   2.884 -0.0536  0.1267  0.4827
 4074SOL    HW123855   4.319   1.178   2.870  2.0614  1.5522  1.9122
 4074SOL    HW223856   4.238   1.275   2.794 -1.7380  0.1588  0.9009
 4075SOL     OW23857   3.150   3.666   4.785 -0.1937  0.1506  0.3892
 4075SOL    HW123858   3.131   3.736   4.722  0.1018 -1.0017 -0.9691
 4075SOL    HW223859   3.073   3.666   4.842 -1.3797  1.7531 -1.2201
 4076SOL     OW23860   4.582   2.688   5.812 -0.4223 -0.1698  0.4221
 4076SOL    HW123861   4.500   2.677   5.763 -1.2235  0.5529  1.6058
 4076SOL    HW223862   4.634   2.717   5.737 -0.9261  0.1110  0.1756
 4077SOL     OW23863   0.747   4.115   1.462  0.5930 -0.5203  0.2625
 4077SOL    HW123864   0.780   4.189   1.514 -1.5795 -1.0922  2.4866
 4077SOL    HW223865   0.658   4.107   1.497  1.1660  0.7112  2.0352
 4078SOL     OW23866   1.196   0.636   4.169  0.5502 -0.4641  0.0162
 4078SOL    HW123867   1.122   0.606   4.221  0.2571 -0.4901 -0.4159
 4078SOL    HW223868   1.240   0.691   4.234 -0.2426  0.9948 -0.6847
 4079SOL     OW23869   1.347   0.643   8.443 -0.2968  0.5378 -0.2093
 4079SOL    HW123870   1.356   0.645   8.347  0.0100 -1.0458 -0.2195
 4079SOL    HW223871   1.275   0.704   8.461 -0.1534  1.0184 -1.2646
 4080SOL     OW23872   3.855   1.486  17.416  0.1540  0.3724 -0.4908
 4080SOL    HW123873   3.838   1.479  17.510  1.2428 -1.2344 -0.4243
 4080SOL    HW223874   3.897   1.572  17.409 -0.8505  0.7450 -2.3141
 4081SOL     OW23875   3.100   1.649   6.622  0.3543 -0.7357  0.0587
 4081SOL    HW123876   3.169   1.626   6.560 -0.7688 -2.1777 -0.6438
 4081SOL    HW223877   3.128   1.735   6.655 -1.7047  0.8327 -2.2492
 4082SOL     OW23878   4.218   1.996   3.637 -0.7498 -0.1796 -0.2951
 4082SOL    HW123879   4.217   1.938   3.562  1.6358 -0.3108 -0.2282
 4082SOL    HW223880   4.255   2.075   3.598  0.8045 -1.2580 -0.9781
 4083SOL     OW23881   1.539   2.502  16.305 -0.5006  0.1505 -0.0050
 4083SOL    HW123882   1.535   2.560  16.229 -0.5884 -1.4105 -1.1982
 4083SOL    HW223883   1.622   2.455  16.314 -0.0645  1.0355  0.5406
 4084SOL     OW23884   1.374   2.719  11.458 -0.0334 -0.0578  0.2159
 4084SOL    HW123885   1.324   2.778  11.514 -0.0527  1.5032 -1.4476
 4084SOL    HW223886   1.371   2.771  11.377 -1.3623 -1.3500 -0.5666
 4085SOL     OW23887   3.022   2.274  16.448  0.6916  0.4725 -0.1602
 4085SOL    HW123888   3.011   2.233  16.362 -1.4591 -3.0352  1.7824
 4085SOL    HW223889   3.077   2.350  16.429 -0.1501  1.0767 -0.1727
 4086SOL     OW23890   1.716   3.012   9.683 -0.1584 -0.7170  0.1084
 4086SOL    HW123891   1.727   2.918   9.677 -0.4752 -0.6870 -0.8051
 4086SOL    HW223892   1.806   3.045   9.674 -0.5108  0.6164  1.3663
 4087SOL     OW23893   2.594   1.567   7.932 -0.2480 -0.0893 -0.1587
 4087SOL    HW123894   2.612   1.477   7.904  0.0794 -0.6626  1.8601
 4087SOL    HW223895   2.516   1.544   7.983  0.1960  0.6540  0.8657
 4088SOL     OW23896   3.936   2.467   4.602  0.0874 -0.5629 -0.1888
 4088SOL    HW123897   4.008   2.456   4.539 -0.7288 -0.9521 -1.0509
 4088SOL    HW223898   3.868   2.495   4.541 -1.6403 -2.3389  0.9371
 4089SOL     OW23899   2.483   2.743  14.823 -0.4571  0.1714 -0.1197
 4089SOL    HW123900   2.474   2.670  14.762  2.8461  1.1320 -1.7656
 4089SOL    HW223901   2.391   2.755  14.845 -0.6504 -1.2323 -0.1679
 4090SOL     OW23902   3.204   1.476   1.230 -0.0333 -0.9981  0.1885
 4090SOL    HW123903   3.218   1.546   1.166 -1.3168 -1.0588 -0.1728
 4090SOL    HW223904   3.158   1.421   1.167  0.1929  0.5115 -1.2952
 4091SOL     OW23905   4.426   2.912   8.223 -0.6516 -0.0539  0.3498
 4091SOL    HW123906   4.332   2.904   8.237 -1.1503  1.6559 -2.0624
 4091SOL    HW223907   4.452   2.910   8.315 -1.0391  0.1226  0.4595
 4092SOL     OW23908   1.740   0.756   2.467 -0.0150  0.6234 -0.1698
 4092SOL    HW123909   1.707   0.778   2.554 -0.7923 -0.8148 -0.1034
 4092SOL    HW223910   1.721   0.662   2.468  1.4680  0.3275 -0.0401
 4093SOL     OW23911   0.985   2.202   8.546 -0.1153 -0.0593 -0.1523
 4093SOL    HW123912   0.996   2.284   8.594 -0.9029  1.1418 -2.0155
 4093SOL    HW223913   0.957   2.227   8.458  0.3484  0.7574 -0.0706
 4094SOL     OW23914   1.046   0.357   4.953 -0.1823 -0.5117  0.0375
 4094SOL    HW123915   1.139   0.378   4.960 -0.5688  1.2562 -0.3431
 4094SOL    HW223916   1.021   0.373   5.044 -1.5274 -0.0039 -0.4164
 4095SOL     OW23917   1.387   4.198   5.528 -0.2101  0.0910 -0.1831
 4095SOL    HW123918   1.430   4.211   5.613 -0.3750 -1.4071  0.1209
 4095SOL    HW223919   1.309   4.252   5.537 -0.2861 -0.1160  0.4016
 4096SOL     OW23920   0.141   1.835   2.749 -0.2994  0.4913 -0.2456
 4096SOL    HW123921   0.168   1.885   2.826 -0.7007 -0.3679  0.4438
 4096SOL    HW223922   0.203   1.860   2.680 -1.5019  1.1199 -1.1120
 4097SOL     OW23923   4.030   1.910   4.356 -0.3072  0.8149  0.4196
 4097SOL    HW123924   4.095   1.980   4.348  0.9667 -0.4515 -0.1584
 4097SOL    HW223925   4.000   1.895   4.266 -0.8536 -0.2105  0.7694
 4098SOL     OW23926   2.371   0.160   0.861  0.5826  0.0513  0.3961
 4098SOL    HW123927   2.446   0.218   0.845  1.3128 -1.5334 -2.0393
 4098SOL    HW223928   2.296   0.199   0.816  1.9680  1.3418 -0.8225
 4099SOL     OW23929   0.178   2.163   9.216 -0.0801  1.1315 -0.0602
 4099SOL    HW123930   0.173   2.083   9.269  0.1153  0.9120 -0.3661
 4099SOL    HW223931   0.246   2.205   9.269 -0.8724  2.8743 -0.4259
 4100SOL     OW23932   1.303   1.052  15.268  0.3003  0.5644  0.1319
 4100SOL    HW123933   1.351   1.043  15.185 -0.7466  1.5188 -0.5680
 4100SOL    HW223934   1.373   1.099  15.314 -1.4933  1.7502  1.6401
 4101SOL     OW23935   1.162   0.391   6.213 -0.2286 -0.1890  0.7265
 4101SOL    HW123936   1.129   0.385   6.302  0.6910 -0.9134  1.0295
 4101SOL    HW223937   1.208   0.475   6.218  1.4336 -0.9489 -1.8154
 4102SOL     OW23938   4.191   3.528   6.925  0.1550  0.2956  0.0741
 4102SOL    HW123939   4.197   3.488   6.838  1.2267 -0.5171  0.5130
 4102SOL    HW223940   4.162   3.615   6.900  0.2068  0.1414 -0.5397
 4103SOL     OW23941   1.147   2.194   0.305  0.4929 -0.0469  0.4516
 4103SOL    HW123942   1.078   2.128   0.295  1.4831 -0.6345 -2.3892
 4103SOL    HW223943   1.149   2.221   0.214 -0.0155  1.3102  0.8480
 4104SOL     OW23944   2.104   2.715   7.016  0.0799 -0.3023  0.0029
 4104SOL    HW123945   2.109   2.629   7.057  0.7170  1.0679  2.8022
 4104SOL    HW223946   2.140   2.706   6.928 -0.9528 -0.8883 -0.3572
 4105SOL     OW23947   1.041   1.606   9.504  0.2290 -0.6974  0.0173
 4105SOL    HW123948   1.119   1.653   9.474  0.3065 -0.9167 -0.1265
 4105SOL    HW223949   1.083   1.529   9.544  0.6065 -0.1777  0.6148
 4106SOL     OW23950   2.702   3.034  12.696  0.1214  0.5769  0.3470
 4106SOL    HW123951   2.696   2.940  12.712 -1.1015  0.9360  2.0326
 4106SOL    HW223952   2.624   3.065  12.743  1.9772  4.2904  0.9911
 4107SOL     OW23953   1.667   3.479   5.102  0.0548 -0.3260  0.3445
 4107SOL    HW123954   1.728   3.406   5.093 -0.7820 -0.8612 -0.9057
 4107SOL    HW223955   1.698   3.542   5.037 -3.1379  1.6957  0.7919
 4108SOL     OW23956   3.109   1.825   8.121  0.2678  0.4260 -0.1770
 4108SOL    HW123957   3.025   1.793   8.154  0.9362 -0.6622  0.4880
 4108SOL    HW223958   3.155   1.742   8.135  0.3660  0.4165 -0.5542
 4109SOL     OW23959   1.985   0.878   3.006 -0.5082 -0.3499 -0.1390
 4109SOL    HW123960   1.918   0.853   3.070  0.6550  0.1347  1.2711
 4109SOL    HW223961   1.953   0.948   2.949  3.1332  1.0464 -0.4637
 4110SOL     OW23962   2.170   4.308   5.283 -0.1041 -0.0131 -0.5179
 4110SOL    HW123963   2.177   4.387   5.336  1.0893 -0.6528  0.2782
 4110SOL    HW223964   2.160   4.245   5.354  1.4420 -2.0630 -2.1009
 4111SOL     OW23965   3.289   3.449  12.391  0.4660  1.5716  0.3425
 4111SOL    HW123966   3.381   3.458  12.415 -0.0716  0.9312  2.7287
 4111SOL    HW223967   3.290   3.513  12.320  1.9767  0.5603 -0.5429
 4112SOL     OW23968   0.250   2.246   1.787 -0.3864  0.6582  0.4393
 4112SOL    HW123969   0.319   2.189   1.821  0.2613  0.2318 -1.5922
 4112SOL    HW223970   0.282   2.328   1.826 -3.7020  1.7752  0.7566
 4113SOL     OW23971   4.619   0.891  16.281 -0.0807  1.1495  0.1582
 4113SOL    HW123972   4.593   0.871  16.191 -0.1549  0.9684  0.2209
 4113SOL    HW223973   4.666   0.974  16.277  0.2999  0.9116 -0.2630
 4114SOL     OW23974   0.415   2.480   3.904  0.1483  0.8723  0.0908
 4114SOL    HW123975   0.464   2.489   3.986  0.0900  3.3861 -0.1503
 4114SOL    HW223976   0.408   2.384   3.899  0.4881  0.8215  0.6266
 4115SOL     OW23977   3.748   3.499   2.503 -0.2391  0.8225 -0.3501
 4115SOL    HW123978   3.773   3.569   2.563  0.0746  0.1175  0.3399
 4115SOL    HW223979   3.655   3.513   2.517 -0.5071 -0.3211 -0.9146
 4116SOL     OW23980   2.753   1.048  15.385  0.0497 -0.0324  0.0754
 4116SOL    HW123981   2.807   1.076  15.458  0.3876  1.0528 -0.5889
 4116SOL    HW223982   2.807   0.979  15.347 -1.1188 -1.6438  1.3694
 4117SOL     OW23983   2.846   4.359  15.574 -0.4479 -0.2074  0.0952
 4117SOL    HW123984   2.919   4.402  15.617 -1.3350  0.5552  0.8558
 4117SOL    HW223985   2.808   4.300  15.640 -0.1147  0.3787  0.8036
 4118SOL     OW23986   0.393   1.048   1.880 -0.5660  0.0652 -0.0421
 4118SOL    HW123987   0.432   1.066   1.966 -1.2264  0.4280  0.1830
 4118SOL    HW223988   0.469   1.015   1.832 -0.0009  1.1076  0.1472
 4119SOL     OW23989   2.582   1.415   7.009 -0.1124  0.5534  0.3346
 4119SOL    HW123990   2.558   1.336   7.058  1.8746  0.1373  0.6425
 4119SOL    HW223991   2.573   1.395   6.915  3.3999  1.2028 -0.1244
 4120SOL     OW23992   3.348   0.801   8.059  0.0373  0.1400  0.4345
 4120SOL    HW123993   3.344   0.791   7.964  0.9541 -1.1443  0.5476
 4120SOL    HW223994   3.381   0.715   8.083  0.5662  0.5895  1.2906
 4121SOL     OW23995   4.112   1.376   6.542  0.2248 -0.6034 -0.2439
 4121SOL    HW123996   4.086   1.290   6.576  0.9503 -0.0656  1.6511
 4121SOL    HW223997   4.205   1.391   6.559 -0.1073  1.6947 -0.5568
 4122SOL     OW23998   0.403   0.110   7.417 -0.3980  0.3045 -0.2204
 4122SOL    HW123999   0.498   0.111   7.427 -0.3308  2.4648 -1.0518
 4122SOL    HW224000   0.380   0.202   7.433  2.0849  1.6084 -4.0926
 4123SOL     OW24001   1.707   4.114  10.643 -0.3165  0.4207  0.4846
 4123SOL    HW124002   1.752   4.074  10.569  1.5255  0.3999  1.6066
 4123SOL    HW224003   1.619   4.079  10.632  0.3007 -0.4364 -1.5994
 4124SOL     OW24004   0.562   3.814   2.991  0.2084 -0.3647  0.5126
 4124SOL    HW124005   0.515   3.741   2.951  1.2922 -0.9023  0.2219
 4124SOL    HW224006   0.584   3.868   2.916  0.7503 -0.9689  0.2335
 4125SOL     OW24007   0.461   3.127   6.899 -0.0742  0.6568  0.0235
 4125SOL    HW124008   0.380   3.151   6.943 -0.8733 -0.0492 -1.0476
 4125SOL    HW224009   0.485   3.047   6.945 -2.5552 -0.3203 -0.3937
 4126SOL     OW24010   1.468   1.471   9.531 -0.1861 -0.4616  0.0032
 4126SOL    HW124011   1.555   1.446   9.501 -0.8605 -0.8537 -1.6628
 4126SOL    HW224012   1.497   1.523   9.606 -0.5965  0.3556 -0.3951
 4127SOL     OW24013   2.224   2.302  17.707  0.1834 -0.0824  0.2067
 4127SOL    HW124014   2.205   2.298   0.053 -3.9609  0.1367 -0.6266
 4127SOL    HW224015   2.173   2.226  17.679  0.1662  0.7791 -2.1140
 4128SOL     OW24016   3.001   0.656   3.887 -0.1052  0.6719  0.2670
 4128SOL    HW124017   3.039   0.570   3.866  0.5102  0.9942  0.0813
 4128SOL    HW224018   2.989   0.688   3.798 -1.4623  1.5112  0.7490
 4129SOL     OW24019   2.218   3.010   9.845  0.6299 -0.4632 -0.1446
 4129SOL    HW124020   2.294   3.036   9.794  0.1782  0.3326 -0.4246
 4129SOL    HW224021   2.209   3.069   9.920 -0.2687 -0.6744 -0.0819
 4130SOL     OW24022   3.785   0.040  10.207 -0.0195 -0.1840  0.1115
 4130SOL    HW124023   3.846   4.719  10.163 -1.7234  0.4878 -3.1754
 4130SOL    HW224024   3.760   0.111  10.148  1.8482 -0.7516 -1.3613
 4131SOL     OW24025   0.184   4.711   5.279 -0.0430 -0.0669 -0.4558
 4131SOL    HW124026   0.265   4.717   5.228  0.8285 -2.2307  0.6540
 4131SOL    HW224027   0.144   4.631   5.245 -1.0011  1.0881 -2.0366
 4132SOL     OW24028   0.542   4.034   2.100 -0.1673  0.0486  0.2857
 4132SOL    HW124029   0.506   4.027   2.188 -1.8235 -1.2943 -0.4922
 4132SOL    HW224030   0.488   4.097   2.053  1.0366  1.8729  1.3610
 4133SOL     OW24031   0.646   2.516   4.466 -0.0072 -0.5079  0.1752
 4133SOL    HW124032   0.657   2.507   4.561 -0.7672  3.2861  0.6283
 4133SOL    HW224033   0.605   2.603   4.459  1.7477  0.5344  2.9132
 4134SOL     OW24034   0.895   1.973  12.802  0.3981 -0.7642 -0.1441
 4134SOL    HW124035   0.845   1.917  12.742 -0.5211  0.5192 -0.5791
 4134SOL    HW224036   0.834   1.968  12.875 -0.3694  1.2616 -0.6474
 4135SOL     OW24037   1.331   2.132  14.770  0.1871 -0.4783 -0.5283
 4135SOL    HW124038   1.357   2.138  14.862  2.5396 -4.6110 -0.9445
 4135SOL    HW224039   1.240   2.148  14.796 -0.0186 -1.1043 -0.8873
 4136SOL     OW24040   4.393   0.023   2.867 -0.4035 -0.1592 -0.1434
 4136SOL    HW124041   4.338   4.710   2.806 -1.9747 -0.1566  1.2658
 4136SOL    HW224042   4.332   0.095   2.882  0.3141  0.4811 -0.3158
 4137SOL     OW24043   1.240   0.592  11.211  0.9917 -0.6173 -0.0081
 4137SOL    HW124044   1.275   0.681  11.216  1.0261 -0.5438 -1.5757
 4137SOL    HW224045   1.316   0.541  11.241  2.2160  0.7996 -0.7221
 4138SOL     OW24046   3.698   2.669   3.642 -0.7325 -0.2530 -0.4331
 4138SOL    HW124047   3.633   2.612   3.684 -2.3484  1.5554 -0.4645
 4138SOL    HW224048   3.712   2.628   3.557  1.4315 -0.9306  0.2633
 4139SOL     OW24049   2.442   2.739   4.662 -1.0205 -0.0986  0.4590
 4139SOL    HW124050   2.393   2.691   4.595  0.9947  0.4927 -1.4435
 4139SOL    HW224051   2.408   2.704   4.744 -0.7636  0.8737  0.9766
 4140SOL     OW24052   0.308   2.555  13.764  0.3725  0.1054 -0.3716
 4140SOL    HW124053   0.305   2.461  13.752  1.1404 -0.1466  1.4248
 4140SOL    HW224054   0.217   2.580  13.780  1.1663  2.4742  0.6077
 4141SOL     OW24055   3.023   3.915   7.645  0.2470 -0.3788 -0.5578
 4141SOL    HW124056   3.112   3.931   7.616 -0.7472  1.4585 -2.5475
 4141SOL    HW224057   3.044   3.843   7.705  1.3478 -0.8406 -1.5196
 4142SOL     OW24058   1.095   4.681  10.605  0.9301 -0.4256  0.3995
 4142SOL    HW124059   1.121   4.655  10.517  0.0097  0.4871 -0.1571
 4142SOL    HW224060   1.000   4.664  10.600  0.9866 -0.0471 -2.1071
 4143SOL     OW24061   2.893   0.408  11.339  0.0971  0.1081  0.4283
 4143SOL    HW124062   2.973   0.374  11.379 -0.8455  0.0765  2.2701
 4143SOL    HW224063   2.817   0.367  11.380 -1.4473 -0.1146 -2.6409
 4144SOL     OW24064   4.686   3.373   6.462 -0.5160 -0.0553 -0.0987
 4144SOL    HW124065   4.673   3.332   6.547 -1.0593  1.0697  0.3627
 4144SOL    HW224066   0.044   3.367   6.465 -0.4592  1.3406  0.9206
 4145SOL     OW24067   2.121   0.655   2.710 -0.3780  0.5760  0.3009
 4145SOL    HW124068   2.051   0.654   2.775 -0.4844  1.0939  0.1930
 4145SOL    HW224069   2.124   0.571   2.663 -1.2215  0.8327 -0.2223
 4146SOL     OW24070   4.119   2.255   5.490  0.0857 -0.4537 -0.1142
 4146SOL    HW124071   4.032   2.238   5.526  0.5199  1.5212  1.8693
 4146SOL    HW224072   4.164   2.311   5.554  0.3071  0.5341 -1.1418
 4147SOL     OW24073   3.751   1.163   0.401  0.4148  0.2523 -0.3232
 4147SOL    HW124074   3.777   1.082   0.446  0.5862 -1.1814 -2.9613
 4147SOL    HW224075   3.660   1.144   0.378  0.1878  0.4634  0.4217
 4148SOL     OW24076   2.237   1.811   7.982  0.1599  0.7853  0.1139
 4148SOL    HW124077   2.296   1.856   7.921  2.3795 -2.0004  0.2275
 4148SOL    HW224078   2.195   1.879   8.035 -2.0476  0.8312 -1.6958
 4149SOL     OW24079   0.289   0.452   5.231  0.6485 -0.2564 -0.5301
 4149SOL    HW124080   0.203   0.423   5.261  0.6902  2.6686  2.3017
 4149SOL    HW224081   0.265   0.516   5.164 -1.1558  1.6535  1.9551
 4150SOL     OW24082   0.803   3.805  13.961  0.5573 -0.2273 -0.1760
 4150SOL    HW124083   0.752   3.868  13.911 -0.7210  0.0254  1.4688
 4150SOL    HW224084   0.753   3.810  14.042  3.0589  0.6260  1.3327
 4151SOL     OW24085   0.695   2.213  14.973 -0.0594  0.0429 -0.2795
 4151SOL    HW124086   0.676   2.204  15.066 -0.8707  2.3767 -0.2120
 4151SOL    HW224087   0.752   2.137  14.959 -2.2917 -2.3408  3.9180
 4152SOL     OW24088   3.218   2.799   3.958  0.2709 -0.3468 -0.3292
 4152SOL    HW124089   3.154   2.870   3.954 -0.5005 -1.0533 -0.5345
 4152SOL    HW224090   3.270   2.821   3.881 -1.7003 -0.1441 -1.6080
 4153SOL     OW24091   1.825   1.319   4.985 -0.2802 -0.1091  0.4307
 4153SOL    HW124092   1.907   1.270   4.982  0.8352  1.6767  2.0536
 4153SOL    HW224093   1.835   1.414   4.976  1.3659 -0.2066  1.2098
 4154SOL     OW24094   1.229   2.508  13.452  0.4364 -0.2292  0.1172
 4154SOL    HW124095   1.136   2.498  13.471  0.3251  2.0534  0.7826
 4154SOL    HW224096   1.248   2.559  13.531 -0.1598 -1.2972  0.9531
 4155SOL     OW24097   0.257   3.459   3.393  0.0081  0.1284  0.1779
 4155SOL    HW124098   0.177   3.407   3.397 -0.5690  0.7830 -2.9100
 4155SOL    HW224099   0.237   3.548   3.419  1.9504  0.6745 -0.1836
 4156SOL     OW24100   4.058   0.115   4.465 -0.1079 -0.3732 -0.4021
 4156SOL    HW124101   4.120   0.045   4.483  1.3562  1.0702  0.1331
 4156SOL    HW224102   4.033   0.095   4.374 -0.9143 -2.5845  0.3152
 4157SOL     OW24103   2.898   2.343  10.708  0.0232 -0.0115 -0.1703
 4157SOL    HW124104   2.973   2.288  10.730 -0.6993 -0.6957  0.6168
 4157SOL    HW224105   2.864   2.307  10.626 -0.3625  2.2632 -0.9855
 4158SOL     OW24106   4.425   1.151   7.268 -0.2197  0.1452 -0.4213
 4158SOL    HW124107   4.498   1.096   7.240  1.4620  0.9945  2.4234
 4158SOL    HW224108   4.447   1.164   7.360 -2.3948 -2.6940  0.5183
 4159SOL     OW24109   1.067   0.666   2.029 -0.2697  0.6315  0.0015
 4159SOL    HW124110   1.116   0.584   2.023 -0.8736  0.2933 -0.2795
 4159SOL    HW224111   1.030   0.668   2.117  2.4681 -1.9392  1.2303
 4160SOL     OW24112   4.342   3.970   1.322 -0.4169 -0.1056 -0.1596
 4160SOL    HW124113   4.343   3.876   1.338  0.3407 -0.3371 -1.5276
 4160SOL    HW224114   4.279   4.004   1.386  1.8638 -1.6251  2.8780
 4161SOL     OW24115   3.826   4.503   5.430  0.0409  0.1385 -0.1411
 4161SOL    HW124116   3.735   4.517   5.403 -0.0508 -2.8046 -1.3181
 4161SOL    HW224117   3.876   4.519   5.350  0.8758 -2.7050 -0.1909
 4162SOL     OW24118   1.310   3.059   9.087 -0.4440  0.3663 -0.3061
 4162SOL    HW124119   1.366   3.136   9.098 -0.9207  0.4426  1.5468
 4162SOL    HW224120   1.328   3.008   9.165  0.5123 -1.0138 -1.4338
 4163SOL     OW24121   4.399   0.536   7.302 -0.2959 -0.0850  0.4078
 4163SOL    HW124122   4.465   0.540   7.233 -2.5838  0.9241 -1.7326
 4163SOL    HW224123   4.316   0.555   7.257  0.8148  3.9282  0.0404
 4164SOL     OW24124   3.028   4.540   9.695 -0.3320  0.1852 -0.2849
 4164SOL    HW124125   2.995   4.534   9.784 -0.7495  2.4791 -0.2865
 4164SOL    HW224126   2.946   4.512   9.653 -0.7580 -0.3613  0.9198
 4165SOL     OW24127   1.186   1.402   4.402  0.3482 -0.0396  0.0539
 4165SOL    HW124128   1.239   1.473   4.366 -0.1880  0.2550 -0.1598
 4165SOL    HW224129   1.134   1.372   4.327 -1.8060  3.0784  0.3094
 4166SOL     OW24130   3.190   0.703   6.207 -0.2026 -0.0802 -0.5471
 4166SOL    HW124131   3.263   0.668   6.156  0.7134 -2.3747  2.3640
 4166SOL    HW224132   3.135   0.625   6.202  1.2424 -1.0452 -1.4798
 4167SOL     OW24133   3.693   2.279  11.439  0.7142 -0.6437  0.0781
 4167SOL    HW124134   3.706   2.356  11.383  1.0609 -0.0127  1.0254
 4167SOL    HW224135   3.767   2.283  11.500  0.9724 -0.9153 -0.2187
 4168SOL     OW24136   0.587   3.064   1.529 -0.1858  0.2447 -0.4992
 4168SOL    HW124137   0.522   3.089   1.463  0.6000  0.7279 -1.0830
 4168SOL    HW224138   0.560   3.108   1.610  1.0000 -0.5216  0.3105
 4169SOL     OW24139   0.480   4.192   9.736  1.0270  0.1847 -0.2646
 4169SOL    HW124140   0.549   4.138   9.773  2.7048  0.7616 -2.4985
 4169SOL    HW224141   0.512   4.189   9.646  0.9053  2.8481 -0.4030
 4170SOL     OW24142   4.244   2.339   4.843  0.1559  0.0860  0.4947
 4170SOL    HW124143   4.277   2.412   4.790  0.4059 -1.3120 -1.2647
 4170SOL    HW224144   4.284   2.366   4.926  0.7274 -0.0055  0.2485
 4171SOL     OW24145   0.509   3.048   5.785  0.0620  0.0200 -0.1412
 4171SOL    HW124146   0.449   3.048   5.860  2.3611 -2.6464  1.6865
 4171SOL    HW224147   0.582   2.997   5.820 -0.4444  0.2874  1.3270
 4172SOL     OW24148   3.927   4.142  11.618 -0.6048 -0.0044  0.1602
 4172SOL    HW124149   4.021   4.121  11.622 -1.1656 -2.4026  0.7160
 4172SOL    HW224150   3.893   4.067  11.570 -0.8315  1.5467 -2.1053
 4173SOL     OW24151   0.883   3.308  15.581 -0.1894  0.0987 -0.3092
 4173SOL    HW124152   0.976   3.302  15.562  0.6362  3.0841  2.7350
 4173SOL    HW224153   0.886   3.350  15.667  0.3114 -0.8091  0.1136
 4174SOL     OW24154   1.804   2.012   3.793 -0.1662  0.3205 -0.2025
 4174SOL    HW124155   1.732   2.072   3.811  0.7532  1.0249  1.0648
 4174SOL    HW224156   1.864   2.076   3.757  2.0834 -1.1958  0.8736
 4175SOL     OW24157   1.300   3.411   6.006 -0.1503 -0.0155  0.2676
 4175SOL    HW124158   1.392   3.386   6.018 -0.7435 -1.9689  0.8184
 4175SOL    HW224159   1.280   3.460   6.085 -0.8101  0.4680 -0.2048
 4176SOL     OW24160   2.240   1.043   2.816 -0.0734  0.2704 -0.4673
 4176SOL    HW124161   2.276   0.959   2.787 -0.4289 -0.1345  0.2820
 4176SOL    HW224162   2.168   1.061   2.756 -0.3752  0.8622  0.0796
 4177SOL     OW24163   1.395   2.248   5.305  0.1157 -0.1381  0.1791
 4177SOL    HW124164   1.360   2.272   5.390 -0.3332 -1.1152  0.2701
 4177SOL    HW224165   1.483   2.220   5.329  0.2616  1.0978  1.0618
 4178SOL     OW24166   2.447   4.384   9.223 -0.0522 -0.4088  0.4796
 4178SOL    HW124167   2.536   4.383   9.187 -1.3283 -0.6518 -2.6467
 4178SOL    HW224168   2.457   4.369   9.316 -2.7301  0.1907  0.8712
 4179SOL     OW24169   1.681   2.933  17.054 -0.0421  0.1540 -0.1553
 4179SOL    HW124170   1.673   2.908  17.146  0.0259  0.9424  0.0618
 4179SOL    HW224171   1.688   2.848  17.009  1.9269  0.5091 -0.5364
 4180SOL     OW24172   1.905   0.991   9.582 -0.0720  0.4929  0.2224
 4180SOL    HW124173   1.943   0.929   9.644  0.1496  0.8514  0.4441
 4180SOL    HW224174   1.990   1.025   9.556 -0.8831  2.2315 -0.1830
 4181SOL     OW24175   0.845   3.274   3.942 -0.2920  0.2434 -0.2351
 4181SOL    HW124176   0.839   3.185   3.909  1.5520  0.3385 -0.8055
 4181SOL    HW224177   0.780   3.305   3.878  1.2816  1.5368 -1.1899
 4182SOL     OW24178   3.119   0.804   6.905 -0.7431 -0.3265 -0.5070
 4182SOL    HW124179   3.078   0.875   6.856 -1.8697  0.4345  1.5338
 4182SOL    HW224180   3.203   0.815   6.861 -0.5984  1.2842  0.1856
 4183SOL     OW24181   1.094   1.716   7.644 -0.0103 -0.4057 -0.8038
 4183SOL    HW124182   1.172   1.757   7.681 -1.5163  0.7327  1.0903
 4183SOL    HW224183   1.037   1.793   7.647 -1.0638 -1.3255  2.6657
 4184SOL     OW24184   4.404   1.805   1.247  0.2110 -0.1701 -0.5513
 4184SOL    HW124185   4.371   1.735   1.303  0.3195  0.7485  0.6632
 4184SOL    HW224186   4.363   1.884   1.282  1.9680  1.5557 -2.3804
 4185SOL     OW24187   0.375   1.203   1.234  0.5532 -0.3379  0.1560
 4185SOL    HW124188   0.467   1.199   1.259  0.8751 -0.0259 -0.9632
 4185SOL    HW224189   0.343   1.251   1.310  0.1050 -3.1001  1.6780
 4186SOL     OW24190   1.142   0.752  13.448 -0.5597 -0.2184  0.5394
 4186SOL    HW124191   1.075   0.811  13.413  0.6276  0.6330 -0.2936
 4186SOL    HW224192   1.214   0.814  13.442 -1.5884  0.8943 -0.3727
 4187SOL     OW24193   0.602   0.730  14.461 -0.0643 -0.6774  0.4459
 4187SOL    HW124194   0.633   0.793  14.526 -0.9189 -2.5777  2.6896
 4187SOL    HW224195   0.552   0.793  14.408 -0.3523 -1.5476 -0.3218
 4188SOL     OW24196   1.661   0.501   5.737 -0.0700  0.5016  0.6334
 4188SOL    HW124197   1.593   0.541   5.682  1.6080  1.2149 -0.9157
 4188SOL    HW224198   1.601   0.445   5.786 -2.5201 -0.5716 -3.5786
 4189SOL     OW24199   3.865   4.003   4.423 -0.2274  0.1542 -0.6621
 4189SOL    HW124200   3.888   3.938   4.357 -2.2510  0.4654 -1.6662
 4189SOL    HW224201   3.770   3.998   4.432 -0.0949  0.3829  0.8512
 4190SOL     OW24202   0.830   2.397   2.675  0.5498 -0.2192  0.2362
 4190SOL    HW124203   0.760   2.440   2.723 -0.8429 -0.3477 -1.6490
 4190SOL    HW224204   0.881   2.470   2.641 -0.1739  0.3628  0.3971
 4191SOL     OW24205   1.551   4.440  14.135  0.4932 -0.3010 -0.0914
 4191SOL    HW124206   1.564   4.362  14.082  0.7360 -1.7033  2.0151
 4191SOL    HW224207   1.627   4.445  14.193 -0.1325 -0.1851  0.7197
 4192SOL     OW24208   1.575   1.036  11.681  0.2528  0.3337  0.3215
 4192SOL    HW124209   1.577   0.957  11.626  3.3358  0.2724  0.4868
 4192SOL    HW224210   1.661   1.035  11.723 -0.1433 -2.1161  1.1030
 4193SOL     OW24211   2.507   1.345  10.024  0.3963  0.7746 -0.0917
 4193SOL    HW124212   2.599   1.367  10.039  1.0923 -2.1120 -0.1979
 4193SOL    HW224213   2.512   1.277   9.958 -2.3254 -0.3992  0.9202
 4194SOL     OW24214   1.211   1.951   5.448 -0.0539  0.4471 -0.5975
 4194SOL    HW124215   1.227   2.017   5.516  1.7055 -2.3899  1.7117
 4194SOL    HW224216   1.279   1.888   5.471 -1.1636 -0.6266 -0.2660
 4195SOL     OW24217   2.659   2.785   7.835 -0.0552 -0.2172  0.4000
 4195SOL    HW124218   2.641   2.844   7.762  2.2009  1.3656  1.1308
 4195SOL    HW224219   2.710   2.716   7.794 -0.1544 -0.9495  1.5066
 4196SOL     OW24220   2.765   4.118   7.179  0.4839 -0.7286  0.2651
 4196SOL    HW124221   2.814   4.042   7.148  1.3671 -0.0357 -0.0257
 4196SOL    HW224222   2.765   4.172   7.100 -0.6864 -1.1338 -0.0121
 4197SOL     OW24223   4.707   1.937   8.747 -0.4442  0.6267 -0.5895
 4197SOL    HW124224   0.004   1.861   8.794 -1.6539 -0.0674 -0.8059
 4197SOL    HW224225   4.631   1.958   8.802 -0.2017  0.5930 -0.2407
 4198SOL     OW24226   0.693   2.152   7.621  0.4132 -0.2082 -0.4050
 4198SOL    HW124227   0.620   2.106   7.663 -0.0362  1.5058  0.7292
 4198SOL    HW224228   0.651   2.209   7.557  0.1316 -1.7117 -1.5442
 4199SOL     OW24229   2.540   1.171   3.247  0.1878  0.2280 -0.5112
 4199SOL    HW124230   2.612   1.109   3.251 -2.0756 -2.3924 -0.9437
 4199SOL    HW224231   2.522   1.159   3.154  1.8027 -1.8960 -0.5346
 4200SOL     OW24232   1.385   3.759  11.894  0.1023  0.2098  0.1260
 4200SOL    HW124233   1.378   3.808  11.975  0.6751 -1.2140  1.0269
 4200SOL    HW224234   1.313   3.787  11.837  0.6817  0.3720 -0.5302
 4201SOL     OW24235   1.584   2.641   5.508  0.3321 -0.2807 -0.1789
 4201SOL    HW124236   1.672   2.661   5.540  0.3108  1.0175 -0.9442
 4201SOL    HW224237   1.598   2.617   5.417  0.0887  1.4293 -0.6691
 4202SOL     OW24238   3.605   0.913  11.911  0.0868  0.0921  0.2914
 4202SOL    HW124239   3.566   0.868  11.836 -0.2217  0.9943 -0.0892
 4202SOL    HW224240   3.687   0.946  11.874 -0.8143 -0.2034 -1.9965
 4203SOL     OW24241   1.413   4.324   7.316  0.4934 -0.4804  0.4277
 4203SOL    HW124242   1.477   4.269   7.270  0.5510  0.5153 -0.6681
 4203SOL    HW224243   1.428   4.293   7.405  1.7966 -1.1989 -0.0306
 4204SOL     OW24244   3.787   0.204   2.223  0.2141 -0.5484 -0.8009
 4204SOL    HW124245   3.788   0.198   2.318 -1.0530  0.3614 -0.7296
 4204SOL    HW224246   3.772   0.298   2.207  0.0272 -0.9375 -2.9840
 4205SOL     OW24247   3.246   3.219   7.916 -0.1660 -0.6074 -0.3722
 4205SOL    HW124248   3.245   3.207   7.821 -1.0524 -4.0132  0.0717
 4205SOL    HW224249   3.192   3.298   7.924  0.3242 -0.3489  0.3638
 4206SOL     OW24250   0.866   1.319  14.111 -0.3104 -0.2396 -0.3324
 4206SOL    HW124251   0.851   1.290  14.020 -0.1849 -1.1148 -0.0734
 4206SOL    HW224252   0.891   1.411  14.103  0.4471 -0.4621 -0.4783
 4207SOL     OW24253   3.260   1.718   5.739  0.7471 -1.2124  0.0466
 4207SOL    HW124254   3.294   1.632   5.714  1.5878 -0.8420 -0.1137
 4207SOL    HW224255   3.313   1.749   5.813 -1.3272  0.5478  0.7924
 4208SOL     OW24256   2.875   2.453  13.338 -0.6380 -0.0770  0.1982
 4208SOL    HW124257   2.874   2.497  13.253  2.0391 -0.6095 -0.1128
 4208SOL    HW224258   2.876   2.523  13.403  1.8724  0.4271 -0.3765
 4209SOL     OW24259   2.447   0.841   7.389 -0.1412 -0.1120  0.0911
 4209SOL    HW124260   2.540   0.858   7.373  0.0462 -1.6464 -0.4606
 4209SOL    HW224261   2.412   0.838   7.301  0.5067  2.2112 -0.2507
 4210SOL     OW24262   3.718   1.708   6.221 -0.4733  0.5417 -0.4268
 4210SOL    HW124263   3.812   1.722   6.212 -0.4857  0.1171 -1.2458
 4210SOL    HW224264   3.684   1.775   6.161 -1.0847 -0.2053 -0.9087
 4211SOL     OW24265   4.023   2.189   0.961  0.0916 -0.3863 -0.9426
 4211SOL    HW124266   4.070   2.121   1.009  1.5643  1.2586 -0.0563
 4211SOL    HW224267   3.939   2.180   1.004  0.5079 -0.9088 -0.2336
 4212SOL     OW24268   3.719   3.213  12.581 -0.1131 -0.5875  0.1462
 4212SOL    HW124269   3.804   3.229  12.542  0.1816 -0.2066  0.9287
 4212SOL    HW224270   3.713   3.120  12.599 -1.5695 -0.5692 -0.2059
 4213SOL     OW24271   4.303   0.505   2.128  0.3490  0.4665  0.4947
 4213SOL    HW124272   4.307   0.584   2.183 -0.8842  0.8275  0.0610
 4213SOL    HW224273   4.232   0.528   2.068  0.4641 -1.7903 -0.4826
 4214SOL     OW24274   4.219   2.274  13.831 -0.0569  0.0730  0.2179
 4214SOL    HW124275   4.139   2.287  13.883 -0.0689  1.1342 -0.0706
 4214SOL    HW224276   4.177   2.262  13.746  0.5764  1.8619 -0.3514
 4215SOL     OW24277   3.881   4.654   7.918 -0.3098  0.5343 -0.0284
 4215SOL    HW124278   3.854   4.596   7.847  4.3245 -1.1441 -0.3961
 4215SOL    HW224279   3.964   4.685   7.882 -0.6048 -0.8333 -1.8871
 4216SOL     OW24280   1.658   4.674   7.483 -0.4113 -0.2130 -0.5125
 4216SOL    HW124281   1.686   4.599   7.536 -0.0702 -0.3991 -0.9526
 4216SOL    HW224282   1.569   4.680   7.517 -0.7738  2.0934 -1.9086
 4217SOL     OW24283   1.784   3.690  15.859 -0.0064 -0.2635  0.2951
 4217SOL    HW124284   1.828   3.691  15.774 -0.5713  0.8338  0.0054
 4217SOL    HW224285   1.838   3.751  15.909  0.8146 -0.5331 -0.2576
 4218SOL     OW24286   0.423   1.953   3.251  0.0752  0.0207 -0.3468
 4218SOL    HW124287   0.404   1.969   3.343 -1.5021 -0.6554 -0.5594
 4218SOL    HW224288   0.370   1.877   3.226  1.9045 -1.5050  0.4642
 4219SOL     OW24289   4.455   1.437  13.408 -0.5667 -0.6999  0.0771
 4219SOL    HW124290   4.448   1.473  13.319 -4.3051  0.9313  1.0548
 4219SOL    HW224291   4.392   1.365  13.408 -0.2772 -0.9687 -1.1537
 4220SOL     OW24292   4.306   0.196  14.371  0.7339  0.4077 -0.1752
 4220SOL    HW124293   4.389   0.154  14.395  1.3205  0.7200 -1.6601
 4220SOL    HW224294   4.238   0.129  14.375  0.1369  0.9926 -0.5575
 4221SOL     OW24295   1.546   1.177   9.278  0.5665  0.5904 -0.5496
 4221SOL    HW124296   1.569   1.266   9.304  0.4120  0.1056  1.2361
 4221SOL    HW224297   1.509   1.139   9.357 -0.3995  0.3769 -1.1028
 4222SOL     OW24298   3.728   0.334   3.148 -0.4127  0.2039 -0.2879
 4222SOL    HW124299   3.763   0.260   3.198  0.4356 -1.7997 -3.8711
 4222SOL    HW224300   3.640   0.304   3.125 -0.3615 -0.9040  0.9388
 4223SOL     OW24301   1.267   1.513  12.599  0.0646  0.2405 -0.1881
 4223SOL    HW124302   1.221   1.536  12.519 -0.4874 -0.7492 -0.1468
 4223SOL    HW224303   1.265   1.417  12.593 -0.6766  0.1835  0.8752
 4224SOL     OW24304   0.203   3.379   8.557 -0.0296  0.2093 -0.2923
 4224SOL    HW124305   0.152   3.298   8.553 -1.0237  0.8445 -0.5259
 4224SOL    HW224306   0.203   3.403   8.650  0.1783 -0.5602 -0.0941
 4225SOL     OW24307   1.619   4.550   7.116  0.4593 -0.0647  0.2987
 4225SOL    HW124308   1.669   4.493   7.175  0.7864 -0.3362 -0.2479
 4225SOL    HW224309   1.558   4.601   7.169 -1.1826  0.6237 -2.2665
 4226SOL     OW24310   1.258   4.216   2.067 -0.2367 -0.4785 -0.6653
 4226SOL    HW124311   1.313   4.244   2.141  0.4794 -2.0539 -0.5939
 4226SOL    HW224312   1.281   4.124   2.085 -1.1607 -0.2347  1.7276
 4227SOL     OW24313   0.012   1.595  11.154  0.7598  0.3769 -0.4034
 4227SOL    HW124314   0.042   1.523  11.098  0.6704 -0.0409  0.0835
 4227SOL    HW224315   4.656   1.574  11.149  0.4290  1.8651 -0.2864
 4228SOL     OW24316   3.575   3.996   2.282 -0.3260 -0.3702  0.1604
 4228SOL    HW124317   3.559   3.930   2.349 -0.3413  0.4718  0.9895
 4228SOL    HW224318   3.561   4.071   2.341  3.2074 -0.9841  1.8052
 4229SOL     OW24319   2.901   2.940  13.205 -0.0326 -0.0212 -0.4791
 4229SOL    HW124320   2.987   2.928  13.246 -0.4982  1.2723  0.8383
 4229SOL    HW224321   2.882   2.856  13.163  2.3196 -0.4453 -0.7095
 4230SOL     OW24322   0.865   3.611   2.989  0.0811  0.7009 -0.2203
 4230SOL    HW124323   0.956   3.584   2.992 -0.5500 -1.3709  0.1259
 4230SOL    HW224324   0.876   3.705   3.008  2.0357  0.2929  0.6488
 4231SOL     OW24325   3.070   1.878   2.719 -0.0674  0.5865 -0.2946
 4231SOL    HW124326   3.097   1.936   2.648  1.8906  1.0944  0.8574
 4231SOL    HW224327   3.016   1.816   2.669  0.5815 -0.6007  0.4902
 4232SOL     OW24328   2.809   0.962  10.632  0.0157  0.4803 -0.0921
 4232SOL    HW124329   2.804   0.891  10.568 -1.6360 -0.6056  1.2207
 4232SOL    HW224330   2.889   0.943  10.681 -0.1034 -3.0842 -1.2561
 4233SOL     OW24331   0.636   1.623   2.897 -0.5317  0.5707 -0.3175
 4233SOL    HW124332   0.682   1.551   2.941 -2.3593 -0.0828  0.5414
 4233SOL    HW224333   0.546   1.621   2.928  0.6400  1.1333  3.0626
 4234SOL     OW24334   1.657   0.362   2.996 -0.1357 -0.0003 -0.4883
 4234SOL    HW124335   1.628   0.452   2.982  1.8939  0.7266  0.1222
 4234SOL    HW224336   1.691   0.347   2.908  1.2589  0.5085 -0.0359
 4235SOL     OW24337   0.151   0.688   7.430  0.1729  0.1994  0.1912
 4235SOL    HW124338   0.244   0.682   7.410 -0.1320  0.2641 -1.2465
 4235SOL    HW224339   0.162   0.720   7.520  2.2701 -1.0980  0.3874
 4236SOL     OW24340   3.431   4.289   1.608 -0.0451  0.0216 -0.4323
 4236SOL    HW124341   3.438   4.219   1.673 -1.8007  2.2760  2.1841
 4236SOL    HW224342   3.476   4.363   1.650 -0.1139 -0.7592  1.0294
 4237SOL     OW24343   2.630   0.455   6.254 -0.2331 -0.4972  0.6587
 4237SOL    HW124344   2.604   0.492   6.339  0.5853 -1.8153  1.4821
 4237SOL    HW224345   2.558   0.492   6.203  1.7232  0.3625 -1.4576
 4238SOL     OW24346   3.599   2.981   4.051 -0.7793 -0.2080  0.4491
 4238SOL    HW124347   3.646   2.965   3.969 -0.5843 -3.0868  1.1151
 4238SOL    HW224348   3.507   2.967   4.027 -0.3548  0.7774 -1.7121
 4239SOL     OW24349   3.904   3.218  12.035 -0.3445 -0.3416 -0.1997
 4239SOL    HW124350   3.885   3.140  12.088  0.2484 -1.3503 -1.4754
 4239SOL    HW224351   3.856   3.284  12.086  1.2331  1.2349 -0.7474
 4240SOL     OW24352   1.058   1.631   4.088  0.2974  0.4501 -0.1446
 4240SOL    HW124353   1.074   1.563   4.023  0.2125  0.2659  0.0270
 4240SOL    HW224354   1.007   1.580   4.151 -1.3073  1.5829 -0.5276
 4241SOL     OW24355   1.220   1.103   1.656 -0.3987 -0.6473 -0.4028
 4241SOL    HW124356   1.131   1.074   1.640 -1.6043  2.3281  0.8784
 4241SOL    HW224357   1.213   1.196   1.635 -0.3286 -0.5393  0.0586
 4242SOL     OW24358   0.359   3.985   1.501 -0.6929  0.0769  0.3934
 4242SOL    HW124359   0.378   4.073   1.534 -0.8605  0.4636 -0.5458
 4242SOL    HW224360   0.383   3.925   1.571 -1.8848  1.3876  1.9381
 4243SOL     OW24361   0.347   1.121   7.815 -0.4284  0.7287  0.4256
 4243SOL    HW124362   0.297   1.071   7.750 -0.3801  1.7079 -0.3605
 4243SOL    HW224363   0.307   1.082   7.892 -1.8329  0.8490 -0.2293
 4244SOL     OW24364   1.382   1.400   5.946  0.1104 -0.2254 -0.6572
 4244SOL    HW124365   1.383   1.489   5.982  0.7149  0.0182 -1.2848
 4244SOL    HW224366   1.431   1.412   5.865 -0.6425 -2.5473 -1.4620
 4245SOL     OW24367   4.425   1.171   3.326  0.0547 -0.4057 -0.3043
 4245SOL    HW124368   4.519   1.159   3.312 -0.1708 -2.7850  0.4015
 4245SOL    HW224369   4.431   1.184   3.420  1.1317  1.8563 -0.6580
 4246SOL     OW24370   1.988   1.774   8.310  0.5825  0.0667  0.2798
 4246SOL    HW124371   2.079   1.745   8.312  0.1648 -1.2161  0.8397
 4246SOL    HW224372   1.993   1.868   8.294  0.3831 -0.2051 -1.3685
 4247SOL     OW24373   3.164   0.981   4.935 -0.0383 -0.7489 -0.4094
 4247SOL    HW124374   3.216   0.976   5.015  1.1264 -0.1125 -1.1298
 4247SOL    HW224375   3.173   1.075   4.919  0.0999 -0.2355  2.7499
 4248SOL     OW24376   0.447   2.237  14.839 -0.9752 -0.2653  0.7826
 4248SOL    HW124377   0.480   2.316  14.797 -1.8833  0.4230  1.3754
 4248SOL    HW224378   0.513   2.215  14.905  1.3952  0.0134 -1.4933
 4249SOL     OW24379   0.411   0.458  13.314 -0.2707  0.1835 -0.1046
 4249SOL    HW124380   0.447   0.375  13.283  2.3473  1.8294 -1.3224
 4249SOL    HW224381   0.338   0.466  13.253  1.8481  0.2241 -2.6125
 4250SOL     OW24382   2.758   0.707  16.824  0.0177 -0.0256 -0.7479
 4250SOL    HW124383   2.717   0.788  16.792 -2.2075 -0.7102  0.3576
 4250SOL    HW224384   2.840   0.714  16.775 -1.5154 -0.9196 -3.4493
 4251SOL     OW24385   0.785   0.789   5.735  0.7620  0.1778 -0.3009
 4251SOL    HW124386   0.841   0.721   5.698 -1.0745 -0.9736 -0.9254
 4251SOL    HW224387   0.716   0.774   5.671  0.4899 -0.4799  0.1545
 4252SOL     OW24388   4.397   4.687   3.176  0.4030 -0.3632  0.0196
 4252SOL    HW124389   4.455   4.664   3.103 -1.7573 -0.4031 -1.6813
 4252SOL    HW224390   4.392   0.044   3.165  0.3689 -0.2690  0.8730
 4253SOL     OW24391   1.351   1.708   8.262  0.0663 -0.0634  0.0261
 4253SOL    HW124392   1.283   1.753   8.312  0.4839 -2.1119  2.4336
 4253SOL    HW224393   1.327   1.618   8.283 -1.4237  0.9999  2.8448
 4254SOL     OW24394   0.355   3.742   8.040  0.1765  0.0940 -0.3447
 4254SOL    HW124395   0.432   3.788   8.072  0.4674  0.4155 -1.5135
 4254SOL    HW224396   0.383   3.652   8.031  0.8403  0.5770 -3.2301
 4255SOL     OW24397   2.248   2.794  16.591 -0.4615 -0.4340  0.3516
 4255SOL    HW124398   2.237   2.701  16.609  0.6751 -0.8276 -0.9256
 4255SOL    HW224399   2.323   2.823  16.643 -0.2755  1.0374 -0.7180
 4256SOL     OW24400   2.664   4.165  11.363  0.1406  0.6430 -0.2320
 4256SOL    HW124401   2.676   4.229  11.293  2.7862 -0.2125 -0.5600
 4256SOL    HW224402   2.606   4.219  11.417  1.7360  1.6101  0.5486
 4257SOL     OW24403   3.627   1.259  13.669  0.0975 -0.0631  0.1086
 4257SOL    HW124404   3.564   1.224  13.605  1.1142  0.5944 -1.2404
 4257SOL    HW224405   3.708   1.218  13.639 -0.0151  0.0116 -0.2887
 4258SOL     OW24406   4.638   0.877  17.539  0.6769  0.7990  0.4955
 4258SOL    HW124407   4.703   0.885  17.609  3.0221  2.2001 -1.8330
 4258SOL    HW224408   4.562   0.880  17.597 -0.5079 -0.8096 -0.9812
 4259SOL     OW24409   4.100   0.917   6.318  0.3553 -0.1758 -0.7418
 4259SOL    HW124410   4.182   0.891   6.276  0.3915 -1.6915  0.2518
 4259SOL    HW224411   4.083   0.999   6.272 -1.9144  1.6293  3.2478
 4260SOL     OW24412   2.242   3.705  12.693 -0.0958  0.4655 -0.1365
 4260SOL    HW124413   2.158   3.747  12.711 -0.3895 -0.6044  0.9799
 4260SOL    HW224414   2.288   3.768  12.638  0.3403  0.9942  0.8550
 4261SOL     OW24415   0.815   0.791   9.583  0.8524 -0.3645 -0.5070
 4261SOL    HW124416   0.822   0.705   9.625 -1.8535 -0.5462 -0.4276
 4261SOL    HW224417   0.755   0.826   9.649  2.0351 -0.0623  0.4110
 4262SOL     OW24418   3.600   1.319   2.065 -0.9596  0.7695 -0.4350
 4262SOL    HW124419   3.681   1.295   2.109 -1.5168  1.0039  0.7298
 4262SOL    HW224420   3.587   1.229   2.038 -1.0262  0.7832 -0.4504
 4263SOL     OW24421   2.866   2.670   8.718  0.1487 -0.9231  0.3034
 4263SOL    HW124422   2.939   2.684   8.657 -0.4207 -0.4891 -0.2762
 4263SOL    HW224423   2.839   2.581   8.693 -2.8413 -0.1150  0.6868
 4264SOL     OW24424   4.379   2.983   5.677  0.5573  0.0322  0.1169
 4264SOL    HW124425   4.428   3.017   5.602 -0.1294 -0.8921 -0.7336
 4264SOL    HW224426   4.309   2.940   5.627  0.5451 -3.9115  3.5206
 4265SOL     OW24427   0.439   2.741   4.211  0.0345  0.0768  0.1023
 4265SOL    HW124428   0.466   2.660   4.168  2.1719  0.5455  0.5676
 4265SOL    HW224429   0.495   2.739   4.288  3.6505  0.2631 -2.5347
 4266SOL     OW24430   1.475   3.307  12.486  0.4738  0.5498  0.6755
 4266SOL    HW124431   1.410   3.261  12.539  1.7985 -1.0233  0.9543
 4266SOL    HW224432   1.531   3.232  12.464 -1.5635 -1.1235  1.1522
 4267SOL     OW24433   0.640   1.980   8.747  0.3516  0.1415  0.1034
 4267SOL    HW124434   0.699   1.943   8.682 -1.3895 -0.5118 -1.0895
 4267SOL    HW224435   0.697   1.991   8.824  0.6884  1.1618 -0.2959
 4268SOL     OW24436   0.286   0.993   3.099 -0.2592 -0.5996  0.5553
 4268SOL    HW124437   0.306   0.941   3.177 -1.3142 -0.6575  0.7947
 4268SOL    HW224438   0.295   0.923   3.034 -0.2026 -1.7621  1.8124
 4269SOL     OW24439   4.339   2.738   4.638 -0.4768 -0.1901 -0.3947
 4269SOL    HW124440   4.402   2.706   4.702 -2.6757 -0.7695  1.4808
 4269SOL    HW224441   4.260   2.721   4.688  1.0452 -1.6631  1.5081
 4270SOL     OW24442   0.159   2.290   6.960  0.0995  0.0865  0.4664
 4270SOL    HW124443   0.101   2.234   7.012  0.4147  1.3075  2.1073
 4270SOL    HW224444   0.105   2.367   6.940  0.6753 -0.0771 -1.7704
 4271SOL     OW24445   2.513   0.666   7.755  0.3468 -0.0288 -0.6964
 4271SOL    HW124446   2.573   0.651   7.829  0.6780  0.9941 -0.7581
 4271SOL    HW224447   2.546   0.606   7.688  1.6707  0.7803 -0.7672
 4272SOL     OW24448   3.842   2.958   7.871 -0.2678  0.3303 -0.1838
 4272SOL    HW124449   3.911   2.978   7.934 -1.3300 -0.1955  1.1549
 4272SOL    HW224450   3.830   2.863   7.863  0.4687  0.2828 -0.7379
 4273SOL     OW24451   3.448   3.134   8.579 -0.5055  0.2010  0.1060
 4273SOL    HW124452   3.368   3.159   8.625 -1.4640 -0.8306 -1.0195
 4273SOL    HW224453   3.442   3.177   8.494  0.3738  0.8874  0.3907
 4274SOL     OW24454   0.380   4.170   6.445  0.2702  0.3218 -0.1521
 4274SOL    HW124455   0.471   4.149   6.425  0.5154 -0.0937  1.4106
 4274SOL    HW224456   0.345   4.081   6.441 -1.7278  1.0618  0.8505
 4275SOL     OW24457   4.500   0.548   5.243  0.2741 -0.0815  0.1037
 4275SOL    HW124458   4.538   0.534   5.330 -0.5531  1.2082  0.6864
 4275SOL    HW224459   4.533   0.636   5.225 -0.6256 -0.1824 -2.0547
 4276SOL     OW24460   1.293   4.047  11.180  0.2999 -0.4371 -0.0284
 4276SOL    HW124461   1.297   4.105  11.256  0.9142  0.7201 -0.9218
 4276SOL    HW224462   1.203   4.061  11.149  0.9290  3.4955 -0.1040
 4277SOL     OW24463   0.716   4.350   5.922  0.5377  0.2578 -0.6385
 4277SOL    HW124464   0.622   4.342   5.910  0.2931 -0.1705  1.5369
 4277SOL    HW224465   0.741   4.260   5.903  0.9682  0.0960  0.6645
 4278SOL     OW24466   0.181   4.409   8.788 -0.2599 -0.1372  0.1150
 4278SOL    HW124467   0.261   4.359   8.771  1.0145  2.2198 -0.8132
 4278SOL    HW224468   0.205   4.484   8.843  0.3722 -0.9847  0.9959
 4279SOL     OW24469   3.187   0.741   5.172  0.1449  0.3137  0.7110
 4279SOL    HW124470   3.120   0.800   5.140 -1.4883 -1.6020  0.5873
 4279SOL    HW224471   3.145   0.712   5.253 -2.8536  0.6925 -0.7163
 4280SOL     OW24472   2.360   0.823  13.234 -0.7326 -0.0899 -0.3175
 4280SOL    HW124473   2.433   0.885  13.228  0.3915 -1.3401  0.6213
 4280SOL    HW224474   2.297   0.879  13.188  0.3561  1.1092 -0.3464
 4281SOL     OW24475   0.951   2.615   4.789 -0.4510  0.0599  0.5833
 4281SOL    HW124476   0.953   2.671   4.711  0.3877 -0.1459  0.4601
 4281SOL    HW224477   0.973   2.532   4.747  0.5258 -1.7538  4.7190
 4282SOL     OW24478   0.860   1.257   3.549  0.4156  0.7607 -0.4309
 4282SOL    HW124479   0.931   1.230   3.491  1.2921  2.2265 -0.0428
 4282SOL    HW224480   0.820   1.328   3.498 -1.1998 -0.2066 -0.5081
 4283SOL     OW24481   4.025   4.125   9.596 -0.1438  0.1125  0.4578
 4283SOL    HW124482   4.072   4.208   9.605  1.0180 -0.6174  1.1162
 4283SOL    HW224483   4.101   4.070   9.613 -0.6548  0.3548  3.4370
 4284SOL     OW24484   4.340   1.565   5.732 -0.0759  0.2604 -0.0536
 4284SOL    HW124485   4.282   1.506   5.686  0.8123  0.7005 -1.7482
 4284SOL    HW224486   4.392   1.607   5.663 -1.8425  0.5172 -1.2283
 4285SOL     OW24487   1.387   3.884   2.497 -0.0366  0.3969 -0.1894
 4285SOL    HW124488   1.441   3.805   2.489  0.5881  0.9766 -1.6130
 4285SOL    HW224489   1.448   3.942   2.542  1.2769 -0.8945 -0.3245
 4286SOL     OW24490   0.336   4.138   4.077  0.0938 -0.3821 -0.2329
 4286SOL    HW124491   0.288   4.193   4.014 -1.0537 -0.6214  0.4379
 4286SOL    HW224492   0.302   4.164   4.163  0.0119  0.0825 -0.4047
 4287SOL     OW24493   4.162   1.398  14.183 -0.0144  0.0375 -0.1575
 4287SOL    HW124494   4.182   1.311  14.149 -2.0039  0.1270 -1.5888
 4287SOL    HW224495   4.068   1.387  14.198  0.3857 -1.7143  1.1103
 4288SOL     OW24496   3.678   3.290  14.363 -1.0944 -0.1298  0.4192
 4288SOL    HW124497   3.610   3.323  14.422  0.0927  2.1636  0.5221
 4288SOL    HW224498   3.695   3.359  14.299  1.9730 -1.2554  0.0183
 4289SOL     OW24499   2.554   3.800   3.023  0.5343  0.5627  0.1260
 4289SOL    HW124500   2.632   3.850   2.999 -1.2652  3.2584 -0.1182
 4289SOL    HW224501   2.498   3.873   3.052  1.7362  1.4306  0.2658
 4290SOL     OW24502   0.847   4.687  12.351  0.0582  0.0274 -0.7125
 4290SOL    HW124503   0.873   4.713  12.439  1.7242 -0.7202 -0.9863
 4290SOL    HW224504   0.754   4.710  12.346 -0.1082 -0.7033 -1.0113
 4291SOL     OW24505   0.914   2.846   2.285 -0.0239 -0.2776  0.3552
 4291SOL    HW124506   0.964   2.912   2.334 -0.3032  1.3561 -1.5684
 4291SOL    HW224507   0.957   2.847   2.200  0.3724 -1.6676  0.5312
 4292SOL     OW24508   4.482   1.824   9.964 -0.2794 -0.8484  0.4407
 4292SOL    HW124509   4.525   1.808  10.048 -0.3115 -2.7328  0.0783
 4292SOL    HW224510   4.565   1.832   9.918 -1.4483 -0.8441 -1.6473
 4293SOL     OW24511   3.254   0.053   8.269 -0.7010  0.1679 -0.1903
 4293SOL    HW124512   3.277   0.136   8.228  0.3544 -0.9081 -1.7777
 4293SOL    HW224513   3.163   0.034   8.245 -1.4134  2.1065  1.0085
 4294SOL     OW24514   2.363   4.052   5.480 -0.6466 -0.3904  0.2405
 4294SOL    HW124515   2.371   4.138   5.521  3.0842  0.0402 -1.3318
 4294SOL    HW224516   2.352   4.000   5.560 -1.0510  0.4532  0.7380
 4295SOL     OW24517   3.117   1.151   8.129 -0.7588 -0.0629  0.4468
 4295SOL    HW124518   3.098   1.180   8.040 -1.3112 -0.1696  0.5310
 4295SOL    HW224519   3.131   1.229   8.183 -3.1527  0.9289 -0.3550
 4296SOL     OW24520   1.804   4.055  11.780  0.3894  0.1771  0.0698
 4296SOL    HW124521   1.783   4.147  11.771  2.7640  0.8047  0.9756
 4296SOL    HW224522   1.851   4.036  11.699  0.2200 -0.9188  0.2176
 4297SOL     OW24523   3.944   3.878   3.747 -0.1012  0.1714 -0.4102
 4297SOL    HW124524   3.987   3.945   3.800 -1.2176 -1.0446  2.0621
 4297SOL    HW224525   4.016   3.823   3.715  0.0209 -0.5513  1.0851
 4298SOL     OW24526   2.003   3.461   2.842  0.2525  0.0543  0.1030
 4298SOL    HW124527   1.976   3.369   2.843  1.0065 -0.1866 -3.2571
 4298SOL    HW224528   1.971   3.487   2.929 -1.6674  1.1851 -0.9536
 4299SOL     OW24529   4.087   2.556  16.346  0.1536  0.0229  0.2807
 4299SOL    HW124530   4.122   2.632  16.392 -0.6028 -0.4969  1.7127
 4299SOL    HW224531   4.167   2.505  16.349  1.8291  2.5176 -1.3979
 4300SOL     OW24532   1.897   4.549   0.840 -0.4420 -0.0529 -0.3162
 4300SOL    HW124533   1.824   4.599   0.877  1.7244  3.3972 -0.7535
 4300SOL    HW224534   1.922   4.619   0.780 -1.6225 -0.9126 -1.8269
 4301SOL     OW24535   1.868   0.432   9.575  0.0219  0.0715 -0.5309
 4301SOL    HW124536   1.879   0.478   9.491  0.7381 -0.6955 -0.8501
 4301SOL    HW224537   1.896   0.501   9.635  0.2620 -1.1863  0.7884
 4302SOL     OW24538   4.062   2.361   1.351 -0.2839 -0.5736  0.7928
 4302SOL    HW124539   4.062   2.341   1.257  2.0350  0.0188  0.6612
 4302SOL    HW224540   4.065   2.457   1.352 -0.2619 -0.5137 -2.9431
 4303SOL     OW24541   3.499   0.716   2.308  0.0572 -0.0071 -0.2239
 4303SOL    HW124542   3.593   0.726   2.325  0.6891 -1.6615 -2.7059
 4303SOL    HW224543   3.498   0.749   2.218 -1.5579 -2.0121 -0.9491
 4304SOL     OW24544   4.528   2.175   5.264 -0.2149 -0.2989  0.5527
 4304SOL    HW124545   4.439   2.153   5.234 -1.1633  1.9739  1.7167
 4304SOL    HW224546   4.578   2.204   5.187 -1.2212  1.4871  0.5558
 4305SOL     OW24547   4.482   3.109   7.304 -0.4993 -0.5329  0.0079
 4305SOL    HW124548   4.390   3.095   7.283 -0.9375  0.9124  0.9973
 4305SOL    HW224549   4.475   3.176   7.371 -0.1668 -1.3561  0.8766
 4306SOL     OW24550   3.449   4.353  13.683  0.3829  0.5981 -0.2983
 4306SOL    HW124551   3.472   4.267  13.717 -0.2767  0.7102  0.4166
 4306SOL    HW224552   3.388   4.326  13.614  0.6555  2.3459 -1.2300
 4307SOL     OW24553   4.679   2.498  14.025 -0.6906  0.4877  0.2044
 4307SOL    HW124554   4.718   2.585  14.019 -1.6759  1.0458  1.7569
 4307SOL    HW224555   4.602   2.507  13.968  1.4565  1.0698 -2.5601
 4308SOL     OW24556   2.377   0.628  16.803 -0.7618 -0.0572 -0.0547
 4308SOL    HW124557   2.309   0.679  16.847  1.8121  2.5116  0.8797
 4308SOL    HW224558   2.422   0.676  16.733  1.9380 -2.0781  0.2971
 4309SOL     OW24559   3.112   4.159   6.782 -0.0674  0.1165  0.2541
 4309SOL    HW124560   3.153   4.144   6.697 -0.3370 -0.6478  0.2595
 4309SOL    HW224561   3.018   4.141   6.773 -0.1589 -0.0914  1.5330
 4310SOL     OW24562   3.072   4.679   5.388 -0.2424  0.1459 -0.3588
 4310SOL    HW124563   3.145   4.735   5.361 -0.7044  1.3429  0.8682
 4310SOL    HW224564   3.019   4.669   5.309  1.9414  1.8850 -2.0659
 4311SOL     OW24565   1.867   1.636   8.897  0.0698  0.3958 -0.4358
 4311SOL    HW124566   1.908   1.685   8.969  0.7149  1.7235 -1.6994
 4311SOL    HW224567   1.923   1.659   8.823 -1.8150  1.8261 -1.4057
 4312SOL     OW24568   0.792   4.414   0.356 -0.6384  0.1861 -1.0877
 4312SOL    HW124569   0.705   4.381   0.335  0.1297 -1.3040 -2.0024
 4312SOL    HW224570   0.856   4.386   0.290  1.6891  1.1537  0.7804
 4313SOL     OW24571   1.590   3.430  11.964  0.0366  0.2424  0.0940
 4313SOL    HW124572   1.661   3.370  11.941  0.8509  1.3015 -0.1643
 4313SOL    HW224573   1.646   3.501  11.995 -1.7293  1.9418 -0.5597
 4314SOL     OW24574   0.117   3.418   3.778 -0.0235 -0.7259  0.4466
 4314SOL    HW124575   0.048   3.413   3.712  0.2044  0.1275  0.1473
 4314SOL    HW224576   0.192   3.401   3.722  0.6407  1.9898  0.5439
 4315SOL     OW24577   4.370   4.403   2.086 -0.4088  0.2891  0.0123
 4315SOL    HW124578   4.426   4.367   2.154 -1.2414  0.1284  0.6124
 4315SOL    HW224579   4.422   4.387   2.007 -1.4470  1.4286 -0.9144
 4316SOL     OW24580   1.795   2.809   6.993 -0.3117  0.4307  0.3868
 4316SOL    HW124581   1.760   2.721   7.005  0.7630 -0.2090 -1.3080
 4316SOL    HW224582   1.884   2.798   7.026  0.3401  0.6608 -1.3155
 4317SOL     OW24583   3.696   3.220   9.990 -0.3013  0.0075 -0.2725
 4317SOL    HW124584   3.614   3.200   9.944 -0.9468  0.3306  0.7277
 4317SOL    HW224585   3.761   3.185   9.930 -0.0640 -0.6758  0.3821
 4318SOL     OW24586   3.567   1.280   7.716 -0.2906 -0.2409 -0.2873
 4318SOL    HW124587   3.533   1.207   7.767 -0.2355  0.6981  1.0967
 4318SOL    HW224588   3.488   1.332   7.728  0.1737  0.2525  0.6545
 4319SOL     OW24589   1.681   2.801  15.654 -0.1727 -0.0394  0.6473
 4319SOL    HW124590   1.719   2.781  15.568 -0.9116  1.9346 -0.1362
 4319SOL    HW224591   1.632   2.879  15.629  2.8569  1.5144 -0.4824
 4320SOL     OW24592   2.598   0.741   9.159 -0.0463 -0.6059  0.0685
 4320SOL    HW124593   2.578   0.834   9.147 -0.8653 -0.8319 -0.3117
 4320SOL    HW224594   2.694   0.750   9.164 -0.3095  0.8786  2.0990
 4321SOL     OW24595   0.857   1.630   5.233 -0.9846  0.3984 -0.4447
 4321SOL    HW124596   0.934   1.573   5.228 -0.1549  1.3304  2.0896
 4321SOL    HW224597   0.902   1.712   5.254  1.6116  0.1834 -5.2318
 4322SOL     OW24598   0.677   0.257   7.598  0.3118  0.1434 -0.6235
 4322SOL    HW124599   0.676   0.173   7.554  1.3961  0.0171 -0.4299
 4322SOL    HW224600   0.657   0.320   7.529  1.3456 -0.6192 -1.6129
 4323SOL     OW24601   4.174   2.878   1.122 -0.4119  0.6388 -0.1189
 4323SOL    HW124602   4.187   2.871   1.027  0.4133 -0.9925  0.1047
 4323SOL    HW224603   4.079   2.881   1.131 -0.5154  1.9757 -1.6893
 4324SOL     OW24604   3.862   3.417  10.034 -0.3314  0.2201  0.5660
 4324SOL    HW124605   3.875   3.409  10.128 -1.4913  2.1081  0.8979
 4324SOL    HW224606   3.786   3.361  10.016  0.6075 -0.4975 -1.1127
 4325SOL     OW24607   2.296   2.154   2.979 -0.5271 -0.4916 -0.2668
 4325SOL    HW124608   2.271   2.168   3.071  0.3660 -1.9142  0.1875
 4325SOL    HW224609   2.256   2.229   2.936 -2.6115 -0.7486  1.2407
 4326SOL     OW24610   0.264   1.736   3.189  0.0792 -0.7017 -0.1014
 4326SOL    HW124611   0.186   1.791   3.198  1.1056  0.9914 -1.4564
 4326SOL    HW224612   0.249   1.667   3.254  1.5531 -0.7126  0.2289
 4327SOL     OW24613   1.283   0.643   3.477  0.1414  0.0634  0.2070
 4327SOL    HW124614   1.202   0.693   3.482 -1.1871 -2.2067  1.4326
 4327SOL    HW224615   1.265   0.554   3.508  0.8474 -0.3805 -0.6443
 4328SOL     OW24616   4.574   2.443   9.529  0.2873  0.2869  0.1571
 4328SOL    HW124617   4.480   2.454   9.536  0.1860 -0.4473 -0.0393
 4328SOL    HW224618   4.598   2.534   9.546  0.3023  0.1209  1.0235
 4329SOL     OW24619   0.774   3.302   8.067 -0.0746  0.1020 -0.3010
 4329SOL    HW124620   0.778   3.349   8.150 -1.9322 -1.1872  0.5031
 4329SOL    HW224621   0.802   3.376   8.012  0.3389 -0.3816 -0.7499
 4330SOL     OW24622   0.713   0.742   2.170  0.4420  0.1971 -0.4912
 4330SOL    HW124623   0.743   0.652   2.159  0.1270  0.0722 -0.3194
 4330SOL    HW224624   0.678   0.766   2.084 -0.1521 -0.3822 -0.4098
 4331SOL     OW24625   3.398   1.083   2.171  0.2517  0.0695  0.4075
 4331SOL    HW124626   3.344   1.011   2.202 -0.6730  1.1261  1.2603
 4331SOL    HW224627   3.487   1.047   2.170  0.2042  0.1304 -3.5020
 4332SOL     OW24628   4.719   4.141   9.610 -0.0394  0.0639  0.0061
 4332SOL    HW124629   0.011   4.082   9.541 -1.6128 -2.0873  1.1869
 4332SOL    HW224630   0.032   4.114   9.687 -0.1813 -2.3715 -0.7512
 4333SOL     OW24631   0.062   1.211   5.584  0.9564  0.5255 -0.1283
 4333SOL    HW124632   0.119   1.222   5.508 -0.3412 -0.9507 -1.3360
 4333SOL    HW224633   4.727   1.164   5.541  2.0444 -1.4993  0.2677
 4334SOL     OW24634   2.504   1.792   6.100 -0.0015 -0.5397 -0.2564
 4334SOL    HW124635   2.436   1.744   6.054  1.1146 -1.5757 -0.8196
 4334SOL    HW224636   2.467   1.880   6.110 -0.5900 -0.9262  0.9878
 4335SOL     OW24637   4.341   1.993   6.999 -0.0759 -0.6575  0.0761
 4335SOL    HW124638   4.298   1.913   6.967  0.9367 -1.1213 -0.1225
 4335SOL    HW224639   4.423   1.993   6.950 -0.1531  1.6903 -0.0159
 4336SOL     OW24640   4.005   0.966   6.791  0.1796 -0.5189  0.5213
 4336SOL    HW124641   3.936   0.900   6.792  0.6141 -0.9695  1.0376
 4336SOL    HW224642   4.069   0.920   6.846  1.5907 -0.5933 -1.1624
 4337SOL     OW24643   2.104   3.184   5.608 -0.5361  0.0580  0.0122
 4337SOL    HW124644   2.012   3.211   5.599 -0.8333 -1.0420 -0.2147
 4337SOL    HW224645   2.145   3.256   5.560 -1.0597 -0.7214 -1.5824
 4338SOL     OW24646   1.766   3.637   9.164 -0.4327  0.3743 -0.1648
 4338SOL    HW124647   1.835   3.693   9.126  3.3280 -2.3686  2.6251
 4338SOL    HW224648   1.810   3.552   9.155 -2.5736 -0.6481 -0.8778
 4339SOL     OW24649   1.247   0.416   8.920  0.2539  0.2362  0.3370
 4339SOL    HW124650   1.218   0.483   8.982  0.4495 -0.6467  1.3605
 4339SOL    HW224651   1.339   0.439   8.910  0.1010  1.0218  0.6877
 4340SOL     OW24652   0.071   4.436   2.100  0.0303 -0.0320  0.7158
 4340SOL    HW124653   0.056   4.355   2.149  1.1692 -0.8980 -0.3589
 4340SOL    HW224654   0.166   4.441   2.112  0.1296  1.0479 -0.5934
 4341SOL     OW24655   2.559   2.386   9.303  0.3839 -0.1104 -1.2032
 4341SOL    HW124656   2.526   2.324   9.238 -0.5676 -0.5046 -0.3319
 4341SOL    HW224657   2.634   2.343   9.344 -0.8988 -3.0334 -1.9744
 4342SOL     OW24658   0.614   3.797   9.517 -0.4582 -0.8553  0.3066
 4342SOL    HW124659   0.648   3.864   9.576  1.7348 -0.8303 -0.9807
 4342SOL    HW224660   0.666   3.718   9.531  1.3814  0.3047  0.0622
 4343SOL     OW24661   2.776   1.719   6.181  0.2554  0.1688  0.7234
 4343SOL    HW124662   2.697   1.771   6.168  1.0743  1.9114  2.6051
 4343SOL    HW224663   2.781   1.710   6.277  4.0401 -1.0555  0.4182
 4344SOL     OW24664   3.850   2.003   8.599  0.0183 -0.1761 -0.1371
 4344SOL    HW124665   3.900   1.973   8.675 -2.2198 -1.9210  0.6473
 4344SOL    HW224666   3.822   2.093   8.618 -0.0116 -0.8071  2.8079
 4345SOL     OW24667   2.626   4.170   3.949  0.3352 -0.3830 -0.0251
 4345SOL    HW124668   2.627   4.132   3.861 -0.3151 -1.7104  0.5423
 4345SOL    HW224669   2.712   4.212   3.940  0.5022 -0.6784  0.1913
 4346SOL     OW24670   1.953   3.298   8.722 -0.0199 -0.2481 -0.1107
 4346SOL    HW124671   1.975   3.257   8.806 -1.5808  1.3801  1.1020
 4346SOL    HW224672   2.036   3.286   8.676  0.2597  1.4736 -0.0393
 4347SOL     OW24673   3.893   0.453  11.287  0.3600  0.4230 -0.4997
 4347SOL    HW124674   3.798   0.458  11.287  0.3189 -0.3932  0.0762
 4347SOL    HW224675   3.932   0.524  11.235  1.5294  0.6467  0.6645
 4348SOL     OW24676   2.869   2.153   5.586  0.0567  0.0532  0.4167
 4348SOL    HW124677   2.790   2.206   5.590 -1.2059 -1.9459  1.9345
 4348SOL    HW224678   2.943   2.214   5.590  0.8376 -0.8913  0.4941
 4349SOL     OW24679   0.194   2.596  16.372  0.2560 -0.2639  0.0726
 4349SOL    HW124680   0.160   2.518  16.329 -2.3724  0.7761  0.2868
 4349SOL    HW224681   0.123   2.660  16.364  1.1002  0.8034  1.0829
 4350SOL     OW24682   1.988   4.600  12.768  0.4200  0.5886 -0.2121
 4350SOL    HW124683   2.059   4.591  12.704  0.5621  2.9843 -0.3911
 4350SOL    HW224684   1.956   4.684  12.737 -0.2100  0.7587  0.8868
 4351SOL     OW24685   3.722   3.345   7.933 -0.6676 -0.0311 -0.3498
 4351SOL    HW124686   3.723   3.267   7.988 -0.7577  0.9222  1.0137
 4351SOL    HW224687   3.806   3.350   7.889 -1.2385  2.3786 -1.1975
 4352SOL     OW24688   1.381   4.195   6.780 -0.2711  0.1718  0.0128
 4352SOL    HW124689   1.389   4.271   6.839  0.8104  1.0276 -1.2501
 4352SOL    HW224690   1.454   4.207   6.720  0.0543  0.7910  0.5242
 4353SOL     OW24691   0.541   4.564  12.163  0.4645  0.0631 -0.2315
 4353SOL    HW124692   0.632   4.548  12.137  1.4123  1.1430  2.4011
 4353SOL    HW224693   0.557   4.566  12.257 -0.7824 -1.5723  0.0235
 4354SOL     OW24694   3.640   0.656  14.652  0.1327 -0.0809 -0.2531
 4354SOL    HW124695   3.618   0.740  14.692 -0.8609 -0.4942  0.0608
 4354SOL    HW224696   3.608   0.678  14.564 -2.2201  1.7882  1.0866
 4355SOL     OW24697   1.592   3.739  13.340  0.6269 -0.7476  0.4845
 4355SOL    HW124698   1.500   3.727  13.364  0.4617  0.6780  0.5354
 4355SOL    HW224699   1.636   3.746  13.425 -0.1768 -0.4671  0.8731
 4356SOL     OW24700   1.204   3.214   2.937  0.4474  0.6014 -0.0675
 4356SOL    HW124701   1.177   3.169   2.857  0.4642 -0.5077  0.5489
 4356SOL    HW224702   1.126   3.211   2.993  0.8801 -1.0647  0.4308
 4357SOL     OW24703   3.778   1.764   8.018  0.2420  0.4570  0.6112
 4357SOL    HW124704   3.760   1.854   8.044  0.9338  0.7315  0.1246
 4357SOL    HW224705   3.858   1.756   8.070  1.3056  1.2057 -0.9219
 4358SOL     OW24706   0.232   0.342   0.983  0.9684  0.1614  0.6747
 4358SOL    HW124707   0.151   0.393   0.977  1.6877  1.2833  0.6916
 4358SOL    HW224708   0.221   0.258   1.027 -0.1875 -0.2014 -0.2861
 4359SOL     OW24709   2.767   0.050   0.786  0.0433  0.6003  0.0246
 4359SOL    HW124710   2.792   0.127   0.837 -1.8183  0.2654  1.4314
 4359SOL    HW224711   2.846   0.047   0.731  0.5421  0.0902  0.7646
 4360SOL     OW24712   3.483   3.512   2.521 -0.1295  0.0712 -0.0470
 4360SOL    HW124713   3.403   3.503   2.572  0.0094 -0.7723  0.0188
 4360SOL    HW224714   3.458   3.581   2.459  0.3088 -0.1617 -0.4869
 4361SOL     OW24715   1.617   1.999   6.628 -0.7701 -0.0159  0.3477
 4361SOL    HW124716   1.629   2.082   6.674  0.4621 -0.4323  0.7622
 4361SOL    HW224717   1.684   2.018   6.562 -1.4482  0.2336 -0.2702
 4362SOL     OW24718   2.404   0.043   2.759 -0.4654 -0.3371 -0.3486
 4362SOL    HW124719   2.478   0.103   2.770  1.4277 -2.6322 -0.3943
 4362SOL    HW224720   2.440   4.706   2.808 -3.8368 -0.5928  1.7260
 4363SOL     OW24721   0.759   1.087   7.822 -0.0264  0.4264 -0.1202
 4363SOL    HW124722   0.694   1.096   7.893  2.7892 -1.2716  2.6805
 4363SOL    HW224723   0.732   1.141   7.748 -0.1346 -0.2557 -0.5784
 4364SOL     OW24724   4.658   2.477   6.396 -0.1080 -0.2759  0.4200
 4364SOL    HW124725   4.570   2.460   6.430 -0.6636 -1.2760 -1.4904
 4364SOL    HW224726   4.679   2.387   6.373 -1.5829 -0.6830  0.6342
 4365SOL     OW24727   2.443   2.771   1.833 -0.1052  0.8519  0.1685
 4365SOL    HW124728   2.502   2.827   1.883  1.9818  0.1198 -1.4143
 4365SOL    HW224729   2.463   2.682   1.863 -0.0432  1.2037  1.1655
 4366SOL     OW24730   2.216   3.071   1.165  0.1300  0.5753 -0.5175
 4366SOL    HW124731   2.261   3.025   1.236 -1.0202 -1.0337 -0.8176
 4366SOL    HW224732   2.240   3.162   1.179 -0.5230  0.2640  2.7991
 4367SOL     OW24733   1.704   0.709   5.095  0.2155  0.2077  0.1150
 4367SOL    HW124734   1.705   0.741   5.185  0.5399 -0.1778  0.2433
 4367SOL    HW224735   1.795   0.702   5.066  0.7406  1.4833  1.4709
 4368SOL     OW24736   1.467   0.852   2.975  0.3641  0.0973  0.1687
 4368SOL    HW124737   1.420   0.850   2.891 -0.8468 -1.1881  0.8849
 4368SOL    HW224738   1.413   0.918   3.018 -0.9146 -0.4517 -0.5848
 4369SOL     OW24739   2.023   4.392   6.589  0.2651  0.3588  0.7399
 4369SOL    HW124740   2.088   4.396   6.659 -1.7301  4.3585  2.3449
 4369SOL    HW224741   2.077   4.429   6.518 -0.1918 -0.0177  0.1986
 4370SOL     OW24742   1.422   0.529  15.243 -0.3663  0.2919  0.6210
 4370SOL    HW124743   1.419   0.507  15.336  0.3064  1.8525  1.0017
 4370SOL    HW224744   1.356   0.598  15.233 -0.4167  0.4803  2.3155
 4371SOL     OW24745   2.559   2.443   2.961 -0.0936  0.0036  0.2778
 4371SOL    HW124746   2.581   2.479   2.876  2.2766 -0.3218  0.7731
 4371SOL    HW224747   2.553   2.517   3.021 -0.4489 -1.3275  1.9105
 4372SOL     OW24748   3.705   1.633   7.764 -0.0632  0.8960  0.2436
 4372SOL    HW124749   3.795   1.611   7.740 -0.2247  1.1226 -0.5392
 4372SOL    HW224750   3.724   1.686   7.842  2.0205  0.6900 -0.1110
 4373SOL     OW24751   2.462   1.742   6.360 -0.4743 -0.0254 -0.0126
 4373SOL    HW124752   2.511   1.821   6.384  0.6885 -0.1608 -1.9841
 4373SOL    HW224753   2.487   1.729   6.269  0.4290 -3.3037  0.7103
 4374SOL     OW24754   2.848   1.169   6.706 -0.0728  0.0387  0.0667
 4374SOL    HW124755   2.865   1.261   6.682  1.4284 -0.7620 -2.0130
 4374SOL    HW224756   2.830   1.184   6.798  0.2146 -1.6632  0.3866
 4375SOL     OW24757   2.691   2.682   6.457 -0.0854  0.2572  0.0257
 4375SOL    HW124758   2.756   2.711   6.394 -3.4349  1.8897 -2.6782
 4375SOL    HW224759   2.739   2.614   6.505  2.7847  2.3023  0.0108
 4376SOL     OW24760   3.620   1.238   6.830 -0.1925  0.0494 -0.7900
 4376SOL    HW124761   3.618   1.286   6.913 -1.7261 -0.4792 -0.5176
 4376SOL    HW224762   3.530   1.205   6.828 -0.5482  0.8256  2.2900
 4377SOL     OW24763   4.007   3.346   7.907  0.6954  0.2948 -0.5791
 4377SOL    HW124764   4.001   3.399   7.987  0.0409 -0.0212 -0.4155
 4377SOL    HW224765   4.079   3.388   7.861  1.3224  0.7739  0.8493
 4378SOL     OW24766   3.305   3.975  16.349  0.2907 -0.3239  0.0613
 4378SOL    HW124767   3.315   4.055  16.401  1.2836  0.3783 -1.2353
 4378SOL    HW224768   3.287   4.006  16.261  0.4492  1.5983  0.7009
 4379SOL     OW24769   1.740   2.108   9.374 -0.4181  0.7128  0.2224
 4379SOL    HW124770   1.738   2.053   9.297 -0.3127  1.4271 -0.2893
 4379SOL    HW224771   1.807   2.056   9.419  0.1705  1.2020 -0.0932
 4380SOL     OW24772   2.548   3.595   8.389  0.1299  0.0011  0.5763
 4380SOL    HW124773   2.623   3.538   8.378 -2.0287 -2.7672  0.2668
 4380SOL    HW224774   2.597   3.672   8.419  1.7372 -0.0558 -1.8996
 4381SOL     OW24775   2.783   3.348   2.588 -0.0484 -0.2777  0.4667
 4381SOL    HW124776   2.813   3.274   2.641  2.2827 -0.2465 -0.7707
 4381SOL    HW224777   2.692   3.327   2.566 -0.0124  0.3902 -0.3522
 4382SOL     OW24778   3.673   0.803   6.554  0.2408 -0.3213  0.5912
 4382SOL    HW124779   3.607   0.861   6.515  0.7748 -0.3021 -0.2783
 4382SOL    HW224780   3.640   0.725   6.510 -0.3776  1.3469 -1.9484
 4383SOL     OW24781   3.564   1.384   7.438 -0.1307 -0.0583 -0.1761
 4383SOL    HW124782   3.627   1.454   7.421 -0.3764 -0.3866 -2.4406
 4383SOL    HW224783   3.582   1.367   7.530 -0.9636  0.5273  0.0895
 4384SOL     OW24784   1.308   0.233  16.216  0.0150  0.1385  0.1883
 4384SOL    HW124785   1.326   0.208  16.307 -4.7796 -0.3254  1.0235
 4384SOL    HW224786   1.393   0.218  16.175  0.0008  2.1760 -0.6155
 4385SOL     OW24787   4.395   2.697   2.105  0.5876  0.0249  0.7058
 4385SOL    HW124788   4.374   2.710   2.197 -1.9366 -2.9492  0.5942
 4385SOL    HW224789   4.320   2.648   2.070  0.0900 -1.3352  3.6453
 4386SOL     OW24790   2.732   2.007   3.818 -0.7014 -0.0935  0.6657
 4386SOL    HW124791   2.739   1.920   3.778  0.8170  0.6353 -0.6856
 4386SOL    HW224792   2.822   2.019   3.848 -1.4204  0.1067  2.7306
 4387SOL     OW24793   3.796   2.297   8.523 -0.0275 -0.3389  0.5341
 4387SOL    HW124794   3.858   2.354   8.478  0.5670  0.5044  2.4222
 4387SOL    HW224795   3.746   2.258   8.451  0.4751  2.3937 -1.2592
 4388SOL     OW24796   1.318   3.084   4.682  0.2255 -0.0032 -0.2273
 4388SOL    HW124797   1.272   3.003   4.704 -0.4685  0.7356  1.0979
 4388SOL    HW224798   1.353   3.119   4.764 -0.8356 -0.4967  0.4345
 4389SOL     OW24799   1.727   0.852   6.263  0.4127  0.3143 -0.1169
 4389SOL    HW124800   1.748   0.864   6.356 -0.4705  1.7918 -0.1108
 4389SOL    HW224801   1.670   0.775   6.266 -2.6304  2.6858  2.6595
 4390SOL     OW24802   2.518   4.083   9.431  0.0434  0.5536  0.2723
 4390SOL    HW124803   2.537   4.038   9.349 -2.3378 -1.2554  0.7037
 4390SOL    HW224804   2.469   4.011   9.471 -0.1860  1.3478  1.4352
 4391SOL     OW24805   0.565   1.357  15.305 -0.2845  0.5320  0.0910
 4391SOL    HW124806   0.570   1.448  15.335 -0.2796  0.1459  1.2816
 4391SOL    HW224807   0.495   1.377  15.243  1.6291  2.3827 -1.4441
 4392SOL     OW24808   2.644   3.066   6.116 -0.3405  0.2151  0.1563
 4392SOL    HW124809   2.583   3.037   6.184  2.6167 -2.9655  1.4801
 4392SOL    HW224810   2.709   3.118   6.164  1.2695 -0.8187 -0.8833
 4393SOL     OW24811   1.818   4.469   9.209  0.4340 -0.7057 -0.2122
 4393SOL    HW124812   1.814   4.562   9.187  2.8593 -0.1186  1.7722
 4393SOL    HW224813   1.903   4.475   9.255  0.0131 -0.2737  0.5255
 4394SOL     OW24814   0.298   4.689   7.217  0.1194 -0.1556 -0.2238
 4394SOL    HW124815   0.205   4.692   7.194  0.4003 -0.9879 -1.4814
 4394SOL    HW224816   0.313   0.018   7.284  0.3365  1.9520 -2.3796
 4395SOL     OW24817   0.739   1.724   8.658 -0.6214  0.1809  0.2378
 4395SOL    HW124818   0.715   1.741   8.749  1.5279 -0.0222  0.8447
 4395SOL    HW224819   0.686   1.645   8.652  1.5096 -1.2090 -0.1616
 4396SOL     OW24820   4.610   3.436   5.770  0.0891  0.1199  0.2051
 4396SOL    HW124821   4.635   3.394   5.688  0.2112  1.1970 -0.2978
 4396SOL    HW224822   4.676   3.398   5.828  0.3780 -1.6453 -1.2636
 4397SOL     OW24823   2.592   1.926  16.334 -0.0550 -0.2985  0.1569
 4397SOL    HW124824   2.650   1.875  16.390  3.1722  3.8932  0.6138
 4397SOL    HW224825   2.652   1.961  16.268 -1.1781  2.2158  0.4925
 4398SOL     OW24826   0.133   0.101   5.590  0.0882 -0.2647  0.4001
 4398SOL    HW124827   0.169   0.187   5.566 -0.3178  0.7238  3.2863
 4398SOL    HW224828   0.180   0.040   5.534  2.5435  1.8307  0.1689
 4399SOL     OW24829   2.414   1.073   7.737  0.0126 -0.7234 -0.2002
 4399SOL    HW124830   2.352   1.042   7.671 -2.2341  1.9398  0.6887
 4399SOL    HW224831   2.427   1.162   7.706  0.8738 -1.1420 -1.0344
 4400SOL     OW24832   2.246   4.379   2.353  0.3640  0.3971 -0.2704
 4400SOL    HW124833   2.261   4.437   2.428  2.6234 -1.1540  0.4652
 4400SOL    HW224834   2.151   4.385   2.340  0.1859 -0.5515  0.5316
 4401SOL     OW24835   0.755   1.914   7.033 -0.6015 -0.5094 -0.7362
 4401SOL    HW124836   0.833   1.880   6.990 -0.3171 -1.4436  0.4870
 4401SOL    HW224837   0.772   1.884   7.123 -1.9991  0.6464 -0.0991
 4402SOL     OW24838   1.390   0.034   7.572 -0.4326 -0.5277  0.3038
 4402SOL    HW124839   1.385   0.100   7.642 -1.2360 -0.1398 -0.1208
 4402SOL    HW224840   1.308   0.061   7.532  0.0973 -1.0427 -1.1113
 4403SOL     OW24841   2.796   0.302   7.581  0.0196 -0.1369  0.2417
 4403SOL    HW124842   2.774   0.215   7.614 -1.0749 -0.4475 -1.3184
 4403SOL    HW224843   2.836   0.284   7.496 -0.6518  1.7967 -0.4750
 4404SOL     OW24844   4.263   2.899  11.621  0.4384 -0.1947  0.2500
 4404SOL    HW124845   4.275   2.932  11.710 -0.5331  1.3837 -0.2151
 4404SOL    HW224846   4.210   2.969  11.583  0.4294 -0.6655 -0.5998
 4405SOL     OW24847   1.550   0.605   2.964  0.3808 -0.1057  0.1993
 4405SOL    HW124848   1.507   0.687   2.991  0.3209 -0.1791  0.3264
 4405SOL    HW224849   1.478   0.543   2.951 -2.7804  3.2941  1.4807
 4406SOL     OW24850   1.270   1.521   2.058 -0.1138 -0.4084 -0.2470
 4406SOL    HW124851   1.267   1.456   2.128 -1.7909  0.7388  0.7467
 4406SOL    HW224852   1.333   1.588   2.082 -0.0415 -0.5567 -0.0235
 4407SOL     OW24853   0.364   1.768   6.417 -0.5031  0.0299  0.2012
 4407SOL    HW124854   0.429   1.825   6.458  0.2597  0.2344 -1.2941
 4407SOL    HW224855   0.344   1.813   6.335  1.9046  0.5609 -0.1032
 4408SOL     OW24856   1.129   0.288   9.316  0.6147 -0.3932  0.0555
 4408SOL    HW124857   1.081   0.305   9.235 -1.6215 -2.4959  0.9391
 4408SOL    HW224858   1.149   0.196   9.297  0.3309 -0.0913 -1.7029
 4409SOL     OW24859   4.564   0.161   5.920 -0.4121  0.3686 -0.6727
 4409SOL    HW124860   4.572   0.125   5.832  0.6063 -1.7282  0.2795
 4409SOL    HW224861   4.657   0.157   5.944 -0.9496  2.0768  1.7088
 4410SOL     OW24862   4.296   3.646  12.181  0.3052 -0.4881 -0.1875
 4410SOL    HW124863   4.367   3.706  12.157  0.1753  0.0877  0.8574
 4410SOL    HW224864   4.339   3.563  12.202 -0.8739 -0.2699  3.1144
 4411SOL     OW24865   2.556   1.653   8.593  0.6344  0.1141 -0.0856
 4411SOL    HW124866   2.593   1.596   8.526 -0.5769 -0.9934  0.1751
 4411SOL    HW224867   2.466   1.622   8.609 -0.1114  3.1014  1.5549
 4412SOL     OW24868   1.650   1.258   9.696 -0.1267 -0.0234 -0.3361
 4412SOL    HW124869   1.643   1.354   9.695  1.5670  0.1446  2.7016
 4412SOL    HW224870   1.743   1.241   9.682 -0.2139 -0.6311 -0.1831
 4413SOL     OW24871   3.553   3.754  16.348 -0.0248 -0.2488  0.0734
 4413SOL    HW124872   3.553   3.842  16.386 -1.3017 -0.0497 -0.4102
 4413SOL    HW224873   3.543   3.779  16.256 -1.3648  1.1774  0.6270
 4414SOL     OW24874   2.263   1.470  10.056  0.1557 -0.1695 -0.2736
 4414SOL    HW124875   2.342   1.429  10.019 -0.2650 -0.0867 -1.2613
 4414SOL    HW224876   2.301   1.507  10.136  1.8846 -0.9159 -0.7319
 4415SOL     OW24877   4.610   0.356   2.207 -0.9502  0.1740  0.3709
 4415SOL    HW124878   4.571   0.361   2.294 -0.3434 -0.7380  0.6962
 4415SOL    HW224879   4.615   0.446   2.175  0.3077 -0.1847 -0.4486
 4416SOL     OW24880   4.016   1.889   7.178 -0.2027 -0.3312  0.3809
 4416SOL    HW124881   4.095   1.836   7.164  1.2112  2.0456 -0.5803
 4416SOL    HW224882   4.060   1.974   7.183 -0.2114 -0.4938  2.9798
 4417SOL     OW24883   4.417   1.295   1.287  0.1764 -0.0349  0.6296
 4417SOL    HW124884   4.356   1.295   1.361 -0.8342 -0.3272 -0.1991
 4417SOL    HW224885   4.459   1.377   1.309 -0.0939  0.4428 -0.6441
 4418SOL     OW24886   4.681   4.280   8.720  0.1590  0.4310  0.8126
 4418SOL    HW124887   4.637   4.361   8.695 -0.2201 -0.1428 -0.3332
 4418SOL    HW224888   0.033   4.316   8.728  0.4086 -0.2159  0.9140
 4419SOL     OW24889   1.978   2.602  12.561  0.7490  0.0127  0.0729
 4419SOL    HW124890   1.910   2.539  12.586 -1.2254  3.0510  2.3022
 4419SOL    HW224891   2.043   2.587  12.629 -0.0289 -1.8211  0.4287
 4420SOL     OW24892   3.988   3.311   4.206  0.1044 -0.1042 -0.3671
 4420SOL    HW124893   4.045   3.322   4.282 -1.1079 -2.6210  0.9274
 4420SOL    HW224894   4.016   3.391   4.161  0.8865 -0.4023 -0.4248
 4421SOL     OW24895   1.942   1.586   4.975 -0.3076 -0.5117 -0.3220
 4421SOL    HW124896   1.888   1.624   4.906  0.2562  0.1392 -0.4018
 4421SOL    HW224897   2.013   1.549   4.922 -1.0101 -3.2421  0.6406
 4422SOL     OW24898   2.125   2.021  15.228  0.0243 -0.3624 -0.1487
 4422SOL    HW124899   2.045   2.073  15.224 -0.4900 -1.2710 -1.3785
 4422SOL    HW224900   2.101   1.959  15.297 -0.3009 -0.9021 -0.7459
 4423SOL     OW24901   4.500   2.114   7.632 -0.2857  0.0866  0.3553
 4423SOL    HW124902   4.439   2.188   7.630  0.0284  0.2873 -1.2053
 4423SOL    HW224903   4.514   2.103   7.726 -3.1986 -0.5018  0.7409
 4424SOL     OW24904   3.659   1.622   4.497 -0.1992  0.2293  0.2474
 4424SOL    HW124905   3.727   1.679   4.532 -0.7481  0.4813  0.9189
 4424SOL    HW224906   3.643   1.559   4.567 -2.9767  0.2745 -0.3092
 4425SOL     OW24907   1.165   1.284  11.822 -0.7044 -0.2283 -0.1581
 4425SOL    HW124908   1.185   1.202  11.776  1.3101  0.0268  0.2321
 4425SOL    HW224909   1.250   1.304  11.862 -1.3534  1.1468  0.5316
 4426SOL     OW24910   0.419   3.014   3.522 -0.3762 -0.5250  0.2210
 4426SOL    HW124911   0.509   3.039   3.541 -0.4613 -0.2313  0.2379
 4426SOL    HW224912   0.378   3.041   3.605 -0.9028  2.7908 -1.1170
 4427SOL     OW24913   3.241   4.056   2.317  0.4250  0.5140  0.4089
 4427SOL    HW124914   3.246   3.968   2.278 -1.9425  0.4297  0.3083
 4427SOL    HW224915   3.201   4.026   2.399  1.5145 -0.8316  0.4584
 4428SOL     OW24916   0.531   0.470   7.881  0.4209 -0.5074 -0.2725
 4428SOL    HW124917   0.536   0.536   7.812  1.9115 -1.1944 -0.8274
 4428SOL    HW224918   0.527   0.526   7.959 -1.1329 -1.8465  0.6055
 4429SOL     OW24919   1.937   0.964   7.356 -0.0119  0.1484 -0.3770
 4429SOL    HW124920   1.990   1.014   7.294  2.3900 -0.1495  1.4285
 4429SOL    HW224921   1.883   0.906   7.303  2.2344 -0.7026 -1.7285
 4430SOL     OW24922   3.573   0.296   7.107  0.4934  0.1769  0.1810
 4430SOL    HW124923   3.594   0.375   7.058  0.5627  0.1018  0.0907
 4430SOL    HW224924   3.525   0.334   7.181  0.8845  2.1177 -0.5693
 4431SOL     OW24925   3.948   0.873  16.672 -0.6415  0.1913  0.1054
 4431SOL    HW124926   3.903   0.948  16.712 -1.2696 -0.6806  1.0173
 4431SOL    HW224927   3.887   0.849  16.602 -1.7033  0.7394  0.8339
 4432SOL     OW24928   2.652   2.608   5.830  0.5190 -0.7448 -0.5066
 4432SOL    HW124929   2.669   2.612   5.924 -1.3431 -0.8058 -0.1691
 4432SOL    HW224930   2.598   2.529   5.831  1.0415 -1.0942  0.5823
 4433SOL     OW24931   1.663   0.595   1.595  0.3204 -0.0888 -0.5367
 4433SOL    HW124932   1.729   0.658   1.622 -0.6685  1.1734 -1.1021
 4433SOL    HW224933   1.680   0.579   1.502  0.1188  0.2619 -0.6319
 4434SOL     OW24934   3.090   0.767   4.611 -0.2693  0.3750  0.0622
 4434SOL    HW124935   3.119   0.686   4.570  0.9244  0.6220  0.3988
 4434SOL    HW224936   3.168   0.781   4.666 -0.9444 -4.4266  2.2230
 4435SOL     OW24937   2.052   4.255   3.858  0.6582  0.1241  0.2110
 4435SOL    HW124938   1.985   4.229   3.921 -0.7122 -0.7853 -1.6084
 4435SOL    HW224939   2.099   4.323   3.907  0.2049  0.8961 -0.4076
 4436SOL     OW24940   2.044   4.720   3.971  0.3330  0.0527  0.3118
 4436SOL    HW124941   2.023   4.648   4.030  0.8938 -0.2148  0.1834
 4436SOL    HW224942   2.137   4.712   3.992  0.1272  0.2066  1.2872
 4437SOL     OW24943   0.382   3.594   1.865  0.5749 -0.3538  0.0401
 4437SOL    HW124944   0.293   3.598   1.831 -0.3772 -0.8469  2.5212
 4437SOL    HW224945   0.401   3.502   1.880  0.5247 -0.6957 -1.9711
 4438SOL     OW24946   1.522   1.242   1.391 -0.7052 -0.1459  0.1671
 4438SOL    HW124947   1.467   1.181   1.439 -1.6730  0.4184 -0.2294
 4438SOL    HW224948   1.577   1.180   1.343  1.7141  0.6702  1.9040
 4439SOL     OW24949   0.832   1.074   6.472  0.2584 -0.0179  0.4268
 4439SOL    HW124950   0.779   1.128   6.530 -0.5784 -1.5891  1.1476
 4439SOL    HW224951   0.787   1.081   6.388  0.2508  0.3732  0.4677
 4440SOL     OW24952   0.652   4.709   8.960  0.4843 -0.2091 -0.0605
 4440SOL    HW124953   0.575   0.018   8.928  1.0629  0.7248 -0.0891
 4440SOL    HW224954   0.710   0.040   8.994  0.5067  0.4753 -1.4681
 4441SOL     OW24955   1.169   2.792   6.318  0.1815  0.6263 -0.5612
 4441SOL    HW124956   1.168   2.882   6.286 -0.2887  0.7026 -0.3265
 4441SOL    HW224957   1.085   2.763   6.281  0.6443 -2.6080  0.9307
 4442SOL     OW24958   2.713   0.025   7.155 -0.5194 -0.3506 -0.5486
 4442SOL    HW124959   2.753   0.070   7.229  1.9194 -0.4349 -1.8080
 4442SOL    HW224960   2.656   0.094   7.119 -1.8945 -0.2845  1.7315
 4443SOL     OW24961   4.377   1.856   4.679  1.0409 -0.4055  0.0538
 4443SOL    HW124962   4.331   1.935   4.650  1.0391 -0.1389  0.7765
 4443SOL    HW224963   4.382   1.818   4.591 -2.2115 -1.9527  0.5834
 4444SOL     OW24964   1.091   2.750   3.232  0.1398  0.1483  0.2725
 4444SOL    HW124965   1.144   2.769   3.154  1.7912  1.7874  1.8197
 4444SOL    HW224966   1.162   2.727   3.292  0.4585 -1.8889 -0.8605
 4445SOL     OW24967   2.435   4.592   9.956  0.1145 -0.2670 -0.2733
 4445SOL    HW124968   2.508   4.544   9.996  0.0026  0.5748  0.9260
 4445SOL    HW224969   2.455   4.559   9.868 -1.4470  0.8954 -1.0575
 4446SOL     OW24970   2.539   0.075   6.192 -0.2804  0.0501 -0.0843
 4446SOL    HW124971   2.552   0.126   6.271  0.7454  0.2718 -0.3891
 4446SOL    HW224972   2.465   0.018   6.213  0.2838  0.1251  2.0924
 4447SOL     OW24973   3.371   3.769   6.139  0.1148  0.1778 -0.3911
 4447SOL    HW124974   3.453   3.758   6.091  1.0037 -1.7283  1.5970
 4447SOL    HW224975   3.307   3.790   6.071  0.4579  0.7495 -0.5486
 4448SOL     OW24976   1.807   1.069  11.825 -0.1667  0.2282 -0.2144
 4448SOL    HW124977   1.899   1.044  11.835  0.3210  2.2091  0.2781
 4448SOL    HW224978   1.811   1.160  11.797 -1.4072 -0.3522 -2.2206
 4449SOL     OW24979   2.578   3.235   0.505 -0.1460 -0.1439 -0.2030
 4449SOL    HW124980   2.522   3.217   0.430  0.2594 -1.3429 -0.2256
 4449SOL    HW224981   2.549   3.177   0.575  1.0731  1.9598  2.0642
 4450SOL     OW24982   4.607   4.501   2.802  0.1739  0.1383 -0.1367
 4450SOL    HW124983   4.565   4.490   2.717  1.4987  1.0374 -0.9077
 4450SOL    HW224984   4.684   4.449   2.779  0.1193 -1.7905  4.0159
 4451SOL     OW24985   2.766   0.019   9.648  0.2941  0.5725  0.6823
 4451SOL    HW124986   2.711   0.063   9.712 -1.9913 -1.4675  0.1013
 4451SOL    HW224987   2.742   4.668   9.673  1.1069  0.1245 -0.0937
 4452SOL     OW24988   2.151   2.373   6.904  0.3709 -0.0983 -0.5705
 4452SOL    HW124989   2.111   2.379   6.991  1.6643 -2.2877  0.1729
 4452SOL    HW224990   2.241   2.354   6.929  0.1462 -0.6379 -0.1882
 4453SOL     OW24991   1.035   2.817   5.203 -0.1094  0.1028  0.0329
 4453SOL    HW124992   1.101   2.781   5.144 -0.3176 -1.3121  0.6516
 4453SOL    HW224993   1.014   2.903   5.169 -0.8412 -0.6978 -1.5531
 4454SOL     OW24994   0.197   4.479   6.875 -0.1919  0.1556  0.3221
 4454SOL    HW124995   0.212   4.391   6.910  1.6032 -0.6647 -2.4509
 4454SOL    HW224996   0.256   4.478   6.800 -1.9521 -2.1572 -1.0655
 4455SOL     OW24997   2.598   1.817  14.725 -0.0211 -0.2753 -0.5980
 4455SOL    HW124998   2.550   1.851  14.649 -2.2179 -0.8761  0.5196
 4455SOL    HW224999   2.526   1.818  14.788  0.1073 -0.6106 -0.4496
 4456SOL     OW25000   3.276   3.896  17.142 -0.0217 -0.1715  0.5952
 4456SOL    HW125001   3.372   3.894  17.134  0.0902 -0.9773  2.1014
 4456SOL    HW225002   3.262   3.977  17.191  0.8244 -1.5148  3.0643
 4457SOL     OW25003   4.196   4.508   1.479  0.6024 -0.0401 -0.2758
 4457SOL    HW125004   4.141   4.573   1.522 -0.2994  0.4260 -2.1445
 4457SOL    HW225005   4.150   4.478   1.401  0.2153 -0.0113 -0.0620
 4458SOL     OW25006   4.302   1.901   8.222  0.6604  0.1928 -0.2519
 4458SOL    HW125007   4.353   1.821   8.206  2.4613  1.4083 -0.6034
 4458SOL    HW225008   4.324   1.911   8.315 -1.7664  0.1004  0.3351
 4459SOL     OW25009   1.047   0.386  12.672 -0.1675  0.5308  0.6297
 4459SOL    HW125010   0.960   0.370  12.709  0.0301  1.6746  1.5564
 4459SOL    HW225011   1.103   0.374  12.749  2.1137  3.6609 -0.5550
 4460SOL     OW25012   3.079   2.337  17.418  0.2690  0.4128 -0.2827
 4460SOL    HW125013   3.170   2.364  17.408 -0.3329  3.0913  1.3545
 4460SOL    HW225014   3.089   2.263  17.478 -0.0319  0.1627 -0.5428
 4461SOL     OW25015   0.377   1.456   6.916 -0.3882  0.1132  0.7081
 4461SOL    HW125016   0.461   1.418   6.892 -1.2259 -0.7393 -0.8702
 4461SOL    HW225017   0.383   1.535   6.862  1.8909 -0.1420  0.5672
 4462SOL     OW25018   0.062   3.356   5.205 -0.1745 -0.2739 -0.7224
 4462SOL    HW125019   4.729   3.392   5.152  0.7459  0.2701 -1.5726
 4462SOL    HW225020   0.067   3.405   5.287 -2.7359 -1.9555  0.4479
 4463SOL     OW25021   1.077   4.079   1.323 -0.5902 -0.2771  0.0906
 4463SOL    HW125022   1.035   4.085   1.237 -2.0969  1.7406  0.9620
 4463SOL    HW225023   1.088   4.172   1.346 -1.4302  0.1052 -1.0888
 4464SOL     OW25024   2.580   0.287   1.168 -0.3550 -0.0655 -0.1897
 4464SOL    HW125025   2.649   0.224   1.149  0.5487 -0.1448  3.3536
 4464SOL    HW225026   2.532   0.283   1.084  0.4290  1.3982 -0.6972
 4465SOL     OW25027   1.305   3.805  15.887  0.0136 -0.0325  0.2081
 4465SOL    HW125028   1.379   3.810  15.948  0.5061  2.0938 -0.5455
 4465SOL    HW225029   1.229   3.822  15.942  1.7108  1.1826  2.1629
 4466SOL     OW25030   2.233   2.757  14.964  0.1182 -0.3003 -0.5555
 4466SOL    HW125031   2.152   2.761  15.015 -1.5286  1.7161 -3.3324
 4466SOL    HW225032   2.279   2.704  15.029 -3.5671  1.6330  3.7167
 4467SOL     OW25033   4.641   1.393   5.150  0.3690  0.2750  0.2248
 4467SOL    HW125034   4.568   1.439   5.192  1.0452  0.4653  1.1985
 4467SOL    HW225035   4.615   1.383   5.059  0.8436  1.8063 -0.0876
 4468SOL     OW25036   2.429   3.418   5.614 -0.5056 -0.4653 -0.2697
 4468SOL    HW125037   2.418   3.511   5.637 -0.1238 -0.8160  1.3330
 4468SOL    HW225038   2.367   3.423   5.541 -0.7964 -0.4311 -0.0228
 4469SOL     OW25039   1.330   1.401  16.953  0.6653 -0.4928 -0.5550
 4469SOL    HW125040   1.293   1.320  16.919  2.0213 -0.2821 -2.5390
 4469SOL    HW225041   1.352   1.447  16.872 -1.1474  1.6467  0.1962
 4470SOL     OW25042   0.593   1.916  15.582 -0.7918 -0.1973  0.1819
 4470SOL    HW125043   0.572   1.911  15.675  0.2877  2.1799  0.5643
 4470SOL    HW225044   0.613   1.823  15.572 -1.3781 -0.5019  2.0314
 4471SOL     OW25045   1.360   0.099   5.985 -0.5482  0.1733 -0.1103
 4471SOL    HW125046   1.285   0.140   5.944  0.4477  0.8918 -1.2187
 4471SOL    HW225047   1.332   0.083   6.075  1.6361 -0.3915  0.4822
 4472SOL     OW25048   3.061   1.749   0.110  0.5342 -0.3596  0.2062
 4472SOL    HW125049   3.001   1.773   0.180  0.0010  0.2629 -0.4573
 4472SOL    HW225050   3.086   1.660   0.134  0.4721 -0.8161 -1.4306
 4473SOL     OW25051   0.461   1.384   5.890 -0.2905 -0.1088  0.6077
 4473SOL    HW125052   0.536   1.330   5.915  0.5127  0.4267 -0.6082
 4473SOL    HW225053   0.402   1.371   5.964 -0.0196 -0.6334  0.7320
 4474SOL     OW25054   0.366   0.902   6.987  0.4343  0.3764 -0.7473
 4474SOL    HW125055   0.320   0.940   7.062 -0.5696 -0.3412 -0.9999
 4474SOL    HW225056   0.330   0.950   6.912 -0.5223  0.2769 -0.3500
 4475SOL     OW25057   2.954   1.065   2.715  0.2763 -0.1611 -0.2648
 4475SOL    HW125058   3.039   1.078   2.757 -1.1660  0.7156  2.4227
 4475SOL    HW225059   2.960   1.110   2.631  0.3669 -0.4034 -0.3891
 4476SOL     OW25060   0.952   3.991   9.825  0.0410 -0.1424  0.5796
 4476SOL    HW125061   0.977   4.079   9.853 -1.2076  0.4300 -0.1464
 4476SOL    HW225062   0.985   3.933   9.894 -0.0443 -1.1933 -0.2627
 4477SOL     OW25063   1.372   3.854   4.441 -0.2536  0.1895 -0.2305
 4477SOL    HW125064   1.413   3.781   4.488  0.4352  0.8295  0.1545
 4477SOL    HW225065   1.406   3.935   4.477  0.8857 -1.1018  1.6276
 4478SOL     OW25066   1.515   4.394   5.752  0.3866 -0.0605 -0.4684
 4478SOL    HW125067   1.530   4.488   5.736 -3.2350  0.1694 -2.5124
 4478SOL    HW225068   1.584   4.353   5.700  0.6494  0.5537 -0.6083
 4479SOL     OW25069   4.693   4.468   4.345  0.2203  0.3183  0.3697
 4479SOL    HW125070   4.732   4.555   4.349  0.3787  0.3137 -1.2370
 4479SOL    HW225071   4.599   4.487   4.345 -0.1027 -1.3402 -0.1035
 4480SOL     OW25072   2.808   3.848   3.490 -0.1055  0.3196  0.3616
 4480SOL    HW125073   2.875   3.785   3.516 -0.9012 -0.5393  0.3326
 4480SOL    HW225074   2.836   3.929   3.533 -2.3495  0.6606  1.1677
 4481SOL     OW25075   2.398   1.167   8.330  0.0267 -0.6076 -0.6226
 4481SOL    HW125076   2.365   1.166   8.240 -0.7791  0.3798 -0.3358
 4481SOL    HW225077   2.493   1.176   8.327  0.1824 -1.6662  1.1663
 4482SOL     OW25078   0.919   1.261   1.950 -0.5498 -1.1849  0.6878
 4482SOL    HW125079   0.990   1.208   1.986  0.7814 -0.6869 -1.1840
 4482SOL    HW225080   0.905   1.327   2.018  1.2115 -1.5794  1.4313
 4483SOL     OW25081   4.485   3.829   9.828 -0.4489 -0.1899  0.2850
 4483SOL    HW125082   4.570   3.853   9.792 -0.6787  0.0317 -0.1079
 4483SOL    HW225083   4.463   3.775   9.752  1.4016 -0.3046 -0.1834
 4484SOL     OW25084   3.166   4.024   3.120  0.2336  0.1882 -0.0062
 4484SOL    HW125085   3.197   4.083   3.051  1.5752 -2.0061 -1.2676
 4484SOL    HW225086   3.197   4.078   3.193 -1.6577  2.8742 -1.1771
 4485SOL     OW25087   4.344   0.673   0.393 -0.4234 -0.4809  0.2231
 4485SOL    HW125088   4.345   0.676   0.297  1.2932 -0.4950  0.2296
 4485SOL    HW225089   4.434   0.655   0.419 -0.0739 -0.1928 -0.7772
 4486SOL     OW25090   1.974   0.817  14.295 -0.1835 -0.0674 -0.1814
 4486SOL    HW125091   1.957   0.755  14.367  2.0497 -1.1915 -0.6332
 4486SOL    HW225092   2.050   0.867  14.323 -0.3952  1.6829 -2.8460
 4487SOL     OW25093   0.882   4.681   9.265 -0.0746 -0.3820  0.3943
 4487SOL    HW125094   0.974   4.678   9.238  0.4458 -1.2753  2.2063
 4487SOL    HW225095   0.843   0.016   9.218 -0.9499 -1.5786 -0.7170
 4488SOL     OW25096   0.446   1.838   2.135 -0.2432  0.1050 -0.4620
 4488SOL    HW125097   0.462   1.745   2.147 -2.3888 -0.0443  1.3036
 4488SOL    HW225098   0.458   1.844   2.040 -2.3670  1.0652 -0.6831
 4489SOL     OW25099   0.521   1.382  14.287  0.1461  1.0247 -0.3713
 4489SOL    HW125100   0.428   1.393  14.267  0.0949  0.2708 -0.5790
 4489SOL    HW225101   0.550   1.386  14.196 -0.3466 -1.2695 -0.6462
 4490SOL     OW25102   0.317   1.490   4.749  0.3765  0.3927  0.0122
 4490SOL    HW125103   0.258   1.460   4.818 -1.2439  2.2275 -0.5735
 4490SOL    HW225104   0.380   1.540   4.801 -0.5846  1.5376  0.0563
 4491SOL     OW25105   2.520   2.998   9.628  0.6897 -0.2516  0.0589
 4491SOL    HW125106   2.492   3.070   9.684 -0.0159 -0.9564  0.6140
 4491SOL    HW225107   2.583   3.050   9.579  0.5338  1.4158  1.6379
 4492SOL     OW25108   4.273   3.427   8.192  0.3786  0.1771 -0.1348
 4492SOL    HW125109   4.245   3.362   8.256  2.4907 -1.1679 -0.5743
 4492SOL    HW225110   4.184   3.437   8.158 -0.0637  1.9624  1.5380
 4493SOL     OW25111   4.687   4.572  14.043 -0.5271 -0.4347 -0.5649
 4493SOL    HW125112   4.678   4.659  14.003 -0.9584 -1.1482 -2.0543
 4493SOL    HW225113   0.010   4.526  13.985  1.7344  1.6169  0.2087
 4494SOL     OW25114   1.344   2.393   5.946 -0.6876  0.2707 -0.1492
 4494SOL    HW125115   1.403   2.460   5.910  0.6231 -0.3969  0.7588
 4494SOL    HW225116   1.405   2.339   5.995 -0.8468  1.8751  1.8283
 4495SOL     OW25117   1.726   0.591   5.981  0.0147  0.2657 -0.2657
 4495SOL    HW125118   1.705   0.562   5.892 -2.2420  0.1199  0.3159
 4495SOL    HW225119   1.643   0.583   6.027  0.3325  0.2378  0.3009
 4496SOL     OW25120   4.449   3.801  16.944 -0.2366 -0.4355  0.0265
 4496SOL    HW125121   4.530   3.798  16.994 -0.5302 -2.0758  0.4129
 4496SOL    HW225122   4.399   3.775  17.021  1.1690  0.7539  1.3435
 4497SOL     OW25123   2.870   4.659  17.199 -0.1362  0.5466  1.0599
 4497SOL    HW125124   2.789   4.696  17.165 -0.1583  0.4442  1.0026
 4497SOL    HW225125   2.878   4.688  17.290  0.0653  3.3621  0.1291
 4498SOL     OW25126   3.184   4.273   2.526  0.3239 -0.6664 -0.7176
 4498SOL    HW125127   3.179   4.269   2.621  1.9741  0.2731 -0.5781
 4498SOL    HW225128   3.279   4.286   2.520  0.1860  0.8217  0.2840
 4499SOL     OW25129   1.040   0.316   2.446 -0.4816 -0.2405 -0.4429
 4499SOL    HW125130   1.016   0.400   2.405  0.2496  0.3867  0.4274
 4499SOL    HW225131   0.973   0.326   2.513 -1.6128 -1.5844 -1.3834
 4500SOL     OW25132   1.451   2.228   4.570  1.0995 -0.2464 -0.3022
 4500SOL    HW125133   1.423   2.145   4.530  1.5074  0.1797 -1.4834
 4500SOL    HW225134   1.464   2.278   4.490  3.3881  0.6135  0.5968
 4501SOL     OW25135   2.544   2.800   2.172 -0.1921 -0.1497 -0.6956
 4501SOL    HW125136   2.631   2.793   2.211  0.2296 -0.0271 -1.6092
 4501SOL    HW225137   2.485   2.769   2.241  2.2074 -0.7807  1.0868
 4502SOL     OW25138   4.289   0.729   9.090  0.3841  0.0095 -0.4495
 4502SOL    HW125139   4.280   0.741   8.995  0.8742 -2.2746 -0.7720
 4502SOL    HW225140   4.385   0.727   9.093  0.4383  1.2515 -1.2412
 4503SOL     OW25141   2.360   2.358   5.460 -0.4564 -0.5144 -0.0127
 4503SOL    HW125142   2.360   2.452   5.476  0.7406 -0.5032 -0.0779
 4503SOL    HW225143   2.264   2.351   5.461 -0.5368  0.6314  0.6920
 4504SOL     OW25144   1.584   3.521   3.104 -0.3574 -0.4537 -1.1895
 4504SOL    HW125145   1.593   3.463   3.180 -0.0653  3.3312  1.6583
 4504SOL    HW225146   1.511   3.475   3.062 -1.6405  0.3965  0.1018
 4505SOL     OW25147   0.702   3.879   1.683 -0.2668  0.0590  0.2474
 4505SOL    HW125148   0.716   3.932   1.761 -1.8727  1.1880 -0.2365
 4505SOL    HW225149   0.607   3.882   1.674 -0.0839  1.2109 -1.2448
 4506SOL     OW25150   0.453   1.941   3.780 -1.0009 -0.3138 -0.8112
 4506SOL    HW125151   0.519   1.896   3.832 -0.6354  0.3699 -0.6788
 4506SOL    HW225152   0.383   1.920   3.842  0.3284 -1.0642  0.4503
 4507SOL     OW25153   4.251   3.551   6.345  0.1936  0.0964  0.0339
 4507SOL    HW125154   4.221   3.638   6.320  1.2813  0.7436  0.9573
 4507SOL    HW225155   4.270   3.518   6.257  1.2218  3.0360 -0.8541
 4508SOL     OW25156   3.063   0.696  13.316  0.2043  0.5183  0.5693
 4508SOL    HW125157   3.158   0.710  13.315  0.5491 -1.7257  0.5016
 4508SOL    HW225158   3.064   0.600  13.314 -3.1310  0.5293 -0.8975
 4509SOL     OW25159   1.375   2.332   5.023  0.0150  0.3567 -0.6057
 4509SOL    HW125160   1.362   2.264   5.089 -0.3744  0.7271 -0.3075
 4509SOL    HW225161   1.460   2.307   4.986 -0.6680 -0.4216 -1.6892
 4510SOL     OW25162   3.571   3.388  12.441 -0.0936  0.3641 -0.0584
 4510SOL    HW125163   3.592   3.303  12.480 -0.5889  0.7341  1.0349
 4510SOL    HW225164   3.605   3.385  12.352 -0.8556  0.3183 -0.3486
 4511SOL     OW25165   3.612   0.234   0.817  0.4809  0.7483 -0.2419
 4511SOL    HW125166   3.573   0.153   0.782  0.3770  2.4670 -4.1368
 4511SOL    HW225167   3.580   0.225   0.907 -1.5206 -2.4812 -1.2715
 4512SOL     OW25168   4.706   2.038   2.100 -0.8494 -0.1073  0.1076
 4512SOL    HW125169   0.057   2.023   2.134 -1.5341 -0.5306  1.6774
 4512SOL    HW225170   4.725   2.084   2.018  1.6176  1.1961  1.3891
 4513SOL     OW25171   0.229   4.443   7.663  0.1743  0.1118 -0.3775
 4513SOL    HW125172   0.267   4.529   7.676 -0.0421  0.0608  0.5671
 4513SOL    HW225173   0.138   4.456   7.688 -0.1659  0.0875 -1.6195
 4514SOL     OW25174   3.337   1.262   3.847 -0.4087 -0.0661  0.0988
 4514SOL    HW125175   3.399   1.194   3.823 -0.5448 -0.2603  0.3023
 4514SOL    HW225176   3.385   1.345   3.849  2.0742 -1.4800 -1.8020
 4515SOL     OW25177   1.811   0.579   9.843 -0.5354  0.2727 -0.0359
 4515SOL    HW125178   1.806   0.669   9.873 -0.8396 -0.3798  1.8838
 4515SOL    HW225179   1.758   0.594   9.765 -0.4220 -0.1623 -0.1976
 4516SOL     OW25180   3.336   0.664   3.081 -0.3711 -0.1748 -0.1591
 4516SOL    HW125181   3.394   0.734   3.108  0.4588 -1.1088  0.4857
 4516SOL    HW225182   3.250   0.705   3.082 -1.6358 -2.8169  0.6531
 4517SOL     OW25183   4.706   4.419   7.791 -0.4216 -0.9794  0.6050
 4517SOL    HW125184   4.720   4.325   7.802  0.0853 -0.6804  2.4643
 4517SOL    HW225185   4.620   4.416   7.748 -1.1013  1.9614  1.7092
 4518SOL     OW25186   1.852   3.222   9.455 -0.2433 -0.4834 -0.5750
 4518SOL    HW125187   1.928   3.191   9.504 -1.6109 -0.7401  1.3594
 4518SOL    HW225188   1.822   3.137   9.423 -2.6090  0.8115 -1.8046
 4519SOL     OW25189   4.090   1.408   2.037 -0.5667  0.1457  0.1283
 4519SOL    HW125190   3.998   1.432   2.027 -0.2858  0.6290 -1.2649
 4519SOL    HW225191   4.102   1.426   2.130 -0.8950  1.7052 -0.1369
 4520SOL     OW25192   1.758   0.238   1.588  0.2090  0.3933 -0.0450
 4520SOL    HW125193   1.782   0.244   1.495  0.4883  0.3905  0.0272
 4520SOL    HW225194   1.685   0.301   1.585  0.5675  0.7460 -1.6326
 4521SOL     OW25195   0.386   3.388  16.434  1.0657 -0.7388  0.1696
 4521SOL    HW125196   0.421   3.474  16.410  0.2766 -0.1653  1.0874
 4521SOL    HW225197   0.377   3.351  16.347  1.2314  0.8808 -0.5404
 4522SOL     OW25198   2.079   0.368  11.843 -0.1689 -0.3620 -0.2739
 4522SOL    HW125199   2.036   0.329  11.920  0.8494 -1.7103 -0.3913
 4522SOL    HW225200   2.060   0.309  11.770 -1.0852 -1.4475  0.8303
 4523SOL     OW25201   0.025   0.475   6.721  0.4862 -0.1421  0.3814
 4523SOL    HW125202   0.078   0.400   6.749 -0.5844 -0.5533  1.3039
 4523SOL    HW225203   4.681   0.447   6.679  1.2449 -1.0214 -0.4972
 4524SOL     OW25204   0.350   3.229   3.233 -0.1322  0.5571  0.2313
 4524SOL    HW125205   0.287   3.280   3.284  0.1077  1.9313 -0.8660
 4524SOL    HW225206   0.298   3.149   3.224  0.6612  0.1807 -0.8674
 4525SOL     OW25207   3.967   3.491   8.145 -0.6800 -0.5574  0.0687
 4525SOL    HW125208   3.881   3.465   8.178 -0.3921 -0.4475  0.8902
 4525SOL    HW225209   3.943   3.569   8.095 -1.9362 -0.6505  0.5160
 4526SOL     OW25210   0.096   0.137  13.062  0.4811  0.0010 -0.3262
 4526SOL    HW125211   0.123   0.048  13.040  1.6191  0.2586  0.0194
 4526SOL    HW225212   0.002   0.129  13.072  0.4422  0.4757 -0.2996
 4527SOL     OW25213   3.912   4.301   0.758  0.0473 -0.4921 -0.2403
 4527SOL    HW125214   3.893   4.208   0.769 -0.3122 -0.3284  0.4464
 4527SOL    HW225215   4.003   4.278   0.736 -0.0179  0.2987 -1.3368
 4528SOL     OW25216   1.312   2.063   4.385  0.5763 -0.2610 -0.2371
 4528SOL    HW125217   1.276   1.984   4.426  0.6872 -0.4399 -0.4904
 4528SOL    HW225218   1.382   2.030   4.328  0.3105  0.1168 -0.7787
 4529SOL     OW25219   2.936   3.128   4.521 -0.2211  0.0376  0.6272
 4529SOL    HW125220   2.870   3.150   4.455  0.0736 -0.2026  0.2532
 4529SOL    HW225221   3.006   3.094   4.465 -0.0189 -1.3027  1.6765
 4530SOL     OW25222   3.097   0.474   7.450  0.1038 -0.3070  0.4209
 4530SOL    HW125223   3.187   0.450   7.474  0.4994 -0.3169 -1.0988
 4530SOL    HW225224   3.045   0.436   7.521 -0.5351  2.5916  1.5140
 4531SOL     OW25225   4.564   3.341   1.595  0.2311  0.0686  0.1987
 4531SOL    HW125226   4.486   3.342   1.539  1.2296 -2.1908 -1.2562
 4531SOL    HW225227   4.597   3.253   1.574  0.9568  0.5877 -0.8507
 4532SOL     OW25228   3.523   0.877   3.110 -0.4090  0.4047  0.1455
 4532SOL    HW125229   3.537   0.967   3.081 -2.9504  0.1466 -1.8706
 4532SOL    HW225230   3.598   0.860   3.168 -1.6818  0.3305  1.7723
 4533SOL     OW25231   1.661   2.613   5.239 -0.1317 -0.1973  0.0788
 4533SOL    HW125232   1.724   2.654   5.180  1.0071 -1.3447  0.4995
 4533SOL    HW225233   1.688   2.523   5.219  0.4672  0.3419 -1.5460
 4534SOL     OW25234   1.613   2.123  13.235 -0.0147 -0.0952  0.4932
 4534SOL    HW125235   1.541   2.088  13.182  1.5902 -1.0671 -1.0662
 4534SOL    HW225236   1.573   2.168  13.309  0.4641  1.6525 -0.3315
 4535SOL     OW25237   1.734   4.235  14.880 -0.5210  0.0513  0.1882
 4535SOL    HW125238   1.682   4.316  14.877 -1.7988 -0.8167 -0.7715
 4535SOL    HW225239   1.726   4.202  14.969 -2.5437 -1.5182 -0.5776
 4536SOL     OW25240   2.786   0.483  14.664 -0.1273  0.3137  0.9098
 4536SOL    HW125241   2.736   0.541  14.722 -1.7601  0.8802 -1.0320
 4536SOL    HW225242   2.716   0.443  14.613 -0.2554  1.2787  0.3175
 4537SOL     OW25243   1.678   0.867   7.573 -0.2136 -0.0496 -0.0521
 4537SOL    HW125244   1.736   0.793   7.553 -0.1268 -0.3623  1.3997
 4537SOL    HW225245   1.710   0.923   7.502  1.6336 -0.4944  0.4247
 4538SOL     OW25246   1.252   1.962   2.590 -0.4240 -0.0843  0.5046
 4538SOL    HW125247   1.195   2.033   2.619  0.4906  1.4404 -1.4707
 4538SOL    HW225248   1.297   1.998   2.514  1.5026  1.9002  2.6181
 4539SOL     OW25249   0.791   3.947   3.678  0.3690  0.6052 -0.3570
 4539SOL    HW125250   0.749   3.868   3.643  1.1682 -0.0302  0.1301
 4539SOL    HW225251   0.741   3.946   3.760 -0.5875  0.9858 -0.9372
 4540SOL     OW25252   1.067   3.165   5.462 -0.1216 -0.8015  0.1438
 4540SOL    HW125253   1.007   3.137   5.393  0.3794  0.5780 -0.8618
 4540SOL    HW225254   1.122   3.233   5.423  0.1521 -0.0395  1.8618
 4541SOL     OW25255   0.747   2.860  10.463  0.0307  0.1642  0.7107
 4541SOL    HW125256   0.842   2.850  10.473  0.0374  1.4233  1.9219
 4541SOL    HW225257   0.737   2.905  10.379  1.1390 -0.5393  0.2048
 4542SOL     OW25258   0.544   3.303  14.245 -0.4839  0.4822 -0.5190
 4542SOL    HW125259   0.567   3.218  14.282 -1.0904  0.4969 -0.1016
 4542SOL    HW225260   0.575   3.291  14.155  2.3858  0.1570  0.5127
 4543SOL     OW25261   0.740   2.073  15.352  0.3674  0.0203  0.3202
 4543SOL    HW125262   0.690   2.014  15.408  1.1784 -0.1119  0.8974
 4543SOL    HW225263   0.794   2.116  15.418  2.7454  0.0322 -1.6281
 4544SOL     OW25264   3.625   0.359   4.021  0.4141 -0.5087 -0.1704
 4544SOL    HW125265   3.621   0.387   4.112  3.2998 -0.0327 -0.1750
 4544SOL    HW225266   3.658   0.273   4.047 -3.2581 -1.8848 -0.1765
 4545SOL     OW25267   1.343   0.783   6.362  0.2004  0.6629 -0.0378
 4545SOL    HW125268   1.296   0.799   6.280  0.1585  0.5265 -0.0403
 4545SOL    HW225269   1.277   0.742   6.417  0.9029  0.3923  0.6016
 4546SOL     OW25270   4.685   3.739  13.701 -0.0770 -1.3050 -0.2667
 4546SOL    HW125271   4.651   3.652  13.721  0.0779 -1.0293  1.1545
 4546SOL    HW225272   4.707   3.777  13.786 -0.4880  0.8538 -1.1107
 4547SOL     OW25273   1.702   3.877   4.096  0.5200 -0.1183  0.0378
 4547SOL    HW125274   1.721   3.819   4.023  2.5231 -0.6668  0.9960
 4547SOL    HW225275   1.697   3.823   4.175 -2.9306  0.7801  0.4635
 4548SOL     OW25276   2.460   3.223   8.435 -0.1776  0.2358  0.0925
 4548SOL    HW125277   2.450   3.294   8.499  0.3582  0.4152 -0.0239
 4548SOL    HW225278   2.541   3.184   8.468 -1.2084 -1.2003  0.9326
 4549SOL     OW25279   3.979   0.430  11.580  0.2897 -0.1977  0.1152
 4549SOL    HW125280   3.936   0.452  11.497 -0.8424 -0.1749  0.7163
 4549SOL    HW225281   3.921   0.432  11.656 -0.4339 -2.2668 -0.3637
 4550SOL     OW25282   0.599   2.620   9.672 -0.4194 -0.1597 -0.4529
 4550SOL    HW125283   0.537   2.652   9.736 -0.8522  0.7921 -1.3529
 4550SOL    HW225284   0.640   2.701   9.642  0.8886 -0.8964 -0.6674
 4551SOL     OW25285   3.406   1.610   9.696 -0.2737 -0.4125  0.3109
 4551SOL    HW125286   3.390   1.704   9.704 -0.2324 -0.2517 -1.4907
 4551SOL    HW225287   3.492   1.606   9.736 -0.4312  3.3125  1.0245
 4552SOL     OW25288   0.381   4.453   9.217 -0.3010  0.0320 -0.1092
 4552SOL    HW125289   0.414   4.473   9.130 -0.4900 -1.3248 -0.4988
 4552SOL    HW225290   0.435   4.487   9.288  0.5553 -0.5834 -0.4583
 4553SOL     OW25291   3.150   4.318   6.177  0.3849 -0.1458 -0.4071
 4553SOL    HW125292   3.205   4.372   6.120  2.1104 -1.5062 -0.0313
 4553SOL    HW225293   3.166   4.230   6.141 -1.2805 -0.8239  0.5028
 4554SOL     OW25294   0.012   0.112  13.946  0.8516  0.5915  0.0230
 4554SOL    HW125295   4.664   0.136  13.980  1.0457  0.8538  0.3312
 4554SOL    HW225296   0.070   0.143  14.016  1.1854 -0.8581  0.3852
 4555SOL     OW25297   2.875   2.376   3.724 -0.4569 -0.0557  0.6499
 4555SOL    HW125298   2.912   2.295   3.758  0.4517  0.1984  0.2631
 4555SOL    HW225299   2.838   2.348   3.640  0.2631 -1.3031  0.7492
 4556SOL     OW25300   1.775   1.310   7.118  0.1251 -0.4072  0.7143
 4556SOL    HW125301   1.837   1.352   7.178  0.9816  0.0316 -0.4911
 4556SOL    HW225302   1.748   1.235   7.171 -0.4545 -1.2601 -0.7749
 4557SOL     OW25303   0.452   2.604  14.649 -0.6502  0.7042  0.4019
 4557SOL    HW125304   0.465   2.572  14.738  2.5020 -0.1550 -0.3313
 4557SOL    HW225305   0.544   2.622  14.627 -0.9666  0.0541 -1.5126
 4558SOL     OW25306   2.156   0.803   7.178  0.5114  0.5229  0.1495
 4558SOL    HW125307   2.249   0.796   7.157  0.7970  2.3663  0.7876
 4558SOL    HW225308   2.137   0.895   7.196 -1.9765  0.0627 -0.1094
 4559SOL     OW25309   3.928   1.360   0.966 -0.1976  0.4952 -0.4505
 4559SOL    HW125310   3.961   1.284   1.014 -2.0010  1.4953  2.3767
 4559SOL    HW225311   3.998   1.360   0.901  0.3427  1.4936  0.1188
 4560SOL     OW25312   3.592   1.965   2.377  0.6079  0.0027 -0.0151
 4560SOL    HW125313   3.603   2.057   2.403 -0.1030 -0.0591  0.5131
 4560SOL    HW225314   3.682   1.936   2.361 -0.1994 -0.1511 -4.0516
 4561SOL     OW25315   3.899   1.327   3.643 -0.0952  0.6145  0.7640
 4561SOL    HW125316   3.872   1.236   3.654  2.6780 -0.2611  0.3271
 4561SOL    HW225317   3.956   1.327   3.719 -2.2767  1.0655  2.4160
 4562SOL     OW25318   3.121   3.457   7.929 -0.1746  0.1506 -0.2545
 4562SOL    HW125319   3.039   3.498   7.957 -0.4757  0.3374 -1.4414
 4562SOL    HW225320   3.171   3.496   8.002  0.2499  1.6364 -1.3419
 4563SOL     OW25321   2.298   2.943   6.743 -0.7241  0.0965  0.6906
 4563SOL    HW125322   2.262   2.855   6.757 -0.8629 -0.1210 -1.0478
 4563SOL    HW225323   2.278   2.957   6.650 -2.2316 -0.4282  0.9331
 4564SOL     OW25324   1.366   0.692   8.161  0.4481  0.4142  0.0292
 4564SOL    HW125325   1.449   0.705   8.114  1.6723 -3.2382  1.1609
 4564SOL    HW225326   1.305   0.674   8.089  0.3814  1.3388 -0.1441
 4565SOL     OW25327   2.834   0.874   8.590  0.5464  0.2159 -0.5242
 4565SOL    HW125328   2.858   0.784   8.567 -2.8678 -1.1194  1.1420
 4565SOL    HW225329   2.766   0.874   8.657  1.2919 -2.1258  0.2385
 4566SOL     OW25330   1.872   1.082  13.620 -0.2851  0.4363  0.2111
 4566SOL    HW125331   1.907   1.159  13.575  0.5358 -0.6748 -1.0176
 4566SOL    HW225332   1.876   1.116  13.710  0.6631  0.4253  0.1665
 4567SOL     OW25333   3.320   0.100  13.940  0.1782 -0.4343 -0.1961
 4567SOL    HW125334   3.241   0.063  13.901 -0.0365  2.1407 -2.1623
 4567SOL    HW225335   3.312   0.086  14.035  0.4633 -0.0051 -0.1113
 4568SOL     OW25336   0.661   4.020   0.469  0.1366 -0.5028 -0.2465
 4568SOL    HW125337   0.606   4.056   0.400 -2.1616 -0.2767  1.7101
 4568SOL    HW225338   0.698   4.104   0.497 -0.4022 -0.1046 -0.7422
 4569SOL     OW25339   0.609   1.590   5.995 -0.3688  0.4386 -0.1542
 4569SOL    HW125340   0.562   1.528   5.939  0.5586 -0.5735  0.1835
 4569SOL    HW225341   0.533   1.620   6.045 -0.7982  1.8182 -1.6436
 4570SOL     OW25342   3.833   0.883   7.300  1.0678 -0.0124  0.4380
 4570SOL    HW125343   3.801   0.858   7.214 -0.0471  0.8713  0.6024
 4570SOL    HW225344   3.830   0.805   7.357  0.3183  0.3859  0.9384
 4571SOL     OW25345   1.059   4.141  15.132 -0.1598  0.1569  0.2241
 4571SOL    HW125346   1.013   4.148  15.049 -0.3466  0.6123  0.3663
 4571SOL    HW225347   1.000   4.074  15.165 -0.6012  1.0181  1.2115
 4572SOL     OW25348   4.316   2.119   3.195  0.5622  0.3216  0.0088
 4572SOL    HW125349   4.342   2.041   3.146 -2.3652 -0.7726  0.1802
 4572SOL    HW225350   4.376   2.122   3.270  1.0907  0.7560 -0.4332
 4573SOL     OW25351   3.132   0.861   1.778  0.3489  0.0687 -0.0262
 4573SOL    HW125352   3.036   0.860   1.780  0.3510 -1.0107 -0.3925
 4573SOL    HW225353   3.151   0.942   1.825  2.1110  0.1847 -0.9705
 4574SOL     OW25354   1.218   1.325  15.820 -0.2858 -0.5645  0.0387
 4574SOL    HW125355   1.164   1.341  15.897 -0.7548  0.6485 -0.5439
 4574SOL    HW225356   1.286   1.392  15.828 -0.3163 -0.5383  0.0748
 4575SOL     OW25357   1.613   0.502   3.264 -0.0645 -0.0192 -0.3400
 4575SOL    HW125358   1.665   0.498   3.184 -0.8101  0.7731 -0.8649
 4575SOL    HW225359   1.654   0.421   3.296  0.7153  0.1752 -0.8598
 4576SOL     OW25360   3.690   2.410   4.197 -0.1730  0.2957 -0.1616
 4576SOL    HW125361   3.648   2.493   4.175  1.6675  1.5072  0.9738
 4576SOL    HW225362   3.717   2.440   4.284 -0.6165 -2.1023  0.8091
 4577SOL     OW25363   1.211   4.597  16.221  0.1571  0.5849 -0.6845
 4577SOL    HW125364   1.200   4.609  16.127 -0.9061  0.0231 -0.6358
 4577SOL    HW225365   1.290   4.651  16.223  1.0827 -0.8045 -0.0357
 4578SOL     OW25366   4.510   1.895   3.500 -0.3135 -0.0263 -0.3660
 4578SOL    HW125367   4.530   1.976   3.453  1.5316 -0.5246 -0.4259
 4578SOL    HW225368   4.424   1.868   3.468  0.7081 -3.6520  0.0148
 4579SOL     OW25369   0.098   4.130   1.561 -0.5711  0.1689  0.1877
 4579SOL    HW125370   0.145   4.129   1.477  0.7109  0.7922  0.8975
 4579SOL    HW225371   0.007   4.120   1.534 -0.8262  0.4689  0.9450
 4580SOL     OW25372   0.078   2.100  14.314 -0.0514  0.7235 -0.2855
 4580SOL    HW125373   0.059   2.148  14.233  2.5408  1.0061 -0.7228
 4580SOL    HW225374   0.043   2.016  14.286  0.7638 -0.3180  1.8694
 4581SOL     OW25375   3.892   1.065   3.705 -0.0482  0.1723 -0.0118
 4581SOL    HW125376   3.952   0.993   3.723  1.1084  1.6805  2.2349
 4581SOL    HW225377   3.818   1.024   3.661 -0.7640  0.9292  0.5004
 4582SOL     OW25378   3.837   4.388   6.266 -0.1340 -0.1452  0.1128
 4582SOL    HW125379   3.857   4.387   6.360 -0.9456  0.5303  0.2903
 4582SOL    HW225380   3.911   4.437   6.230  0.3483 -0.3361  0.8462
 4583SOL     OW25381   2.976   0.163   7.898 -0.3200 -0.0861  0.8242
 4583SOL    HW125382   2.899   0.138   7.948 -1.9378 -0.3309 -1.7733
 4583SOL    HW225383   2.988   0.101   7.826  0.8924 -0.3336  1.2384
 4584SOL     OW25384   3.145   4.334  16.254  0.0470 -0.1616 -0.1276
 4584SOL    HW125385   3.202   4.267  16.217  0.9885  0.1234  0.7851
 4584SOL    HW225386   3.154   4.320  16.349 -0.8253  1.2675  0.1659
 4585SOL     OW25387   4.692   2.544  15.097 -0.2207  0.0291  0.6061
 4585SOL    HW125388   0.027   2.533  15.035 -0.5664  1.0861  0.0041
 4585SOL    HW225389   4.710   2.505  15.182  0.9782 -1.5555 -0.3663
 4586SOL     OW25390   3.436   4.170   9.895 -0.2482 -0.2409 -0.3581
 4586SOL    HW125391   3.526   4.197   9.913  0.0548 -0.2311 -1.9350
 4586SOL    HW225392   3.399   4.152   9.982  1.2091 -1.3614  0.0364
 4587SOL     OW25393   3.634   4.677   2.232  0.0215  0.1219 -0.2473
 4587SOL    HW125394   3.674   0.024   2.251  0.1343 -0.3097  1.4520
 4587SOL    HW225395   3.572   4.701   2.163 -0.2281 -1.8616 -0.7154
 4588SOL     OW25396   0.204   3.322   7.880 -0.3127  0.3883  0.1371
 4588SOL    HW125397   0.263   3.385   7.920 -0.1118 -0.4922  1.2266
 4588SOL    HW225398   0.249   3.237   7.885 -2.3695 -0.6943  0.3510
 4589SOL     OW25399   1.892   1.386   7.623  0.2906  0.1321 -0.3244
 4589SOL    HW125400   1.896   1.378   7.719 -0.9748 -0.4586 -0.3194
 4589SOL    HW225401   1.970   1.440   7.607 -0.0700  1.0220  0.9043
 4590SOL     OW25402   1.799   1.178   7.482 -0.2048  0.3292  0.7259
 4590SOL    HW125403   1.863   1.120   7.440 -0.4455  0.3096  0.3870
 4590SOL    HW225404   1.845   1.243   7.535  0.1922  0.8359 -0.2473
 4591SOL     OW25405   2.914   2.871   4.803 -0.5921 -0.7691  0.2999
 4591SOL    HW125406   2.826   2.836   4.788 -0.2318 -1.9377  0.9298
 4591SOL    HW225407   2.972   2.805   4.765 -1.0004 -1.2850  0.5723
 4592SOL     OW25408   1.980   0.802   5.020 -0.1295 -0.5568 -0.1247
 4592SOL    HW125409   2.030   0.721   5.030 -1.0618 -1.4695 -2.8709
 4592SOL    HW225410   1.978   0.837   5.109  1.4615  0.1290 -0.3464
 4593SOL     OW25411   1.795   0.316   2.743 -0.1626 -0.4090  0.0299
 4593SOL    HW125412   1.814   0.349   2.656  1.3478  0.3973  0.6584
 4593SOL    HW225413   1.750   0.239   2.709 -0.6913 -0.6676  1.3137
 4594SOL     OW25414   4.301   3.941   7.682 -0.3660 -0.1602  0.1997
 4594SOL    HW125415   4.290   3.856   7.725 -1.9480 -0.3470 -0.5724
 4594SOL    HW225416   4.268   3.931   7.592 -0.6215  1.2693  0.1363
 4595SOL     OW25417   4.281   2.440   3.389  0.0561  0.2065  0.5188
 4595SOL    HW125418   4.237   2.434   3.303 -1.4303  1.9126  1.1551
 4595SOL    HW225419   4.369   2.451   3.354 -0.3335  0.0815 -0.5219
 4596SOL     OW25420   2.841   3.355   9.794  0.2601 -0.0916  0.4128
 4596SOL    HW125421   2.844   3.413   9.870 -1.5473 -0.9199  1.1243
 4596SOL    HW225422   2.890   3.401   9.726 -0.2795 -0.8142 -0.4659
 4597SOL     OW25423   1.077   3.078   2.349  0.4306 -0.0084  0.5322
 4597SOL    HW125424   1.153   3.082   2.291 -2.2761  3.7533 -2.7187
 4597SOL    HW225425   1.076   3.172   2.366 -1.6307  0.6745 -3.5101
 4598SOL     OW25426   3.998   0.386   1.098 -0.5404 -0.1793  0.5028
 4598SOL    HW125427   4.044   0.302   1.099  1.4555  0.9296  1.1090
 4598SOL    HW225428   3.909   0.368   1.066 -0.7040  2.3657 -0.4661
 4599SOL     OW25429   4.403   4.369   8.410 -0.1889  0.3291 -0.0825
 4599SOL    HW125430   4.396   4.433   8.340 -0.0452 -0.0328 -0.4290
 4599SOL    HW225431   4.381   4.284   8.372  0.2515  0.2818 -0.2332
 4600SOL     OW25432   3.637   3.978   7.040  0.2277  0.4005 -0.5171
 4600SOL    HW125433   3.584   4.012   7.112  1.4778 -1.2201  1.1756
 4600SOL    HW225434   3.623   3.883   7.043 -2.2122  0.7350 -1.5878
 4601SOL     OW25435   4.397   1.655   2.549 -0.1098  0.0756  0.1518
 4601SOL    HW125436   4.474   1.686   2.501  0.5543  2.1324  2.5632
 4601SOL    HW225437   4.415   1.562   2.567 -0.4923 -0.1947 -0.8485
 4602SOL     OW25438   2.851   2.161  14.054 -0.0325 -0.0332 -0.0911
 4602SOL    HW125439   2.927   2.112  14.023  0.4228  0.1629  0.7349
 4602SOL    HW225440   2.840   2.226  13.985  0.3442  1.5702  1.3596
 4603SOL     OW25441   3.574   0.852  14.818 -0.0351  0.6224  0.3995
 4603SOL    HW125442   3.640   0.855  14.888  1.1438 -0.5485 -0.6653
 4603SOL    HW225443   3.509   0.910  14.859  0.2405  1.2784 -0.0806
 4604SOL     OW25444   2.154   2.004   7.410 -0.2214  0.1980 -0.1196
 4604SOL    HW125445   2.229   1.968   7.457  0.5397  1.9094 -0.0370
 4604SOL    HW225446   2.083   1.964   7.460 -1.3279  0.1672 -1.7081
 4605SOL     OW25447   3.334   4.613   0.309 -0.5342 -0.8325  0.8016
 4605SOL    HW125448   3.388   4.673   0.257 -1.5214  0.2985  1.0902
 4605SOL    HW225449   3.399   4.589   0.376 -0.4391  2.7732  2.0590
 4606SOL     OW25450   4.384   4.725   0.139 -0.2503 -0.6056  0.4548
 4606SOL    HW125451   4.336   0.064   0.107  1.7060  0.0790 -0.8012
 4606SOL    HW225452   4.340   4.711   0.223  0.1272  1.7157  1.0356
 4607SOL     OW25453   0.127   2.345  16.233  0.0304  0.5580 -0.3268
 4607SOL    HW125454   0.104   2.271  16.289 -1.3295  1.0653 -0.2213
 4607SOL    HW225455   0.213   2.325  16.196 -0.7596 -0.9318 -1.3709
 4608SOL     OW25456   3.942   0.408  12.875  0.2692 -0.3820 -0.3119
 4608SOL    HW125457   4.011   0.472  12.893  0.2832 -0.6995  0.7722
 4608SOL    HW225458   3.894   0.448  12.803 -0.0881 -0.7720 -0.2944
 4609SOL     OW25459   3.536   1.567   5.427 -0.3888  0.1924 -0.8679
 4609SOL    HW125460   3.546   1.528   5.341 -0.1711 -0.7282 -0.4238
 4609SOL    HW225461   3.505   1.497   5.484  0.1143  0.8139  0.1783
 4610SOL     OW25462   3.834   3.794   5.849 -0.1878 -0.1953 -0.0561
 4610SOL    HW125463   3.819   3.881   5.814  1.1393  0.4056  0.8667
 4610SOL    HW225464   3.806   3.745   5.772 -1.6288 -0.0036  0.3321
 4611SOL     OW25465   3.185   3.719   6.525  0.0464  0.8766 -0.7335
 4611SOL    HW125466   3.213   3.678   6.607 -2.3242  0.2420 -0.2332
 4611SOL    HW225467   3.153   3.642   6.479 -0.1733 -0.3103  1.4037
 4612SOL     OW25468   0.203   4.705  17.670  0.2259  0.0753 -0.3379
 4612SOL    HW125469   0.214   4.612  17.652  4.9472  0.5960 -0.1035
 4612SOL    HW225470   0.114   4.720  17.639 -0.5247 -0.9096  1.3752
 4613SOL     OW25471   0.756   3.650   3.701  0.3297 -0.2192  0.3828
 4613SOL    HW125472   0.719   3.569   3.736 -0.4856 -0.1681 -0.3858
 4613SOL    HW225473   0.690   3.687   3.643  1.4958  2.2809  0.6336
 4614SOL     OW25474   3.908   0.487  15.977 -0.1929  0.3854 -0.2744
 4614SOL    HW125475   3.881   0.451  16.061  2.5470  3.2953  1.8541
 4614SOL    HW225476   3.828   0.486  15.924 -2.2477  0.6078  2.8308
 4615SOL     OW25477   0.850   3.152   1.656 -0.5430 -0.8901 -0.4977
 4615SOL    HW125478   0.915   3.093   1.617  1.4230  0.0200  1.3872
 4615SOL    HW225479   0.774   3.125   1.604 -1.4546  1.6608 -0.4832
 4616SOL     OW25480   2.117   0.582  11.659 -0.0185  0.1335 -0.3754
 4616SOL    HW125481   2.093   0.522  11.730 -2.3151  1.5825  0.0697
 4616SOL    HW225482   2.195   0.536  11.628 -0.0235  0.3689 -0.7342
 4617SOL     OW25483   1.333   3.871   7.949 -0.1162  0.1228  0.1113
 4617SOL    HW125484   1.346   3.928   7.873 -2.4723  1.5934  0.8077
 4617SOL    HW225485   1.316   3.786   7.909  3.2913  0.2500 -1.6020
 4618SOL     OW25486   3.355   2.657   3.582  0.6957 -0.4113  0.3594
 4618SOL    HW125487   3.378   2.586   3.642 -0.1426  1.0884  2.4452
 4618SOL    HW225488   3.353   2.608   3.500 -0.5737 -0.1600  0.2335
 4619SOL     OW25489   0.986   3.927   7.573 -0.1820 -0.1558  0.1611
 4619SOL    HW125490   1.021   3.988   7.508  2.4847 -0.4948  1.2926
 4619SOL    HW225491   0.938   3.860   7.525  0.0230 -0.1002 -0.1188
 4620SOL     OW25492   3.364   2.958   8.829 -0.1339  0.0727  0.4276
 4620SOL    HW125493   3.285   3.002   8.861  0.2897  0.7795  0.5019
 4620SOL    HW225494   3.419   3.035   8.814 -0.7635  0.2608 -0.9150
 4621SOL     OW25495   0.986   0.227   4.562  0.7010 -0.1710  0.1739
 4621SOL    HW125496   0.979   0.319   4.536 -1.6681 -0.3362  0.2108
 4621SOL    HW225497   1.063   0.225   4.619  1.4426 -0.5932 -0.8288
 4622SOL     OW25498   3.239   3.128  14.914 -0.2358 -0.1008  0.9339
 4622SOL    HW125499   3.150   3.108  14.884 -0.2307  1.6188 -0.2328
 4622SOL    HW225500   3.230   3.220  14.889  1.0545 -0.1978  0.1245
 4623SOL     OW25501   3.781   0.798   3.753  0.0555  0.0844  0.4066
 4623SOL    HW125502   3.714   0.741   3.715  1.7867  0.1090 -2.6652
 4623SOL    HW225503   3.857   0.739   3.753 -0.2486 -0.3082 -0.3127
 4624SOL     OW25504   3.766   4.241   2.838 -0.2688  0.0106 -0.1002
 4624SOL    HW125505   3.775   4.325   2.883 -0.2890 -0.8413  1.5008
 4624SOL    HW225506   3.735   4.191   2.913  1.1146 -0.7851 -0.0687
 4625SOL     OW25507   4.684   2.243   5.047  0.0718 -0.3314  0.3731
 4625SOL    HW125508   0.023   2.298   5.065 -0.2091 -1.1433  4.0609
 4625SOL    HW225509   4.677   2.277   4.958 -0.0082 -1.9436 -0.2429
 4626SOL     OW25510   4.417   1.524   4.474 -0.4253  0.2916  0.2074
 4626SOL    HW125511   4.455   1.442   4.506  0.8153  0.2459 -1.4016
 4626SOL    HW225512   4.480   1.593   4.494  2.1043 -1.4533 -1.7057
 4627SOL     OW25513   1.917   0.227   0.911  0.2460  0.3599  0.3231
 4627SOL    HW125514   1.941   0.145   0.956  1.4970  0.9123  0.6785
 4627SOL    HW225515   1.913   0.197   0.820  0.3366  2.0915 -0.2542
 4628SOL     OW25516   4.252   1.424   7.983  0.1382  0.0515 -0.0601
 4628SOL    HW125517   4.305   1.487   8.032 -0.7755 -1.0746  2.4067
 4628SOL    HW225518   4.165   1.458   8.005 -0.1728 -1.9212  1.8337
 4629SOL     OW25519   2.923   4.492   4.100  0.2592 -0.0613 -0.0600
 4629SOL    HW125520   2.898   4.572   4.146 -0.5877 -1.0216  1.1648
 4629SOL    HW225521   3.019   4.494   4.098  0.2489  1.0940  0.5062
 4630SOL     OW25522   0.544   0.985   5.470 -0.2345  0.2769 -0.2015
 4630SOL    HW125523   0.573   1.066   5.429  0.5690  0.7874  1.3848
 4630SOL    HW225524   0.479   1.027   5.526 -3.0323 -0.4925 -2.8943
 4631SOL     OW25525   0.990   2.631  15.320  0.5613  1.0140  0.0245
 4631SOL    HW125526   0.947   2.694  15.377  0.6297 -0.2284  1.4172
 4631SOL    HW225527   0.917   2.570  15.309  1.6809 -0.3111 -0.0277
 4632SOL     OW25528   2.819   4.682   1.999 -0.0189 -0.2433 -0.0361
 4632SOL    HW125529   2.749   0.006   1.979 -0.6696 -1.7304 -2.3635
 4632SOL    HW225530   2.831   4.697   2.092 -0.3547 -2.9838  0.4622
 4633SOL     OW25531   4.298   0.808   6.181  0.0056  0.0187  0.3425
 4633SOL    HW125532   4.344   0.731   6.215 -0.6567 -0.5923 -0.1627
 4633SOL    HW225533   4.231   0.768   6.126  0.1211  0.0148  0.2069
 4634SOL     OW25534   0.264   1.946   3.981 -0.1764  0.6657 -0.0075
 4634SOL    HW125535   0.200   1.884   3.947  2.5918 -0.9557 -2.2528
 4634SOL    HW225536   0.214   1.983   4.054 -0.4973  1.3306 -0.5522
 4635SOL     OW25537   3.576   0.017   9.126 -0.1681  1.0246 -0.5709
 4635SOL    HW125538   3.567   0.088   9.190  3.2487  1.3745 -0.4828
 4635SOL    HW225539   3.487   4.736   9.097 -0.0574 -0.2163 -0.1178
 4636SOL     OW25540   1.213   0.112   0.152 -0.4340  0.0968  0.0887
 4636SOL    HW125541   1.159   0.163   0.093 -0.8174 -2.0233 -1.3831
 4636SOL    HW225542   1.225   0.165   0.231  1.1940 -0.8518  0.4879
 4637SOL     OW25543   2.699   1.246   9.644  0.4138  0.0280  0.6769
 4637SOL    HW125544   2.653   1.198   9.713  2.0876 -3.1578 -0.3835
 4637SOL    HW225545   2.781   1.197   9.639  0.2126 -0.2847  0.4279
 4638SOL     OW25546   3.844   0.021   5.518 -0.1221 -0.1496 -0.2428
 4638SOL    HW125547   3.822   0.070   5.439 -0.6419 -1.5076 -0.9565
 4638SOL    HW225548   3.870   4.672   5.486 -0.4102  0.1299 -1.2441
 4639SOL     OW25549   0.583   2.828   8.800  0.6134  0.1485  0.1656
 4639SOL    HW125550   0.661   2.880   8.820  1.0143 -0.7985  1.0384
 4639SOL    HW225551   0.618   2.769   8.732 -1.6894  0.7630 -1.5418
 4640SOL     OW25552   0.270   4.602   3.014  0.0199  0.9623 -0.1525
 4640SOL    HW125553   0.243   4.664   3.081  2.3211  0.9137  0.8156
 4640SOL    HW225554   0.365   4.618   3.009  0.0800  0.2381 -1.1704
 4641SOL     OW25555   4.608   2.744  12.171  0.2437  0.2600 -0.3019
 4641SOL    HW125556   4.697   2.708  12.177 -0.3021 -1.3564 -1.7943
 4641SOL    HW225557   4.551   2.669  12.190  2.4237 -1.3985 -0.2112
 4642SOL     OW25558   0.971   4.034   7.819  0.2060 -0.4448  0.2003
 4642SOL    HW125559   0.962   4.123   7.787 -1.3827 -0.9703 -0.8193
 4642SOL    HW225560   0.976   3.987   7.735  1.2223 -2.5322  1.4163
 4643SOL     OW25561   2.316   4.115  11.706 -0.3684 -0.2547 -0.8924
 4643SOL    HW125562   2.303   4.141  11.797 -1.0341  0.9908 -1.3491
 4643SOL    HW225563   2.355   4.188  11.658  0.2849 -0.8125 -1.1953
 4644SOL     OW25564   3.454   3.546  16.611 -0.1527 -0.0646 -0.3224
 4644SOL    HW125565   3.469   3.480  16.678  0.0801 -0.6336 -0.9337
 4644SOL    HW225566   3.543   3.573  16.587  0.1721  0.0492  1.0022
 4645SOL     OW25567   3.830   1.875   9.599 -0.0453 -0.1817  0.1125
 4645SOL    HW125568   3.754   1.847   9.651 -0.5890 -1.0843 -1.1718
 4645SOL    HW225569   3.810   1.968   9.594 -0.8054 -0.2091  2.5459
 4646SOL     OW25570   2.413   2.060   6.072  0.1687  0.5634 -0.4743
 4646SOL    HW125571   2.361   2.083   6.149 -0.8823  1.3597 -1.4285
 4646SOL    HW225572   2.433   2.151   6.052 -0.9193  0.5392 -1.6996
 4647SOL     OW25573   1.590   3.604   5.950 -0.3360  0.0556  0.5314
 4647SOL    HW125574   1.665   3.647   5.991 -1.4768  3.5260 -0.9760
 4647SOL    HW225575   1.547   3.675   5.902  2.2665  0.8575 -0.5932
 4648SOL     OW25576   2.962   0.883  16.715  0.0699  0.1772 -0.5475
 4648SOL    HW125577   2.896   0.952  16.719  0.9205  0.9500  0.0687
 4648SOL    HW225578   3.010   0.908  16.795  2.0427 -0.1884 -1.6085
 4649SOL     OW25579   0.060   4.537   6.243  0.1072 -0.1025 -0.2457
 4649SOL    HW125580   4.729   4.471   6.243 -2.0967  2.1944 -1.5616
 4649SOL    HW225581   0.084   4.515   6.333 -0.3128 -1.1991 -0.4023
 4650SOL     OW25582   0.763   0.857   1.543 -0.2020 -0.1252  0.3277
 4650SOL    HW125583   0.793   0.767   1.554 -0.9194 -0.4059 -0.0127
 4650SOL    HW225584   0.670   0.849   1.567  0.9403 -2.4423  4.0601
 4651SOL     OW25585   3.736   0.603   7.416  0.6806  0.2958  0.9470
 4651SOL    HW125586   3.650   0.633   7.446  0.2882  0.3852 -0.2860
 4651SOL    HW225587   3.724   0.599   7.321 -0.2348 -3.0246  1.1662
 4652SOL     OW25588   1.632   3.407   9.996  0.5037 -0.0817  0.0336
 4652SOL    HW125589   1.723   3.431   9.975  0.4440 -0.3218 -0.5030
 4652SOL    HW225590   1.594   3.418   9.909 -0.3387 -0.9176  0.3016
 4653SOL     OW25591   1.990   2.156  15.991  0.5090  0.1694 -0.0161
 4653SOL    HW125592   2.018   2.065  16.006 -0.6148 -0.2307 -0.3319
 4653SOL    HW225593   1.992   2.159  15.896 -1.6716 -1.7831 -0.1104
 4654SOL     OW25594   2.258   4.511   7.235  0.7262  0.0689 -0.2963
 4654SOL    HW125595   2.229   4.595   7.272 -1.2337 -0.1942 -1.2568
 4654SOL    HW225596   2.196   4.512   7.162 -0.1899  2.5032  0.5131
 4655SOL     OW25597   0.962   1.325   5.178 -0.4097 -0.5471  0.0619
 4655SOL    HW125598   0.930   1.330   5.088  0.3385  1.9605 -0.0540
 4655SOL    HW225599   1.035   1.263   5.173  0.1447  0.2162 -1.2589
 4656SOL     OW25600   3.007   0.348   8.452  0.0102  0.1814 -0.5501
 4656SOL    HW125601   2.936   0.287   8.470  0.6843 -1.0073 -1.9068
 4656SOL    HW225602   3.032   0.317   8.365 -2.2182  1.0232 -1.5112
 4657SOL     OW25603   1.752   2.296   3.778 -0.3232  0.4353 -0.3717
 4657SOL    HW125604   1.777   2.374   3.827 -2.5582  0.3740  0.8405
 4657SOL    HW225605   1.839   2.257   3.772 -0.7889 -0.3685 -1.8427
 4658SOL     OW25606   2.648   4.195   5.373 -0.3918 -0.4775 -0.0145
 4658SOL    HW125607   2.574   4.256   5.378 -0.2633 -0.3884  0.7472
 4658SOL    HW225608   2.666   4.191   5.279 -0.0244 -0.6108  0.0656
 4659SOL     OW25609   1.260   4.664   8.839  0.6978 -0.0570 -0.3611
 4659SOL    HW125610   1.292   4.720   8.768 -2.7074 -0.6630 -2.3412
 4659SOL    HW225611   1.342   4.633   8.878  2.3988  2.6226 -1.8686
 4660SOL     OW25612   4.632   0.186   0.486 -0.4066 -0.3353  0.1831
 4660SOL    HW125613   4.687   0.117   0.450  1.2268  0.5292  1.0082
 4660SOL    HW225614   4.619   0.249   0.414  2.8594  0.8902  0.6683
 4661SOL     OW25615   0.901   2.927   6.475 -0.2011 -0.5257  0.3813
 4661SOL    HW125616   0.970   2.865   6.452  0.7595  0.5597  0.2938
 4661SOL    HW225617   0.958   3.002   6.493  0.1999 -0.3985 -1.3335
 4662SOL     OW25618   4.600   2.889   7.860 -0.2132 -0.2408  0.6231
 4662SOL    HW125619   4.588   2.859   7.769 -1.3517 -1.0769  1.0585
 4662SOL    HW225620   4.554   2.828   7.917 -2.2218 -0.0900 -0.8478
 4663SOL     OW25621   1.903   3.046   6.705  0.4925 -0.5141  0.2175
 4663SOL    HW125622   1.930   3.132   6.736 -0.9126  0.3641 -1.0106
 4663SOL    HW225623   1.815   3.044   6.744 -0.3089 -1.2961 -1.6209
 4664SOL     OW25624   1.414   4.319   9.279  0.3337 -0.0453  0.0585
 4664SOL    HW125625   1.404   4.270   9.361 -0.6957  0.2898  0.1227
 4664SOL    HW225626   1.323   4.332   9.253  0.7428  1.0002 -0.8570
 4665SOL     OW25627   1.286   3.539   1.049 -0.3959 -0.0679  0.3757
 4665SOL    HW125628   1.310   3.546   1.142  1.4849 -0.8067 -0.0484
 4665SOL    HW225629   1.220   3.470   1.052  1.1713 -1.5442  1.0441
 4666SOL     OW25630   0.681   2.902   9.661 -0.2360  0.2235  0.7397
 4666SOL    HW125631   0.678   2.912   9.566  1.6297 -0.9546  0.5520
 4666SOL    HW225632   0.595   2.932   9.690 -1.1916 -0.1987 -1.6894
 4667SOL     OW25633   4.544   0.851   4.620  0.0195 -0.5200 -0.5271
 4667SOL    HW125634   4.550   0.903   4.700  1.6340  0.2216 -1.1297
 4667SOL    HW225635   4.561   0.762   4.651  0.5663  0.0015  0.6812
 4668SOL     OW25636   1.662   2.412   6.654  0.3320  0.0856  0.5897
 4668SOL    HW125637   1.618   2.368   6.727  0.1445 -0.7065 -0.0021
 4668SOL    HW225638   1.756   2.410   6.675  0.5004 -1.0316 -0.2731
 4669SOL     OW25639   0.913   3.292   5.793  0.0127  0.4377  0.7776
 4669SOL    HW125640   0.935   3.348   5.867 -1.6489 -0.0293  1.6315
 4669SOL    HW225641   0.990   3.235   5.800 -1.5595 -1.5129  2.0321
 4670SOL     OW25642   1.920   4.060   0.804  0.1505  0.0805 -0.2628
 4670SOL    HW125643   1.844   4.104   0.841 -1.6808 -0.5660 -3.2210
 4670SOL    HW225644   1.882   3.972   0.808  1.6979 -0.4776  1.9641
 4671SOL     OW25645   3.514   3.968   7.991  0.0804 -0.0060 -0.2090
 4671SOL    HW125646   3.421   3.988   7.978  0.3393  1.9718  0.9471
 4671SOL    HW225647   3.530   3.900   7.926  1.7045  0.9803 -0.8282
 4672SOL     OW25648   3.704   4.448   7.224 -0.1140 -0.2041  0.0901
 4672SOL    HW125649   3.646   4.380   7.191 -2.9610  0.9945  2.5711
 4672SOL    HW225650   3.710   4.510   7.151 -1.0076  0.6519  0.7431
 4673SOL     OW25651   1.059   2.318   7.889  0.8772 -0.5301  0.1682
 4673SOL    HW125652   0.964   2.316   7.879  1.2010 -0.5944 -3.1205
 4673SOL    HW225653   1.075   2.241   7.942  2.4661 -1.1247 -1.1515
 4674SOL     OW25654   4.225   3.287   2.003  0.2878 -0.0866 -0.1470
 4674SOL    HW125655   4.254   3.203   1.966 -0.8568 -0.6747  0.3168
 4674SOL    HW225656   4.308   3.331   1.983  1.2559 -1.9291 -0.1856
 4675SOL     OW25657   1.622   3.746   8.849 -0.2692  0.0997  0.0391
 4675SOL    HW125658   1.646   3.739   8.756  0.2536 -0.6518  0.2354
 4675SOL    HW225659   1.691   3.693   8.888  0.3765  2.9484  2.7840
 4676SOL     OW25660   4.397   1.762   6.225  0.9372  0.3597  0.3703
 4676SOL    HW125661   4.341   1.722   6.292 -0.4337 -0.5574 -1.3207
 4676SOL    HW225662   4.336   1.765   6.152  0.2572  2.1156  1.0340
 4677SOL     OW25663   2.700   3.767  11.085  0.5392  0.4826  0.2921
 4677SOL    HW125664   2.641   3.810  11.147 -1.2019  0.1333 -1.1588
 4677SOL    HW225665   2.779   3.822  11.093  0.1547  1.0796 -0.0349
 4678SOL     OW25666   3.928   0.935   7.669 -0.7001 -0.1084 -0.0962
 4678SOL    HW125667   3.838   0.910   7.690 -1.0806  0.9881 -0.4220
 4678SOL    HW225668   3.958   0.845   7.660  2.3638  1.0534 -1.8400
 4679SOL     OW25669   3.906   2.123   2.863  0.0187 -0.3820  0.1469
 4679SOL    HW125670   3.856   2.150   2.785 -0.3109  2.0447  1.1913
 4679SOL    HW225671   3.966   2.197   2.854 -1.5843  0.9732  0.4495
 4680SOL     OW25672   2.535   4.519   2.223 -0.2426  0.4119 -0.4582
 4680SOL    HW125673   2.610   4.486   2.271 -0.0496  2.6156  0.7696
 4680SOL    HW225674   2.562   4.497   2.134 -0.7995 -0.0958 -0.4969
 4681SOL     OW25675   3.637   1.432   3.592 -0.5044 -0.5333 -0.1048
 4681SOL    HW125676   3.639   1.506   3.532 -0.0610 -1.4946 -1.2679
 4681SOL    HW225677   3.715   1.383   3.565  0.5548  1.6406 -0.9740
 4682SOL     OW25678   1.020   2.635   6.682  0.8338 -0.4953 -0.5010
 4682SOL    HW125679   1.088   2.630   6.615 -0.7516 -0.0645 -2.1299
 4682SOL    HW225680   1.069   2.652   6.763 -0.7446 -1.0687  0.5803
 4683SOL     OW25681   2.467   2.021  11.562 -0.7076  0.0307  0.4770
 4683SOL    HW125682   2.458   2.021  11.467 -0.9276 -1.9936  0.4868
 4683SOL    HW225683   2.529   2.091  11.580  0.1893 -0.8182  0.6795
 4684SOL     OW25684   0.698   3.582   2.720  0.5759 -0.3033 -0.0534
 4684SOL    HW125685   0.749   3.503   2.737 -0.5108 -0.8588  0.6230
 4684SOL    HW225686   0.771   3.641   2.739  0.2264 -0.3362  1.3841
 4685SOL     OW25687   3.853   4.382   6.830  0.3121  0.0357  0.0110
 4685SOL    HW125688   3.923   4.380   6.895  1.0707 -1.1257 -0.8404
 4685SOL    HW225689   3.835   4.294   6.797 -2.3449  0.9304 -0.9127
 4686SOL     OW25690   2.843   3.764   6.048 -0.2942  0.1003  0.6872
 4686SOL    HW125691   2.785   3.749   5.973  1.5658  0.1542 -0.7742
 4686SOL    HW225692   2.882   3.847   6.019 -1.4368  0.4308  0.0837
 4687SOL     OW25693   2.310   3.671   3.690 -0.6673 -0.7927  0.0590
 4687SOL    HW125694   2.378   3.732   3.720  0.0517 -1.6449  0.1384
 4687SOL    HW225695   2.242   3.738   3.682 -0.5330 -0.4656  1.6120
 4688SOL     OW25696   1.356   4.360   8.741 -0.0295  0.2114 -0.0323
 4688SOL    HW125697   1.265   4.382   8.759  0.3030  2.2834 -0.8440
 4688SOL    HW225698   1.366   4.283   8.797 -2.1451 -1.3421 -1.7956
 4689SOL     OW25699   3.198   3.923   1.058  0.3331  0.3412  0.0403
 4689SOL    HW125700   3.110   3.887   1.057  0.2642  0.4195  2.4691
 4689SOL    HW225701   3.202   3.962   1.145  0.9462  0.0535  0.1474
 4690SOL     OW25702   2.509   2.830   8.397 -0.0326 -0.1742 -0.3890
 4690SOL    HW125703   2.523   2.740   8.367  2.2465  0.4145 -1.0973
 4690SOL    HW225704   2.575   2.874   8.343  1.3495  0.0229  1.4580
 4691SOL     OW25705   3.440   3.268   0.838 -0.0736 -0.4994  0.4836
 4691SOL    HW125706   3.389   3.198   0.879 -2.8401  1.0458 -0.3928
 4691SOL    HW225707   3.462   3.227   0.754 -1.6714  0.3811 -0.3429
 4692SOL     OW25708   3.208   1.335   6.690 -0.1231 -0.0818  0.0505
 4692SOL    HW125709   3.255   1.416   6.706  2.0080 -1.4377  0.6571
 4692SOL    HW225710   3.123   1.369   6.719  0.4089  1.0148  0.3064
 4693SOL     OW25711   0.113   3.955   3.621 -0.2855  0.1353  0.3000
 4693SOL    HW125712   0.151   3.889   3.678  0.4882 -0.0745 -0.4616
 4693SOL    HW225713   0.022   3.925   3.619  0.0912 -1.0451  1.1802
 4694SOL     OW25714   1.851   2.124   7.327  0.1806  0.4173  0.3377
 4694SOL    HW125715   1.865   2.078   7.410 -0.4555  0.2000  0.3300
 4694SOL    HW225716   1.796   2.058   7.283  1.9467 -2.1570  2.0078
 4695SOL     OW25717   1.516   1.463   9.040 -0.2039 -0.1453  0.1715
 4695SOL    HW125718   1.443   1.495   9.093  1.3078  1.9596  1.0026
 4695SOL    HW225719   1.544   1.550   9.009  0.3221 -0.0450  0.9368
 4696SOL     OW25720   2.154   2.270   8.133  0.2021 -0.2129  0.4597
 4696SOL    HW125721   2.192   2.264   8.221 -0.4675  1.5967  0.8570
 4696SOL    HW225722   2.174   2.355   8.094 -1.2541 -0.1518 -0.1659
 4697SOL     OW25723   0.415   0.597  11.732 -0.5743 -0.2955 -0.0176
 4697SOL    HW125724   0.382   0.509  11.753  1.0186 -1.2866 -1.5680
 4697SOL    HW225725   0.500   0.574  11.694 -1.4948 -3.4402 -0.2577
 4698SOL     OW25726   4.293   3.202   5.211  0.0880 -0.2262  0.2301
 4698SOL    HW125727   4.201   3.200   5.235 -0.0737  1.3981 -0.2238
 4698SOL    HW225728   4.308   3.107   5.204  1.0027 -0.0309 -0.5316
 4699SOL     OW25729   0.254   2.846   8.158 -0.2354  0.0289 -0.8492
 4699SOL    HW125730   0.272   2.911   8.091  0.1542  0.8699  0.0670
 4699SOL    HW225731   0.334   2.793   8.157 -0.4792 -0.3861  0.3846
 4700SOL     OW25732   1.458   3.088   9.833 -0.4989 -0.1405  0.4254
 4700SOL    HW125733   1.529   3.072   9.771 -1.3559 -3.8399  0.4133
 4700SOL    HW225734   1.420   3.000   9.834  0.4734 -0.5848 -1.8129
 4701SOL     OW25735   0.132   0.998   1.799  0.6166 -0.6349 -0.0213
 4701SOL    HW125736   0.106   1.090   1.804 -0.9513 -1.2581  3.1760
 4701SOL    HW225737   0.221   1.011   1.834  0.4336 -0.8166  0.5174
 4702SOL     OW25738   4.189   0.463   0.353 -0.6347  0.1218 -0.7737
 4702SOL    HW125739   4.252   0.533   0.369 -0.4145 -0.1377 -0.4986
 4702SOL    HW225740   4.121   0.512   0.308 -1.0788 -0.1391 -0.3822
 4703SOL     OW25741   0.778   3.455  12.148 -0.0276  0.1358  0.1069
 4703SOL    HW125742   0.795   3.502  12.230  1.7576  0.9814 -0.7400
 4703SOL    HW225743   0.819   3.509  12.081 -0.5620  1.0189  0.4973
 4704SOL     OW25744   1.610   4.001  12.183  0.2241  0.0726 -0.3228
 4704SOL    HW125745   1.646   3.945  12.114  0.6597 -1.6446  1.2922
 4704SOL    HW225746   1.657   4.078  12.153  0.0265  0.5054  0.4874
 4705SOL     OW25747   0.784   1.370   2.971  0.3247 -0.2829  0.1157
 4705SOL    HW125748   0.712   1.307   2.967  2.4766 -2.6951 -0.6942
 4705SOL    HW225749   0.819   1.363   2.882  0.1897 -1.1710  0.1337
 4706SOL     OW25750   0.133   1.885   0.714 -0.5991  0.2760  0.1208
 4706SOL    HW125751   0.119   1.826   0.640 -1.2089  1.9770 -1.1128
 4706SOL    HW225752   0.181   1.955   0.671  2.1151 -1.5601  0.1151
 4707SOL     OW25753   3.312   2.153   4.843  0.7353 -0.3547  0.5309
 4707SOL    HW125754   3.350   2.238   4.823 -1.1967  0.3497 -0.1906
 4707SOL    HW225755   3.351   2.100   4.774  1.8752  0.2942  0.6912
 4708SOL     OW25756   1.273   4.523  12.722 -0.1297  0.3102 -0.4575
 4708SOL    HW125757   1.310   4.611  12.726  0.5370 -0.0837  2.1175
 4708SOL    HW225758   1.327   4.474  12.660 -1.8971 -1.7521 -0.3707
 4709SOL     OW25759   3.494   3.360   7.767 -0.3662 -0.5530 -0.1379
 4709SOL    HW125760   3.470   3.271   7.794  0.5435 -0.5617  0.6545
 4709SOL    HW225761   3.576   3.358   7.816  0.8491  0.0778 -2.1889
 4710SOL     OW25762   3.399   4.493   5.149  0.0057  0.5526  0.1050
 4710SOL    HW125763   3.429   4.405   5.127 -1.5778 -0.0388  0.3559
 4710SOL    HW225764   3.308   4.468   5.132 -0.1750  1.8682 -0.8502
 4711SOL     OW25765   1.622   2.999   3.648  0.3381 -0.4514  0.0915
 4711SOL    HW125766   1.571   3.033   3.575 -0.2391 -0.8682  0.3026
 4711SOL    HW225767   1.682   3.069   3.676  0.3473 -0.3832 -0.0980
 4712SOL     OW25768   0.635   2.801  10.696 -0.0600 -0.3857  0.7111
 4712SOL    HW125769   0.690   2.774  10.769  0.5474 -3.6162 -0.9642
 4712SOL    HW225770   0.697   2.850  10.642 -0.4833 -0.2420  0.3480
 4713SOL     OW25771   3.952   3.203   4.991  0.1760  0.5182 -0.0972
 4713SOL    HW125772   3.925   3.221   5.081 -2.4501 -1.4966 -0.4754
 4713SOL    HW225773   3.940   3.288   4.949 -0.3377  0.7979  0.6127
 4714SOL     OW25774   3.969   2.175  11.152  0.0436 -0.0767  0.6261
 4714SOL    HW125775   4.024   2.252  11.139 -0.0279 -0.2915 -0.9505
 4714SOL    HW225776   3.994   2.119  11.079 -0.3117 -1.7875  1.8019
 4715SOL     OW25777   3.198   0.305   8.977  0.9542  0.2073  0.2240
 4715SOL    HW125778   3.191   0.334   8.886  1.9347 -0.6436 -0.1205
 4715SOL    HW225779   3.287   0.272   8.977  0.9346  0.1669 -1.0587
 4716SOL     OW25780   4.718   0.252   3.269  0.0789  0.3456  0.1334
 4716SOL    HW125781   4.657   0.318   3.302 -2.4814 -0.9476 -1.9331
 4716SOL    HW225782   4.657   0.210   3.208 -0.3742  0.4085  0.5435
 4717SOL     OW25783   3.693   2.131   2.044 -0.0827 -0.4380 -0.2849
 4717SOL    HW125784   3.685   2.112   1.951 -0.2334 -1.2177 -0.1078
 4717SOL    HW225785   3.603   2.133   2.078  0.4216  3.0177  0.8304
 4718SOL     OW25786   2.613   3.851   6.310 -0.5000  0.0310  0.0717
 4718SOL    HW125787   2.687   3.792   6.295  0.0477  0.9108 -0.7283
 4718SOL    HW225788   2.619   3.895   6.394 -1.8870  0.4826 -0.0536
 4719SOL     OW25789   0.484   2.681  13.586 -0.7270  0.7060 -0.1841
 4719SOL    HW125790   0.552   2.707  13.648 -1.7616 -0.9332  1.6523
 4719SOL    HW225791   0.409   2.654  13.640  0.3233 -0.5633  0.6550
 4720SOL     OW25792   4.462   2.799   1.750 -0.3859  0.1466  0.5376
 4720SOL    HW125793   4.468   2.848   1.832  0.2805  0.2586  0.4206
 4720SOL    HW225794   4.547   2.775   1.712 -0.4858  2.5650 -1.2330
 4721SOL     OW25795   2.334   4.129   4.083  0.0618  0.1361 -0.3745
 4721SOL    HW125796   2.399   4.132   4.152 -0.8727 -0.0913  0.5254
 4721SOL    HW225797   2.383   4.090   4.011 -0.2777 -0.7148 -0.1525
 4722SOL     OW25798   0.906   0.845   1.880  1.0567  0.3260  0.1120
 4722SOL    HW125799   0.969   0.779   1.909  0.7636  0.2261  0.5285
 4722SOL    HW225800   0.944   0.883   1.801  0.0018  1.1027 -0.0219
 4723SOL     OW25801   4.667   0.994   4.010 -0.1729 -0.9141 -0.3542
 4723SOL    HW125802   4.633   1.056   3.945 -1.4025 -1.6558 -0.4148
 4723SOL    HW225803   4.714   0.935   3.951  0.1356  0.1366 -1.1690
 4724SOL     OW25804   3.266   1.600   8.158 -0.2979  0.4010 -0.2835
 4724SOL    HW125805   3.342   1.630   8.107 -1.4927  1.9897 -1.1197
 4724SOL    HW225806   3.283   1.506   8.166  1.3726  0.6128 -1.1944
 4725SOL     OW25807   4.003   0.713   4.104 -0.0005 -0.1270  0.5780
 4725SOL    HW125808   4.088   0.695   4.143 -0.2219 -0.4473  0.9154
 4725SOL    HW225809   4.007   0.807   4.092  0.1302 -0.1192  0.6839
 4726SOL     OW25810   1.167   1.589   5.274 -0.1399  0.6804  0.2474
 4726SOL    HW125811   1.160   1.593   5.369  0.3380 -0.9313  0.3447
 4726SOL    HW225812   1.260   1.608   5.264 -0.1548  0.1895 -0.8766
 4727SOL     OW25813   1.572   0.735   3.388  0.1008 -0.2401  0.4225
 4727SOL    HW125814   1.606   0.661   3.338  2.7358  1.3458 -0.1567
 4727SOL    HW225815   1.495   0.699   3.433 -0.1459 -1.2557 -0.8398
 4728SOL     OW25816   4.085   1.944   2.923 -0.5243  0.2309  0.3640
 4728SOL    HW125817   4.077   1.880   2.853  0.6758 -0.4394  0.8389
 4728SOL    HW225818   4.007   1.997   2.906  0.0309  0.8607 -0.1818
 4729SOL     OW25819   3.831   3.001   7.483 -0.4368 -0.1194  0.0093
 4729SOL    HW125820   3.790   3.056   7.549  2.3319  0.3926  1.2939
 4729SOL    HW225821   3.798   2.915   7.509  1.5538 -1.0444 -0.5665
 4730SOL     OW25822   0.434   2.730   0.835 -0.3245 -0.1671 -0.1901
 4730SOL    HW125823   0.505   2.769   0.785  0.3707 -0.7106  0.3718
 4730SOL    HW225824   0.395   2.809   0.871  0.1147  0.9489 -2.1910
 4731SOL     OW25825   3.450   2.027   8.378  0.6375 -0.2830  0.5123
 4731SOL    HW125826   3.373   2.042   8.433  0.7184  1.7008  0.0735
 4731SOL    HW225827   3.435   1.933   8.366  1.4369 -0.3407 -0.0529
 4732SOL     OW25828   3.606   0.875   0.293 -0.4587 -0.2809 -0.1463
 4732SOL    HW125829   3.677   0.812   0.277  0.2059  0.3354  0.3589
 4732SOL    HW225830   3.646   0.940   0.236 -1.1908 -0.7637 -1.1994
 4733SOL     OW25831   1.217   3.346   6.865 -0.5964  0.7502 -0.3694
 4733SOL    HW125832   1.220   3.323   6.958  1.8871  1.3320 -0.3305
 4733SOL    HW225833   1.303   3.333   6.826 -0.6003  1.0338 -0.4727
 4734SOL     OW25834   4.047   2.754   5.395 -0.2140  0.2365 -0.0789
 4734SOL    HW125835   3.993   2.724   5.468 -0.0322  1.4612  0.5445
 4734SOL    HW225836   4.059   2.675   5.342 -0.6710 -0.1614  0.4119
 4735SOL     OW25837   0.847   3.195   7.682  0.4958  0.6362  0.5683
 4735SOL    HW125838   0.882   3.173   7.596 -1.0090  0.8732 -0.1039
 4735SOL    HW225839   0.864   3.289   7.676  0.8311  0.3938 -2.1176
 4736SOL     OW25840   2.566   0.276  10.965 -0.4715 -0.8412  0.1209
 4736SOL    HW125841   2.508   0.200  10.969 -1.0597 -0.4534 -0.8336
 4736SOL    HW225842   2.634   0.253  10.901 -0.3548 -1.4462  0.4633
 4737SOL     OW25843   0.266   0.393  12.569 -0.2490 -0.1285  0.8301
 4737SOL    HW125844   0.247   0.299  12.573 -1.8630  0.0732 -1.9404
 4737SOL    HW225845   0.230   0.422  12.652  0.8367 -0.2169  1.3320
 4738SOL     OW25846   2.652   1.125   6.129 -0.0799 -0.0267 -0.8299
 4738SOL    HW125847   2.630   1.153   6.218 -1.5611 -1.7022 -0.6639
 4738SOL    HW225848   2.668   1.211   6.090  0.1502  0.8048  1.1015
 4739SOL     OW25849   4.604   0.645   5.606 -0.2267  0.4849 -0.4066
 4739SOL    HW125850   4.543   0.665   5.677 -0.6108 -0.1721 -0.5461
 4739SOL    HW225851   4.614   0.549   5.608  4.3913  1.0588  2.4246
 4740SOL     OW25852   4.533   3.222  15.853  0.0615  0.0893  0.1888
 4740SOL    HW125853   4.446   3.191  15.877 -0.4463  1.4156  0.0501
 4740SOL    HW225854   4.591   3.155  15.890 -0.8541  0.0578  1.5736
 4741SOL     OW25855   4.706   1.466   2.362  0.9451 -0.1270 -0.1250
 4741SOL    HW125856   0.007   1.523   2.428 -0.8983 -0.7221  1.4693
 4741SOL    HW225857   0.041   1.437   2.306 -0.8249 -2.1668 -1.3639
 4742SOL     OW25858   2.974   1.448   8.302  0.2440 -0.0491 -0.4685
 4742SOL    HW125859   2.961   1.414   8.390 -1.5274 -1.1109 -1.1424
 4742SOL    HW225860   3.041   1.515   8.315 -0.0438  0.1169  0.1483
 4743SOL     OW25861   3.862   3.251   2.264  0.0497 -0.1356  0.6243
 4743SOL    HW125862   3.873   3.163   2.302  0.2776 -0.6710 -0.6886
 4743SOL    HW225863   3.931   3.306   2.299 -0.6951  1.7306 -0.8926
 4744SOL     OW25864   3.823   2.646   6.815  0.2598  0.2647  0.0475
 4744SOL    HW125865   3.739   2.683   6.789  0.0683 -1.6297 -1.9683
 4744SOL    HW225866   3.805   2.627   6.906 -1.4241 -1.7756 -0.7297
 4745SOL     OW25867   1.990   3.330   3.791  0.0639  0.1805  0.2018
 4745SOL    HW125868   2.029   3.410   3.826  0.9811 -0.0832 -0.2049
 4745SOL    HW225869   2.069   3.282   3.765  1.2246  2.1332  0.1455
 4746SOL     OW25870   3.261   2.911  15.113 -0.2824 -0.1999 -0.4045
 4746SOL    HW125871   3.190   2.911  15.049  0.0050  4.4879 -0.7289
 4746SOL    HW225872   3.288   3.002  15.120  1.6565 -0.5762 -2.9523
 4747SOL     OW25873   0.429   3.339   5.358 -0.5379 -0.2861  0.0686
 4747SOL    HW125874   0.501   3.402   5.361  0.1105 -1.0683  0.7092
 4747SOL    HW225875   0.431   3.308   5.449  1.2957 -1.7524 -0.4744
 4748SOL     OW25876   0.031   3.141   5.619 -0.2018  0.0889  0.5201
 4748SOL    HW125877   4.725   3.093   5.690 -0.4867  2.0569  1.6846
 4748SOL    HW225878   0.114   3.168   5.659  0.7337 -1.0708 -0.6294
 4749SOL     OW25879   3.293   2.346   0.732  0.4271  0.2557 -0.0123
 4749SOL    HW125880   3.262   2.373   0.646  1.3475  0.4554 -0.2852
 4749SOL    HW225881   3.234   2.390   0.793 -0.3486 -1.6524  0.6091
 4750SOL     OW25882   1.831   4.027  16.849  0.4463  0.9298 -0.4758
 4750SOL    HW125883   1.789   3.987  16.925  0.2761  2.8195  0.4295
 4750SOL    HW225884   1.810   4.119  16.868  1.7423  1.7737 -3.1533
 4751SOL     OW25885   4.094   1.808   7.887 -0.2943  0.0527 -0.2073
 4751SOL    HW125886   4.178   1.808   7.842  0.3015 -1.3558  0.9224
 4751SOL    HW225887   4.052   1.886   7.849  2.0318  1.5873  0.3758
 4752SOL     OW25888   4.556   1.051  10.138 -0.2411  0.8677 -0.0349
 4752SOL    HW125889   4.594   0.963  10.150 -0.6462  1.0993  3.0356
 4752SOL    HW225890   4.503   1.029  10.062 -3.6613 -0.3956  2.7123
 4753SOL     OW25891   3.787   0.277   2.498 -0.4293 -0.1000  0.1970
 4753SOL    HW125892   3.857   0.342   2.502 -0.2760 -0.2806  0.4031
 4753SOL    HW225893   3.797   0.241   2.586 -0.8744  0.3618  0.4410
 4754SOL     OW25894   1.216   2.509  11.468 -0.4065  0.5558 -0.7066
 4754SOL    HW125895   1.176   2.479  11.550 -1.0647  3.6422  0.1288
 4754SOL    HW225896   1.286   2.571  11.488 -1.1703  1.5645 -1.1685
 4755SOL     OW25897   0.394   0.662   8.053  0.2088  0.0245  0.2831
 4755SOL    HW125898   0.318   0.711   8.019  2.3490  0.2369 -4.2072
 4755SOL    HW225899   0.439   0.730   8.103  2.4629  0.5449 -2.4754
 4756SOL     OW25900   4.510   4.580  17.700  0.0738  0.7178 -0.5390
 4756SOL    HW125901   4.452   4.623   0.015  0.2236 -0.7266  0.6008
 4756SOL    HW225902   4.567   4.653  17.676  0.6988 -0.3538 -2.3163
 4757SOL     OW25903   0.163   2.403   5.058 -0.3799  0.2938 -0.2080
 4757SOL    HW125904   0.200   2.421   5.144  0.6597  3.1760 -1.2683
 4757SOL    HW225905   0.211   2.466   5.005  1.7304 -1.4160 -0.3204
 4758SOL     OW25906   2.008   0.148   5.195 -0.1483  0.4827 -0.3165
 4758SOL    HW125907   2.057   0.223   5.229  2.0989 -1.1897  0.1273
 4758SOL    HW225908   1.931   0.143   5.252 -0.5020  0.1068 -0.8305
 4759SOL     OW25909   0.699   0.429   5.198  0.0809 -0.3938 -0.1113
 4759SOL    HW125910   0.636   0.482   5.246  2.7463  1.1615  1.6867
 4759SOL    HW225911   0.706   0.477   5.116 -0.1895 -1.1848 -0.6062
 4760SOL     OW25912   2.119   2.576   2.342  0.0068  0.6794 -0.0124
 4760SOL    HW125913   2.156   2.497   2.381 -2.7742  0.0319  1.3406
 4760SOL    HW225914   2.187   2.609   2.284  0.5698 -0.1445  0.1758
 4761SOL     OW25915   0.051   1.290   0.641  0.3628 -0.0243  0.1188
 4761SOL    HW125916   0.051   1.346   0.563  0.6588 -0.1236  0.0468
 4761SOL    HW225917   4.703   1.311   0.677  0.8683  0.1519  1.2250
 4762SOL     OW25918   1.570   3.993   5.444 -0.1159 -0.2615 -0.2351
 4762SOL    HW125919   1.624   4.046   5.385 -1.1014  1.0672  0.0514
 4762SOL    HW225920   1.502   4.055   5.470  1.5523  1.9504 -1.0869
 4763SOL     OW25921   3.764   3.940   7.761  0.2334 -0.2930 -0.1939
 4763SOL    HW125922   3.764   4.013   7.822  0.3294  0.3596 -0.9801
 4763SOL    HW225923   3.853   3.953   7.730  0.0967  0.2559 -0.3563
 4764SOL     OW25924   3.466   4.221   7.484 -0.2045 -0.1157 -0.4244
 4764SOL    HW125925   3.460   4.197   7.577  0.1856 -2.8144 -1.0903
 4764SOL    HW225926   3.377   4.205   7.455 -0.6140 -0.1641  0.8648
 4765SOL     OW25927   0.852   0.420   7.697  0.0818  0.2732  0.4156
 4765SOL    HW125928   0.811   0.350   7.647 -1.1546  3.5234 -3.1840
 4765SOL    HW225929   0.801   0.413   7.778  1.0968  2.0105  1.2012
 4766SOL     OW25930   1.255   4.230  13.904 -0.6056 -0.1564 -0.1071
 4766SOL    HW125931   1.199   4.268  13.972 -0.5664 -2.2291  1.0706
 4766SOL    HW225932   1.194   4.203  13.835  0.4326 -2.7300  0.0021
 4767SOL     OW25933   3.954   3.791   6.641 -0.4029  0.3076  0.1894
 4767SOL    HW125934   4.025   3.743   6.684 -1.1769 -1.9024 -0.9778
 4767SOL    HW225935   3.983   3.845   6.568 -2.3010 -0.1322 -0.8903
 4768SOL     OW25936   0.469   4.028   6.978  0.1010  0.2035  0.1681
 4768SOL    HW125937   0.422   3.945   6.975 -0.8608  0.7293  0.3973
 4768SOL    HW225938   0.402   4.097   6.973  0.4424  0.6156  1.1838
 4769SOL     OW25939   2.345   4.522   8.488  0.3671 -0.0023  0.1816
 4769SOL    HW125940   2.428   4.498   8.447  0.9263  0.3306  1.1152
 4769SOL    HW225941   2.291   4.468   8.430 -0.4096  1.0599 -0.0855
 4770SOL     OW25942   1.220   0.630  15.727  0.1596  0.0772  0.2730
 4770SOL    HW125943   1.292   0.691  15.742  2.5199 -2.6973  0.0468
 4770SOL    HW225944   1.179   0.666  15.648  0.4150  2.6397  1.2947
 4771SOL     OW25945   1.053   0.950   3.675 -0.3347  0.1564 -0.1730
 4771SOL    HW125946   1.085   0.860   3.668  0.1242  0.1183  2.2302
 4771SOL    HW225947   0.958   0.941   3.683  0.1969 -3.0197  2.7455
 4772SOL     OW25948   0.178   4.089  14.058  0.1403 -0.2650  0.3386
 4772SOL    HW125949   0.154   4.019  14.119 -1.2654 -1.0533 -1.1004
 4772SOL    HW225950   0.091   4.123  14.037 -0.2892  1.1928  4.4234
 4773SOL     OW25951   4.622   0.640   1.238  0.2610 -0.1900 -0.5236
 4773SOL    HW125952   4.596   0.552   1.211 -0.3867  0.0818 -0.7799
 4773SOL    HW225953   4.596   0.639   1.330 -2.5787  1.5590 -1.3142
 4774SOL     OW25954   1.367   2.262   8.100 -0.2206  0.1329 -0.8684
 4774SOL    HW125955   1.414   2.189   8.140 -1.6913 -0.2259  0.2218
 4774SOL    HW225956   1.363   2.318   8.177  2.7976 -2.1018  0.9191
 4775SOL     OW25957   2.103   3.339   6.986  0.0577  0.2750  0.7910
 4775SOL    HW125958   2.177   3.373   7.036  1.4742  0.0030 -1.1022
 4775SOL    HW225959   2.042   3.330   7.058  0.4236 -1.1061  0.9376
 4776SOL     OW25960   4.020   2.754   2.175  0.5566  0.5205  0.0003
 4776SOL    HW125961   3.927   2.743   2.196  1.1178 -0.6117  1.9373
 4776SOL    HW225962   4.034   2.659   2.179 -2.6133  0.0652  0.5940
 4777SOL     OW25963   3.704   1.546   8.361  0.0693 -0.0463 -0.3355
 4777SOL    HW125964   3.685   1.605   8.434  3.5322  1.5674 -0.7049
 4777SOL    HW225965   3.800   1.543   8.356 -0.1043 -0.1676 -3.9131
 4778SOL     OW25966   0.678   1.510   7.462 -0.5448 -0.0551 -0.3823
 4778SOL    HW125967   0.701   1.497   7.554 -3.8157  0.4719  0.4972
 4778SOL    HW225968   0.727   1.444   7.413  0.3188 -1.4224  2.3514
 4779SOL     OW25969   1.096   4.625  12.227  0.8720  0.4217  0.2581
 4779SOL    HW125970   1.088   4.534  12.254  3.3801  0.3460  0.7493
 4779SOL    HW225971   1.007   4.660  12.224  1.1269  1.1852  1.7299
 4780SOL     OW25972   3.492   2.534   9.832 -0.7396 -0.0232  0.0880
 4780SOL    HW125973   3.485   2.448   9.790 -1.8731 -0.4671  1.1682
 4780SOL    HW225974   3.527   2.590   9.763  0.6130  0.7002  1.3518
 4781SOL     OW25975   0.719   3.674   8.821 -0.1437 -0.0502 -0.3628
 4781SOL    HW125976   0.800   3.716   8.791 -0.6505  0.9601 -0.3072
 4781SOL    HW225977   0.660   3.694   8.748 -0.8335 -0.8122 -0.0067
 4782SOL     OW25978   4.430   3.673   2.196 -0.1235  0.5398 -0.5939
 4782SOL    HW125979   4.465   3.696   2.283 -0.7175  0.1681 -0.2626
 4782SOL    HW225980   4.476   3.740   2.146 -0.0271  0.4659 -0.6061
 4783SOL     OW25981   2.847   2.297   2.504  0.0183  0.0066  0.5524
 4783SOL    HW125982   2.888   2.383   2.507 -1.7389  0.7676  3.0874
 4783SOL    HW225983   2.762   2.322   2.468  0.4236  0.8617  0.2070
 4784SOL     OW25984   0.890   1.181  15.957 -0.1171 -0.0288 -0.6656
 4784SOL    HW125985   0.934   1.258  15.995 -0.9114 -0.3238  0.8762
 4784SOL    HW225986   0.900   1.119  16.029 -1.3688 -2.0129 -2.2082
 4785SOL     OW25987   2.236   1.215   6.455  0.2003 -0.1784 -0.2945
 4785SOL    HW125988   2.161   1.271   6.477 -0.0206  0.5153 -2.7615
 4785SOL    HW225989   2.301   1.284   6.465 -1.1700  1.1702 -0.6176
 4786SOL     OW25990   1.881   2.285   2.415  0.3071 -0.1531 -0.1025
 4786SOL    HW125991   1.856   2.270   2.506 -0.0668 -0.4805 -0.2606
 4786SOL    HW225992   1.878   2.380   2.401  1.8320 -0.2286 -0.9537
 4787SOL     OW25993   0.262   2.428  14.099 -0.3641  0.0365  0.7055
 4787SOL    HW125994   0.233   2.494  14.035 -1.1311 -1.4999 -0.5210
 4787SOL    HW225995   0.197   2.358  14.095 -0.1646 -0.0792 -0.4921
 4788SOL     OW25996   2.996   1.838  15.021  0.1950 -0.0657 -0.2958
 4788SOL    HW125997   3.018   1.845  14.928  0.4789 -2.8540 -0.4331
 4788SOL    HW225998   2.989   1.744  15.035  0.5605 -0.0535 -0.0393
 4789SOL     OW25999   0.909   0.057   7.007 -0.2421  0.0630  0.4279
 4789SOL    HW126000   0.985   0.001   6.988 -1.6848 -0.8505 -2.7004
 4789SOL    HW226001   0.941   0.144   6.982  1.5580 -0.3456  1.2829
 4790SOL     OW26002   1.523   4.700   5.777  0.4718  0.0771  0.9406
 4790SOL    HW126003   1.601   4.712   5.831  0.8354  2.8152 -0.2265
 4790SOL    HW226004   1.466   0.028   5.817  0.0486 -0.0957  0.6198
 4791SOL     OW26005   2.910   4.387   2.277 -0.9459 -0.0450 -0.4422
 4791SOL    HW126006   2.884   4.477   2.260 -1.8031  0.1962  2.2404
 4791SOL    HW226007   2.938   4.394   2.368  0.0168  0.7435 -0.7968
 4792SOL     OW26008   1.222   1.425   8.037  0.1396 -0.6161  0.0354
 4792SOL    HW126009   1.229   1.380   7.953 -0.9180 -0.0882 -0.3370
 4792SOL    HW226010   1.182   1.356   8.090 -0.7655  0.0269  0.1913
 4793SOL     OW26011   3.476   3.690   8.259  0.2686  0.3991 -0.4392
 4793SOL    HW126012   3.549   3.752   8.257 -0.6591  1.4668 -1.6535
 4793SOL    HW226013   3.516   3.605   8.240  1.1575  0.3276  1.7706
 4794SOL     OW26014   0.239   3.354   1.693  0.0490 -0.4970 -0.4049
 4794SOL    HW126015   0.203   3.443   1.693  0.5102 -0.3066  0.7427
 4794SOL    HW226016   0.165   3.300   1.720 -0.3322  0.3959  0.3525
 4795SOL     OW26017   0.000   1.246   1.798  0.0161  0.9426 -0.1233
 4795SOL    HW126018   4.662   1.303   1.815  0.4055  2.0673 -2.1716
 4795SOL    HW226019   4.735   1.257   1.703  2.6491  0.8662 -0.2012
 4796SOL     OW26020   0.727   2.673   7.825  0.2315 -0.0421  0.4829
 4796SOL    HW126021   0.694   2.654   7.912 -1.3064 -1.4166 -0.4012
 4796SOL    HW226022   0.643   2.662   7.781  1.3284  1.0377 -1.8888
 4797SOL     OW26023   0.791   0.301   0.565 -0.5488 -0.1641  0.4071
 4797SOL    HW126024   0.740   0.221   0.575 -1.9971  0.9964  2.2841
 4797SOL    HW226025   0.725   0.370   0.569 -0.6442 -0.1820 -0.6533
 4798SOL     OW26026   3.286   3.277   2.477  0.2021 -0.3247  0.0820
 4798SOL    HW126027   3.283   3.294   2.383  1.8876 -1.5704 -0.1935
 4798SOL    HW226028   3.220   3.339   2.508  1.5091  1.9730 -1.8302
 4799SOL     OW26029   2.247   2.972  16.403 -0.5009  0.5806  0.3763
 4799SOL    HW126030   2.196   2.908  16.353 -0.9783  1.3863 -0.1684
 4799SOL    HW226031   2.252   2.929  16.488  3.0479  1.3219  0.5215
 4800SOL     OW26032   3.771   0.075   7.657 -0.4511 -0.5811 -0.3357
 4800SOL    HW126033   3.708   0.095   7.726 -0.7472 -1.5493 -0.3277
 4800SOL    HW226034   3.821   0.007   7.703  0.4671  0.9815  0.9802
 4801SOL     OW26035   2.642   3.047   9.161 -0.0533 -0.3527  0.0048
 4801SOL    HW126036   2.640   3.141   9.144  0.0299 -0.1084  1.3589
 4801SOL    HW226037   2.719   3.035   9.217  0.7800 -1.5997 -1.4067
 4802SOL     OW26038   1.853   1.512   4.101  0.5404  0.6121  0.3908
 4802SOL    HW126039   1.882   1.526   4.011 -2.5461 -3.5085 -1.2619
 4802SOL    HW226040   1.883   1.593   4.141 -0.6486  0.4397  1.6146
 4803SOL     OW26041   1.629   1.917   5.619 -0.3209  0.6946  0.0254
 4803SOL    HW126042   1.545   1.932   5.663 -0.8093 -0.7583 -0.4300
 4803SOL    HW226043   1.602   1.850   5.556  0.8424  0.4781 -0.2328
 4804SOL     OW26044   3.902   4.555  15.416 -0.6364  0.0786 -0.4547
 4804SOL    HW126045   3.901   4.525  15.325 -0.4507 -0.5420 -0.2555
 4804SOL    HW226046   3.819   4.513  15.441 -0.6520  1.4878  1.8778
 4805SOL     OW26047   0.520   0.941  14.815 -0.2667  0.1469 -0.2563
 4805SOL    HW126048   0.476   0.858  14.794  1.5985 -0.6527 -1.1178
 4805SOL    HW226049   0.592   0.932  14.752  1.5810 -1.0933  2.0250
 4806SOL     OW26050   3.042   4.643   3.770 -0.3232 -0.1245  0.7179
 4806SOL    HW126051   3.001   4.720   3.731  2.6529  1.0555 -0.0219
 4806SOL    HW226052   3.074   4.596   3.693  1.0093  1.8658  0.0537
 4807SOL     OW26053   0.344   0.016   8.382 -0.0830 -0.6157 -0.3042
 4807SOL    HW126054   0.318   0.097   8.339  2.6580  1.3751  1.7488
 4807SOL    HW226055   0.271   4.693   8.370 -1.6325  0.5368  3.2304
 4808SOL     OW26056   4.183   0.477  13.114  0.3019  0.0772 -0.0969
 4808SOL    HW126057   4.149   0.564  13.091  0.5400  0.0546 -0.5448
 4808SOL    HW226058   4.129   0.452  13.189 -2.3532  1.0493 -1.6879
 4809SOL     OW26059   0.352   4.670   4.176  0.2171  0.6402  0.2970
 4809SOL    HW126060   0.275   4.657   4.121  0.0119  0.9246  0.5214
 4809SOL    HW226061   0.380   0.022   4.156  0.7848  0.3725 -0.1194
 4810SOL     OW26062   0.975   4.122   0.777 -0.3101  0.0910 -0.2592
 4810SOL    HW126063   0.998   4.050   0.836  0.4558  0.4351 -0.1412
 4810SOL    HW226064   0.959   4.194   0.838  1.1079  0.9460 -0.9090
 4811SOL     OW26065   2.267   2.187   8.974 -0.1035 -0.2171  0.2865
 4811SOL    HW126066   2.239   2.168   9.064 -0.3877  0.6586  0.3789
 4811SOL    HW226067   2.336   2.122   8.962 -0.9381 -1.5448  2.7581
 4812SOL     OW26068   3.932   3.684  11.092  0.3403 -0.2421  0.1630
 4812SOL    HW126069   4.008   3.724  11.134 -0.7394  0.1410  1.7911
 4812SOL    HW226070   3.945   3.593  11.117 -0.1889  0.6491  3.8150
 4813SOL     OW26071   4.352   2.810   2.377  0.1365  0.1158  0.1272
 4813SOL    HW126072   4.325   2.901   2.364  0.7960  0.3382  0.3579
 4813SOL    HW226073   4.446   2.821   2.386 -0.0478  1.1607  0.7800
 4814SOL     OW26074   2.190   3.768  11.379 -1.0090 -0.1627  0.3128
 4814SOL    HW126075   2.118   3.829  11.398 -0.6289 -0.2332  1.9281
 4814SOL    HW226076   2.260   3.818  11.421 -1.4415 -0.0863  0.9454
 4815SOL     OW26077   2.490   3.084   0.683 -0.3449  0.5438 -0.8954
 4815SOL    HW126078   2.537   3.049   0.759  0.4512  2.4075 -0.5314
 4815SOL    HW226079   2.402   3.049   0.700 -0.1846  0.2354 -0.6819
 4816SOL     OW26080   0.496   0.079   3.184  0.0211  0.1370 -0.2715
 4816SOL    HW126081   0.426   0.043   3.239  0.2568  0.6922  0.3822
 4816SOL    HW226082   0.560   0.096   3.253 -0.0712  0.4488 -0.2603
 4817SOL     OW26083   4.137   4.086   1.094  0.2766  0.3600  0.0717
 4817SOL    HW126084   4.173   4.071   1.182  1.6890  2.1331 -0.1994
 4817SOL    HW226085   4.193   4.152   1.054 -2.8890  1.0905 -3.1876
 4818SOL     OW26086   0.314   4.203   7.807 -0.1242 -0.0506  0.2501
 4818SOL    HW126087   0.282   4.287   7.772  1.3096 -1.1728 -3.6628
 4818SOL    HW226088   0.285   4.199   7.898 -0.2823 -0.1161  0.1974
 4819SOL     OW26089   3.733   3.571   1.502 -0.0497  0.3489  0.9152
 4819SOL    HW126090   3.741   3.625   1.424  1.3749 -0.7699  0.2865
 4819SOL    HW226091   3.643   3.541   1.491 -0.5546  2.8041 -1.5436
 4820SOL     OW26092   1.493   3.534   9.757  0.3359  0.7493  0.3691
 4820SOL    HW126093   1.490   3.607   9.695  1.2067  2.2276  2.1079
 4820SOL    HW226094   1.557   3.478   9.712 -0.0716  2.0344 -1.8087
 4821SOL     OW26095   0.251   0.360  11.704  0.0519  0.0136  0.1141
 4821SOL    HW126096   0.259   0.302  11.779  1.1599 -1.5619 -1.2248
 4821SOL    HW226097   0.180   0.314  11.660 -0.4923  0.4984  0.4832
 4822SOL     OW26098   1.132   0.521   1.722 -0.3836  0.1836 -0.1776
 4822SOL    HW126099   1.182   0.468   1.660  0.1272  1.3033 -0.7114
 4822SOL    HW226100   1.136   0.478   1.808  1.4507 -1.6332 -1.1632
 4823SOL     OW26101   0.583   1.682   8.159 -0.0882  0.2110 -0.2763
 4823SOL    HW126102   0.646   1.698   8.229 -0.4229  2.2605 -0.4637
 4823SOL    HW226103   0.635   1.685   8.079 -2.5943 -0.4547 -1.9373
 4824SOL     OW26104   2.874   2.165   9.138  0.2319 -0.0409  0.0027
 4824SOL    HW126105   2.958   2.209   9.127  0.7429 -1.1354 -0.4554
 4824SOL    HW226106   2.898   2.073   9.124 -1.3433 -0.3721 -0.5544
 4825SOL     OW26107   2.780   4.051   0.703  0.2047  0.4452  0.3087
 4825SOL    HW126108   2.696   4.092   0.721 -0.5318 -0.5232 -0.9045
 4825SOL    HW226109   2.788   4.066   0.608  0.6772  0.3820  0.3351
 4826SOL     OW26110   1.663   3.256  10.874 -0.1195  0.2794 -0.6959
 4826SOL    HW126111   1.709   3.269  10.791  3.3304 -3.9770  0.5756
 4826SOL    HW226112   1.663   3.344  10.912 -2.2170  0.7043 -1.6502
 4827SOL     OW26113   3.454   0.728   0.433 -0.1895 -0.2663 -0.7096
 4827SOL    HW126114   3.511   0.750   0.506  0.0714  4.6248 -2.4035
 4827SOL    HW226115   3.493   0.788   0.370  0.1630 -0.1310 -0.3579
 4828SOL     OW26116   0.817   3.561   3.283 -0.3643 -0.1220 -0.3265
 4828SOL    HW126117   0.781   3.500   3.220 -0.3655  1.1355 -1.5368
 4828SOL    HW226118   0.793   3.642   3.238  1.1406  0.0132 -0.8685
 4829SOL     OW26119   3.761   3.252   7.619  0.5402 -0.1430  0.4939
 4829SOL    HW126120   3.724   3.207   7.695 -0.1593  0.6090  0.5952
 4829SOL    HW226121   3.681   3.284   7.579  0.4365  0.9656  1.5990
 4830SOL     OW26122   4.225   3.831   7.437 -0.2908 -0.2299  0.1774
 4830SOL    HW126123   4.222   3.736   7.430 -0.9976 -0.1646 -0.3596
 4830SOL    HW226124   4.139   3.859   7.407  1.1500  4.1561  0.0529
 4831SOL     OW26125   4.433   0.959   8.137  0.2230  0.0601  0.7686
 4831SOL    HW126126   4.346   0.918   8.138 -0.0757  0.6880 -0.1895
 4831SOL    HW226127   4.470   0.903   8.205 -1.6611 -1.0810  0.8532
 4832SOL     OW26128   2.864   1.672   6.440 -0.6520  0.0437 -0.4495
 4832SOL    HW126129   2.946   1.660   6.489 -2.1371  1.7681  2.4717
 4832SOL    HW226130   2.803   1.613   6.483  0.7782 -0.2387  1.1786
 4833SOL     OW26131   3.315   4.668   5.847 -0.6543  0.5868 -0.1321
 4833SOL    HW126132   3.278   0.017   5.828  0.2671  0.6261 -1.7735
 4833SOL    HW226133   3.316   4.620   5.764  0.4637 -1.2080  0.9073
 4834SOL     OW26134   0.422   2.078   8.844 -0.5905  0.2071 -0.0753
 4834SOL    HW126135   0.434   2.173   8.842 -1.6291  0.2906 -2.6005
 4834SOL    HW226136   0.506   2.053   8.806 -0.2694  2.0030 -0.5755
 4835SOL     OW26137   3.675   3.850   3.777  0.5001  0.6349  0.2160
 4835SOL    HW126138   3.672   3.755   3.765  0.6426  0.6409  0.1308
 4835SOL    HW226139   3.769   3.857   3.762  0.1161  2.4977 -1.3398
 4836SOL     OW26140   3.466   1.201   5.671  0.7647  0.0077 -0.2684
 4836SOL    HW126141   3.554   1.173   5.698  1.3822  2.5932  0.4422
 4836SOL    HW226142   3.418   1.119   5.682 -0.5581  0.7970 -0.1592
 4837SOL     OW26143   4.336   2.616   7.413 -0.0063  0.0718  0.3452
 4837SOL    HW126144   4.377   2.678   7.473 -0.7934  0.2793  0.6630
 4837SOL    HW226145   4.389   2.617   7.334  2.4828 -1.6816  1.9855
 4838SOL     OW26146   1.058   4.725   5.833  0.1626 -0.2890 -0.3278
 4838SOL    HW126147   1.065   0.054   5.901  0.7126 -0.2207 -0.4522
 4838SOL    HW226148   0.975   4.685   5.861  1.1987 -2.1625  0.0725
 4839SOL     OW26149   0.696   1.070   4.968  0.0597 -0.5545 -0.4772
 4839SOL    HW126150   0.725   1.023   5.046 -1.8910 -0.1951  0.4830
 4839SOL    HW226151   0.777   1.116   4.950  0.7853 -1.1490  1.2611
 4840SOL     OW26152   2.920   0.986  14.538 -0.2006  0.4673 -0.5799
 4840SOL    HW126153   2.896   1.020  14.624 -0.1688 -0.7238 -0.0982
 4840SOL    HW226154   3.012   1.010  14.538 -0.3372  0.9853  1.2345
 4841SOL     OW26155   2.684   0.472  15.612  0.1666  0.2752  0.1083
 4841SOL    HW126156   2.596   0.436  15.602 -0.2767  1.2956  0.3482
 4841SOL    HW226157   2.680   0.567  15.597 -0.6425  0.4613  1.4539
 4842SOL     OW26158   2.977   2.680  16.546  0.0738  0.2031  0.4637
 4842SOL    HW126159   2.892   2.671  16.589 -0.8049 -0.0413 -1.3579
 4842SOL    HW226160   3.000   2.767  16.580 -1.5727  0.5013  0.7919
 4843SOL     OW26161   2.422   2.752   3.955  0.2414  0.0551 -0.2140
 4843SOL    HW126162   2.423   2.664   3.918 -0.8375 -0.3246  0.6411
 4843SOL    HW226163   2.511   2.752   3.989  0.4810  1.1897 -0.8581
 4844SOL     OW26164   3.735   3.817  15.765  0.3436 -0.1248  0.4253
 4844SOL    HW126165   3.746   3.842  15.856 -0.8870  1.8811  0.0288
 4844SOL    HW226166   3.807   3.756  15.753  0.0264 -0.2126 -1.1141
 4845SOL     OW26167   2.938   1.922   1.692  0.6879 -0.0898 -0.1950
 4845SOL    HW126168   2.868   1.860   1.713  2.0102 -0.9344  1.6792
 4845SOL    HW226169   3.002   1.851   1.684  1.6848  1.1599 -3.4175
 4846SOL     OW26170   0.241   3.265  11.408 -0.3261 -0.1539  0.1743
 4846SOL    HW126171   0.300   3.317  11.463  0.9290 -2.1521  0.7156
 4846SOL    HW226172   0.268   3.178  11.436 -0.3648  0.3447  1.7558
 4847SOL     OW26173   3.913   2.916  16.745 -0.2717  0.4958  0.0765
 4847SOL    HW126174   3.933   2.990  16.688 -2.5062  0.3109 -0.9397
 4847SOL    HW226175   3.901   2.850  16.676 -1.5587  0.9413 -0.1297
 4848SOL     OW26176   1.644   1.698  12.758  0.0974  0.2928  0.0656
 4848SOL    HW126177   1.622   1.629  12.696  0.5061  0.4047 -0.2017
 4848SOL    HW226178   1.562   1.692  12.807  0.1215 -1.3487 -0.1027
 4849SOL     OW26179   2.188   3.783   2.965 -0.4897  0.0409  0.8287
 4849SOL    HW126180   2.244   3.794   3.042  0.5459 -0.6009  0.1716
 4849SOL    HW226181   2.163   3.692   2.977 -2.4551  0.6417  1.2312
 4850SOL     OW26182   3.039   4.443   6.792  0.5177 -0.3060 -0.4203
 4850SOL    HW126183   3.095   4.368   6.774 -1.1616 -1.7936  0.6269
 4850SOL    HW226184   3.016   4.438   6.885  1.6457 -1.0661 -0.1873
 4851SOL     OW26185   0.831   4.597   1.241 -0.3401  0.2296  0.0746
 4851SOL    HW126186   0.896   4.613   1.310  0.0210 -1.6665  0.1716
 4851SOL    HW226187   0.805   4.686   1.219  0.7063  0.8313  1.2404
 4852SOL     OW26188   1.482   1.246   8.252  0.5908 -0.1390 -0.1315
 4852SOL    HW126189   1.519   1.167   8.293 -1.0763 -1.6321 -1.4818
 4852SOL    HW226190   1.441   1.216   8.171  1.8372 -1.0713 -0.4114
 4853SOL     OW26191   0.093   0.042   2.762  0.2658  0.5567  0.5509
 4853SOL    HW126192   0.183   0.011   2.750 -0.5423 -1.2708 -0.6852
 4853SOL    HW226193   0.084   0.022   2.855 -1.9356  0.4221  0.3107
 4854SOL     OW26194   3.683   2.703   0.234 -0.4942 -0.1292 -1.0880
 4854SOL    HW126195   3.628   2.636   0.193  0.4245 -0.9317 -1.0224
 4854SOL    HW226196   3.734   2.719   0.155  0.1127  2.2559 -0.1966
 4855SOL     OW26197   2.746   2.226   6.659 -0.0801  0.1771 -0.4599
 4855SOL    HW126198   2.797   2.158   6.703  0.5751  0.1381 -1.2768
 4855SOL    HW226199   2.666   2.175   6.646 -0.9008  1.7084 -1.3461
 4856SOL     OW26200   0.755   0.176   9.132 -0.3313 -0.5453 -0.3591
 4856SOL    HW126201   0.826   0.182   9.069 -0.7094  1.6695 -0.5563
 4856SOL    HW226202   0.754   0.264   9.168 -1.8829 -0.1197 -1.4554
 4857SOL     OW26203   0.450   0.241   5.098  0.4652  0.4086  0.1412
 4857SOL    HW126204   0.407   0.297   5.163  0.5185 -1.4500  1.7973
 4857SOL    HW226205   0.483   0.314   5.045  1.9860 -1.5105 -1.5565
 4858SOL     OW26206   2.749   4.524   7.810 -0.5841 -0.3386 -0.4183
 4858SOL    HW126207   2.716   4.435   7.795 -1.4405 -0.0682 -0.1250
 4858SOL    HW226208   2.817   4.509   7.875  0.9338 -0.5730 -2.0578
 4859SOL     OW26209   1.021   1.068   6.683 -0.5581 -0.2094 -0.4108
 4859SOL    HW126210   1.099   1.056   6.629 -0.1006  0.4935  0.1003
 4859SOL    HW226211   0.966   1.126   6.629  1.0308  1.3377 -0.3744
 4860SOL     OW26212   3.648   0.236   5.256  1.0293  0.3617  0.4195
 4860SOL    HW126213   3.572   0.282   5.291  1.1013  0.8127 -0.0005
 4860SOL    HW226214   3.680   0.300   5.192 -1.1472  0.0543 -0.9662
 4861SOL     OW26215   2.427   0.862   7.112 -0.0597 -0.0923 -0.0643
 4861SOL    HW126216   2.518   0.850   7.081  0.1554 -0.1728  0.6077
 4861SOL    HW226217   2.383   0.871   7.027  0.3850  2.7484  0.0267
 4862SOL     OW26218   1.174   3.148   8.737  0.3659 -0.0227 -0.1098
 4862SOL    HW126219   1.217   3.153   8.652  1.5414  2.5558  0.6352
 4862SOL    HW226220   1.215   3.223   8.780 -1.7177  0.0268  1.8271
 4863SOL     OW26221   2.496   1.090   2.897 -0.0328 -0.2203  0.4343
 4863SOL    HW126222   2.400   1.094   2.905  0.0824  0.6556  1.3444
 4863SOL    HW226223   2.506   1.152   2.825  2.5852 -2.6022 -1.2592
 4864SOL     OW26224   0.967   3.298   9.391 -0.1255 -0.8000 -0.1919
 4864SOL    HW126225   0.890   3.341   9.354  1.2770  1.2924 -0.6938
 4864SOL    HW226226   0.925   3.244   9.458  0.6685 -0.7475  0.3443
 4865SOL     OW26227   1.617   1.538   9.753  0.3623 -0.0113  0.4095
 4865SOL    HW126228   1.593   1.598   9.824 -1.8829  0.3224 -0.6316
 4865SOL    HW226229   1.671   1.597   9.701  0.5140 -1.4894 -1.1320
 4866SOL     OW26230   1.586   3.026  14.817  0.1362 -0.7045  0.7211
 4866SOL    HW126231   1.632   2.950  14.850 -0.5076 -1.3792  0.0599
 4866SOL    HW226232   1.660   3.063  14.768 -1.6623  4.1671  1.6366
 4867SOL     OW26233   2.920   2.778   5.835 -0.0348 -0.6754  0.4236
 4867SOL    HW126234   2.885   2.856   5.878 -1.8710 -0.8524 -0.7160
 4867SOL    HW226235   2.855   2.758   5.768 -1.2164  0.3245  1.2658
 4868SOL     OW26236   2.540   4.207   3.203 -0.1144  0.2379  0.0888
 4868SOL    HW126237   2.583   4.136   3.249  0.6333 -0.2479 -1.3593
 4868SOL    HW226238   2.592   4.211   3.123 -0.3161  2.1163  0.0509
 4869SOL     OW26239   2.283   3.313   7.580 -0.0707 -0.0940 -0.2552
 4869SOL    HW126240   2.346   3.333   7.511  0.4194  0.3891  0.3301
 4869SOL    HW226241   2.254   3.397   7.616  1.2246  0.1066  0.3044
 4870SOL     OW26242   1.389   4.124  16.789  0.0917  0.2966  0.3203
 4870SOL    HW126243   1.362   4.182  16.718 -1.7084 -0.6564  0.2038
 4870SOL    HW226244   1.476   4.096  16.762  0.3003  1.1207  0.1420
 4871SOL     OW26245   1.308   4.014   7.667 -0.3006  0.0808 -0.1928
 4871SOL    HW126246   1.304   3.928   7.626  0.6215  0.2231 -0.5840
 4871SOL    HW226247   1.215   4.031   7.654 -0.4563 -0.3827  0.3238
 4872SOL     OW26248   3.132   2.387   8.239  0.4427  0.3712 -0.6405
 4872SOL    HW126249   3.062   2.326   8.262 -0.5380  1.4121 -0.9038
 4872SOL    HW226250   3.198   2.370   8.306 -1.0370 -4.1992 -0.3467
 4873SOL     OW26251   3.417   4.724   3.619  0.3983 -0.6121  0.0597
 4873SOL    HW126252   3.508   4.695   3.616  0.2866 -1.0883  1.0797
 4873SOL    HW226253   3.381   4.642   3.652  0.2694 -1.1076 -1.3202
 4874SOL     OW26254   0.361   2.794   6.336  0.1134 -0.4299 -0.1325
 4874SOL    HW126255   0.337   2.822   6.248  0.0377 -0.0629  0.0045
 4874SOL    HW226256   0.442   2.844   6.346  0.0953 -0.1242 -1.5972
 4875SOL     OW26257   2.535   2.529   1.929  0.3861  0.1741 -0.3721
 4875SOL    HW126258   2.600   2.531   1.999  0.8733 -0.8742 -0.8022
 4875SOL    HW226259   2.550   2.440   1.898 -1.6211 -0.0247 -0.7329
 4876SOL     OW26260   2.944   4.233   5.795 -0.6156 -0.6878  0.2831
 4876SOL    HW126261   3.027   4.278   5.784 -0.2281 -1.1587  1.2834
 4876SOL    HW226262   2.883   4.292   5.840  0.4831 -0.3749  1.3422
 4877SOL     OW26263   2.550   4.006   4.523  0.4451 -0.5823 -0.5302
 4877SOL    HW126264   2.619   3.979   4.584  0.7287  3.0113  0.7020
 4877SOL    HW226265   2.469   3.993   4.572  1.4799 -1.4333  0.9307
 4878SOL     OW26266   0.809   3.067   7.926  0.1688 -1.0282 -0.3208
 4878SOL    HW126267   0.784   3.151   7.964 -2.4315 -2.6827  1.6213
 4878SOL    HW226268   0.825   3.101   7.838  3.0836 -4.1910 -1.0025
 4879SOL     OW26269   0.668   3.062   5.350  0.3921 -0.1673 -0.2568
 4879SOL    HW126270   0.652   3.154   5.372 -1.6938 -0.8955  1.1875
 4879SOL    HW226271   0.660   3.030   5.440  2.6444 -1.1317 -0.4023
 4880SOL     OW26272   1.975   4.070   5.976  0.4428 -0.3501 -1.0274
 4880SOL    HW126273   1.928   4.058   5.894 -1.3234 -0.3960 -0.0016
 4880SOL    HW226274   1.993   3.984   6.016 -1.9766 -0.8586 -1.0033
 4881SOL     OW26275   2.659   1.203   8.311 -0.3623 -0.3943 -0.2983
 4881SOL    HW126276   2.717   1.276   8.335 -0.1587 -0.7070  0.1488
 4881SOL    HW226277   2.714   1.181   8.235 -0.7153 -1.9160 -0.1083
 4882SOL     OW26278   4.572   3.580  15.676  1.2734 -0.3545 -0.5243
 4882SOL    HW126279   4.509   3.545  15.613  0.3904 -1.4784  0.9582
 4882SOL    HW226280   4.582   3.670  15.647  1.1366 -0.2519 -0.2533
 4883SOL     OW26281   3.361   3.012   7.072 -0.1429 -0.0443  0.0886
 4883SOL    HW126282   3.402   3.081   7.020 -0.0684 -1.5779 -1.8809
 4883SOL    HW226283   3.269   3.016   7.047 -0.3383  0.9663  0.9502
 4884SOL     OW26284   1.661   1.446   1.217 -0.0360 -0.1585  0.5409
 4884SOL    HW126285   1.578   1.494   1.221  0.6830  1.0558  1.0518
 4884SOL    HW226286   1.618   1.362   1.234 -0.1415  0.1425  1.7896
 4885SOL     OW26287   1.002   1.274   9.015 -0.7203 -0.1819  0.1226
 4885SOL    HW126288   0.957   1.344   9.062 -0.1366  0.5750 -0.4449
 4885SOL    HW226289   1.064   1.247   9.083  1.3005  0.9534 -1.2692
 4886SOL     OW26290   0.125   2.478   3.839  0.2413 -0.6390  0.3822
 4886SOL    HW126291   0.216   2.454   3.857  0.5238 -0.4072 -0.7415
 4886SOL    HW226292   0.114   2.437   3.753  0.9493 -0.7158  0.3288
 4887SOL     OW26293   0.046   3.856  15.363  0.2104  0.0529 -0.3532
 4887SOL    HW126294   0.083   3.939  15.332  0.2467 -0.6740 -2.2437
 4887SOL    HW226295   4.699   3.876  15.322  0.2390 -0.1726 -0.5267
 4888SOL     OW26296   2.934   1.842   2.954  0.0154 -0.1315 -0.0880
 4888SOL    HW126297   2.962   1.876   2.869  1.4083  0.1057  0.4679
 4888SOL    HW226298   2.844   1.877   2.951 -0.5195 -1.5615 -0.7972
 4889SOL     OW26299   3.546   1.100   4.082  0.1302 -0.3182 -0.1588
 4889SOL    HW126300   3.458   1.064   4.076 -0.3407  0.5801  1.4383
 4889SOL    HW226301   3.570   1.108   3.990 -0.1915 -0.4687 -0.2569
 4890SOL     OW26302   0.396   3.483   7.590  0.0962 -0.0291  0.3041
 4890SOL    HW126303   0.454   3.453   7.660  0.3000 -0.2008  0.0643
 4890SOL    HW226304   0.454   3.454   7.519 -0.0072 -1.7240  0.9134
 4891SOL     OW26305   3.665   0.979   2.348 -0.3502  0.1743 -0.0716
 4891SOL    HW126306   3.683   1.056   2.402  1.1941  0.1065 -0.4919
 4891SOL    HW226307   3.746   0.928   2.354 -1.6164 -1.7479  0.9700
 4892SOL     OW26308   0.932   2.380  13.216 -0.0698  0.0340  0.0674
 4892SOL    HW126309   0.898   2.314  13.276 -0.2129  1.9726  2.0908
 4892SOL    HW226310   0.847   2.402  13.178 -0.8100 -1.0217  1.1516
 4893SOL     OW26311   2.309   3.625  11.187  0.1925  0.6405  0.5192
 4893SOL    HW126312   2.262   3.668  11.258 -1.3834 -0.0169 -0.1202
 4893SOL    HW226313   2.396   3.617  11.226 -0.4037 -3.5706  1.0348
 4894SOL     OW26314   2.433   0.013   5.723 -0.1918  0.6740 -0.6439
 4894SOL    HW126315   2.364   0.034   5.786  1.7456  2.6088  0.8224
 4894SOL    HW226316   2.489   4.686   5.765 -0.9166 -0.6742 -1.7511
 4895SOL     OW26317   0.715   0.623   4.982 -0.4487  0.0380 -0.1732
 4895SOL    HW126318   0.700   0.710   4.943 -1.0379  1.7501  3.9086
 4895SOL    HW226319   0.762   0.576   4.913 -0.1405 -1.9441  1.4081
 4896SOL     OW26320   0.880   4.542  10.877 -0.0957  0.3354  0.0338
 4896SOL    HW126321   0.800   4.501  10.910 -0.3086  1.4778  0.9179
 4896SOL    HW226322   0.852   4.567  10.789 -0.2495 -1.4058 -0.4193
 4897SOL     OW26323   4.340   2.267   3.938  0.0820  0.3666  0.1494
 4897SOL    HW126324   4.258   2.251   3.891  0.4183  0.1862 -0.3703
 4897SOL    HW226325   4.406   2.296   3.875 -1.1021  2.5941 -0.0688
 4898SOL     OW26326   0.099   2.598  12.291  0.0323  0.2820 -0.6022
 4898SOL    HW126327   0.059   2.617  12.376  1.2211 -1.8421  0.4460
 4898SOL    HW226328   0.125   2.507  12.306  3.4885  1.7362  2.2604
 4899SOL     OW26329   4.562   2.104   0.605 -0.4709  0.1355 -0.1535
 4899SOL    HW126330   4.535   2.013   0.607  1.3325 -0.3340  2.6394
 4899SOL    HW226331   4.632   2.109   0.539 -1.0902 -1.1788 -0.9097
 4900SOL     OW26332   1.840   4.254   6.324 -0.1249  0.7037  0.9393
 4900SOL    HW126333   1.914   4.216   6.372 -1.9804 -1.0427  2.3979
 4900SOL    HW226334   1.857   4.229   6.233  1.0081 -1.4046  1.7382
 4901SOL     OW26335   0.663   0.421   7.071 -0.1532  0.2362  0.2648
 4901SOL    HW126336   0.586   0.478   7.079  0.6379  1.4713 -0.8558
 4901SOL    HW226337   0.644   0.350   7.132  1.2777  1.2987  1.9321
 4902SOL     OW26338   3.159   1.021   4.454 -0.8233 -0.3787  0.2608
 4902SOL    HW126339   3.239   1.039   4.504 -1.3160  0.2187  0.8219
 4902SOL    HW226340   3.113   0.955   4.507  1.3125 -0.7844  1.6232
 4903SOL     OW26341   4.575   3.211   3.673 -0.1710  0.6269 -0.5073
 4903SOL    HW126342   4.627   3.242   3.599  2.2913 -0.1713  0.8609
 4903SOL    HW226343   4.622   3.132   3.701  0.0567  0.6891 -0.7129
 4904SOL     OW26344   4.119   2.490   7.554  0.1114  0.1846 -0.4769
 4904SOL    HW126345   4.134   2.538   7.635  1.5814 -0.3972 -0.4010
 4904SOL    HW226346   4.188   2.526   7.497 -1.3480 -0.5701 -2.7409
 4905SOL     OW26347   3.153   3.406   7.247 -0.2810  0.0536 -0.3521
 4905SOL    HW126348   3.216   3.446   7.307 -1.1464 -1.0722  1.2996
 4905SOL    HW226349   3.146   3.468   7.174  2.0113  1.5133  0.6671
 4906SOL     OW26350   2.272   2.470   8.986 -0.1291  0.0814 -0.0760
 4906SOL    HW126351   2.311   2.507   8.907  1.8946 -1.4044  0.2255
 4906SOL    HW226352   2.276   2.376   8.969 -4.7798 -0.6222  2.6668
 4907SOL     OW26353   3.814   2.761   8.982  0.5162  0.2006 -0.6890
 4907SOL    HW126354   3.898   2.736   9.021 -0.3356 -0.7282  0.5610
 4907SOL    HW226355   3.821   2.853   9.005  2.2030  0.5337 -2.5809
 4908SOL     OW26356   1.255   4.475  14.362  0.0225 -0.1232  0.6615
 4908SOL    HW126357   1.251   4.532  14.438 -0.1671  0.3436  0.3044
 4908SOL    HW226358   1.206   4.532  14.302 -0.1606 -1.5359 -0.5489
 4909SOL     OW26359   2.149   2.446   6.197  0.4020 -0.3430  0.3522
 4909SOL    HW126360   2.079   2.454   6.262 -0.7846  1.2097 -1.1262
 4909SOL    HW226361   2.112   2.487   6.119  0.1526  0.0685  0.6903
 4910SOL     OW26362   2.189   2.219   8.704 -0.1651 -0.2517  0.1724
 4910SOL    HW126363   2.194   2.227   8.799  1.1414 -0.5948  0.1241
 4910SOL    HW226364   2.282   2.215   8.684  0.0130  0.3536  0.8617
 4911SOL     OW26365   3.752   4.499   1.318  0.2824  0.1926 -0.1169
 4911SOL    HW126366   3.678   4.490   1.258  2.0501  0.7486 -2.3688
 4911SOL    HW226367   3.710   4.528   1.399 -1.8717 -1.5496 -0.5885
 4912SOL     OW26368   4.724   1.839   9.863  0.2734  0.5523  0.0910
 4912SOL    HW126369   0.007   1.878   9.779  0.5505 -0.2125 -0.2015
 4912SOL    HW226370   0.060   1.867   9.918  0.0990 -1.7302  1.5302
 4913SOL     OW26371   4.175   1.640  17.701 -0.1303  0.3450 -0.0386
 4913SOL    HW126372   4.209   1.719  17.659 -0.0024  1.2974  1.8453
 4913SOL    HW226373   4.233   1.637   0.029  1.7011 -0.9740 -1.5010
 4914SOL     OW26374   2.997   4.151   8.824 -0.5154  0.2675  0.0171
 4914SOL    HW126375   3.078   4.109   8.798 -1.0970  0.7624 -2.5479
 4914SOL    HW226376   3.027   4.238   8.853 -1.3981  0.1373  1.3418
 4915SOL     OW26377   0.019   4.715   0.387  0.2496 -0.1009 -0.3052
 4915SOL    HW126378   4.706   4.658   0.329  2.5440 -1.4311 -0.9713
 4915SOL    HW226379   0.098   4.727   0.335  1.6198  0.3499  1.9125
 4916SOL     OW26380   3.157   1.513   9.650  0.7069  0.0129 -0.1070
 4916SOL    HW126381   3.155   1.417   9.653  0.6272  0.0068 -0.4114
 4916SOL    HW226382   3.245   1.520   9.688  0.4056 -0.5910  0.7119
 4917SOL     OW26383   2.333   0.137  17.014 -0.4915 -0.4157  0.0497
 4917SOL    HW126384   2.372   0.224  17.009 -0.4601 -0.3730  1.0958
 4917SOL    HW226385   2.370   0.099  17.093 -1.3711  2.5054  1.8549
 4918SOL     OW26386   2.517   1.649  15.115  0.1469 -0.5820  0.7688
 4918SOL    HW126387   2.482   1.572  15.069  0.9277 -0.7489  0.4580
 4918SOL    HW226388   2.449   1.716  15.119 -1.9438 -2.6659  0.1042
 4919SOL     OW26389   0.079   1.586   1.303  0.2192 -0.6975  0.3187
 4919SOL    HW126390   0.004   1.616   1.352 -0.2745 -0.2340 -0.7224
 4919SOL    HW226391   0.114   1.667   1.266 -0.1066 -0.7399 -0.0815
 4920SOL     OW26392   1.318   3.364   3.481 -0.5584  0.8469 -0.9701
 4920SOL    HW126393   1.253   3.315   3.532 -0.1342  0.9871 -0.2940
 4920SOL    HW226394   1.377   3.385   3.553 -0.1612 -0.5964 -0.8776
 4921SOL     OW26395   3.833   1.251   3.959 -0.0709 -0.5435 -0.0894
 4921SOL    HW126396   3.839   1.155   3.956  0.9049 -0.5001  0.5636
 4921SOL    HW226397   3.920   1.271   3.925  0.3977  0.1574  1.5339
 4922SOL     OW26398   3.296   3.874   5.234  0.5579 -0.2800 -0.2862
 4922SOL    HW126399   3.248   3.841   5.309  1.3628 -0.5554  0.1121
 4922SOL    HW226400   3.306   3.965   5.264  1.4465 -1.3712  2.6502
 4923SOL     OW26401   0.687   1.282  12.716 -0.1879 -0.3996  0.0810
 4923SOL    HW126402   0.595   1.303  12.702  0.1221  0.3280 -0.8617
 4923SOL    HW226403   0.687   1.193  12.680  4.9318  0.0617 -1.0917
 4924SOL     OW26404   4.674   4.229   1.221  0.5230  0.0717 -0.1208
 4924SOL    HW126405   4.630   4.254   1.302 -0.4230  0.6715 -0.8136
 4924SOL    HW226406   0.029   4.241   1.241  0.4459  3.2111 -1.6172
 4925SOL     OW26407   1.755   3.477   8.839 -0.2803  0.0520  0.1377
 4925SOL    HW126408   1.825   3.427   8.798  1.3441 -0.0059  2.9437
 4925SOL    HW226409   1.720   3.413   8.901 -1.5313  2.0527  1.4929
 4926SOL     OW26410   4.472   1.285   4.653 -0.2666 -0.1658 -0.0480
 4926SOL    HW126411   4.529   1.211   4.632 -0.5266 -0.5597  0.6198
 4926SOL    HW226412   4.515   1.307   4.736 -0.2363  0.1055 -0.1387
 4927SOL     OW26413   2.405   3.386   2.417 -0.2341 -0.0896 -0.2106
 4927SOL    HW126414   2.468   3.316   2.404 -0.6257 -0.3363 -0.8042
 4927SOL    HW226415   2.318   3.347   2.403 -0.3725  0.3547 -0.6255
 4928SOL     OW26416   0.048   4.582   8.162 -0.2111  0.1317  0.1769
 4928SOL    HW126417   4.703   4.570   8.115  1.0411 -2.0667 -1.5212
 4928SOL    HW226418   0.020   4.553   8.249  0.1186  0.9453  0.5512
 4929SOL     OW26419   4.648   4.027   6.733  0.3100  0.0777 -0.3215
 4929SOL    HW126420   4.626   3.955   6.792 -0.0046 -0.6228 -1.2980
 4929SOL    HW226421   0.004   4.036   6.751  0.2780 -0.2271  0.0016
 4930SOL     OW26422   2.253   0.439   5.062  0.0142  0.0876  0.0031
 4930SOL    HW126423   2.275   0.454   4.970 -0.1374  1.0026  0.1069
 4930SOL    HW226424   2.159   0.454   5.062  0.1444  0.8237 -2.1423
 4931SOL     OW26425   4.214   3.136   6.261  0.3738 -0.1323 -0.1794
 4931SOL    HW126426   4.266   3.086   6.324  0.3421  0.1492  0.0734
 4931SOL    HW226427   4.254   3.101   6.182 -0.6760  1.9213 -1.6230
 4932SOL     OW26428   3.986   3.677   9.562  0.0825 -0.0497 -0.0777
 4932SOL    HW126429   4.001   3.583   9.568  0.9457  0.1766  1.2428
 4932SOL    HW226430   3.968   3.695   9.655  0.3872 -0.1490 -0.0021
 4933SOL     OW26431   0.075   1.244  10.583 -0.5067 -0.2141 -0.5309
 4933SOL    HW126432   0.143   1.244  10.650 -1.1693  0.5347  0.1483
 4933SOL    HW226433   4.734   1.247  10.639 -0.5887 -1.4115 -0.5828
 4934SOL     OW26434   0.806   0.562  14.368 -0.1092  0.9057  0.7032
 4934SOL    HW126435   0.790   0.533  14.278 -1.9940  1.1783  0.9611
 4934SOL    HW226436   0.720   0.597  14.388 -0.0839  1.1566  0.3852
 4935SOL     OW26437   3.498   0.272   2.464 -0.8603  0.7382  0.5212
 4935SOL    HW126438   3.588   0.304   2.460 -0.4115 -0.6474 -0.5463
 4935SOL    HW226439   3.439   0.335   2.424 -3.8038 -2.5013 -0.2737
 4936SOL     OW26440   2.180   2.188   8.399 -0.0186 -0.4266 -0.0430
 4936SOL    HW126441   2.269   2.154   8.400 -0.2797 -1.0916  0.9492
 4936SOL    HW226442   2.172   2.230   8.484 -0.5531  0.2227 -0.4157
 4937SOL     OW26443   1.140   1.748  15.217  0.2780 -0.4192 -0.1044
 4937SOL    HW126444   1.103   1.703  15.141  0.6361  1.4611 -1.3969
 4937SOL    HW226445   1.074   1.818  15.222  1.2018  0.4593 -0.1483
 4938SOL     OW26446   1.288   4.439   3.483  0.2925  0.2949 -0.6670
 4938SOL    HW126447   1.217   4.501   3.466  0.1181 -0.0053 -1.0293
 4938SOL    HW226448   1.362   4.493   3.513 -0.1686  1.5650 -1.8301
 4939SOL     OW26449   0.057   4.055   4.499 -0.4476 -0.1147  0.0635
 4939SOL    HW126450   0.152   4.064   4.507 -0.1701 -1.3487 -1.9346
 4939SOL    HW226451   0.052   4.053   4.403  0.9999  1.6759 -0.0571
 4940SOL     OW26452   0.687   2.291   8.090 -0.1794 -0.5838  0.1757
 4940SOL    HW126453   0.615   2.347   8.120 -0.6130 -1.1633  0.2119
 4940SOL    HW226454   0.684   2.306   7.996  0.4966 -0.4760  0.1664
 4941SOL     OW26455   2.140   1.478   4.848 -0.3663  0.3715 -0.4746
 4941SOL    HW126456   2.220   1.529   4.860  1.0452 -1.4279 -2.3647
 4941SOL    HW226457   2.160   1.393   4.887  0.4473  0.0072 -1.6982
 4942SOL     OW26458   1.583   0.350   2.320 -0.3974  0.4319  0.1437
 4942SOL    HW126459   1.493   0.333   2.291 -1.2550  1.3452  2.2091
 4942SOL    HW226460   1.592   0.276   2.380 -0.8815 -0.3242 -0.7144
 4943SOL     OW26461   1.716   3.429   4.203  0.2638 -0.2286  0.4947
 4943SOL    HW126462   1.730   3.405   4.111 -2.8045  1.3450 -0.3671
 4943SOL    HW226463   1.624   3.404   4.211  0.4143 -0.6315  1.0179
 4944SOL     OW26464   4.402   0.081   0.646  0.5638  0.3343  0.0549
 4944SOL    HW126465   4.486   0.093   0.602  0.4508 -0.3080 -0.3297
 4944SOL    HW226466   4.432   0.039   0.727 -0.8605 -0.7028  0.0413
 4945SOL     OW26467   3.998   2.420   8.368 -0.3555  0.0315  0.1457
 4945SOL    HW126468   4.036   2.499   8.328  0.3166  0.8784  2.4392
 4945SOL    HW226469   3.969   2.371   8.291  1.7583  2.9963 -2.5742
 4946SOL     OW26470   0.692   1.743  10.935  0.2707 -0.2041 -0.3210
 4946SOL    HW126471   0.607   1.788  10.937  0.3275 -0.0066 -2.8414
 4946SOL    HW226472   0.761   1.809  10.944  1.9290 -1.7375 -1.9264
 4947SOL     OW26473   1.767   2.835   8.754  0.3051 -0.1468 -0.3587
 4947SOL    HW126474   1.860   2.846   8.732 -0.0235 -1.9350 -2.5837
 4947SOL    HW226475   1.719   2.906   8.711  0.4150  0.4898  0.5723
 4948SOL     OW26476   2.539   1.497  12.227  0.0543  0.3260  0.4771
 4948SOL    HW126477   2.469   1.482  12.290 -1.5690  0.1770 -1.3674
 4948SOL    HW226478   2.507   1.456  12.147  0.9179  0.7870 -0.1018
 4949SOL     OW26479   1.926   0.856   5.549  0.2625  0.2891 -0.0540
 4949SOL    HW126480   1.933   0.762   5.564  0.4157  0.0848 -1.4990
 4949SOL    HW226481   1.925   0.884   5.641 -1.2484 -2.8658  0.8848
 4950SOL     OW26482   4.101   2.645   4.394  0.3325  0.9571 -0.3361
 4950SOL    HW126483   4.023   2.682   4.435 -0.3458 -1.0004  0.1553
 4950SOL    HW226484   4.133   2.714   4.336  0.1912 -0.1948 -1.7758
 4951SOL     OW26485   0.028   1.835   6.807  0.2544 -0.1855  0.1634
 4951SOL    HW126486   0.097   1.840   6.873  0.7148  2.8105 -0.5483
 4951SOL    HW226487   0.053   1.904   6.745 -0.2601  1.4676  1.7714
 4952SOL     OW26488   1.919   2.418   4.616  0.4581 -0.5450  0.6913
 4952SOL    HW126489   1.986   2.449   4.676  2.9772  1.8710 -3.4241
 4952SOL    HW226490   1.877   2.361   4.680 -1.7005 -1.8226 -1.8618
 4953SOL     OW26491   0.090   3.805  10.950 -0.2590  0.6662 -0.0658
 4953SOL    HW126492   0.150   3.761  11.010 -0.8373 -1.0524 -0.7541
 4953SOL    HW226493   0.019   3.740  10.948  1.2550 -1.0727  2.2067
 4954SOL     OW26494   2.972   1.816   5.880 -0.1726 -0.1611 -0.5208
 4954SOL    HW126495   3.033   1.809   5.807 -0.1310 -2.2893 -0.2732
 4954SOL    HW226496   2.961   1.723   5.901 -0.7422 -0.3010 -1.4735
 4955SOL     OW26497   0.012   1.493   4.093  0.3721 -1.1370 -0.5210
 4955SOL    HW126498   4.666   1.474   4.051 -0.4429  2.1587 -0.3554
 4955SOL    HW226499   0.063   1.417   4.063  0.2650 -2.1435  1.8424
 4956SOL     OW26500   1.661   3.671   3.332 -0.0994 -0.0158  0.7807
 4956SOL    HW126501   1.713   3.722   3.270  0.7151 -3.0221 -1.0219
 4956SOL    HW226502   1.596   3.648   3.266  0.4563 -0.3182  0.3398
 4957SOL     OW26503   4.188   1.587   8.969 -0.3765  0.3949 -0.2887
 4957SOL    HW126504   4.149   1.632   9.043 -3.7940 -2.2361 -0.5144
 4957SOL    HW226505   4.118   1.594   8.904  0.7631 -1.0616 -1.6808
 4958SOL     OW26506   2.804   3.217   0.337  0.2112  0.5910 -0.2046
 4958SOL    HW126507   2.728   3.218   0.279  0.6511  0.1541 -0.7853
 4958SOL    HW226508   2.754   3.220   0.419 -0.1323  1.4384 -0.4460
 4959SOL     OW26509   2.821   3.785   7.441 -0.0544 -0.0267  0.1712
 4959SOL    HW126510   2.910   3.755   7.422 -0.4607 -2.6282  2.5107
 4959SOL    HW226511   2.848   3.877   7.451  1.7782 -0.4779 -0.6821
 4960SOL     OW26512   3.685   2.745  10.905 -0.5112  0.6546 -0.5241
 4960SOL    HW126513   3.659   2.654  10.920 -2.4642  1.3991  0.5894
 4960SOL    HW226514   3.609   2.785  10.946 -0.8849  0.1672 -0.7505
 4961SOL     OW26515   2.989   2.131   7.299  0.0627 -0.4147  0.3972
 4961SOL    HW126516   2.907   2.095   7.263  0.3855  0.9870 -1.7173
 4961SOL    HW226517   3.053   2.068   7.265  0.8777  0.0485  1.0826
 4962SOL     OW26518   2.570   0.037   8.543 -0.4451 -0.3482 -0.0253
 4962SOL    HW126519   2.509   0.015   8.473 -0.0627  3.0365 -1.4639
 4962SOL    HW226520   2.513   0.073   8.611 -0.2264  1.0920 -0.5918
 4963SOL     OW26521   3.751   1.897  10.366 -0.5002  0.6331  0.3081
 4963SOL    HW126522   3.817   1.952  10.325  1.2273 -0.9424  0.9674
 4963SOL    HW226523   3.674   1.934  10.324 -0.3183  2.5246  1.6306
 4964SOL     OW26524   1.283   4.722   3.479  0.0483  0.5112  0.1900
 4964SOL    HW126525   1.343   0.057   3.495  1.8774 -1.0121  0.2047
 4964SOL    HW226526   1.258   0.001   3.388  0.3915  0.8900  0.1634
 4965SOL     OW26527   3.306   3.382   5.985  0.2084 -0.0438  0.0910
 4965SOL    HW126528   3.252   3.429   6.048  1.1265 -0.6530  1.3369
 4965SOL    HW226529   3.378   3.443   5.973 -2.5690  2.7935 -2.2807
 4966SOL     OW26530   2.248   0.783   6.021 -0.4632  0.1432 -0.0048
 4966SOL    HW126531   2.206   0.845   6.081 -1.8156  0.3663 -1.1932
 4966SOL    HW226532   2.177   0.722   6.002 -0.1590  0.0630 -0.8792
 4967SOL     OW26533   3.919   3.261   6.808  0.0402 -0.5612 -0.6428
 4967SOL    HW126534   3.882   3.286   6.892 -0.9582 -0.7383 -1.0246
 4967SOL    HW226535   3.855   3.305   6.751 -0.1268 -0.7633 -0.6102
 4968SOL     OW26536   0.865   1.656  14.569 -0.4333  0.4522 -0.0401
 4968SOL    HW126537   0.940   1.664  14.510 -0.6613 -2.4491 -0.7004
 4968SOL    HW226538   0.812   1.602  14.510 -0.1822 -0.6379  0.7500
 4969SOL     OW26539   0.167   3.143  12.388  0.0859  0.2208 -0.1206
 4969SOL    HW126540   0.257   3.146  12.354  0.7608 -1.0311  1.5362
 4969SOL    HW226541   0.132   3.084  12.322  0.5678 -1.3330  1.0174
 4970SOL     OW26542   3.627   1.544   2.306  0.5077  0.0026 -0.5596
 4970SOL    HW126543   3.603   1.465   2.259  2.1263 -1.7764  1.5546
 4970SOL    HW226544   3.545   1.592   2.297 -0.1929 -0.5098  3.1567
 4971SOL     OW26545   2.829   1.945  14.740  0.3593 -0.0972 -0.0112
 4971SOL    HW126546   2.744   1.902  14.734  1.3725 -1.8410 -1.8956
 4971SOL    HW226547   2.818   1.992  14.657  0.4055 -1.2372 -0.6589
 4972SOL     OW26548   0.459   1.510  13.750 -0.3440  0.5330  0.1811
 4972SOL    HW126549   0.498   1.434  13.708 -1.1913  0.1451  0.0864
 4972SOL    HW226550   0.380   1.479  13.794  0.3762  0.0486  1.1387
 4973SOL     OW26551   4.058   1.551   1.339  0.4033  0.0951 -0.5792
 4973SOL    HW126552   4.041   1.606   1.262 -1.5567  0.0700 -0.1536
 4973SOL    HW226553   3.989   1.485   1.342 -0.9011  1.4848 -0.1710
 4974SOL     OW26554   2.072   2.845   8.709  0.2311 -0.1361  0.5170
 4974SOL    HW126555   2.101   2.861   8.799 -0.4803  2.4219  0.2911
 4974SOL    HW226556   2.120   2.909   8.656  2.0624 -2.2646 -0.3753
 4975SOL     OW26557   0.924   2.437   2.212  0.1073  0.0408 -0.1582
 4975SOL    HW126558   0.924   2.482   2.296  0.2790 -0.5706  0.1755
 4975SOL    HW226559   1.017   2.426   2.189  0.4337  1.0244  0.7072
 4976SOL     OW26560   4.722   3.826  10.660 -0.0532 -0.4823  0.7074
 4976SOL    HW126561   0.045   3.840  10.588 -0.6909  1.2347  0.5204
 4976SOL    HW226562   0.048   3.825  10.731  0.9466  0.4076 -0.1851
 4977SOL     OW26563   2.794   1.729   2.267  0.4971  0.1619  0.0498
 4977SOL    HW126564   2.765   1.641   2.291 -0.9184  0.3253 -1.0994
 4977SOL    HW226565   2.724   1.776   2.223  0.4529  1.1423  1.1528
 4978SOL     OW26566   2.825   0.030  17.461 -0.2482  0.0227 -0.5554
 4978SOL    HW126567   2.844   4.682  17.500  0.5722 -0.1955 -1.4368
 4978SOL    HW226568   2.864   0.090  17.525  1.7360 -1.8550 -0.0268
 4979SOL     OW26569   1.498   4.543   8.898  0.6110 -0.3959 -0.7829
 4979SOL    HW126570   1.578   4.516   8.943  0.1324  1.7485  1.3429
 4979SOL    HW226571   1.469   4.472   8.840 -2.2680  0.5368 -0.4377
 4980SOL     OW26572   0.678   0.744   0.240  0.6150 -0.3351  0.0022
 4980SOL    HW126573   0.649   0.835   0.240 -1.1103 -0.8844 -0.7936
 4980SOL    HW226574   0.711   0.742   0.151  0.3026  0.0989 -0.1251
 4981SOL     OW26575   2.211   2.623   8.311 -0.2990  0.8166 -0.5699
 4981SOL    HW126576   2.193   2.666   8.394 -4.4644 -0.2338 -0.9363
 4981SOL    HW226577   2.131   2.640   8.262 -1.1730  0.5325  0.7878
 4982SOL     OW26578   2.779   4.454   7.223 -0.1374  0.0680  0.1214
 4982SOL    HW126579   2.697   4.428   7.265  0.0378 -1.3206 -0.3760
 4982SOL    HW226580   2.778   4.549   7.232  1.0899  0.1057 -0.1658
 4983SOL     OW26581   1.604   3.289  15.521  0.8132  0.1839  0.1868
 4983SOL    HW126582   1.657   3.327  15.591 -0.1790  0.1914  0.9460
 4983SOL    HW226583   1.676   3.287  15.459  0.4917 -0.2735 -0.1668
 4984SOL     OW26584   1.203   4.000  14.088  0.0830 -0.3726  0.0260
 4984SOL    HW126585   1.217   3.961  14.175  1.3615  0.1631  0.0519
 4984SOL    HW226586   1.206   4.090  14.121 -1.4315  0.6931 -2.7792
 4985SOL     OW26587   3.432   1.489  10.372 -0.3901  0.3626  0.2739
 4985SOL    HW126588   3.392   1.508  10.457  1.3109  1.4828  0.8177
 4985SOL    HW226589   3.460   1.579  10.354 -0.2713  0.5093  1.2126
 4986SOL     OW26590   0.551   4.558   7.200 -0.3495  0.4692  0.6437
 4986SOL    HW126591   0.510   4.631   7.246 -1.4172  0.7249 -0.7067
 4986SOL    HW226592   0.475   4.505   7.178  0.2872 -0.9125  1.7347
 4987SOL     OW26593   1.211   0.711   6.104 -0.0109  0.2317  0.6580
 4987SOL    HW126594   1.127   0.748   6.128 -0.4491  0.7395 -1.6291
 4987SOL    HW226595   1.236   0.759   6.025  0.0484  0.5570  0.8745
 4988SOL     OW26596   3.496   2.721  12.279 -0.1825 -0.1505 -0.0880
 4988SOL    HW126597   3.560   2.788  12.302 -1.8356  0.2288  3.5164
 4988SOL    HW226598   3.501   2.725  12.184  1.1250 -1.1145 -0.0635
 4989SOL     OW26599   3.356   2.221   7.980 -0.4836 -0.2282  0.7103
 4989SOL    HW126600   3.389   2.235   8.069 -0.9437 -2.1743  1.1962
 4989SOL    HW226601   3.386   2.300   7.936  2.3789 -1.4716  0.4363
 4990SOL     OW26602   1.069   2.420   9.217  0.2535  0.4189  0.0016
 4990SOL    HW126603   1.104   2.499   9.258  3.1040  0.2600 -2.1307
 4990SOL    HW226604   1.088   2.443   9.126  0.3701  2.1168  0.4649
 4991SOL     OW26605   0.598   3.556   6.920  0.0071 -0.4497 -0.0980
 4991SOL    HW126606   0.543   3.627   6.953  1.0613 -0.2994  1.3437
 4991SOL    HW226607   0.665   3.539   6.986  2.0251 -2.2158 -2.5767
 4992SOL     OW26608   4.268   2.615   5.757  0.1638  0.3449  0.5265
 4992SOL    HW126609   4.273   2.534   5.807 -1.1609  0.1217  0.2965
 4992SOL    HW226610   4.226   2.666   5.827 -2.3043 -0.4081 -0.3903
 4993SOL     OW26611   3.534   2.547  10.993  0.4863  0.4284  0.1376
 4993SOL    HW126612   3.457   2.489  10.997  1.1843 -0.3939  1.5234
 4993SOL    HW226613   3.603   2.488  11.022  0.7442  2.3455  3.3571
 4994SOL     OW26614   3.159   1.776   7.574 -0.4100 -0.0405  0.4426
 4994SOL    HW126615   3.228   1.738   7.519 -1.1611 -1.3278  0.3907
 4994SOL    HW226616   3.206   1.781   7.658 -0.7877 -1.0504  0.7185
 4995SOL     OW26617   2.195   3.059  10.602 -0.1540 -0.6289  0.1685
 4995SOL    HW126618   2.216   3.136  10.549  0.3659 -1.4331 -0.7839
 4995SOL    HW226619   2.129   3.101  10.658  1.3121  1.5522  0.2785
 4996SOL     OW26620   4.591   2.352   8.176 -0.8085  0.2752 -1.0793
 4996SOL    HW126621   4.562   2.281   8.233  0.2480  1.2049  0.6336
 4996SOL    HW226622   4.656   2.387   8.236  0.9443 -1.2328 -2.0985
 4997SOL     OW26623   2.759   2.975   3.076 -0.8194  0.5342  0.0597
 4997SOL    HW126624   2.784   2.910   3.142  1.9321  1.4634 -0.0928
 4997SOL    HW226625   2.668   2.951   3.057 -0.9654  0.3201  1.0549
 4998SOL     OW26626   1.946   0.856   4.591  0.2273  0.3371  0.3788
 4998SOL    HW126627   1.893   0.839   4.513 -0.4361  1.8671  0.5094
 4998SOL    HW226628   1.877   0.866   4.657 -0.2012 -1.0363  0.1533
 4999SOL     OW26629   4.147   4.405   6.544 -0.5809  0.7426  0.2069
 4999SOL    HW126630   4.226   4.398   6.597  0.8703  0.2654 -2.0219
 4999SOL    HW226631   4.152   4.499   6.525 -2.5767  0.7386 -0.4172
 5000SOL     OW26632   1.352   2.310   6.459  0.5601  0.2081 -0.2097
 5000SOL    HW126633   1.328   2.387   6.510  0.4912 -2.0194  3.0969
 5000SOL    HW226634   1.291   2.323   6.386  1.6043  0.7070 -0.9949
 5001SOL     OW26635   0.116   2.065   3.624  0.8545  0.2284  0.0522
 5001SOL    HW126636   0.178   2.032   3.560  0.0779 -1.0721 -0.0387
 5001SOL    HW226637   0.091   2.152   3.594 -2.0086 -1.6773 -3.0224
 5002SOL     OW26638   0.567   0.260   3.542  0.6431 -0.2157  0.2365
 5002SOL    HW126639   0.633   0.325   3.566 -0.0777  1.3869 -2.2046
 5002SOL    HW226640   0.615   0.192   3.494 -0.6559  0.7379 -2.4128
 5003SOL     OW26641   0.986   1.615   8.543  0.1835 -0.8525  0.3291
 5003SOL    HW126642   0.901   1.657   8.558  0.1246 -0.6743 -0.5262
 5003SOL    HW226643   0.997   1.574   8.629 -1.5925 -1.5777  0.2103
 5004SOL     OW26644   0.150   2.373   2.568  0.0413  0.3876 -0.6229
 5004SOL    HW126645   0.223   2.385   2.629 -1.0981  0.0644  0.8296
 5004SOL    HW226646   0.175   2.300   2.512  1.4445  0.1036  0.3669
 5005SOL     OW26647   1.403   1.062   6.665  0.1429 -0.6794 -0.2687
 5005SOL    HW126648   1.437   1.139   6.711  1.6019 -1.0475 -0.7374
 5005SOL    HW226649   1.442   0.988   6.711  0.6186  0.3929  1.0774
 5006SOL     OW26650   3.770   4.528   7.715  0.1988 -0.3722  0.3748
 5006SOL    HW126651   3.745   4.436   7.709 -0.9850 -0.1683  2.1434
 5006SOL    HW226652   3.727   4.557   7.634 -0.4621 -0.9417  0.5239
 5007SOL     OW26653   2.640   4.436   1.938 -0.3959 -0.8888  0.1042
 5007SOL    HW126654   2.568   4.477   1.891 -1.1768 -1.0688  1.1483
 5007SOL    HW226655   2.710   4.500   1.944 -1.1186  0.0423 -1.3483
 5008SOL     OW26656   0.665   3.784  14.600 -0.2895 -0.2093 -0.1271
 5008SOL    HW126657   0.625   3.827  14.676  3.0723  0.8374  1.0489
 5008SOL    HW226658   0.689   3.861  14.548 -5.3464  0.7856 -1.0451
 5009SOL     OW26659   1.864   3.379   9.227 -0.2778  0.4817  0.6057
 5009SOL    HW126660   1.950   3.410   9.256 -0.6854  1.3217  0.9256
 5009SOL    HW226661   1.832   3.338   9.307 -1.2618  1.4072  0.6816
 5010SOL     OW26662   3.767   0.708   1.845 -0.1865  0.5095 -0.5590
 5010SOL    HW126663   3.802   0.630   1.887  0.1550 -0.4092 -2.6077
 5010SOL    HW226664   3.757   0.677   1.755 -0.0262  0.8376 -0.6885
 5011SOL     OW26665   1.740   4.282   5.593  0.1470  0.1437  0.7309
 5011SOL    HW126666   1.776   4.368   5.615  0.0898  0.3289  0.0878
 5011SOL    HW226667   1.759   4.278   5.500  2.1763 -0.4228  1.1782
 5012SOL     OW26668   2.803   2.758   1.812 -0.3675 -0.0444 -0.0084
 5012SOL    HW126669   2.893   2.769   1.844  0.3729 -1.9946 -1.4633
 5012SOL    HW226670   2.756   2.814   1.874 -0.5606 -0.2998  0.0724
 5013SOL     OW26671   2.275   4.443  11.384  0.1191  0.4735 -0.1634
 5013SOL    HW126672   2.334   4.508  11.344  0.5279 -1.0328 -2.0204
 5013SOL    HW226673   2.217   4.420  11.311  0.2021 -0.9282  0.2108
 5014SOL     OW26674   3.100   2.411   7.877  0.2371  0.3637  0.2964
 5014SOL    HW126675   3.084   2.505   7.866  2.6974  0.8069  0.5630
 5014SOL    HW226676   3.118   2.410   7.971 -0.7397  3.1559  0.5020
 5015SOL     OW26677   2.666   0.572  10.944 -0.3550 -0.0538 -0.5342
 5015SOL    HW126678   2.750   0.557  10.988 -0.4314  1.5989  0.1924
 5015SOL    HW226679   2.643   0.483  10.918  0.3835 -0.3987 -0.0038
 5016SOL     OW26680   1.796   2.665   4.974  0.4656 -0.9148  0.1656
 5016SOL    HW126681   1.741   2.727   4.928  0.5206 -0.7068  0.3782
 5016SOL    HW226682   1.761   2.583   4.940 -0.0992 -0.1194 -1.1278
 5017SOL     OW26683   1.392   1.085   4.269 -0.3073  0.1624 -0.2323
 5017SOL    HW126684   1.362   1.123   4.186  0.8605 -1.4250 -1.3926
 5017SOL    HW226685   1.479   1.052   4.246 -0.2339 -0.8931  1.6443
 5018SOL     OW26686   0.272   0.023  12.839 -0.1563 -0.4859  0.0931
 5018SOL    HW126687   0.295   0.091  12.903 -0.1186 -0.6629  0.2700
 5018SOL    HW226688   0.227   0.074  12.772  1.0865  2.7259  1.7140
 5019SOL     OW26689   0.691   2.937   9.386  0.3388  0.0103 -0.3645
 5019SOL    HW126690   0.713   2.850   9.352 -1.4478 -0.4042 -0.4308
 5019SOL    HW226691   0.773   2.978   9.356  1.0464 -0.3380  1.1056
 5020SOL     OW26692   0.678   1.761   3.895 -0.2863  0.1080  0.5003
 5020SOL    HW126693   0.756   1.708   3.913 -0.0175  0.6163  0.8335
 5020SOL    HW226694   0.690   1.821   3.968  1.2283 -0.7810  1.0007
 5021SOL     OW26695   1.376   4.182   4.986  0.0880 -0.5484 -0.1335
 5021SOL    HW126696   1.345   4.138   5.066 -1.0143  0.7429  0.1401
 5021SOL    HW226697   1.453   4.126   4.972  0.3618  0.0916 -1.1433
 5022SOL     OW26698   2.828   4.073  13.695 -0.4532 -0.3829 -0.1952
 5022SOL    HW126699   2.812   4.062  13.601 -0.4957  0.2751 -0.2691
 5022SOL    HW226700   2.791   4.161  13.699 -1.1573 -0.6910  0.0560
 5023SOL     OW26701   2.353   1.427   6.270  0.1551 -0.3928  0.3375
 5023SOL    HW126702   2.277   1.472   6.234 -0.0876  0.9923  2.5920
 5023SOL    HW226703   2.360   1.348   6.217 -1.6908  0.2968 -0.9261
 5024SOL     OW26704   3.573   4.199   2.467  0.6796  0.2927 -0.3051
 5024SOL    HW126705   3.555   4.280   2.418  0.9652  1.5064  1.5969
 5024SOL    HW226706   3.551   4.232   2.554  0.0727  1.7833 -1.0284
 5025SOL     OW26707   3.341   2.801   6.680 -0.5313  0.0476 -0.5817
 5025SOL    HW126708   3.319   2.877   6.626  1.6664  2.1154  1.4138
 5025SOL    HW226709   3.285   2.732   6.645  1.6114 -0.5608 -2.7672
 5026SOL     OW26710   0.858   2.281   3.017  0.3870  0.0084 -0.0775
 5026SOL    HW126711   0.815   2.200   2.989  0.6415 -0.8046  1.8614
 5026SOL    HW226712   0.792   2.325   3.070  1.7232  1.4854  0.3699
 5027SOL     OW26713   3.159   2.634   6.560 -0.2672 -0.0937  0.3818
 5027SOL    HW126714   3.107   2.677   6.492  2.4016  0.2837 -1.4258
 5027SOL    HW226715   3.154   2.540   6.545  1.0762 -0.2305  0.7407
 5028SOL     OW26716   0.191   1.379   7.100  0.1000  0.4077  0.0312
 5028SOL    HW126717   0.250   1.341   7.165 -1.8732  1.6294  2.5059
 5028SOL    HW226718   0.262   1.403   7.040 -0.1475  0.1225 -0.3780
 5029SOL     OW26719   0.642   2.846   2.690 -0.5495 -0.0049 -0.2880
 5029SOL    HW126720   0.608   2.862   2.778  1.5132  0.5140  0.4061
 5029SOL    HW226721   0.623   2.752   2.685  0.1984 -0.2928  2.3174
 5030SOL     OW26722   4.087   0.437   7.991  0.3193  0.2794 -0.1992
 5030SOL    HW126723   4.131   0.403   8.069  0.2466 -0.9815 -0.6989
 5030SOL    HW226724   4.144   0.499   7.946 -0.4753 -0.6761 -2.5357
 5031SOL     OW26725   1.115   1.582   6.779  0.2681 -0.2226  0.0569
 5031SOL    HW126726   1.178   1.524   6.735 -1.7053  0.7253 -4.0140
 5031SOL    HW226727   1.076   1.515   6.835  0.1611 -0.1371  0.0825
 5032SOL     OW26728   2.599   1.815  10.461 -0.3190 -0.4184  0.3645
 5032SOL    HW126729   2.647   1.752  10.515 -0.3462 -1.7218 -1.1179
 5032SOL    HW226730   2.623   1.774  10.378 -0.6594 -0.5038  0.3077
 5033SOL     OW26731   1.148   3.549   7.567  0.4767 -0.3823 -0.1526
 5033SOL    HW126732   1.149   3.502   7.483 -0.2269 -0.2606 -0.2254
 5033SOL    HW226733   1.081   3.501   7.617  0.3760 -0.4365 -0.3394
 5034SOL     OW26734   3.304   1.982   5.036 -0.5288  0.0524  0.3382
 5034SOL    HW126735   3.331   2.043   5.105  0.4679 -0.5357  0.4626
 5034SOL    HW226736   3.313   2.035   4.956  0.9581 -0.0106  0.4638
 5035SOL     OW26737   0.860   3.207  12.992  0.2429  0.8198 -0.1538
 5035SOL    HW126738   0.949   3.239  13.009  0.6965 -0.5819  0.0944
 5035SOL    HW226739   0.858   3.210  12.897  0.8270 -0.5447 -0.2106
 5036SOL     OW26740   3.113   2.966   0.819 -0.1026 -0.1222 -0.1304
 5036SOL    HW126741   3.062   2.908   0.875  1.0390 -2.5674 -1.5992
 5036SOL    HW226742   3.070   2.954   0.735  0.3760 -2.5036 -0.0435
 5037SOL     OW26743   0.693   4.622  10.340  0.2074 -0.2524  1.0273
 5037SOL    HW126744   0.599   4.606  10.327  1.0608 -0.2855 -4.9464
 5037SOL    HW226745   0.737   4.577  10.268  0.2859 -0.3054  1.1084
 5038SOL     OW26746   1.442   4.449   2.188  0.2987  0.3867 -0.0055
 5038SOL    HW126747   1.445   4.463   2.093  0.1953  0.4393 -0.0014
 5038SOL    HW226748   1.522   4.400   2.204 -0.2571 -0.7213 -0.6188
 5039SOL     OW26749   2.045   1.182   1.219  0.1005 -0.0668  0.2826
 5039SOL    HW126750   1.983   1.130   1.167  0.3703  0.2941 -0.4017
 5039SOL    HW226751   2.027   1.136   1.301 -1.9840  1.6944  0.8291
 5040SOL     OW26752   0.064   0.554   0.706 -0.5162 -0.3764 -0.4948
 5040SOL    HW126753   0.067   0.629   0.646  0.1595  0.5706  0.7167
 5040SOL    HW226754   0.141   0.503   0.683 -0.4814 -0.9538  0.9430
 5041SOL     OW26755   2.048   3.936   5.616 -0.0533  0.2777  0.0614
 5041SOL    HW126756   2.137   3.900   5.613  0.4363  1.5697 -1.0751
 5041SOL    HW226757   1.999   3.856   5.596 -0.2839  0.9179 -1.9808
 5042SOL     OW26758   2.896   1.190   2.050  0.0295 -0.6237 -0.0194
 5042SOL    HW126759   2.931   1.269   2.090 -1.7234 -0.2395  0.7812
 5042SOL    HW226760   2.887   1.128   2.123  0.1939  0.3629  0.8303
 5043SOL     OW26761   1.829   3.000  17.537  0.4729 -0.0592  0.2321
 5043SOL    HW126762   1.865   3.088  17.528 -1.1144  0.5732  0.0552
 5043SOL    HW226763   1.875   2.984  17.619 -1.8435 -0.7621  1.4173
 5044SOL     OW26764   1.578   3.351  11.511 -0.1273  0.3990  0.3011
 5044SOL    HW126765   1.584   3.444  11.532  0.5796  0.1817  1.0670
 5044SOL    HW226766   1.668   3.320  11.527 -0.3630 -1.3119 -1.5611
 5045SOL     OW26767   1.683   2.290   4.724 -0.2552 -0.4816  0.5028
 5045SOL    HW126768   1.621   2.239   4.671  0.3644 -0.7405  0.0382
 5045SOL    HW226769   1.655   2.249   4.806  0.3027 -1.9068 -0.0290
 5046SOL     OW26770   3.872   1.569  12.500  0.3641  0.7264 -0.6479
 5046SOL    HW126771   3.944   1.506  12.508 -1.6836 -1.6529 -1.1958
 5046SOL    HW226772   3.795   1.514  12.513  1.1487  0.2368  1.8858
 5047SOL     OW26773   0.347   0.901   4.488 -0.0046 -0.0677  0.1382
 5047SOL    HW126774   0.327   0.964   4.557  0.4772 -0.8527  1.0148
 5047SOL    HW226775   0.254   0.886   4.472 -0.0928  2.5909 -1.7443
 5048SOL     OW26776   1.631   0.082   8.475  0.0187  0.0553  0.1118
 5048SOL    HW126777   1.548   0.080   8.428 -0.1698  0.3930  0.4325
 5048SOL    HW226778   1.696   0.084   8.405  1.4697 -0.7117  1.4345
 5049SOL     OW26779   3.454   0.715   6.962  0.6154  0.5411 -0.2206
 5049SOL    HW126780   3.392   0.739   6.893  0.3358  1.0743  0.2163
 5049SOL    HW226781   3.396   0.661   7.015  0.0646 -0.8659 -2.2644
 5050SOL     OW26782   0.563   1.655  15.893 -0.1374 -0.1444 -0.2234
 5050SOL    HW126783   0.559   1.587  15.825 -1.1117  1.6180 -1.9235
 5050SOL    HW226784   0.566   1.738  15.847 -1.5016 -0.2622 -0.5151
 5051SOL     OW26785   3.450   3.285   8.355 -0.4201 -0.3700 -0.2024
 5051SOL    HW126786   3.485   3.288   8.266  1.1377 -0.6726  0.4047
 5051SOL    HW226787   3.472   3.373   8.385 -2.6890 -0.1170  0.6825
 5052SOL     OW26788   1.409   4.128   2.868 -0.1083  0.1475  0.0130
 5052SOL    HW126789   1.369   4.141   2.953 -1.5354  1.2329 -0.8281
 5052SOL    HW226790   1.418   4.216   2.831 -0.1090  0.7651  1.5166
 5053SOL     OW26791   4.412   0.622   1.883 -0.3929  0.0393  0.2767
 5053SOL    HW126792   4.402   0.580   1.968 -2.2262 -1.5770 -0.7378
 5053SOL    HW226793   4.456   0.705   1.899  1.4847 -1.0178  0.5941
 5054SOL     OW26794   4.372   4.670  15.698  0.1403  0.4413 -0.0576
 5054SOL    HW126795   4.283   4.636  15.705  0.7722 -1.8461 -2.8159
 5054SOL    HW226796   4.364   0.027  15.687  1.9864  0.2980 -2.5966
 5055SOL     OW26797   2.933   2.235   3.992 -0.3775  0.1512  0.2244
 5055SOL    HW126798   2.843   2.239   4.024  0.3280  1.4420  2.1034
 5055SOL    HW226799   2.975   2.275   4.068  0.1104 -2.5001  1.3569
 5056SOL     OW26800   4.385   4.191   0.468  0.1470  0.1300 -0.2244
 5056SOL    HW126801   4.433   4.175   0.387  2.2635 -0.0553  1.0889
 5056SOL    HW226802   4.446   4.186   0.541  1.5383  1.5867 -1.2890
 5057SOL     OW26803   3.097   0.265   6.483 -0.1383 -0.0554  0.4648
 5057SOL    HW126804   3.120   0.297   6.396 -2.0014 -1.3418 -0.5221
 5057SOL    HW226805   3.150   0.185   6.478  1.2917  1.0757 -2.0740
 5058SOL     OW26806   2.073   1.989   9.193 -0.4337 -0.0999 -0.3203
 5058SOL    HW126807   2.022   2.028   9.121  0.0900  1.4993  0.1731
 5058SOL    HW226808   2.031   1.904   9.178  0.3362  0.3484 -5.2147
 5059SOL     OW26809   1.213   1.333   2.586 -0.6672  0.1312 -0.4075
 5059SOL    HW126810   1.148   1.329   2.517 -1.1243  3.0976 -0.1516
 5059SOL    HW226811   1.198   1.251   2.633  1.0105 -0.2356 -0.5097
 5060SOL     OW26812   1.929   1.113   8.587 -0.4456  0.1310  0.2601
 5060SOL    HW126813   2.017   1.137   8.556  0.4397 -3.7570 -0.2301
 5060SOL    HW226814   1.891   1.198   8.607 -1.3361 -0.1754 -0.1629
 5061SOL     OW26815   3.625   1.658   7.500  0.1301  0.2316  0.7127
 5061SOL    HW126816   3.687   1.689   7.435  0.0619 -0.4198  0.3323
 5061SOL    HW226817   3.666   1.680   7.583 -2.1306 -0.6047  2.0476
 5062SOL     OW26818   0.480   3.842   5.577 -0.6278 -0.3027  0.0463
 5062SOL    HW126819   0.417   3.775   5.603 -1.4377  0.4293 -0.0423
 5062SOL    HW226820   0.435   3.907   5.522 -1.1675 -0.3962  0.3794
 5063SOL     OW26821   4.055   3.924   2.420 -0.5017  0.2983 -0.1403
 5063SOL    HW126822   4.072   3.960   2.333  1.2807 -1.3408 -0.4792
 5063SOL    HW226823   3.961   3.944   2.425 -0.8294 -0.3951 -2.9994
 5064SOL     OW26824   0.534   1.995   6.392 -0.2911 -0.1127 -0.4497
 5064SOL    HW126825   0.570   1.947   6.317 -0.1762  1.3058 -1.2961
 5064SOL    HW226826   0.586   2.075   6.399 -0.3496 -0.0540 -0.6943
 5065SOL     OW26827   3.469   3.943   3.925 -0.1165 -0.2185  0.5166
 5065SOL    HW126828   3.502   3.888   3.996 -1.3068 -0.2572  1.0239
 5065SOL    HW226829   3.525   3.922   3.850 -0.4707 -0.4751  0.3260
 5066SOL     OW26830   4.101   4.416   8.775 -0.0812  0.1688  0.2330
 5066SOL    HW126831   4.045   4.366   8.834 -0.7593  0.4708 -0.1553
 5066SOL    HW226832   4.105   4.361   8.696 -0.1602  2.7380 -1.5708
 5067SOL     OW26833   2.090   2.424   3.311  0.3159  0.0647 -0.2713
 5067SOL    HW126834   2.084   2.374   3.230 -0.0937 -1.5739  0.7629
 5067SOL    HW226835   1.998   2.422   3.338 -0.1743  0.2355 -1.9522
 5068SOL     OW26836   3.334   4.107   5.408 -0.1187  0.6324  0.3035
 5068SOL    HW126837   3.250   4.154   5.407 -0.5156 -0.0803  0.2935
 5068SOL    HW226838   3.382   4.133   5.329 -0.3747 -1.3766 -0.5116
 5069SOL     OW26839   1.373   1.056  10.255  0.5687 -0.6784  0.2624
 5069SOL    HW126840   1.303   1.085  10.196  0.9659  0.1240  0.1892
 5069SOL    HW226841   1.355   0.962  10.259 -0.5101 -0.4962 -0.4823
 5070SOL     OW26842   3.641   2.628   6.069  0.7131 -0.0598 -0.3762
 5070SOL    HW126843   3.607   2.665   6.151 -0.4814 -0.9308 -0.4805
 5070SOL    HW226844   3.670   2.540   6.092  1.0564  0.2951  0.5605
 5071SOL     OW26845   2.764   3.150   5.356 -0.4234 -0.3322  0.3274
 5071SOL    HW126846   2.819   3.076   5.382  1.4051  1.2317  0.8503
 5071SOL    HW226847   2.829   3.186   5.296 -1.6711 -1.0522 -1.4561
 5072SOL     OW26848   0.625   3.913   7.198 -0.2730  0.1545  0.8879
 5072SOL    HW126849   0.598   3.980   7.135  0.9567 -0.1620  0.0393
 5072SOL    HW226850   0.717   3.901   7.176 -1.2086  0.2219 -3.0227
 5073SOL     OW26851   0.340   0.146   4.016  0.1201  0.4610  0.3442
 5073SOL    HW126852   0.287   0.225   4.006 -0.3506  0.0250 -0.6692
 5073SOL    HW226853   0.399   0.163   3.943  0.9416 -0.4620  0.7952
 5074SOL     OW26854   2.833   1.290   5.314  0.2487 -0.4554 -0.1252
 5074SOL    HW126855   2.880   1.279   5.231 -1.3304  3.7443 -1.5554
 5074SOL    HW226856   2.746   1.291   5.275  0.2872  0.9842 -0.1647
 5075SOL     OW26857   1.277   1.877   3.869 -0.1987  0.7729  0.2207
 5075SOL    HW126858   1.312   1.795   3.904 -0.7757  0.6065  0.4067
 5075SOL    HW226859   1.194   1.880   3.915  0.4309 -1.9107  1.4980
 5076SOL     OW26860   4.395   3.562   4.377  0.0123  0.5297 -0.8437
 5076SOL    HW126861   4.383   3.468   4.388  0.8517  0.6300  0.8917
 5076SOL    HW226862   4.475   3.570   4.325  1.8971 -2.5225  1.5795
 5077SOL     OW26863   3.392   0.648   3.458 -0.6979 -0.2056 -0.3598
 5077SOL    HW126864   3.435   0.616   3.379  1.1483  3.0528 -0.7017
 5077SOL    HW226865   3.407   0.743   3.461  1.0324 -0.5224  1.2227
 5078SOL     OW26866   1.331   3.727  12.305 -0.0853  0.7194  0.1117
 5078SOL    HW126867   1.324   3.735  12.400  1.7207 -0.0883  0.3138
 5078SOL    HW226868   1.372   3.641  12.293  0.9380  1.2412 -0.1073
 5079SOL     OW26869   1.734   4.680   5.113  0.6692  0.4808 -0.0932
 5079SOL    HW126870   1.791   4.723   5.049  1.0299 -1.1780 -0.8604
 5079SOL    HW226871   1.661   0.005   5.119 -0.4811 -0.8244 -0.3495
 5080SOL     OW26872   0.110   3.940   7.534 -0.0753  0.0559  0.2493
 5080SOL    HW126873   0.191   3.942   7.585  1.3109 -1.1157 -1.8825
 5080SOL    HW226874   0.116   3.848   7.506  0.4838  0.3263 -0.5046
 5081SOL     OW26875   3.115   2.978   5.572 -0.3433 -0.5798  0.0704
 5081SOL    HW126876   3.110   2.966   5.667 -5.0683  0.4481 -0.0657
 5081SOL    HW226877   3.208   2.979   5.550 -0.5348  0.8286 -0.6675
 5082SOL     OW26878   1.947   2.154   5.076 -0.5443  0.0272  0.0667
 5082SOL    HW126879   1.913   2.091   5.139  1.2061  1.7472  2.7211
 5082SOL    HW226880   1.995   2.095   5.018 -0.5397  1.5471 -1.4846
 5083SOL     OW26881   4.503   4.515   8.642  0.1453 -0.3075  0.0252
 5083SOL    HW126882   4.429   4.552   8.689  0.3827 -0.7087  0.7096
 5083SOL    HW226883   4.458   4.450   8.589  0.8253 -0.7874  0.0316
 5084SOL     OW26884   1.795   4.261   1.891  0.3266 -0.3852  0.0177
 5084SOL    HW126885   1.888   4.276   1.904  0.2220 -1.1526  1.5477
 5084SOL    HW226886   1.759   4.269   1.979  1.7355 -0.1331  0.5547
 5085SOL     OW26887   1.275   4.591   6.543  0.2244 -0.0099  0.0409
 5085SOL    HW126888   1.319   4.654   6.600 -0.0128  0.2458 -0.0587
 5085SOL    HW226889   1.311   4.600   6.455  2.7576  1.6905  1.2658
 5086SOL     OW26890   3.385   4.185  10.167  0.6659  0.1287  0.3317
 5086SOL    HW126891   3.344   4.209  10.250 -3.2887 -1.2263 -1.2427
 5086SOL    HW226892   3.446   4.118  10.197 -0.4001 -0.2808  1.5397
 5087SOL     OW26893   0.463   1.412  15.771 -0.3190  0.1697  0.6355
 5087SOL    HW126894   0.537   1.359  15.802  0.2737  1.6213  1.7063
 5087SOL    HW226895   0.419   1.349  15.714 -0.5177  0.8220  0.0667
 5088SOL     OW26896   4.201   4.178   7.041 -0.3907 -0.6775  0.6524
 5088SOL    HW126897   4.173   4.115   7.107 -0.8758 -0.4680  0.6441
 5088SOL    HW226898   4.281   4.136   7.010 -1.6427 -0.2385 -3.1219
 5089SOL     OW26899   3.367   1.743   8.373 -0.6302 -0.2491  0.2315
 5089SOL    HW126900   3.415   1.691   8.309  1.5183  2.8296 -0.6621
 5089SOL    HW226901   3.282   1.749   8.330 -1.1989 -1.1751  1.1950
 5090SOL     OW26902   3.803   0.709   1.223 -0.1111 -0.2237 -0.5531
 5090SOL    HW126903   3.778   0.644   1.289  0.7725  1.3240  1.2937
 5090SOL    HW226904   3.740   0.695   1.152  1.3272 -0.1955 -1.8440
 5091SOL     OW26905   3.691   3.922   7.486 -0.1576 -0.3727 -0.3500
 5091SOL    HW126906   3.704   3.928   7.581 -2.0730 -0.6876 -0.0599
 5091SOL    HW226907   3.642   3.840   7.484 -3.6618  1.6727 -0.3522
 5092SOL     OW26908   3.609   4.589   5.310 -0.6201 -0.2060  0.4870
 5092SOL    HW126909   3.540   4.548   5.258 -0.9264  0.3804  0.4353
 5092SOL    HW226910   3.655   4.614   5.230  0.5852 -2.3998  0.4940
 5093SOL     OW26911   2.344   2.931  17.634  0.3877  0.1490 -0.1114
 5093SOL    HW126912   2.279   2.929  17.564 -2.4087  0.0645  2.4943
 5093SOL    HW226913   2.341   2.839  17.659  0.9894  0.0299 -0.4669
 5094SOL     OW26914   3.829   0.267   8.877  0.5298  0.3110 -0.1120
 5094SOL    HW126915   3.802   0.282   8.786  2.8265  1.8150 -0.5526
 5094SOL    HW226916   3.923   0.273   8.865  0.6188  0.2397  0.5497
 5095SOL     OW26917   2.311   3.875   6.834 -0.4672 -0.2452 -0.0925
 5095SOL    HW126918   2.286   3.874   6.926  1.6596 -1.4971  0.4797
 5095SOL    HW226919   2.375   3.804   6.842  0.7791  1.0531  1.4309
 5096SOL     OW26920   4.285   4.132  16.614  0.4483 -0.1445 -0.5400
 5096SOL    HW126921   4.379   4.136  16.634  0.1207 -2.4619  1.5060
 5096SOL    HW226922   4.256   4.078  16.688  1.8008  0.7396  0.6424
 5097SOL     OW26923   3.832   3.603   7.753 -0.2141 -0.0244 -0.2044
 5097SOL    HW126924   3.801   3.567   7.669  0.3606  0.7995 -0.7675
 5097SOL    HW226925   3.920   3.631   7.728  0.0826 -0.3876  0.4484
 5098SOL     OW26926   4.175   0.166   9.110  0.2158 -0.0925 -0.4566
 5098SOL    HW126927   4.232   0.094   9.138 -0.5953  0.1910  1.9840
 5098SOL    HW226928   4.188   0.238   9.172 -1.2144 -0.6032  0.4372
 5099SOL     OW26929   0.171   1.057  15.901  0.5960 -0.3930 -0.1147
 5099SOL    HW126930   0.214   1.133  15.862 -0.8166 -0.6710 -2.2149
 5099SOL    HW226931   0.091   1.099  15.934  1.4694 -0.0084  1.5492
 5100SOL     OW26932   4.383   2.494   6.195 -0.3464  0.0642  0.0040
 5100SOL    HW126933   4.314   2.556   6.221 -0.9520 -0.9215  0.7759
 5100SOL    HW226934   4.453   2.557   6.178  0.5141 -0.7418  0.5541
 5101SOL     OW26935   3.791   0.319  13.193  0.3872 -0.0852  0.3362
 5101SOL    HW126936   3.779   0.403  13.238 -2.6084 -0.7678  0.8007
 5101SOL    HW226937   3.850   0.281  13.259  1.6937  0.3191 -0.5906
 5102SOL     OW26938   2.860   2.664   8.170 -0.4750 -0.4109 -0.0323
 5102SOL    HW126939   2.773   2.656   8.129 -1.0226  0.5759  0.9375
 5102SOL    HW226940   2.852   2.590   8.231  0.2111 -0.6218 -0.2079
 5103SOL     OW26941   4.655   0.432  10.542 -0.0234 -0.0335 -0.6404
 5103SOL    HW126942   4.578   0.441  10.599  0.2925 -3.2848  0.3325
 5103SOL    HW226943   4.722   0.461  10.604 -2.3950  0.1666  1.8698
 5104SOL     OW26944   0.640   1.497  17.307  0.6187 -0.2949  0.2535
 5104SOL    HW126945   0.630   1.591  17.325 -1.1275 -0.5305  0.5276
 5104SOL    HW226946   0.613   1.491  17.215  1.8109  1.8255 -0.2418
 5105SOL     OW26947   1.936   0.908   3.893  0.1251 -0.0435  0.5241
 5105SOL    HW126948   1.973   0.943   3.974  1.7823 -1.5546  0.4225
 5105SOL    HW226949   1.889   0.976   3.845  0.6829  1.7561  2.5103
 5106SOL     OW26950   2.613   3.330   6.858  0.1163 -0.2162  0.2682
 5106SOL    HW126951   2.569   3.284   6.929 -1.0907 -0.4117 -0.6202
 5106SOL    HW226952   2.695   3.346   6.905  0.6641 -2.4303  0.0696
 5107SOL     OW26953   2.655   1.733   5.817  0.1317 -0.1027  0.5342
 5107SOL    HW126954   2.633   1.703   5.906  2.3400  2.0066  1.7808
 5107SOL    HW226955   2.689   1.653   5.776 -0.8583  1.1110 -2.5702
 5108SOL     OW26956   3.134   2.773  17.453  0.6411  0.2050  0.1496
 5108SOL    HW126957   3.073   2.706  17.423 -0.6406  0.2425  2.7448
 5108SOL    HW226958   3.100   2.795  17.539  1.6636 -1.7498  1.0411
 5109SOL     OW26959   0.528   1.155   6.246  0.0425  0.3116 -0.1989
 5109SOL    HW126960   0.563   1.244   6.257 -0.4341  0.2842  1.4961
 5109SOL    HW226961   0.462   1.180   6.181  1.0282 -1.2711 -1.8183
 5110SOL     OW26962   3.669   4.497  15.739 -0.1190 -0.1208  0.1271
 5110SOL    HW126963   3.606   4.512  15.669  0.4449  2.6247  0.2089
 5110SOL    HW226964   3.727   4.429  15.704 -0.1443  0.5078 -1.1316
 5111SOL     OW26965   0.055   2.551   2.957 -0.4318 -0.0297 -0.0988
 5111SOL    HW126966   0.139   2.542   2.910  0.5645  1.0761  1.4690
 5111SOL    HW226967   0.012   2.621   2.907  1.1616 -0.1631 -1.6640
 5112SOL     OW26968   2.910   3.206   5.639 -0.4542 -0.7472  0.0872
 5112SOL    HW126969   2.823   3.227   5.605 -1.5196  0.7806  3.7555
 5112SOL    HW226970   2.890   3.140   5.706  0.8479  0.1748  1.3828
 5113SOL     OW26971   1.134   1.113   8.458 -0.1440 -0.1783 -0.0466
 5113SOL    HW126972   1.137   1.128   8.363 -2.1763 -0.7961 -0.2017
 5113SOL    HW226973   1.150   1.202   8.490 -0.2212  0.0870 -0.7295
 5114SOL     OW26974   4.102   3.686  16.934 -0.4579  0.2228  0.1721
 5114SOL    HW126975   4.149   3.631  16.997 -2.4406 -0.9487  0.6072
 5114SOL    HW226976   4.013   3.662  16.960  0.0316  0.8018  2.3562
 5115SOL     OW26977   3.962   4.133   5.357  0.0564 -0.0770  0.3702
 5115SOL    HW126978   3.930   4.069   5.292  0.5900  1.2864 -1.2351
 5115SOL    HW226979   3.880   4.173   5.385  1.1370  0.2918  3.0045
 5116SOL     OW26980   3.183   1.929  15.207  0.7393 -0.7396  0.5471
 5116SOL    HW126981   3.140   1.978  15.277 -1.7713 -0.4904 -1.1590
 5116SOL    HW226982   3.112   1.922  15.143  2.1176  2.3463 -1.3410
 5117SOL     OW26983   3.255   1.985   5.682  0.1691 -0.0598  0.3668
 5117SOL    HW126984   3.209   1.992   5.598 -0.2356  0.8195  0.6677
 5117SOL    HW226985   3.287   1.895   5.678  0.0541 -0.0745 -0.2921
 5118SOL     OW26986   0.290   4.111   6.042  0.1589  0.9954 -0.4988
 5118SOL    HW126987   0.197   4.101   6.023  0.8337 -1.3774 -2.6144
 5118SOL    HW226988   0.303   4.029   6.091 -1.6773 -0.2577 -2.1063
 5119SOL     OW26989   3.333   3.931  13.250  0.1532 -0.3821 -0.0149
 5119SOL    HW126990   3.369   3.843  13.237 -0.4563 -1.0451  2.7356
 5119SOL    HW226991   3.349   3.977  13.168  1.9192 -1.2599 -0.1555
 5120SOL     OW26992   4.125   3.558   2.916  0.0669  0.0836 -0.2644
 5120SOL    HW126993   4.129   3.468   2.949 -0.4952 -0.6013 -2.0758
 5120SOL    HW226994   4.030   3.567   2.921 -0.0200  0.9685 -4.0547
 5121SOL     OW26995   3.432   1.736   5.080  0.0845  0.1179  0.3590
 5121SOL    HW126996   3.411   1.815   5.030 -0.2526  1.1592  2.1276
 5121SOL    HW226997   3.418   1.769   5.169 -2.0266  0.7716 -0.2190
 5122SOL     OW26998   0.274   1.288   9.449 -0.5844  0.4580  0.3549
 5122SOL    HW126999   0.331   1.284   9.526  0.3873  2.7424 -0.2719
 5122SOL    HW227000   0.337   1.275   9.379 -0.8330  0.1274  0.1884
 5123SOL     OW27001   3.757   3.345   4.636 -0.4582  0.0562 -0.0675
 5123SOL    HW127002   3.718   3.263   4.667  2.2491 -1.4465 -0.6728
 5123SOL    HW227003   3.849   3.318   4.630  0.3296  3.0189 -1.0778
 5124SOL     OW27004   3.112   2.869   7.279 -0.3367  0.1097  0.0199
 5124SOL    HW127005   3.091   2.829   7.194 -1.6805 -0.6090  0.6847
 5124SOL    HW227006   3.158   2.792   7.312 -1.3925 -0.0858  1.0472
 5125SOL     OW27007   3.300   2.599  17.602  0.3933  0.1505  0.1490
 5125SOL    HW127008   3.247   2.668  17.563 -1.3528 -1.3705 -0.1779
 5125SOL    HW227009   3.299   2.533  17.532  2.1209  0.3513 -0.0578
 5126SOL     OW27010   0.013   3.742   2.936  0.3420 -0.1130  0.1794
 5126SOL    HW127011   4.667   3.789   2.932 -0.3652 -1.3596  0.1153
 5126SOL    HW227012   0.077   3.812   2.930  0.4019 -0.4753 -3.5609
 5127SOL     OW27013   3.275   3.609   9.410 -0.0825 -0.4343 -0.3233
 5127SOL    HW127014   3.312   3.668   9.476  0.3526  0.6436 -1.5264
 5127SOL    HW227015   3.339   3.538   9.402  0.8777  0.3954 -0.0289
 5128SOL     OW27016   3.142   1.151  12.670  0.5895 -0.1029  0.1045
 5128SOL    HW127017   3.165   1.148  12.762 -1.1166  0.1321  0.5458
 5128SOL    HW227018   3.218   1.187  12.625 -0.6972 -0.6995 -2.6174
 5129SOL     OW27019   2.461   0.728  17.586  0.2870  0.1195  0.2272
 5129SOL    HW127020   2.430   0.717  17.676  0.5630 -1.3611  0.1417
 5129SOL    HW227021   2.555   0.724  17.602  0.6324 -0.8877 -1.9937
 5130SOL     OW27022   4.170   3.480   4.079 -0.4938 -0.0792  0.3213
 5130SOL    HW127023   4.237   3.486   4.147 -1.0267  1.8037  0.6746
 5130SOL    HW227024   4.187   3.561   4.032  1.5577 -0.8573 -0.2835
 5131SOL     OW27025   0.389   1.207  17.061 -0.3724 -0.3951 -0.1209
 5131SOL    HW127026   0.479   1.186  17.037 -0.0722  1.8109 -0.8396
 5131SOL    HW227027   0.378   1.171  17.149  2.1333 -0.2173  0.2669
 5132SOL     OW27028   2.078   4.608   8.628  0.2973 -0.5707  0.2796
 5132SOL    HW127029   2.023   4.535   8.655  0.3607 -2.2147 -3.9854
 5132SOL    HW227030   2.135   4.557   8.571 -0.4577 -0.0495 -0.9415
 5133SOL     OW27031   3.672   2.118   9.945  0.0041  1.1512 -0.7160
 5133SOL    HW127032   3.613   2.168   9.889 -1.7292 -1.0459 -0.8337
 5133SOL    HW227033   3.758   2.149   9.914  0.0762  2.7301  1.0540
 5134SOL     OW27034   1.425   3.490  12.688 -0.1189  0.4105 -0.4193
 5134SOL    HW127035   1.355   3.425  12.676  0.8541 -0.4826 -1.3266
 5134SOL    HW227036   1.495   3.437  12.651  0.4635  0.5175  0.5372
 5135SOL     OW27037   0.872   1.010   5.184  0.0501 -0.0508 -0.2002
 5135SOL    HW127038   0.905   1.100   5.181  0.3125 -0.1174  0.5194
 5135SOL    HW227039   0.949   0.965   5.149 -0.6956 -1.5470  0.0814
 5136SOL     OW27040   1.120   0.060   9.168 -0.2818  0.1665  0.0997
 5136SOL    HW127041   1.203   0.092   9.133  0.8864 -1.7389  1.1342
 5136SOL    HW227042   1.165   4.725   9.212 -1.4709 -0.4958  0.2266
 5137SOL     OW27043   4.277   1.912   5.160  0.3303  0.3335 -0.2199
 5137SOL    HW127044   4.250   1.886   5.071 -1.8145 -3.8435  1.6305
 5137SOL    HW227045   4.234   1.996   5.174 -1.1144 -0.2760 -0.9030
 5138SOL     OW27046   4.073   0.217  12.696  0.0118  0.1052  0.1102
 5138SOL    HW127047   4.040   0.285  12.755 -1.1048  0.3836 -0.8457
 5138SOL    HW227048   3.995   0.164  12.680 -0.2519  0.6664 -0.4460
 5139SOL     OW27049   4.012   2.355   9.123 -0.6284  0.0858  0.6887
 5139SOL    HW127050   4.052   2.384   9.042  0.3861  0.3150  1.2842
 5139SOL    HW227051   4.013   2.430   9.183  1.2821 -0.8592  1.8425
 5140SOL     OW27052   3.005   1.894   3.848  0.3814  0.2223  0.0171
 5140SOL    HW127053   3.096   1.919   3.831  0.2920 -0.8971 -2.1636
 5140SOL    HW227054   3.008   1.798   3.847 -0.6390  0.1527  3.1438
 5141SOL     OW27055   4.171   1.044   1.223  0.1626  0.3909 -0.0218
 5141SOL    HW127056   4.231   0.981   1.262  0.2218  0.2802 -0.2900
 5141SOL    HW227057   4.219   1.065   1.143  2.6076 -2.5374  0.7013
 5142SOL     OW27058   0.093   1.928   4.844 -0.3848 -0.1443 -0.3650
 5142SOL    HW127059   0.105   1.948   4.937 -2.6522 -0.8546  0.0660
 5142SOL    HW227060   0.179   1.895   4.817  0.1336 -0.0618  1.1815
 5143SOL     OW27061   1.217   3.416   5.469 -0.2220  0.1803 -0.7422
 5143SOL    HW127062   1.269   3.491   5.441 -2.9383  0.9104 -3.9624
 5143SOL    HW227063   1.133   3.461   5.481 -0.2355 -0.4749  1.4669
 5144SOL     OW27064   2.950   0.953   0.146 -0.0572 -0.0586 -0.0219
 5144SOL    HW127065   2.863   0.943   0.108  0.9562 -0.7783 -2.1823
 5144SOL    HW227066   2.988   1.001   0.073 -0.8033  0.4477 -0.0707
 5145SOL     OW27067   1.980   3.092   5.918  0.0020 -0.9577  0.7042
 5145SOL    HW127068   2.019   3.128   5.839  1.9538  0.5169  2.3474
 5145SOL    HW227069   2.048   3.026   5.933 -1.5286 -2.7922 -0.3534
 5146SOL     OW27070   2.355   0.078   5.227  0.5381  0.2308 -0.2096
 5146SOL    HW127071   2.405   0.140   5.174 -1.2967  1.8504 -0.0424
 5146SOL    HW227072   2.345   0.012   5.158 -0.3664 -1.2245  1.3195
 5147SOL     OW27073   3.157   2.275   7.653  0.1166  0.3832 -0.0352
 5147SOL    HW127074   3.087   2.210   7.654  1.3747 -0.9661  0.2020
 5147SOL    HW227075   3.145   2.323   7.735 -2.3499 -0.8160  0.3017
 5148SOL     OW27076   4.448   3.045   4.963  0.1580  0.3935  0.0856
 5148SOL    HW127077   4.408   3.012   4.882 -1.9523  0.9676  0.8943
 5148SOL    HW227078   4.406   2.988   5.027 -4.0743 -0.0088 -3.0451
 5149SOL     OW27079   3.838   1.986   6.983  0.3657  0.2037  0.4852
 5149SOL    HW127080   3.899   1.927   7.026  2.9357  2.4422 -0.1539
 5149SOL    HW227081   3.753   1.943   6.993 -0.2336  1.4232  0.5854
 5150SOL     OW27082   0.283   1.800  13.527 -0.8941 -0.2214 -0.0457
 5150SOL    HW127083   0.236   1.720  13.550 -1.0469 -0.2902 -0.5994
 5150SOL    HW227084   0.370   1.773  13.557 -0.5083 -0.5547 -1.4553
 5151SOL     OW27085   4.059   3.797   1.886 -0.7233  0.2945  0.0512
 5151SOL    HW127086   3.964   3.782   1.882 -0.2943 -2.1820 -1.2901
 5151SOL    HW227087   4.092   3.716   1.926 -0.6801 -0.7003 -1.9646
 5152SOL     OW27088   0.577   1.287   9.938 -0.5024 -0.1295  0.1936
 5152SOL    HW127089   0.511   1.352   9.912 -0.9702 -0.1042  1.4274
 5152SOL    HW227090   0.594   1.243   9.855  1.6295 -3.1866  2.2644
 5153SOL     OW27091   4.058   1.092   3.065  0.1747  0.0344  0.5782
 5153SOL    HW127092   4.083   1.114   3.155 -0.8132  1.5157  0.4889
 5153SOL    HW227093   4.118   1.145   3.014  0.0563 -0.1835  0.2120
 5154SOL     OW27094   1.107   3.088   5.908 -0.1605  0.4202 -0.8406
 5154SOL    HW127095   1.125   3.000   5.873 -1.0409 -0.0669 -0.0703
 5154SOL    HW227096   1.169   3.145   5.863  0.2506  1.3916  0.9326
 5155SOL     OW27097   1.306   0.095  11.978  0.0738  0.5747  0.0578
 5155SOL    HW127098   1.285   0.105  12.071  3.7892  0.1389  0.9288
 5155SOL    HW227099   1.288   0.001  11.971 -2.6990  1.1485 -0.3639
 5156SOL     OW27100   1.527   0.659   4.221  0.0052 -0.5257  0.1180
 5156SOL    HW127101   1.526   0.599   4.146  1.4936 -1.7310  1.0757
 5156SOL    HW227102   1.585   0.723   4.180  0.2433  0.6233  2.2935
 5157SOL     OW27103   0.794   4.034  17.348 -0.3949 -0.0793  0.6168
 5157SOL    HW127104   0.826   4.031  17.438  0.5990  0.3150  0.2768
 5157SOL    HW227105   0.846   4.108  17.317  0.7933 -0.6430  1.2787
 5158SOL     OW27106   2.679   4.683  16.979  0.7691 -0.3025  0.2410
 5158SOL    HW127107   2.755   4.730  16.945  0.2331 -0.8252 -1.6830
 5158SOL    HW227108   2.702   4.590  16.973  1.8864 -0.1634  2.1273
 5159SOL     OW27109   2.371   0.726  14.735  0.3449 -0.1806  0.2673
 5159SOL    HW127110   2.384   0.753  14.644 -0.8472 -3.9855 -1.0209
 5159SOL    HW227111   2.395   0.805  14.783 -1.5131 -0.1479  1.1580
 5160SOL     OW27112   0.658   4.462   0.969 -0.1155  0.0274 -0.4438
 5160SOL    HW127113   0.649   4.379   0.922  0.2370  0.3254 -1.0418
 5160SOL    HW227114   0.693   4.420   1.047 -1.3873  0.6129  0.4336
 5161SOL     OW27115   1.938   2.527  13.414 -0.2577 -0.3406  0.2389
 5161SOL    HW127116   1.977   2.603  13.458 -0.3821  0.2828 -0.7271
 5161SOL    HW227117   1.880   2.574  13.353  0.8817  1.2002  0.3287
 5162SOL     OW27118   2.404   1.047   2.495 -0.0601 -0.8442  0.0673
 5162SOL    HW127119   2.446   0.988   2.558  1.0269  0.4865  0.5945
 5162SOL    HW227120   2.319   1.067   2.533 -0.5605 -0.6215 -1.1611
 5163SOL     OW27121   3.174   0.151  14.850  0.0350 -0.5274  0.1987
 5163SOL    HW127122   3.110   0.209  14.894 -0.2277 -2.1115  1.9073
 5163SOL    HW227123   3.255   0.189  14.884  0.9544 -0.8797 -1.6444
 5164SOL     OW27124   1.637   1.363   5.171 -0.2649 -0.1195  0.4534
 5164SOL    HW127125   1.571   1.382   5.104  1.1859 -0.1682 -0.9940
 5164SOL    HW227126   1.710   1.331   5.119 -0.9180  2.0529 -1.7976
 5165SOL     OW27127   3.093   0.762   3.016  0.0984 -0.6909 -0.1772
 5165SOL    HW127128   3.034   0.755   2.941  1.0176  0.3796 -1.0006
 5165SOL    HW227129   3.058   0.844   3.052  3.0385  0.7163 -0.5875
 5166SOL     OW27130   2.163   0.588   9.816 -0.4533  0.2037  0.4196
 5166SOL    HW127131   2.225   0.515   9.813  1.9392  2.3729 -2.2394
 5166SOL    HW227132   2.134   0.575   9.906  0.9833  1.6947  1.0966
 5167SOL     OW27133   4.117   0.129   6.185 -0.2539  0.0836  0.3345
 5167SOL    HW127134   4.197   0.148   6.233  1.4330 -1.7179 -1.7971
 5167SOL    HW227135   4.152   0.120   6.096 -0.7268 -1.0959  0.2723
 5168SOL     OW27136   2.153   2.607   7.509  0.2116  0.1258  0.2398
 5168SOL    HW127137   2.185   2.555   7.436  2.0627  1.1767  0.2950
 5168SOL    HW227138   2.060   2.586   7.514  0.5205 -1.1418  0.5918
 5169SOL     OW27139   3.238   2.962   2.878 -0.3119 -0.6480 -0.4804
 5169SOL    HW127140   3.321   2.967   2.925  1.0958 -1.0181 -2.9387
 5169SOL    HW227141   3.171   2.940   2.943  0.1967 -0.0907  0.2301
 5170SOL     OW27142   1.325   3.085   3.198 -0.4016 -0.0916  0.5009
 5170SOL    HW127143   1.232   3.098   3.218 -0.4613  0.5164 -0.1720
 5170SOL    HW227144   1.366   3.112   3.281 -0.3962  0.3361  0.3612
 5171SOL     OW27145   2.066   2.884  13.084 -0.5468 -0.0059  0.1440
 5171SOL    HW127146   2.121   2.822  13.131  0.0326 -0.3297 -0.9493
 5171SOL    HW227147   2.065   2.959  13.143  2.8884  0.0407  0.1523
 5172SOL     OW27148   4.257   3.339   6.670 -0.0997 -0.2406 -0.0457
 5172SOL    HW127149   4.210   3.284   6.733 -0.6065 -0.0578 -0.2663
 5172SOL    HW227150   4.189   3.341   6.603  0.9042  0.6450 -1.0317
 5173SOL     OW27151   1.439   0.023  15.616  0.4666 -0.5380  0.0161
 5173SOL    HW127152   1.485   4.691  15.664  1.1940  0.6499  1.0308
 5173SOL    HW227153   1.371   4.706  15.576  0.9680 -0.1858 -1.3076
 5174SOL     OW27154   3.985   4.123   4.631  0.1635 -0.7664 -0.4380
 5174SOL    HW127155   3.910   4.176   4.657  1.1265  1.4916 -2.2584
 5174SOL    HW227156   3.955   4.081   4.550  0.2046 -0.9680 -0.3491
 5175SOL     OW27157   1.927   0.450   6.252  0.1302  0.1084  0.5640
 5175SOL    HW127158   1.932   0.522   6.188 -2.7224 -2.0327 -2.0990
 5175SOL    HW227159   1.978   0.382   6.208  2.4918  2.9206 -1.0853
 5176SOL     OW27160   1.448   3.007  11.461 -0.2313  0.2026 -0.1412
 5176SOL    HW127161   1.405   2.974  11.382  1.0115 -0.3892 -0.5671
 5176SOL    HW227162   1.453   3.098  11.435 -0.5252  0.9932  2.5802
 5177SOL     OW27163   2.266   1.367   7.806 -0.2843 -0.4223  0.0192
 5177SOL    HW127164   2.242   1.442   7.862 -0.1594 -1.5470  1.5790
 5177SOL    HW227165   2.228   1.292   7.852 -0.9620 -0.1974 -0.1741
 5178SOL     OW27166   4.186   2.476   2.206 -0.1538 -0.3838  0.3833
 5178SOL    HW127167   4.273   2.446   2.183 -0.2291 -1.6867  1.8101
 5178SOL    HW227168   4.136   2.404   2.168 -0.1715  0.4555 -1.2171
 5179SOL     OW27169   0.430   0.070   1.842  0.5452 -0.2763 -0.6771
 5179SOL    HW127170   0.380   0.150   1.856  0.3536 -0.2157 -1.6948
 5179SOL    HW227171   0.427   0.017   1.922  1.2942  2.3666  1.1084
 5180SOL     OW27172   2.805   3.033  11.727  0.0612 -0.1228 -0.2010
 5180SOL    HW127173   2.856   3.059  11.804 -2.6078  0.6076  1.3099
 5180SOL    HW227174   2.819   2.938  11.722 -1.7941 -0.4209  0.1294
 5181SOL     OW27175   2.711   4.020   1.142 -0.0429  0.6204 -0.4330
 5181SOL    HW127176   2.636   4.080   1.143 -0.6542 -0.1622  1.5541
 5181SOL    HW227177   2.679   3.949   1.087  0.2196  1.2788 -1.4236
 5182SOL     OW27178   4.045   2.488   3.540  0.7814  0.2749 -0.0839
 5182SOL    HW127179   4.018   2.396   3.539  0.3456  0.3952  0.4955
 5182SOL    HW227180   4.121   2.485   3.481 -0.3082 -1.2506 -1.4072
 5183SOL     OW27181   4.466   1.466   2.253  0.3055  0.1973  0.6575
 5183SOL    HW127182   4.489   1.508   2.170  1.8778 -0.5830  0.7174
 5183SOL    HW227183   4.542   1.497   2.303  0.5487  0.3145  0.2087
 5184SOL     OW27184   3.068   1.222  11.664  0.2998 -0.1281 -0.6056
 5184SOL    HW127185   3.162   1.235  11.674  0.1450  0.1495  0.5022
 5184SOL    HW227186   3.045   1.287  11.598  0.4558 -0.8098 -1.3269
 5185SOL     OW27187   1.801   2.219   8.424 -0.2550  0.0038 -0.5301
 5185SOL    HW127188   1.798   2.124   8.425 -1.3319  0.0364 -0.2607
 5185SOL    HW227189   1.859   2.238   8.498 -0.8777 -1.4453  0.3257
 5186SOL     OW27190   2.136   1.534   4.251  0.0191  0.0551 -0.0798
 5186SOL    HW127191   2.096   1.539   4.164 -0.5714 -2.8322  0.0201
 5186SOL    HW227192   2.226   1.513   4.226 -0.6083 -1.2461 -1.2834
 5187SOL     OW27193   1.097   4.484   0.839  0.4205  0.5639 -1.0746
 5187SOL    HW127194   1.140   4.403   0.813 -0.1360  0.2298 -0.9644
 5187SOL    HW227195   1.025   4.439   0.883  1.5934  0.9724  1.2954
 5188SOL     OW27196   1.740   4.625   6.105 -0.3378 -0.1878  0.3213
 5188SOL    HW127197   1.737   4.701   6.047  2.4528  0.1234  0.5835
 5188SOL    HW227198   1.825   4.587   6.085  0.1268  0.1918  1.5659
 5189SOL     OW27199   1.786   2.066   3.491 -0.0643  0.7843 -0.1591
 5189SOL    HW127200   1.743   2.147   3.463 -1.1141  0.8316  1.5757
 5189SOL    HW227201   1.709   2.013   3.510  0.6833  0.2023  1.2293
 5190SOL     OW27202   0.405   2.789  11.896  0.1176 -0.9139  0.2409
 5190SOL    HW127203   0.440   2.846  11.827 -2.0059  2.5374  2.0015
 5190SOL    HW227204   0.356   2.723  11.847 -2.6712  0.2186  1.5599
 5191SOL     OW27205   0.054   1.537   6.209 -0.4166  0.6229 -0.0656
 5191SOL    HW127206   0.137   1.572   6.241 -0.4054  0.7616 -0.2510
 5191SOL    HW227207   4.737   1.613   6.190 -1.0956  0.2972  0.5435
 5192SOL     OW27208   2.820   0.019   7.665 -0.2644 -0.0742 -0.4756
 5192SOL    HW127209   2.781   4.683   7.712  0.6355  0.2120  0.7364
 5192SOL    HW227210   2.904   4.720   7.639  1.3029  1.2593  2.6267
 5193SOL     OW27211   1.352   0.011   3.005 -0.3745 -0.0836 -0.2054
 5193SOL    HW127212   1.320   0.096   2.976 -0.4973  0.3197  1.0987
 5193SOL    HW227213   1.441   0.029   3.035 -1.4504 -1.2030  3.7137
 5194SOL     OW27214   0.070   3.072   4.647 -0.4970  0.6068  0.6607
 5194SOL    HW127215   0.130   2.999   4.660 -1.4116 -0.1568  0.6351
 5194SOL    HW227216   0.043   3.094   4.737  0.1348  0.3179  0.9198
 5195SOL     OW27217   0.755   1.704   4.977  0.2929  0.0108 -0.3628
 5195SOL    HW127218   0.754   1.656   5.060  0.7175  0.0023 -0.3633
 5195SOL    HW227219   0.849   1.697   4.967  0.5582  2.5640  0.2321
 5196SOL     OW27220   1.840   3.226   2.360 -0.4850 -0.2170 -0.1861
 5196SOL    HW127221   1.774   3.179   2.412  1.5458  0.1679  2.7078
 5196SOL    HW227222   1.797   3.212   2.275 -1.5530 -1.2046  0.5195
 5197SOL     OW27223   0.282   4.026  11.399  0.0156 -0.2804 -0.1399
 5197SOL    HW127224   0.232   3.944  11.396 -0.8119  0.1959  0.6805
 5197SOL    HW227225   0.242   4.068  11.475  0.5750 -2.0665  1.1248
 5198SOL     OW27226   4.567   0.020   4.329  0.4741  0.2450  0.7172
 5198SOL    HW127227   4.601   0.077   4.260  2.7274  1.4708  2.8830
 5198SOL    HW227228   4.530   0.083   4.390  0.0570  2.4217 -1.7715
 5199SOL     OW27229   2.782   3.671   4.208  0.1782  0.3572 -0.3202
 5199SOL    HW127230   2.791   3.722   4.288  0.8372 -0.3593  0.0658
 5199SOL    HW227231   2.745   3.742   4.155 -2.7485  1.6996  3.5837
 5200SOL     OW27232   0.530   1.499   1.765  0.0786 -0.3179  0.3205
 5200SOL    HW127233   0.552   1.546   1.685 -0.1926 -2.0489 -0.7845
 5200SOL    HW227234   0.516   1.411   1.728 -0.3990  0.2896 -0.9374
 5201SOL     OW27235   1.299   2.516   2.375 -0.0048  0.0601 -0.1185
 5201SOL    HW127236   1.277   2.454   2.445  0.8507 -0.6663 -0.4992
 5201SOL    HW227237   1.340   2.581   2.432  1.4926 -0.5575 -0.4935
 5202SOL     OW27238   3.712   1.167   5.445 -0.4187 -0.0447  0.1566
 5202SOL    HW127239   3.681   1.195   5.359  3.2436  2.8538 -0.2469
 5202SOL    HW227240   3.787   1.113   5.423 -0.7944 -0.4891 -0.0207
 5203SOL     OW27241   4.381   1.625   0.993 -0.8099  0.3550 -0.7788
 5203SOL    HW127242   4.401   1.646   1.084 -3.0745  0.2387 -0.2504
 5203SOL    HW227243   4.341   1.538   0.995 -0.7352  0.3203 -0.7797
 5204SOL     OW27244   2.175   0.377  15.807  0.2871 -0.1288 -0.0577
 5204SOL    HW127245   2.118   0.338  15.740 -0.9165 -1.4289  1.7081
 5204SOL    HW227246   2.118   0.452  15.824 -0.3596 -0.3650 -1.1865
 5205SOL     OW27247   2.059   2.129   2.680 -0.0049 -0.1696  0.0605
 5205SOL    HW127248   1.993   2.100   2.743  0.0177  0.1901  0.2515
 5205SOL    HW227249   2.050   2.224   2.693 -1.2096 -0.0716 -1.4689
 5206SOL     OW27250   2.448   1.883   3.732 -0.0343 -0.1089  0.1536
 5206SOL    HW127251   2.383   1.863   3.665 -0.2507 -0.5610  0.4981
 5206SOL    HW227252   2.518   1.821   3.709  0.1236  0.7570 -1.7437
 5207SOL     OW27253   0.862   4.174   2.214  0.2509 -0.7911  0.2087
 5207SOL    HW127254   0.868   4.098   2.155  1.0525 -2.4798  2.4403
 5207SOL    HW227255   0.799   4.145   2.280  0.9247 -0.9038  0.8161
 5208SOL     OW27256   2.405   4.648   3.419  0.0975  0.0376  0.4281
 5208SOL    HW127257   2.467   4.703   3.371  0.4834 -0.1154  0.7477
 5208SOL    HW227258   2.326   4.680   3.376  0.2644 -1.3223 -0.8807
 5209SOL     OW27259   4.056   4.192   7.516 -0.5393 -0.7478 -0.3778
 5209SOL    HW127260   4.131   4.250   7.498 -0.7826  0.0112  0.9762
 5209SOL    HW227261   4.067   4.112   7.465  0.0090 -0.0810 -1.3179
 5210SOL     OW27262   4.550   3.029  13.426  0.3828 -0.1178  0.3562
 5210SOL    HW127263   4.517   3.113  13.396 -2.8953 -0.5475  2.8518
 5210SOL    HW227264   4.530   3.032  13.519  0.7170  1.8340  0.3536
 5211SOL     OW27265   2.713   3.804   2.140 -0.3725  0.1069 -0.1680
 5211SOL    HW127266   2.672   3.741   2.080  1.6083 -1.1984 -0.1247
 5211SOL    HW227267   2.707   3.880   2.081 -0.6990 -1.0277 -1.5967
 5212SOL     OW27268   1.286   2.990  15.709  0.0345 -0.3669 -0.3653
 5212SOL    HW127269   1.379   3.004  15.688  0.1295  0.1338  0.3639
 5212SOL    HW227270   1.296   2.915  15.767  2.0017  0.1162 -0.0664
 5213SOL     OW27271   3.401   1.335   9.037  0.2221 -0.5526 -0.0458
 5213SOL    HW127272   3.491   1.304   9.027  1.6570  2.9681  2.1920
 5213SOL    HW227273   3.368   1.304   9.121  0.1197 -0.0425  0.1023
 5214SOL     OW27274   2.018   0.534   3.083  0.4633 -0.2179  0.8814
 5214SOL    HW127275   2.028   0.442   3.059  0.0094 -0.4168  1.4777
 5214SOL    HW227276   1.986   0.571   3.001  1.0586  0.0417  0.7604
 5215SOL     OW27277   0.975   2.993  10.964  0.7470 -0.2873 -0.1122
 5215SOL    HW127278   0.976   2.911  11.014  0.9423  0.6010  1.3295
 5215SOL    HW227279   0.999   3.059  11.029  1.8012 -0.1958 -0.5980
 5216SOL     OW27280   2.248   3.848   3.269  0.1628  0.1820  0.0734
 5216SOL    HW127281   2.173   3.861   3.326 -0.9846 -0.0432 -1.3966
 5216SOL    HW227282   2.319   3.810   3.321 -1.1136 -0.7464  1.0981
 5217SOL     OW27283   1.727   2.356   3.246  0.5748 -0.2756 -0.6248
 5217SOL    HW127284   1.716   2.345   3.341  0.3485 -0.5207 -0.6805
 5217SOL    HW227285   1.642   2.336   3.207 -0.2800 -1.0799  1.6600
 5218SOL     OW27286   3.284   1.324   2.019 -0.1149 -0.1195  0.0387
 5218SOL    HW127287   3.342   1.375   1.962  0.8689 -2.1888 -0.8135
 5218SOL    HW227288   3.347   1.269   2.065  0.5200 -0.4077 -1.1909
 5219SOL     OW27289   1.208   4.510   8.134 -0.6449  0.0686 -0.2803
 5219SOL    HW127290   1.282   4.480   8.187 -0.3758  1.3020  0.0437
 5219SOL    HW227291   1.131   4.506   8.191 -0.4198  0.4221  0.0488
 5220SOL     OW27292   3.473   3.706  13.048 -0.2149  0.1441  0.6494
 5220SOL    HW127293   3.506   3.770  12.984  1.5746 -1.5881 -0.1549
 5220SOL    HW227294   3.551   3.650  13.052  2.0823  3.2033 -0.8239
 5221SOL     OW27295   4.134   0.881   0.630 -0.0777 -0.0132  0.1241
 5221SOL    HW127296   4.101   0.903   0.717 -1.6828 -0.4440 -0.3701
 5221SOL    HW227297   4.211   0.825   0.641 -0.6407 -0.4213  1.8797
 5222SOL     OW27298   0.549   3.986  17.690 -0.6517  0.3572 -0.1160
 5222SOL    HW127299   0.628   3.966  17.740  0.3951  4.0584 -0.2418
 5222SOL    HW227300   0.525   3.910  17.637  1.3201 -0.3287  0.0146
 5223SOL     OW27301   0.980   2.906  14.269 -0.2711 -0.0960  0.3742
 5223SOL    HW127302   0.902   2.888  14.320  0.2369  0.5589  1.3669
 5223SOL    HW227303   1.032   2.836  14.308 -0.7835 -1.3545 -1.1968
 5224SOL     OW27304   0.094   3.085   5.165 -0.3805 -0.6463  0.0390
 5224SOL    HW127305   0.153   3.039   5.224 -0.6145 -0.2792  0.5548
 5224SOL    HW227306   0.094   3.172   5.203 -2.8195  0.0740 -1.6171
 5225SOL     OW27307   4.287   4.614   8.795 -0.1721  0.0529 -0.2035
 5225SOL    HW127308   4.290   4.627   8.889 -2.7096  0.1817 -0.1341
 5225SOL    HW227309   4.212   4.554   8.792 -0.3463  0.2644 -0.0821
 5226SOL     OW27310   1.625   1.446   2.129  0.3890  0.0073 -0.5208
 5226SOL    HW127311   1.624   1.490   2.044  1.2752  0.4520 -0.2999
 5226SOL    HW227312   1.702   1.389   2.125 -1.4312 -2.4394 -1.0161
 5227SOL     OW27313   1.892   2.182  15.241  0.3176 -0.2012  0.4346
 5227SOL    HW127314   1.872   2.166  15.149 -0.0351 -0.6590  0.5950
 5227SOL    HW227315   1.891   2.278  15.239 -1.3647 -0.1871  1.6319
 5228SOL     OW27316   2.274   4.675   2.141  0.0330  0.2623 -0.1360
 5228SOL    HW127317   2.332   4.618   2.192 -1.4111 -1.1889 -0.1111
 5228SOL    HW227318   2.220   4.692   2.219 -0.1723  2.1611 -0.6914
 5229SOL     OW27319   2.330   3.522   9.011  0.4763  0.0118 -0.7323
 5229SOL    HW127320   2.262   3.462   9.041  0.2974  0.0843 -1.0001
 5229SOL    HW227321   2.312   3.525   8.917  1.3394  0.0941 -0.8915
 5230SOL     OW27322   4.414   2.403  16.775 -0.2244  0.7835 -0.1845
 5230SOL    HW127323   4.376   2.470  16.719  1.1493  0.0212 -2.0446
 5230SOL    HW227324   4.328   2.372  16.804  0.5962 -0.1171  1.3049
 5231SOL     OW27325   4.212   1.273   4.529 -0.2412 -0.4418 -0.3505
 5231SOL    HW127326   4.240   1.333   4.599 -0.6554  0.6272 -1.0939
 5231SOL    HW227327   4.255   1.192   4.554 -0.4173 -0.5475 -0.3932
 5232SOL     OW27328   2.840   0.944   5.998  0.5789  0.5975 -0.3424
 5232SOL    HW127329   2.848   1.034   6.031 -3.2528  1.1561 -0.9081
 5232SOL    HW227330   2.752   0.926   6.031  0.5266  1.3209 -0.0849
 5233SOL     OW27331   1.604   1.712   8.909  0.4000  0.2060  0.2525
 5233SOL    HW127332   1.699   1.701   8.916  0.3700  0.7444  1.4757
 5233SOL    HW227333   1.597   1.716   8.813  0.0719 -1.2932  0.2089
 5234SOL     OW27334   0.174   0.319  12.825 -0.0942 -0.1540 -0.5327
 5234SOL    HW127335   0.124   0.295  12.902  1.2666  0.7488  0.6455
 5234SOL    HW227336   0.258   0.296  12.866 -1.2572 -2.3820  0.5917
 5235SOL     OW27337   1.335   0.462  14.843 -0.3336  0.5926 -1.1881
 5235SOL    HW127338   1.419   0.437  14.805 -0.6401 -2.3317  0.1269
 5235SOL    HW227339   1.365   0.442  14.932 -0.7393  0.8795 -0.9867
 5236SOL     OW27340   1.777   0.814   7.114  0.0465  0.3585  0.0545
 5236SOL    HW127341   1.807   0.877   7.049 -0.0022  1.4671  1.1016
 5236SOL    HW227342   1.689   0.845   7.133 -0.8964 -1.0191 -2.1359
 5237SOL     OW27343   4.378   2.401   1.232 -0.3730 -0.2700  0.2130
 5237SOL    HW127344   4.405   2.491   1.215 -1.0428 -0.2797 -0.8853
 5237SOL    HW227345   4.308   2.397   1.167  0.5907 -1.1690 -0.7715
 5238SOL     OW27346   3.315   2.053  13.965 -0.1494 -0.0915 -0.1745
 5238SOL    HW127347   3.307   2.148  13.959 -0.2934  0.0726  2.5047
 5238SOL    HW227348   3.222   2.029  13.965 -0.0673 -0.4359 -1.6105
 5239SOL     OW27349   0.726   0.916   8.571 -0.7707  0.3171 -0.2151
 5239SOL    HW127350   0.751   1.005   8.545  1.4060 -0.6023 -1.3244
 5239SOL    HW227351   0.776   0.915   8.653 -0.1899  0.3120 -0.5701
 5240SOL     OW27352   1.804   3.228  11.098 -0.1329  0.3217 -0.8738
 5240SOL    HW127353   1.761   3.306  11.134 -0.7358 -0.6261  0.4401
 5240SOL    HW227354   1.732   3.190  11.048 -0.9296  1.7836 -0.8465
 5241SOL     OW27355   3.827   1.803  17.602 -0.6506  0.0195  0.0360
 5241SOL    HW127356   3.874   1.778  17.681 -0.4062 -0.0528 -0.1304
 5241SOL    HW227357   3.896   1.791  17.536 -0.5577  0.1488  0.1094
 5242SOL     OW27358   4.698   3.425  11.237  0.2309 -0.7292 -0.0063
 5242SOL    HW127359   4.736   3.477  11.167 -2.4393 -1.1151 -1.7466
 5242SOL    HW227360   4.605   3.447  11.225  0.1690 -1.1743 -0.3183
 5243SOL     OW27361   2.372   2.636   5.457 -0.0902  0.2628  0.2319
 5243SOL    HW127362   2.338   2.631   5.546 -2.7650 -1.2483 -0.8565
 5243SOL    HW227363   2.464   2.651   5.475  0.5408 -0.5920 -2.2418
 5244SOL     OW27364   3.219   4.310   7.223  0.3957 -0.0849 -0.2196
 5244SOL    HW127365   3.234   4.400   7.193  1.7455 -0.2220  0.0479
 5244SOL    HW227366   3.219   4.307   7.319 -1.0013  0.0980 -0.2023
 5245SOL     OW27367   2.573   4.235   8.063  0.2786  0.4119 -0.8369
 5245SOL    HW127368   2.516   4.184   8.121  3.0081  0.0557  1.5151
 5245SOL    HW227369   2.537   4.197   7.983 -2.1016  0.4371  0.2336
 5246SOL     OW27370   3.547   0.401   8.634  0.0461 -0.0016 -0.1754
 5246SOL    HW127371   3.505   0.330   8.684 -0.3872 -0.7887 -1.6594
 5246SOL    HW227372   3.641   0.385   8.628 -0.0276 -0.3888 -0.2834
 5247SOL     OW27373   4.625   2.852  10.103 -0.6916  0.5395  0.3492
 5247SOL    HW127374   4.576   2.832  10.183 -1.8159  2.0268  0.0417
 5247SOL    HW227375   4.606   2.771  10.056  2.4758  1.0009 -1.7363
 5248SOL     OW27376   0.671   2.497   1.445 -0.2904 -0.2609 -0.4846
 5248SOL    HW127377   0.626   2.578   1.421  1.2386  0.2774 -1.5242
 5248SOL    HW227378   0.629   2.435   1.386 -0.6821 -1.6333  1.2420
 5249SOL     OW27379   4.460   1.939   4.256  0.0190  0.2058 -0.0672
 5249SOL    HW127380   4.386   1.923   4.314 -0.3959  0.3893 -0.5444
 5249SOL    HW227381   4.422   2.001   4.193  4.2549  2.9654  0.0999
 5250SOL     OW27382   1.697   3.259   2.944  0.0371  0.1175 -0.0091
 5250SOL    HW127383   1.626   3.214   2.989 -1.0253  0.2785 -1.5720
 5250SOL    HW227384   1.645   3.330   2.907  1.4527  1.5680  0.7522
 5251SOL     OW27385   4.298   1.660   1.432  0.3553  0.3670  0.0472
 5251SOL    HW127386   4.214   1.634   1.395  0.1165  1.6052 -0.3112
 5251SOL    HW227387   4.275   1.681   1.522  4.1786  0.1428  1.0865
 5252SOL     OW27388   4.708   2.317   3.641 -0.3084 -0.6417 -0.7699
 5252SOL    HW127389   4.726   2.354   3.555  1.3387  0.3233 -0.0174
 5252SOL    HW227390   4.627   2.359   3.667 -1.4950 -1.9010 -2.4161
 5253SOL     OW27391   4.463   4.175   3.289 -0.5922  0.2051  0.4636
 5253SOL    HW127392   4.505   4.094   3.261  0.5817  0.4109  1.6469
 5253SOL    HW227393   4.394   4.188   3.224 -0.4683 -0.6011  0.1840
 5254SOL     OW27394   3.107   4.077  13.447 -0.4169 -0.5303 -0.0899
 5254SOL    HW127395   3.019   4.110  13.462 -0.3590 -0.0109 -0.8444
 5254SOL    HW227396   3.102   4.076  13.351 -1.2948  0.3971 -0.0594
 5255SOL     OW27397   2.664   0.565   5.764 -0.2381 -0.2249 -0.1070
 5255SOL    HW127398   2.628   0.477   5.758  1.4181 -0.9572  0.5805
 5255SOL    HW227399   2.601   0.624   5.723  4.5480  3.4162 -2.1769
 5256SOL     OW27400   0.074   3.110  13.703  0.3992 -0.0762 -0.2622
 5256SOL    HW127401   0.088   3.060  13.623 -0.4765 -0.6172 -0.0831
 5256SOL    HW227402   0.165   3.137  13.712  0.7766 -0.5937 -2.4663
 5257SOL     OW27403   1.513   0.859   7.173 -0.0352 -0.2017  0.1371
 5257SOL    HW127404   1.489   0.813   7.254  0.9109  1.9423  1.6554
 5257SOL    HW227405   1.446   0.818   7.119  0.3190 -0.8402  0.1868
 5258SOL     OW27406   3.927   3.347   7.314  0.1587 -0.0057  0.8918
 5258SOL    HW127407   4.002   3.406   7.306 -1.3291  1.4426 -2.2618
 5258SOL    HW227408   3.966   3.266   7.349 -0.2950 -0.8706 -0.5925
 5259SOL     OW27409   4.407   2.260   6.346  0.0527  0.0618  0.1302
 5259SOL    HW127410   4.407   2.339   6.292  1.2867 -0.6223 -0.8579
 5259SOL    HW227411   4.472   2.211   6.296 -0.3648  0.3065 -0.6541
 5260SOL     OW27412   2.840   4.690   2.271 -0.0586 -0.0482 -0.3784
 5260SOL    HW127413   2.876   4.713   2.357 -1.6103 -0.3859  0.3624
 5260SOL    HW227414   2.780   0.027   2.260 -0.5130 -0.3271  0.1864
 5261SOL     OW27415   3.238   4.231  15.582  0.3918  0.5045 -0.7651
 5261SOL    HW127416   3.165   4.169  15.577  0.6081  0.3271 -1.6666
 5261SOL    HW227417   3.297   4.181  15.525  0.1588 -2.7975  1.8488
 5262SOL     OW27418   3.908   1.149   8.460  0.2475 -0.2077 -0.3302
 5262SOL    HW127419   4.000   1.149   8.485 -0.3657  2.0539  1.8800
 5262SOL    HW227420   3.873   1.235   8.482 -2.0578 -1.3597  0.5773
 5263SOL     OW27421   1.290   3.786   2.784 -0.0320 -0.4022 -0.3290
 5263SOL    HW127422   1.307   3.710   2.729  5.3686  0.1832  0.5909
 5263SOL    HW227423   1.290   3.864   2.728 -1.3067  0.0880  0.3565
 5264SOL     OW27424   1.590   4.248   6.538 -0.0746 -0.2494 -0.4679
 5264SOL    HW127425   1.575   4.154   6.550  0.9779 -0.4458 -0.7012
 5264SOL    HW227426   1.664   4.249   6.478 -0.0774  0.9509 -0.4550
 5265SOL     OW27427   0.017   3.023   2.027 -0.7857  0.1202  0.1831
 5265SOL    HW127428   0.042   3.054   2.114  0.5020  0.8956 -0.4625
 5265SOL    HW227429   4.666   2.993   2.046 -0.5977 -1.0501 -0.8113
 5266SOL     OW27430   0.685   0.092   5.085 -0.0022 -0.3807 -0.3174
 5266SOL    HW127431   0.606   0.144   5.094  0.6682  0.4004  1.0642
 5266SOL    HW227432   0.679   0.048   5.000 -3.2255 -0.9117  0.2083
 5267SOL     OW27433   1.495   4.378   7.945 -0.2436 -0.0206  0.0134
 5267SOL    HW127434   1.426   4.320   7.913  0.7229 -0.5601 -1.0623
 5267SOL    HW227435   1.493   4.440   7.872 -1.7175  0.4813  0.4739
 5268SOL     OW27436   4.736   0.827   5.096 -0.2406  0.4842 -0.1617
 5268SOL    HW127437   4.700   0.803   5.181 -1.0924  1.5248 -0.2283
 5268SOL    HW227438   4.692   0.912   5.099 -1.0316  0.1227 -1.8506
 5269SOL     OW27439   2.292   3.564   6.561  0.6199 -0.0274 -0.0611
 5269SOL    HW127440   2.357   3.564   6.632 -0.1340  2.9522  0.6402
 5269SOL    HW227441   2.305   3.656   6.537  0.5715 -0.1388 -0.5159
 5270SOL     OW27442   2.019   0.111   1.321  0.0221 -0.2991  0.0728
 5270SOL    HW127443   2.042   0.083   1.410  0.5874 -1.6136 -0.4932
 5270SOL    HW227444   2.017   0.207   1.326 -0.2921 -0.2746 -0.4810
 5271SOL     OW27445   4.498   2.357   7.404 -0.0775  0.5366 -0.4178
 5271SOL    HW127446   4.436   2.372   7.476  3.7757  2.7964  2.4380
 5271SOL    HW227447   4.535   2.445   7.394 -1.5507  1.0244 -1.6016
 5272SOL     OW27448   1.423   0.594  12.230  0.0789 -0.0365 -0.4525
 5272SOL    HW127449   1.483   0.653  12.275 -0.8254  0.4443  0.1229
 5272SOL    HW227450   1.344   0.648  12.226  0.2025  0.2028  0.4829
 5273SOL     OW27451   1.200   1.396   1.820 -0.1310  0.0722 -0.1852
 5273SOL    HW127452   1.190   1.450   1.898  2.9386 -0.1951  0.3650
 5273SOL    HW227453   1.238   1.316   1.855 -0.7691  0.0199  0.3814
 5274SOL     OW27454   1.336   2.988  16.249  0.1719  0.1000  0.7086
 5274SOL    HW127455   1.295   2.916  16.200 -2.8437  2.3112  0.0247
 5274SOL    HW227456   1.262   3.046  16.265 -1.7289 -1.7197 -1.4641
 5275SOL     OW27457   4.054   3.090   4.076 -0.3543 -0.3705 -0.1911
 5275SOL    HW127458   4.026   3.166   4.127  0.3351 -0.9573  1.0406
 5275SOL    HW227459   4.027   3.125   3.991  0.7771  1.2176  0.1098
 5276SOL     OW27460   2.732   3.608  15.229  0.1896 -0.2895  0.3636
 5276SOL    HW127461   2.776   3.581  15.148  0.9108  0.8862  0.3652
 5276SOL    HW227462   2.673   3.534  15.242 -0.2651 -0.1103 -0.7334
 5277SOL     OW27463   3.681   2.702  11.791  0.6353  0.6358  0.5875
 5277SOL    HW127464   3.652   2.761  11.721 -1.5970 -0.0908  0.8843
 5277SOL    HW227465   3.600   2.707  11.843  0.5600  0.5692  0.4756
 5278SOL     OW27466   2.116   0.167   4.936 -0.7264  0.5341  0.1764
 5278SOL    HW127467   2.078   0.138   5.019  0.8687  1.4814  1.2422
 5278SOL    HW227468   2.101   0.262   4.935 -1.5837  0.3933 -0.3675
 5279SOL     OW27469   4.671   1.715   1.895  0.1543 -0.3062 -0.3004
 5279SOL    HW127470   0.012   1.705   1.950 -1.6985 -1.2564  2.1508
 5279SOL    HW227471   4.645   1.801   1.928 -1.3550 -0.4608 -1.0940
 5280SOL     OW27472   3.965   4.493   1.946  0.2146 -0.2307  0.1247
 5280SOL    HW127473   4.021   4.526   2.016  0.5724  2.4327 -1.4270
 5280SOL    HW227474   3.920   4.577   1.939  1.9285  0.5535 -1.1385
 5281SOL     OW27475   4.100   4.374   8.060  0.8342  0.0032 -0.2048
 5281SOL    HW127476   4.026   4.424   8.093  0.0806 -2.0392  1.2333
 5281SOL    HW227477   4.059   4.288   8.049  1.5481 -0.3449 -0.1497
 5282SOL     OW27478   3.649   0.026   4.307  0.2294  0.6746  0.5014
 5282SOL    HW127479   3.663   0.056   4.218 -1.1841  0.8682  0.3372
 5282SOL    HW227480   3.690   4.677   4.302 -1.9933 -0.3941  0.4682
 5283SOL     OW27481   2.806   1.528   9.240 -0.1246 -0.7524  0.2245
 5283SOL    HW127482   2.713   1.513   9.261 -0.2326  1.2399  1.1518
 5283SOL    HW227483   2.832   1.607   9.286  0.8689  0.6518 -2.7706
 5284SOL     OW27484   0.455   3.189   1.746 -0.6634 -0.0387 -0.4169
 5284SOL    HW127485   0.399   3.262   1.717  0.4890  0.7941 -0.5659
 5284SOL    HW227486   0.485   3.228   1.828 -1.4197 -1.5307  0.5622
 5285SOL     OW27487   4.658   0.502  14.704 -0.0498 -0.2604 -0.2263
 5285SOL    HW127488   4.674   0.410  14.680  0.6635  0.0660 -0.9883
 5285SOL    HW227489   4.655   0.542  14.617 -2.8223  0.1528  0.0493
 5286SOL     OW27490   2.640   0.538   2.574  0.0108  0.0697  0.5238
 5286SOL    HW127491   2.732   0.533   2.548 -0.6760 -0.2135 -1.8126
 5286SOL    HW227492   2.602   0.589   2.503 -0.9423  1.5641  2.0940
 5287SOL     OW27493   1.572   0.132   3.112 -0.5409 -0.2669 -0.2309
 5287SOL    HW127494   1.604   0.219   3.088  1.0711 -0.3637  1.5470
 5287SOL    HW227495   1.644   0.091   3.160 -2.1009 -0.6077  1.8501
 5288SOL     OW27496   2.687   2.812   4.040 -0.4019 -0.3553  0.9699
 5288SOL    HW127497   2.767   2.776   4.078 -0.1049  0.6964  1.3392
 5288SOL    HW227498   2.728   2.895   4.015  0.4666 -0.7970  0.9302
 5289SOL     OW27499   3.165   4.655   1.998 -0.0609 -0.1273 -0.2222
 5289SOL    HW127500   3.070   4.650   2.004  0.1258  0.0271  2.9148
 5289SOL    HW227501   3.180   4.732   2.052 -1.6329 -0.1679  0.2531
 5290SOL     OW27502   1.739   2.264   5.924  0.2586  0.2154  0.1042
 5290SOL    HW127503   1.714   2.294   5.837 -1.0838 -0.6965  0.1726
 5290SOL    HW227504   1.659   2.274   5.975  1.2680 -0.0093  1.7289
 5291SOL     OW27505   3.829   1.125  13.563 -0.0588  0.0884  0.0926
 5291SOL    HW127506   3.776   1.046  13.566  1.1355 -0.6621  1.4826
 5291SOL    HW227507   3.903   1.085  13.517 -1.0787 -2.2830  0.5068
 5292SOL     OW27508   0.671   1.328   4.427  0.0740  0.8158  0.6292
 5292SOL    HW127509   0.610   1.327   4.354  0.5872 -0.1337  0.2203
 5292SOL    HW227510   0.754   1.321   4.380 -0.0278  2.1577  0.2261
 5293SOL     OW27511   1.614   0.092   9.006  0.4176 -0.0604 -0.1650
 5293SOL    HW127512   1.585   0.071   8.917 -0.0305  2.8212 -0.6984
 5293SOL    HW227513   1.669   0.169   8.991  2.0165 -1.2768 -0.6094
 5294SOL     OW27514   3.573   3.206   2.999  0.2994  0.2839 -0.5052
 5294SOL    HW127515   3.558   3.113   3.015 -0.1628  0.4970  0.3160
 5294SOL    HW227516   3.595   3.202   2.906 -0.8202 -1.8254 -0.6925
 5295SOL     OW27517   1.870   3.658   8.152  0.2404 -0.2083  0.5792
 5295SOL    HW127518   1.926   3.690   8.081 -1.1930  1.0069  0.0133
 5295SOL    HW227519   1.814   3.603   8.097  1.8503 -2.5135  1.2140
 5296SOL     OW27520   1.838   4.422  15.255 -0.2468 -0.2071 -0.1522
 5296SOL    HW127521   1.877   4.338  15.277 -2.8206 -1.6841 -1.1756
 5296SOL    HW227522   1.751   4.398  15.223  0.3418 -0.9310 -1.2203
 5297SOL     OW27523   4.116   1.172  11.792 -0.4194 -0.3699  0.0149
 5297SOL    HW127524   4.143   1.120  11.867  2.6621  1.4619  0.1571
 5297SOL    HW227525   4.109   1.260  11.827  2.2512 -0.7056  1.3713
 5298SOL     OW27526   1.164   3.940   1.535  0.4627 -0.3448  0.1007
 5298SOL    HW127527   1.078   3.901   1.521  0.0050  0.6121  0.3373
 5298SOL    HW227528   1.150   4.001   1.463  1.3994 -0.4270 -0.1593
 5299SOL     OW27529   3.949   1.164   2.417  0.1977 -0.2141  0.2114
 5299SOL    HW127530   3.877   1.208   2.462  0.0891 -0.7729  0.5796
 5299SOL    HW227531   3.951   1.085   2.471 -0.4822 -1.2085 -1.2139
 5300SOL     OW27532   2.433   1.579   3.928  0.5199  0.2733  0.6285
 5300SOL    HW127533   2.474   1.493   3.944  2.8052  0.8261 -2.2618
 5300SOL    HW227534   2.502   1.627   3.975 -2.4196  3.3546  1.7699
 5301SOL     OW27535   3.865   4.481  15.166 -0.3501  0.8995 -0.5529
 5301SOL    HW127536   3.839   4.404  15.116 -0.2530  1.0091 -0.7713
 5301SOL    HW227537   3.951   4.497  15.127  0.7501 -0.4986  1.3161
 5302SOL     OW27538   2.271   1.966   5.808  0.2731 -0.1476 -0.4082
 5302SOL    HW127539   2.295   1.877   5.834 -0.4755  1.1105  4.7178
 5302SOL    HW227540   2.326   2.018   5.867 -3.4575  3.1820  0.1224
 5303SOL     OW27541   1.263   3.761   6.060 -0.1880  0.0228 -0.8206
 5303SOL    HW127542   1.335   3.802   6.012 -0.1871 -0.4660 -1.2390
 5303SOL    HW227543   1.210   3.736   5.984  0.6755 -2.9169 -0.4593
 5304SOL     OW27544   4.598   1.838  11.813 -0.1393  0.1736  0.1031
 5304SOL    HW127545   4.593   1.788  11.731 -0.3771  1.3582 -0.6071
 5304SOL    HW227546   4.509   1.822  11.846 -0.6789 -0.4964 -1.6754
 5305SOL     OW27547   4.139   1.281   4.241  0.3742  0.1682 -0.7661
 5305SOL    HW127548   4.060   1.227   4.243  2.2025 -2.4351  0.5765
 5305SOL    HW227549   4.166   1.286   4.333 -0.6401  1.7930 -0.5663
 5306SOL     OW27550   4.128   3.218   3.423  0.4613  0.3703 -0.4575
 5306SOL    HW127551   4.209   3.185   3.462 -0.8561  1.4512  3.1528
 5306SOL    HW227552   4.148   3.311   3.430 -2.4397  0.9325  0.2389
 5307SOL     OW27553   3.181   1.218   6.218  0.2097  0.5633 -0.0038
 5307SOL    HW127554   3.261   1.240   6.171  0.5853  0.6019  0.6477
 5307SOL    HW227555   3.173   1.129   6.182 -1.0582  0.8942 -0.5417
 5308SOL     OW27556   0.231   0.514   9.575 -0.1115  0.2460 -0.2605
 5308SOL    HW127557   0.174   0.441   9.599  1.0636 -0.3951  0.5823
 5308SOL    HW227558   0.212   0.569   9.651 -0.7271  1.1513 -1.0670
 5309SOL     OW27559   1.490   0.917   1.801  0.1343 -0.6372 -0.2026
 5309SOL    HW127560   1.562   0.892   1.858  0.7560 -0.4659 -0.9195
 5309SOL    HW227561   1.423   0.853   1.824  0.5585 -0.3809  1.7859
 5310SOL     OW27562   2.059   1.207   0.430 -1.1142 -0.3843 -0.1028
 5310SOL    HW127563   2.082   1.118   0.404  0.2204 -0.2063  0.4796
 5310SOL    HW227564   2.131   1.254   0.389 -0.9008 -2.7767 -2.4550
 5311SOL     OW27565   2.138   1.577   3.984  0.0352  0.4081  0.6514
 5311SOL    HW127566   2.127   1.609   3.894 -0.5206 -1.7667 -0.0822
 5311SOL    HW227567   2.234   1.579   3.992  0.2810 -0.0313 -1.9627
 5312SOL     OW27568   1.624   2.456  15.009  0.2669 -0.2181 -0.1523
 5312SOL    HW127569   1.539   2.460  14.966 -0.1312  1.1481  0.7591
 5312SOL    HW227570   1.681   2.478  14.935 -0.8307  0.2926 -0.8363
 5313SOL     OW27571   3.457   2.787   5.057  0.0301 -0.4115 -0.1701
 5313SOL    HW127572   3.367   2.797   5.026  0.1380  0.5938 -0.1595
 5313SOL    HW227573   3.496   2.872   5.036  0.5206 -0.9115 -1.3355
 5314SOL     OW27574   4.704   1.226   4.332 -0.6029 -0.2748 -0.1055
 5314SOL    HW127575   0.015   1.201   4.253 -1.6961 -0.8144 -0.6017
 5314SOL    HW227576   4.619   1.186   4.315 -0.4173 -0.2925 -1.0090
 5315SOL     OW27577   2.666   4.123   5.984  0.5313 -0.3537 -0.1010
 5315SOL    HW127578   2.617   4.117   5.902 -1.0889 -1.0104  0.9183
 5315SOL    HW227579   2.658   4.028   5.995  0.4629 -0.2367  0.8291
 5316SOL     OW27580   1.482   1.489   5.001  0.0854 -0.0026 -0.2413
 5316SOL    HW127581   1.487   1.581   4.979  1.1582 -0.2385 -0.9811
 5316SOL    HW227582   1.390   1.464   4.991  0.1064 -0.2959  0.3157
 5317SOL     OW27583   1.221   3.628   7.868  0.5797  0.0500 -0.7980
 5317SOL    HW127584   1.195   3.603   7.956 -1.0176 -0.7184 -1.4998
 5317SOL    HW227585   1.182   3.560   7.814  1.4545 -0.2598 -1.0468
 5318SOL     OW27586   0.554   1.278  11.743  0.4189  0.3060 -0.1925
 5318SOL    HW127587   0.638   1.321  11.732  0.6133 -0.2627 -0.9492
 5318SOL    HW227588   0.553   1.259  11.649  0.0955  1.3170 -0.3958
 5319SOL     OW27589   4.106   2.781  13.400  0.5149  0.0201 -0.4589
 5319SOL    HW127590   4.061   2.734  13.330  2.6333  0.9300 -2.4261
 5319SOL    HW227591   4.187   2.733  13.414  0.0390 -0.6936 -0.1791
 5320SOL     OW27592   4.141   1.267   2.637 -0.4362 -0.4107 -0.0100
 5320SOL    HW127593   4.054   1.243   2.669 -1.9791  1.4887 -2.7780
 5320SOL    HW227594   4.132   1.254   2.543  2.0487  0.2384 -0.3449
 5321SOL     OW27595   4.140   0.089   4.783  0.4238 -0.2403 -0.6609
 5321SOL    HW127596   4.175   0.039   4.709  1.7452  1.1729 -0.9914
 5321SOL    HW227597   4.182   0.062   4.866 -1.0290  0.0018  0.1475
 5322SOL     OW27598   3.217   2.908   8.081 -0.1964 -0.0129 -0.1531
 5322SOL    HW127599   3.206   2.826   8.130 -0.2965 -0.8064 -1.5220
 5322SOL    HW227600   3.169   2.893   8.000  1.3879  1.7708 -1.3915
 5323SOL     OW27601   3.273   2.641   7.362 -0.4367 -0.0673  0.0568
 5323SOL    HW127602   3.322   2.582   7.419 -0.1212 -0.4338 -0.5967
 5323SOL    HW227603   3.331   2.717   7.351 -1.7835  1.6844  4.7806
 5324SOL     OW27604   4.265   1.867  15.214 -0.3629  0.4875 -0.0513
 5324SOL    HW127605   4.343   1.876  15.161 -0.1144  0.2556  0.2704
 5324SOL    HW227606   4.213   1.821  15.149 -0.5374 -0.3476  0.6737
 5325SOL     OW27607   0.174   3.550   6.007  0.3882 -0.6310 -0.0825
 5325SOL    HW127608   0.175   3.583   6.097 -0.4308 -1.4066  0.2157
 5325SOL    HW227609   0.258   3.572   5.967 -0.1280 -1.7412 -1.7959
 5326SOL     OW27610   3.304   4.723  16.337  0.2044 -0.1761 -0.4138
 5326SOL    HW127611   3.358   4.656  16.295 -0.5370 -1.2280  0.3054
 5326SOL    HW227612   3.358   0.039  16.395 -0.3933 -1.3212  1.1935
 5327SOL     OW27613   4.070   0.769   3.198 -0.4974 -0.2079 -0.3631
 5327SOL    HW127614   4.104   0.764   3.287  0.0466  2.1590 -0.4393
 5327SOL    HW227615   4.050   0.676   3.193 -0.0252 -0.2782 -1.0778
 5328SOL     OW27616   2.699   4.014   3.301 -0.2308  0.1267 -0.2628
 5328SOL    HW127617   2.740   3.954   3.363  0.6138 -1.1403 -2.0682
 5328SOL    HW227618   2.761   4.035   3.232  1.3116 -2.3737  0.3600
 5329SOL     OW27619   2.110   4.303   6.068  0.7695 -0.2505  0.2249
 5329SOL    HW127620   2.072   4.220   6.040  0.7566 -0.3734  0.5936
 5329SOL    HW227621   2.200   4.273   6.056  0.9308  1.3413 -2.4215
 5330SOL     OW27622   3.117   2.652   2.249 -0.2020  0.0952  0.7013
 5330SOL    HW127623   3.171   2.584   2.209 -1.5434  0.9485 -2.4926
 5330SOL    HW227624   3.181   2.700   2.303  0.9918 -0.1636 -0.4828
 5331SOL     OW27625   3.162   1.054   6.703  0.2089 -0.3488  0.3976
 5331SOL    HW127626   3.176   1.147   6.685 -0.6742 -0.5879 -1.5983
 5331SOL    HW227627   3.099   1.040   6.632  0.8872 -1.7458  0.0825
 5332SOL     OW27628   2.179   2.071   7.946  0.6315  0.4668  0.2637
 5332SOL    HW127629   2.196   2.130   7.873  0.7417  0.7477  0.5145
 5332SOL    HW227630   2.191   2.118   8.030  4.4433  0.5473 -0.3114
 5333SOL     OW27631   0.685   2.849   5.607  0.1018  0.1986  0.3583
 5333SOL    HW127632   0.690   2.867   5.701  1.3251  0.4705  0.2317
 5333SOL    HW227633   0.777   2.867   5.587 -0.0498 -0.0077 -0.5105
 5334SOL     OW27634   2.359   4.425   8.750 -0.1806  0.5227  0.1746
 5334SOL    HW127635   2.437   4.369   8.754  2.5254  4.3463  1.4821
 5334SOL    HW227636   2.362   4.458   8.660 -1.9072 -0.3390 -0.2020
 5335SOL     OW27637   0.411   2.605   5.896 -0.5936  0.4130 -0.2681
 5335SOL    HW127638   0.414   2.548   5.819 -2.0619 -0.0972  0.0519
 5335SOL    HW227639   0.383   2.689   5.861 -1.4922  0.1003 -0.3015
 5336SOL     OW27640   1.318   1.385   7.634  0.2280 -0.1314 -0.2613
 5336SOL    HW127641   1.226   1.409   7.625 -0.3943 -1.5814  2.2143
 5336SOL    HW227642   1.357   1.439   7.704 -1.5232  0.1195  0.5196
 5337SOL     OW27643   4.457   3.665   8.223 -0.1910 -0.2625  0.7279
 5337SOL    HW127644   4.408   3.584   8.224 -0.8607  0.1073 -1.0900
 5337SOL    HW227645   4.542   3.650   8.265 -0.0290 -1.0554  0.1289
 5338SOL     OW27646   1.256   4.468   4.398  0.0687 -0.1660 -0.2308
 5338SOL    HW127647   1.292   4.491   4.483 -1.3012  1.0551  0.0160
 5338SOL    HW227648   1.297   4.388   4.366 -0.7516 -2.2323  3.8791
 5339SOL     OW27649   0.624   0.385  10.295  0.4148  0.4363  0.8501
 5339SOL    HW127650   0.664   0.421  10.216  0.9331  0.1810  0.9986
 5339SOL    HW227651   0.676   0.428  10.362  1.5394 -0.5386  0.6032
 5340SOL     OW27652   4.296   4.001   3.958 -0.5038  0.1961 -0.3954
 5340SOL    HW127653   4.341   3.953   3.888 -2.1255  0.1152 -1.3785
 5340SOL    HW227654   4.333   3.958   4.035 -1.6277  0.5353  0.3287
 5341SOL     OW27655   3.588   3.068   3.681  0.2668  0.2861  0.1827
 5341SOL    HW127656   3.563   3.147   3.728 -2.3362 -1.1830  1.2715
 5341SOL    HW227657   3.632   3.022   3.753 -1.6165 -0.1623  1.0622
 5342SOL     OW27658   2.271   1.528  10.899 -0.2732 -0.0573 -0.0888
 5342SOL    HW127659   2.203   1.563  10.956 -0.4800  1.5288 -1.2973
 5342SOL    HW227660   2.281   1.594  10.831  1.9387 -1.8363 -1.5335
 5343SOL     OW27661   0.941   0.980   6.920  1.1034 -0.0911  0.1620
 5343SOL    HW127662   1.031   0.983   6.954  1.3499 -0.9073 -0.3927
 5343SOL    HW227663   0.968   0.996   6.829  2.9386 -0.9251  0.5399
 5344SOL     OW27664   0.354   1.715   6.036 -0.4310  0.0105 -0.6159
 5344SOL    HW127665   0.332   1.795   6.082 -2.2810 -1.0876  0.4161
 5344SOL    HW227666   0.294   1.730   5.963  0.6805  1.6454 -1.1940
 5345SOL     OW27667   4.666   3.311   7.211 -0.5765 -0.4073 -0.6125
 5345SOL    HW127668   4.600   3.242   7.215 -1.1536  0.1950  0.4421
 5345SOL    HW227669   4.728   3.275   7.275 -1.8484 -1.1185  0.2277
 5346SOL     OW27670   2.398   1.123   1.914 -0.3638 -0.2993 -0.0974
 5346SOL    HW127671   2.379   1.184   1.843 -0.2581 -2.3379 -1.8862
 5346SOL    HW227672   2.455   1.182   1.963  0.4618 -1.1197 -0.0745
 5347SOL     OW27673   0.539   0.126   8.544  0.0980 -0.9503 -0.8390
 5347SOL    HW127674   0.517   0.089   8.458 -0.1263  0.2764 -1.3113
 5347SOL    HW227675   0.452   0.166   8.554 -0.7372 -2.5706 -1.4927
 5348SOL     OW27676   4.137   0.027   7.212  0.3395  0.0844  0.1777
 5348SOL    HW127677   4.076   0.075   7.269  0.1705 -0.6475  0.6166
 5348SOL    HW227678   4.175   4.716   7.285  0.5803 -0.1914 -0.1342
 5349SOL     OW27679   0.452   1.331   9.661  0.7172 -0.2463 -0.0308
 5349SOL    HW127680   0.535   1.360   9.624 -0.4272  0.2053 -2.2861
 5349SOL    HW227681   0.441   1.387   9.738 -1.2656 -0.2923 -0.2828
 5350SOL     OW27682   0.753   3.261   6.258  0.3414 -0.0623  0.6677
 5350SOL    HW127683   0.838   3.305   6.264 -0.2018  0.6790  2.9065
 5350SOL    HW227684   0.748   3.223   6.171  0.6650  2.7944 -0.6024
 5351SOL     OW27685   3.734   2.515   3.386 -0.1140  0.4358 -0.1871
 5351SOL    HW127686   3.800   2.454   3.351 -0.6278 -0.1487 -0.1418
 5351SOL    HW227687   3.681   2.534   3.309  1.3236 -1.4748 -1.6492
 5352SOL     OW27688   4.239   1.380   1.094 -0.2859  0.9495  0.0555
 5352SOL    HW127689   4.294   1.349   1.166  0.6371  0.7680 -0.7206
 5352SOL    HW227690   4.162   1.410   1.142 -0.0415  0.1531  0.9307
 5353SOL     OW27691   3.286   3.237  14.382 -0.3809 -0.5544  0.2129
 5353SOL    HW127692   3.194   3.247  14.406  0.1639  0.5351  1.8703
 5353SOL    HW227693   3.314   3.184  14.457 -1.4852 -2.4564 -0.7265
 5354SOL     OW27694   2.627   4.533   5.811  0.1625 -0.4306 -0.0496
 5354SOL    HW127695   2.691   4.527   5.882  0.7024 -2.1122 -0.6782
 5354SOL    HW227696   2.681   4.582   5.749  1.3398  0.8058  1.9614
 5355SOL     OW27697   1.823   4.732   9.165  0.1372  0.4836 -0.1821
 5355SOL    HW127698   1.790   0.027   9.248  1.5385 -1.3014  1.0768
 5355SOL    HW227699   1.759   0.027   9.102  0.0685 -1.6686 -1.2413
 5356SOL     OW27700   3.205   2.039   8.513 -0.2171 -0.1845 -0.2453
 5356SOL    HW127701   3.205   2.068   8.605 -1.2632  0.7684 -0.5480
 5356SOL    HW227702   3.130   1.979   8.515 -0.8264  0.5233 -1.7837
 5357SOL     OW27703   1.058   1.677   1.982 -0.3033 -0.1978  0.3599
 5357SOL    HW127704   1.096   1.757   2.016 -0.5207 -0.4824  1.2696
 5357SOL    HW227705   1.124   1.612   2.008 -1.9259 -1.2618  1.8034
 5358SOL     OW27706   2.090   2.561   4.775 -0.2930  0.3512  0.5034
 5358SOL    HW127707   2.143   2.634   4.808 -0.2391  0.1679  0.8184
 5358SOL    HW227708   2.083   2.499   4.847  0.6109 -0.0765  0.2221
 5359SOL     OW27709   0.808   3.329   6.919 -0.4573 -0.1563 -0.3605
 5359SOL    HW127710   0.872   3.344   6.849  3.4852  1.5374  3.6557
 5359SOL    HW227711   0.741   3.266   6.891 -0.5446 -1.0067  1.8087
 5360SOL     OW27712   3.750   2.788   3.209  0.2699  0.6249 -0.1666
 5360SOL    HW127713   3.695   2.716   3.241  0.2176 -0.1925 -2.0630
 5360SOL    HW227714   3.733   2.854   3.276 -0.3316  0.3862 -0.0792
 5361SOL     OW27715   2.345   3.795   4.083 -0.6824 -0.6079 -0.1904
 5361SOL    HW127716   2.335   3.824   3.992  0.2136  0.7642  0.1570
 5361SOL    HW227717   2.260   3.823   4.115 -0.6615  1.8077 -2.2124
 5362SOL     OW27718   2.031   4.566  13.452  0.2417 -0.3271 -0.3195
 5362SOL    HW127719   1.936   4.554  13.449  0.2864 -0.1288 -2.7257
 5362SOL    HW227720   2.042   4.660  13.462 -2.1110 -0.0043 -0.7576
 5363SOL     OW27721   1.099   2.535  15.590  0.1360 -0.3009 -0.2823
 5363SOL    HW127722   1.179   2.587  15.596 -0.7266  0.8304  1.2494
 5363SOL    HW227723   1.054   2.562  15.510  0.2237  0.7557  0.0247
 5364SOL     OW27724   0.583   4.240   3.580 -0.4121  0.4256 -0.3593
 5364SOL    HW127725   0.584   4.219   3.674 -0.0422  0.2591 -0.4011
 5364SOL    HW227726   0.677   4.231   3.568 -0.4217 -1.5480  1.0020
 5365SOL     OW27727   1.165   1.460   5.013 -0.0810  0.0408  0.2765
 5365SOL    HW127728   1.140   1.453   5.105  1.1145 -2.8347  0.3685
 5365SOL    HW227729   1.147   1.552   4.992 -0.0423  0.1438  0.6817
 5366SOL     OW27730   1.520   3.884   5.959 -0.4513  0.8122 -0.2769
 5366SOL    HW127731   1.525   3.939   5.880 -1.2266  0.0596 -0.8485
 5366SOL    HW227732   1.541   3.948   6.028 -2.4936 -1.7147  2.6606
 5367SOL     OW27733   2.467   1.273   2.336  0.4479 -0.0535 -0.1645
 5367SOL    HW127734   2.373   1.270   2.318  0.4950 -3.8676  0.2620
 5367SOL    HW227735   2.477   1.200   2.397  1.3241  1.3345  1.3491
 5368SOL     OW27736   3.623   3.018  10.352  0.1828  0.0050 -0.1516
 5368SOL    HW127737   3.600   2.947  10.292 -1.5648 -1.6207  2.4049
 5368SOL    HW227738   3.567   2.999  10.428 -2.3095 -2.3265 -2.5584
 5369SOL     OW27739   4.032   3.199   4.664 -0.4484 -0.8614 -0.6146
 5369SOL    HW127740   4.091   3.197   4.739 -0.4367 -2.1178 -0.6503
 5369SOL    HW227741   4.027   3.109   4.631 -1.3198 -0.9501 -0.2391
 5370SOL     OW27742   1.566   3.918  13.134  0.0657  0.4892  0.5425
 5370SOL    HW127743   1.490   3.884  13.088  0.9818  0.2161 -0.7629
 5370SOL    HW227744   1.573   3.868  13.215 -1.6295 -1.3064 -0.4165
 5371SOL     OW27745   3.404   2.099   1.434 -0.3544 -0.1903  0.6582
 5371SOL    HW127746   3.311   2.122   1.432 -0.4041 -0.3762  0.8543
 5371SOL    HW227747   3.406   2.019   1.381  0.4359  1.2186 -1.4027
 5372SOL     OW27748   4.328   0.745   2.299 -0.4444 -0.3125  0.0580
 5372SOL    HW127749   4.286   0.830   2.308 -0.1143 -0.1635  0.2237
 5372SOL    HW227750   4.409   0.781   2.262 -1.7994 -0.6812 -3.2463
 5373SOL     OW27751   3.241   2.808   9.159  0.5401 -0.3230  0.3875
 5373SOL    HW127752   3.195   2.887   9.186  3.4254  1.1685  0.8149
 5373SOL    HW227753   3.223   2.808   9.065  0.6511  0.1037  0.3695
 5374SOL     OW27754   2.433   2.741  13.051 -0.1596  0.0891 -0.0186
 5374SOL    HW127755   2.396   2.812  12.999  0.5809 -0.3029 -1.0698
 5374SOL    HW227756   2.527   2.740  13.031 -0.1816 -0.2852 -0.1027
 5375SOL     OW27757   0.006   2.789   8.245  0.1958  0.0438 -0.3331
 5375SOL    HW127758   0.096   2.820   8.232  0.1932  0.0189 -0.4122
 5375SOL    HW227759   4.699   2.803   8.161  1.1355  0.3638 -0.7775
 5376SOL     OW27760   1.122   0.086   4.330  0.5359 -0.8704  0.5178
 5376SOL    HW127761   1.069   0.095   4.409  1.2646  1.2602  0.7718
 5376SOL    HW227762   1.204   0.117   4.369  0.9441 -2.2394  0.7605
 5377SOL     OW27763   0.707   2.112   4.284 -0.1366 -0.7646  0.1178
 5377SOL    HW127764   0.626   2.164   4.284  0.5138  0.2588 -1.7727
 5377SOL    HW227765   0.726   2.116   4.378  0.8114 -2.1605 -0.0259
 5378SOL     OW27766   0.766   1.010  16.394  0.1449 -0.3280  0.5479
 5378SOL    HW127767   0.739   1.091  16.439  0.2806 -0.7439  1.3666
 5378SOL    HW227768   0.684   0.961  16.388 -0.4722  0.8084 -0.3424
 5379SOL     OW27769   4.324   0.181  17.666 -0.3261 -0.8444  0.3239
 5379SOL    HW127770   4.367   0.126  17.601  0.4925 -0.4771  0.5521
 5379SOL    HW227771   4.397   0.240  17.684 -0.4529 -0.8023  0.7075
 5380SOL     OW27772   2.237   0.653   7.793 -0.2809  0.2348 -0.3102
 5380SOL    HW127773   2.326   0.656   7.759  0.1181  1.3222  0.8360
 5380SOL    HW227774   2.242   0.654   7.889  2.8316  0.2404 -0.4570
 5381SOL     OW27775   0.669   3.354   5.939 -0.8050 -0.3957 -0.5659
 5381SOL    HW127776   0.723   3.349   5.860 -2.2679 -0.7712 -1.5589
 5381SOL    HW227777   0.702   3.433   5.982 -0.3428 -1.3116  0.7446
 5382SOL     OW27778   4.350   2.985   6.679 -0.4220 -0.1474 -0.4624
 5382SOL    HW127779   4.269   3.037   6.675 -1.0120 -0.8634  1.9039
 5382SOL    HW227780   4.312   2.922   6.740  2.1148 -0.6754  0.5557
 5383SOL     OW27781   1.834   1.950   8.908  0.2877  0.1842  0.1062
 5383SOL    HW127782   1.753   1.964   8.858  0.9228  0.0648 -0.9356
 5383SOL    HW227783   1.906   1.960   8.846  0.5655  0.5477  0.4900
 5384SOL     OW27784   0.399   1.781   8.897  0.1588  0.3892  0.2503
 5384SOL    HW127785   0.313   1.740   8.884  1.3842 -1.8860 -0.6825
 5384SOL    HW227786   0.375   1.874   8.890 -3.2035 -0.4919 -0.1467
 5385SOL     OW27787   4.202   4.018   6.537  0.6821  0.2821  0.3902
 5385SOL    HW127788   4.171   4.034   6.626  1.3531 -2.3177  1.0725
 5385SOL    HW227789   4.167   4.097   6.496 -1.3720 -1.5232 -1.3581
 5386SOL     OW27790   4.079   3.091   6.653 -0.1433 -0.4156 -0.1789
 5386SOL    HW127791   4.065   3.001   6.683  0.8942  0.2510  2.3218
 5386SOL    HW227792   4.020   3.149   6.700  1.1807  0.0226  0.9444
 5387SOL     OW27793   3.306   3.737   1.822 -0.4101 -0.2788  0.3331
 5387SOL    HW127794   3.364   3.755   1.896  0.0858 -0.3027 -0.0473
 5387SOL    HW227795   3.381   3.731   1.763  0.3334 -1.0289  1.3562
 5388SOL     OW27796   1.690   2.852  17.340  0.0226 -0.3258 -0.1706
 5388SOL    HW127797   1.701   2.758  17.356 -1.4289 -0.5792 -0.6852
 5388SOL    HW227798   1.737   2.874  17.420 -0.1273  2.0162 -0.7290
 5389SOL     OW27799   1.206   3.307   4.413 -0.5315  0.4360  0.9630
 5389SOL    HW127800   1.160   3.381   4.452 -0.5760  1.7733 -1.6358
 5389SOL    HW227801   1.213   3.248   4.488  0.5396 -0.3666  0.2233
 5390SOL     OW27802   3.559   4.058   7.276 -0.2721  0.4051  0.3953
 5390SOL    HW127803   3.531   4.130   7.332  0.0605  1.1073 -0.3394
 5390SOL    HW227804   3.612   4.023   7.348 -1.6989 -1.4173  0.5735
 5391SOL     OW27805   2.253   0.780  14.390  0.3992 -0.1854  0.0518
 5391SOL    HW127806   2.340   0.779  14.430  0.3517  0.1119  0.1622
 5391SOL    HW227807   2.254   0.867  14.348 -2.9118  0.9078  2.2776
 5392SOL     OW27808   1.818   2.041   6.466  1.1564  0.3273  0.3875
 5392SOL    HW127809   1.828   2.125   6.420 -1.3772  1.3164  1.6356
 5392SOL    HW227810   1.898   2.035   6.518  0.7760 -0.8464  0.8163
 5393SOL     OW27811   0.130   1.767  17.309  0.1334 -0.3757  0.4257
 5393SOL    HW127812   0.082   1.734  17.233 -0.3839  0.0944  0.5440
 5393SOL    HW227813   0.155   1.694  17.364  0.6374 -0.4160  0.1423
 5394SOL     OW27814   1.199   4.401   5.493 -0.6341 -0.2167 -0.4299
 5394SOL    HW127815   1.131   4.424   5.557  0.9926 -0.0885  1.2396
 5394SOL    HW227816   1.140   4.385   5.419  0.8566  1.0329 -1.8756
 5395SOL     OW27817   4.369   4.128   7.900 -0.1786 -0.0485  0.2644
 5395SOL    HW127818   4.387   4.062   7.833 -0.0383  0.0337  0.2222
 5395SOL    HW227819   4.457   4.151   7.929 -0.2027  2.2283 -1.4828
 5396SOL     OW27820   2.452   3.898   8.929  0.3742  0.3096 -0.1762
 5396SOL    HW127821   2.493   3.819   8.893  1.0079  0.2571  0.6720
 5396SOL    HW227822   2.366   3.882   8.889  0.2183  0.7248 -0.0006
 5397SOL     OW27823   0.444   0.996   6.518  0.2059 -0.1043  0.0783
 5397SOL    HW127824   0.498   1.041   6.582  0.3283  1.7416 -1.3321
 5397SOL    HW227825   0.463   1.045   6.438 -2.4157  0.8763  0.0498
 5398SOL     OW27826   1.969   3.803   6.643  0.1047  0.3492  0.5471
 5398SOL    HW127827   2.061   3.832   6.646  0.3504 -0.5389  1.4788
 5398SOL    HW227828   1.935   3.850   6.567 -0.5371 -0.9276  0.0511
 5399SOL     OW27829   0.162   4.188   5.183 -0.0768  0.3818 -0.0999
 5399SOL    HW127830   0.075   4.166   5.218 -0.2575 -0.5149 -1.1093
 5399SOL    HW227831   0.203   4.213   5.266  0.8393  0.0987 -0.4672
 5400SOL     OW27832   2.400   0.949   6.852  0.3757 -0.2899  0.0515
 5400SOL    HW127833   2.353   0.957   6.768 -1.9166  2.4089  1.5850
 5400SOL    HW227834   2.491   0.947   6.822  0.5925 -0.1232  0.6911
 5401SOL     OW27835   3.409   4.196   8.184 -0.0895  0.1985 -0.1312
 5401SOL    HW127836   3.317   4.215   8.203  0.2646  0.8248  0.9759
 5401SOL    HW227837   3.418   4.101   8.192 -1.5549  0.0360 -0.3912
 5402SOL     OW27838   2.750   1.251   4.308  0.4876  0.3358  0.4559
 5402SOL    HW127839   2.790   1.232   4.223  0.3046  2.3286 -0.0782
 5402SOL    HW227840   2.670   1.199   4.307 -0.7164  2.2390 -0.7570
 5403SOL     OW27841   0.647   2.562   0.609 -1.0244 -0.3404  0.1001
 5403SOL    HW127842   0.619   2.612   0.532 -0.1491 -0.3332 -0.2176
 5403SOL    HW227843   0.708   2.619   0.657  0.2363  0.1586 -2.0527
 5404SOL     OW27844   1.035   0.786   3.122 -0.2747 -0.0973  0.1113
 5404SOL    HW127845   1.046   0.818   3.211  0.5790  0.2101 -0.1110
 5404SOL    HW227846   0.941   0.798   3.105 -0.1573 -0.4009 -0.7961
 5405SOL     OW27847   1.819   3.978   7.864 -0.0292 -0.4840 -0.0889
 5405SOL    HW127848   1.761   3.901   7.860  0.4808 -0.9202  0.9164
 5405SOL    HW227849   1.806   4.012   7.952  0.7738 -0.7030  0.1115
 5406SOL     OW27850   2.620   3.196  12.289 -0.0613 -0.2955 -0.0156
 5406SOL    HW127851   2.695   3.175  12.345  1.4523 -1.6246 -2.4971
 5406SOL    HW227852   2.549   3.202  12.352 -0.2563  0.8725 -0.3623
 5407SOL     OW27853   0.367   3.273   7.294 -0.3049 -0.8058 -0.2961
 5407SOL    HW127854   0.321   3.189   7.289 -0.8312 -0.6129  1.4912
 5407SOL    HW227855   0.286   3.323   7.305 -0.3620 -0.6978 -1.2084
 5408SOL     OW27856   0.123   4.003   3.127  0.0282 -0.3189 -0.0844
 5408SOL    HW127857   0.139   4.060   3.202  0.1467 -0.2403 -0.1689
 5408SOL    HW227858   0.189   3.933   3.133  0.2235 -0.2044 -0.9716
 5409SOL     OW27859   4.011   1.255   0.348 -0.2022 -0.3539 -0.1534
 5409SOL    HW127860   3.937   1.210   0.389  0.8827 -1.5323  0.5097
 5409SOL    HW227861   4.083   1.202   0.382 -0.8676 -1.9830 -1.3166
 5410SOL     OW27862   4.509   3.006   4.091  0.3767 -0.0544 -0.2840
 5410SOL    HW127863   4.495   3.095   4.057  4.9247 -0.3716 -2.9388
 5410SOL    HW227864   4.602   3.003   4.113  0.3618  2.5527  0.1576
 5411SOL     OW27865   3.020   3.988   8.208  0.1591 -0.8581  0.0764
 5411SOL    HW127866   2.951   4.015   8.269 -0.4664 -1.6491 -0.2933
 5411SOL    HW227867   3.073   4.067   8.222 -1.3267 -0.3918  3.2964
 5412SOL     OW27868   0.774   2.017   8.452  0.1257  0.2921  0.5957
 5412SOL    HW127869   0.710   2.009   8.382  0.6225  1.3173  0.0224
 5412SOL    HW227870   0.743   2.096   8.497 -1.6938 -0.1339  0.0741
 5413SOL     OW27871   0.846   4.584   6.594 -0.6490 -0.1599 -0.1325
 5413SOL    HW127872   0.860   4.678   6.582  0.0131 -0.3023 -0.4476
 5413SOL    HW227873   0.864   4.550   6.507  2.4417 -2.6713  1.5108
 5414SOL     OW27874   1.760   2.161  17.052  0.1958 -0.0001 -0.4125
 5414SOL    HW127875   1.727   2.094  17.111  0.2730 -2.0640 -2.6725
 5414SOL    HW227876   1.829   2.194  17.109 -0.6636 -0.6808  1.0171
 5415SOL     OW27877   0.406   2.369   9.116 -0.1828 -0.1024 -0.1659
 5415SOL    HW127878   0.459   2.354   9.194  1.7298  0.8197 -1.2748
 5415SOL    HW227879   0.472   2.405   9.057 -1.5556  0.6017 -1.2609
 5416SOL     OW27880   3.491   4.443   2.325 -0.3958  0.4052 -0.1385
 5416SOL    HW127881   3.534   4.528   2.312  0.1206  0.2946  0.7802
 5416SOL    HW227882   3.400   4.471   2.335 -0.8009 -1.0421  0.2978
 5417SOL     OW27883   0.248   3.208  11.145 -0.2921 -0.0733  0.9342
 5417SOL    HW127884   0.265   3.243  11.232  1.1807 -1.9172  1.3782
 5417SOL    HW227885   0.321   3.254  11.102 -0.6312  1.2465  1.7728
 5418SOL     OW27886   2.581   1.001   8.004 -0.2538 -0.4563 -0.4294
 5418SOL    HW127887   2.651   0.960   7.954 -0.2208  0.0965 -0.8338
 5418SOL    HW227888   2.636   1.045   8.069 -1.3902 -0.6726  0.6822
 5419SOL     OW27889   0.292   1.490   2.595  0.1266 -0.2762 -0.0760
 5419SOL    HW127890   0.367   1.550   2.596 -1.0130  1.1649 -0.9809
 5419SOL    HW227891   0.330   1.420   2.648  0.6967  0.2489  0.2133
 5420SOL     OW27892   3.835   2.381   6.575  0.2197 -0.2327  0.4979
 5420SOL    HW127893   3.777   2.452   6.546 -1.3376 -2.1912 -1.1706
 5420SOL    HW227894   3.783   2.348   6.648 -1.6397 -0.2035 -0.8204
 5421SOL     OW27895   0.277   1.400  16.885 -0.4247 -0.1941  0.2543
 5421SOL    HW127896   0.189   1.363  16.891 -1.0786  1.1809 -0.8762
 5421SOL    HW227897   0.332   1.343  16.939 -0.7746 -0.3213  0.4738
 5422SOL     OW27898   4.558   1.511   5.573 -0.3201  0.5016  0.3023
 5422SOL    HW127899   4.592   1.591   5.614  1.5461  0.3534 -0.9264
 5422SOL    HW227900   4.602   1.510   5.487  1.7904 -0.6628  1.4013
 5423SOL     OW27901   1.736   3.963   3.683  0.1766 -0.7911  0.1539
 5423SOL    HW127902   1.803   4.014   3.637 -1.0874  0.3571 -0.3876
 5423SOL    HW227903   1.784   3.948   3.765 -0.4632 -0.6074  0.5646
 5424SOL     OW27904   0.093   4.649   4.057 -0.0130 -0.4768  0.2431
 5424SOL    HW127905   0.022   4.593   4.026 -1.3578  2.3746 -1.8300
 5424SOL    HW227906   0.048   4.729   4.084  0.9473 -0.1641  0.9292
 5425SOL     OW27907   0.409   2.272   2.108  0.6819  0.3766 -0.0120
 5425SOL    HW127908   0.497   2.238   2.125  0.6690  0.1987 -0.3161
 5425SOL    HW227909   0.428   2.292   2.017 -1.7083  1.4559 -0.2656
 5426SOL     OW27910   0.220   1.064   0.481 -0.0249  0.2236  0.2020
 5426SOL    HW127911   0.224   1.027   0.569  1.8696  1.6131  0.7284
 5426SOL    HW227912   0.167   1.143   0.493 -2.1991 -1.4170  1.3035
 5427SOL     OW27913   0.567   3.850   8.158 -0.0666  0.5645  0.5052
 5427SOL    HW127914   0.521   3.927   8.193 -0.8617 -0.4459  1.6592
 5427SOL    HW227915   0.627   3.901   8.104 -2.1407  1.2794 -1.1583
 5428SOL     OW27916   1.214   3.035   7.652 -0.2831 -0.7100  0.5162
 5428SOL    HW127917   1.199   2.966   7.717 -0.7550  0.2141  1.3915
 5428SOL    HW227918   1.128   3.066   7.624 -0.1086  0.1258  0.9038
 5429SOL     OW27919   3.485   4.061   1.750 -0.3338  0.1095  0.0963
 5429SOL    HW127920   3.562   4.022   1.708 -1.0514 -2.2455  0.9705
 5429SOL    HW227921   3.408   4.023   1.707  0.1074 -0.7786  0.0900
 5430SOL     OW27922   1.513   0.199   3.555  0.0336  0.0283 -0.5906
 5430SOL    HW127923   1.576   0.219   3.485 -0.5519 -1.3299 -1.4897
 5430SOL    HW227924   1.563   0.209   3.636  0.8160 -0.5819 -0.9979
 5431SOL     OW27925   4.646   2.818   2.372  0.7484 -0.0997  0.1331
 5431SOL    HW127926   4.718   2.772   2.329 -1.2856 -2.9490 -0.1912
 5431SOL    HW227927   4.672   2.908   2.351  0.2132 -0.2818 -1.2963
 5432SOL     OW27928   3.536   3.449   8.107 -1.0211 -0.1871  0.0414
 5432SOL    HW127929   3.619   3.449   8.155  0.2978  0.0927 -2.2624
 5432SOL    HW227930   3.569   3.416   8.023 -2.6691  2.5538 -1.6936
 5433SOL     OW27931   4.300   3.655   8.508  0.0282 -0.1126  0.0553
 5433SOL    HW127932   4.267   3.637   8.596  3.9561 -1.7231  1.2040
 5433SOL    HW227933   4.217   3.643   8.462 -1.3752 -1.2081  2.8944
 5434SOL     OW27934   2.696   0.353   4.254 -0.2161  0.1967  0.1984
 5434SOL    HW127935   2.708   0.429   4.311  2.1747 -0.0558  0.0094
 5434SOL    HW227936   2.767   0.376   4.194  0.5829  0.9287  1.4355
 5435SOL     OW27937   2.690   0.705   0.779  0.5357 -0.3100  0.0102
 5435SOL    HW127938   2.610   0.657   0.756  0.6231  0.3517 -1.6580
 5435SOL    HW227939   2.748   0.639   0.818  2.5654 -0.0133 -2.5408
 5436SOL     OW27940   0.269   4.648   6.438 -0.6052  0.3827 -0.5985
 5436SOL    HW127941   0.224   4.730   6.458  2.3964  1.6403  0.8889
 5436SOL    HW227942   0.232   4.592   6.506  0.0545  1.5971  0.7585
 5437SOL     OW27943   3.115   3.612  14.174 -0.0668 -0.5825 -0.4429
 5437SOL    HW127944   3.043   3.575  14.122  0.0098 -0.1241 -0.8825
 5437SOL    HW227945   3.085   3.629  14.263  1.4161  1.0890 -0.2545
 5438SOL     OW27946   4.338   1.037   5.251 -0.3964 -0.0699  0.1198
 5438SOL    HW127947   4.343   0.964   5.311 -1.8540 -1.0890 -0.9932
 5438SOL    HW227948   4.276   1.090   5.301  1.5027  2.0757  0.2271
 5439SOL     OW27949   1.476   0.508   4.445  0.1626  0.1441 -0.2926
 5439SOL    HW127950   1.484   0.572   4.374 -0.8045  1.3530  0.6814
 5439SOL    HW227951   1.445   0.562   4.518  1.0645  1.5906 -0.9764
 5440SOL     OW27952   3.551   2.781   2.087 -0.0028  0.0899 -0.0843
 5440SOL    HW127953   3.634   2.811   2.124 -0.4738 -0.5430  1.4964
 5440SOL    HW227954   3.519   2.737   2.165  0.4759  0.5786  0.3961
 5441SOL     OW27955   1.696   2.587   0.311 -0.9634 -0.0362  0.0306
 5441SOL    HW127956   1.609   2.577   0.274 -0.9512 -0.6147  0.1540
 5441SOL    HW227957   1.668   2.575   0.402 -1.5991  1.9102  0.0955
 5442SOL     OW27958   4.461   2.229   6.822  0.3668  0.4989  0.1842
 5442SOL    HW127959   4.524   2.214   6.893 -1.1278  0.2996  1.4801
 5442SOL    HW227960   4.519   2.224   6.746 -0.8391 -1.6060 -0.6044
 5443SOL     OW27961   4.068   3.204   1.624  0.1209  0.5705  0.6619
 5443SOL    HW127962   3.980   3.237   1.645 -0.4658  0.4799 -1.7238
 5443SOL    HW227963   4.109   3.288   1.640 -0.2519  0.4535  2.2826
 5444SOL     OW27964   2.896   4.500  17.490  0.0767 -0.2373  0.0017
 5444SOL    HW127965   2.973   4.497  17.547 -0.3582  2.6317  0.7280
 5444SOL    HW227966   2.879   4.410  17.461 -0.6254  0.7134 -2.4816
 5445SOL     OW27967   0.517   1.966  13.241 -0.0722  0.3912  0.1380
 5445SOL    HW127968   0.522   2.051  13.285 -0.8990 -0.5367  2.0233
 5445SOL    HW227969   0.423   1.949  13.234  0.1746 -0.4084 -1.4665
 5446SOL     OW27970   3.755   2.257   8.905 -0.1448  0.2636  0.3739
 5446SOL    HW127971   3.827   2.213   8.861 -0.4552  1.1546 -1.0039
 5446SOL    HW227972   3.773   2.350   8.888  0.9934  0.6340  3.4492
 5447SOL     OW27973   1.694   4.259   3.132  0.0528 -0.3554 -0.0791
 5447SOL    HW127974   1.662   4.216   3.053 -1.0468 -0.0209  0.1893
 5447SOL    HW227975   1.630   4.216   3.188 -2.2504  1.6662 -1.1367
 5448SOL     OW27976   0.201   4.333   3.244 -0.5925 -0.0571  0.2209
 5448SOL    HW127977   0.151   4.272   3.297 -1.9086 -1.4234 -2.5859
 5448SOL    HW227978   0.154   4.416   3.242 -0.1689  0.2441  2.3815
 5449SOL     OW27979   3.155   3.229   4.713  0.5182  0.1422  0.4054
 5449SOL    HW127980   3.144   3.317   4.679 -0.0692  1.0290  2.8487
 5449SOL    HW227981   3.067   3.195   4.699  0.7243 -0.9258  1.6931
 5450SOL     OW27982   0.246   3.902   8.939 -0.4544  0.2121 -0.2670
 5450SOL    HW127983   0.220   3.815   8.909  2.2223 -0.9634  0.8296
 5450SOL    HW227984   0.283   3.942   8.861  1.1829 -0.3449  0.2252
 5451SOL     OW27985   2.028   0.274   6.056 -0.3681  0.2848 -0.1058
 5451SOL    HW127986   2.024   0.187   6.095  1.4182 -1.5006 -4.0025
 5451SOL    HW227987   2.012   0.268   5.962 -1.2435  0.1411  0.0505
 5452SOL     OW27988   1.414   1.326   4.541  0.2951  0.3930 -0.0052
 5452SOL    HW127989   1.383   1.359   4.625 -2.3110  0.4256 -0.9782
 5452SOL    HW227990   1.328   1.338   4.501 -0.1314  0.0377  0.8076
 5453SOL     OW27991   1.903   0.008   3.499  0.5249 -0.2513  0.0774
 5453SOL    HW127992   1.952   0.052   3.568  0.4958  0.7470 -0.5342
 5453SOL    HW227993   1.869   4.676   3.556 -1.7749  0.1005 -0.8719
 5454SOL     OW27994   3.259   1.765   4.801  0.2934  0.5851  0.3370
 5454SOL    HW127995   3.206   1.746   4.724  1.2644 -0.0515 -0.1783
 5454SOL    HW227996   3.190   1.756   4.867 -0.6536  0.3969 -0.6795
 5455SOL     OW27997   0.194   1.206   0.965  0.2080  0.0123 -0.3942
 5455SOL    HW127998   0.137   1.278   0.991 -0.9582 -1.4475  1.1063
 5455SOL    HW227999   0.180   1.146   1.039 -0.1887 -1.9472 -2.0502
 5456SOL     OW28000   1.870   2.101   2.880  0.2689 -0.1004  0.1023
 5456SOL    HW128001   1.891   2.177   2.936  1.7578 -3.2503  3.8038
 5456SOL    HW228002   1.832   2.042   2.945 -0.4074 -0.2290 -0.4083
 5457SOL     OW28003   3.608   1.254  10.365  0.7487 -0.0011 -0.1017
 5457SOL    HW128004   3.701   1.271  10.348  0.7483  0.2871  0.1775
 5457SOL    HW228005   3.561   1.336  10.350 -0.6756 -0.5819  1.1467
 5458SOL     OW28006   0.958   4.050   6.455 -0.2488  0.1350 -0.6655
 5458SOL    HW128007   0.985   4.042   6.364  1.5445  0.6159 -0.1649
 5458SOL    HW228008   1.027   4.108   6.487  0.0584 -1.4270  1.5353
 5459SOL     OW28009   4.072   1.968   1.145  0.9464 -0.4012 -0.2843
 5459SOL    HW128010   4.063   1.878   1.113  0.8919 -0.2262 -0.7644
 5459SOL    HW228011   4.021   1.982   1.225 -1.4630  0.7641 -2.0072
 5460SOL     OW28012   1.618   2.499  13.249 -0.2951  0.6852  0.4582
 5460SOL    HW128013   1.548   2.436  13.269  0.8238 -0.8424 -0.4119
 5460SOL    HW228014   1.595   2.561  13.318  0.6860  0.3549  1.0792
 5461SOL     OW28015   1.357   1.914   3.143 -0.6183  0.1078  0.0478
 5461SOL    HW128016   1.391   1.830   3.113 -0.0700  0.7649 -1.1714
 5461SOL    HW228017   1.270   1.917   3.101 -1.4436 -2.7419  1.5342
 5462SOL     OW28018   0.537   1.590   2.031  0.3726 -0.1728  0.7941
 5462SOL    HW128019   0.533   1.537   1.951 -0.1556  0.9736  0.0539
 5462SOL    HW228020   0.561   1.520   2.091 -3.6427 -1.1363  1.2205
 5463SOL     OW28021   0.348   4.176  10.112  0.7570 -0.6370 -0.2142
 5463SOL    HW128022   0.312   4.088  10.104  2.6918 -1.3414 -1.3705
 5463SOL    HW228023   0.325   4.201  10.201 -2.3174 -0.3471 -1.1008
 5464SOL     OW28024   3.259   0.515  12.346  0.1950  0.4897  0.1179
 5464SOL    HW128025   3.288   0.587  12.402 -0.2601  1.5385 -0.9971
 5464SOL    HW228026   3.324   0.451  12.373  0.0193 -0.7767 -2.4509
 5465SOL     OW28027   0.160   2.075   5.087 -0.2547  0.3086 -0.0417
 5465SOL    HW128028   0.100   2.043   5.154  0.2065 -1.2242 -0.3612
 5465SOL    HW228029   0.094   2.128   5.042  0.7868  1.3682 -0.2993
 5466SOL     OW28030   0.390   3.488   4.666  0.0082 -0.2863  0.6992
 5466SOL    HW128031   0.346   3.514   4.747  0.4925  0.6116  0.6674
 5466SOL    HW228032   0.472   3.447   4.692  0.3605 -0.6234 -0.9486
 5467SOL     OW28033   1.965   1.957   9.749 -0.4630  0.4340  0.2184
 5467SOL    HW128034   2.037   1.935   9.809 -0.3570  2.6074  0.8970
 5467SOL    HW228035   1.982   2.050   9.737  0.5900 -0.1548 -2.7435
 5468SOL     OW28036   0.591   4.533  15.921  0.2893  0.3535 -0.2617
 5468SOL    HW128037   0.579   4.522  16.015  2.2277  1.7403  0.1603
 5468SOL    HW228038   0.555   4.454  15.880  0.9500  1.0708 -2.2112
 5469SOL     OW28039   4.499   3.537  10.611  0.4763 -0.0202  0.2016
 5469SOL    HW128040   4.562   3.504  10.675  0.6613  1.7127  0.9051
 5469SOL    HW228041   4.427   3.567  10.665  0.3190 -0.0837  0.0285
 5470SOL     OW28042   2.426   1.430   5.932  0.0168  0.1635 -0.3228
 5470SOL    HW128043   2.406   1.340   5.957  1.1076  0.5189  1.8757
 5470SOL    HW228044   2.441   1.416   5.839  0.3313 -1.1797 -0.0766
 5471SOL     OW28045   2.201   4.391   3.230  0.6409  0.5326 -0.2291
 5471SOL    HW128046   2.166   4.460   3.172  1.3347  1.9526  1.0326
 5471SOL    HW228047   2.218   4.330   3.159 -0.6476  0.1597 -0.2216
 5472SOL     OW28048   0.639   1.865   7.455 -0.8860 -0.2551  0.2821
 5472SOL    HW128049   0.549   1.848   7.426 -0.4488 -1.1256 -0.5726
 5472SOL    HW228050   0.688   1.808   7.395 -2.3309 -0.4378 -0.7223
 5473SOL     OW28051   3.900   1.036   4.636 -0.1661 -0.2040  0.9690
 5473SOL    HW128052   3.988   1.023   4.673  0.4872 -1.5004 -1.0395
 5473SOL    HW228053   3.907   0.981   4.558 -2.0898 -0.3220  0.8824
 5474SOL     OW28054   3.841   3.689   9.145  0.3646  0.5817 -1.2314
 5474SOL    HW128055   3.780   3.640   9.089  0.4249  0.9241 -1.5956
 5474SOL    HW228056   3.797   3.702   9.229 -0.1620 -1.8033 -1.1354
 5475SOL     OW28057   3.067   0.835   7.912  0.5184 -0.7668  0.1164
 5475SOL    HW128058   3.107   0.831   7.999 -1.5695 -0.8731  1.0853
 5475SOL    HW228059   2.974   0.830   7.934  0.5833  1.9324  1.0048
 5476SOL     OW28060   4.107   4.734   3.642  0.1776  0.5450  0.2854
 5476SOL    HW128061   4.103   0.062   3.712 -0.6363 -0.5600  1.2861
 5476SOL    HW228062   4.077   0.054   3.572 -0.7036 -1.8391 -1.2952
 5477SOL     OW28063   1.003   4.559  17.385  0.3781  0.1908  0.2247
 5477SOL    HW128064   0.990   4.545  17.479  1.0925 -1.6826  0.0663
 5477SOL    HW228065   0.917   4.553  17.344  0.9406 -0.4946 -0.8586
 5478SOL     OW28066   0.960   1.889  15.518 -0.4393 -0.0170  0.3270
 5478SOL    HW128067   1.000   1.961  15.468 -1.4771  0.5541  0.3143
 5478SOL    HW228068   1.006   1.811  15.488  0.4924  0.3439  0.8088
 5479SOL     OW28069   0.560   0.814   2.407  0.0288 -0.0646  0.4632
 5479SOL    HW128070   0.617   0.825   2.330  0.4445  1.2015  0.9568
 5479SOL    HW228071   0.499   0.750   2.371 -0.0984  0.3944 -0.1319
 5480SOL     OW28072   3.228   1.570   6.419  0.2505  0.0179  0.1529
 5480SOL    HW128073   3.248   1.650   6.370 -1.0468 -0.0796 -0.5301
 5480SOL    HW228074   3.306   1.516   6.424 -0.1631 -0.2933  3.6875
 5481SOL     OW28075   4.416   1.045   5.744  0.3016 -0.0495 -0.2875
 5481SOL    HW128076   4.425   1.141   5.749 -0.5843  0.1510 -2.7686
 5481SOL    HW228077   4.323   1.025   5.737  0.3017 -0.8642  1.9816
 5482SOL     OW28078   4.229   1.336   1.457 -0.0208 -0.1159  0.6651
 5482SOL    HW128079   4.196   1.319   1.545 -0.5784  0.9822  0.6738
 5482SOL    HW228080   4.170   1.407   1.431 -1.6799 -1.4580  0.7420
 5483SOL     OW28081   3.446   2.014   7.829  0.0989 -0.3538  0.4369
 5483SOL    HW128082   3.424   2.056   7.746 -0.8553 -0.7933  0.4726
 5483SOL    HW228083   3.391   2.068   7.886  1.1387  2.1195 -0.9052
 5484SOL     OW28084   0.332   4.480   2.134 -0.4275  0.5296 -0.1219
 5484SOL    HW128085   0.418   4.450   2.165 -0.7895 -1.4011 -0.9970
 5484SOL    HW228086   0.346   4.574   2.147  0.0817  0.5598 -0.9246
 5485SOL     OW28087   0.847   4.600   5.434 -0.4309  0.0919 -0.3532
 5485SOL    HW128088   0.770   4.547   5.455 -0.8643  1.1977  0.8934
 5485SOL    HW228089   0.843   4.590   5.339 -0.2142 -1.2524 -0.2248
 5486SOL     OW28090   2.749   3.864   4.401  0.4172  0.0078  0.0262
 5486SOL    HW128091   2.829   3.913   4.415  0.7666  0.1069 -2.2433
 5486SOL    HW228092   2.689   3.939   4.407  1.6857  1.0560 -0.4376
 5487SOL     OW28093   1.365   2.549   4.171 -0.1408  0.3721  0.4249
 5487SOL    HW128094   1.341   2.486   4.103 -1.5158  1.6143 -0.2659
 5487SOL    HW228095   1.389   2.627   4.121  1.0294  0.5298  1.2575
 5488SOL     OW28096   4.518   2.181   8.364 -0.1501  0.1249  0.0939
 5488SOL    HW128097   4.456   2.108   8.366  0.0954 -0.1171 -0.9533
 5488SOL    HW228098   4.515   2.212   8.455  1.1720 -0.3975  0.3059
 5489SOL     OW28099   3.962   3.793   4.937  0.1657  0.4846  0.3054
 5489SOL    HW128100   3.974   3.709   4.983  2.6166  0.2983 -0.6775
 5489SOL    HW228101   3.966   3.850   5.014  0.3019  0.6930  0.1439
 5490SOL     OW28102   4.298   2.159  11.111  0.5144 -0.1469  0.3676
 5490SOL    HW128103   4.249   2.235  11.080  0.2686  0.5212  2.4305
 5490SOL    HW228104   4.296   2.109  11.029  1.7290  0.2420  0.1033
 5491SOL     OW28105   0.059   1.916  16.107 -0.2564  0.0413  0.8112
 5491SOL    HW128106   0.115   1.845  16.138  0.1033 -0.5676 -1.2035
 5491SOL    HW228107   0.073   1.982  16.175  1.4324 -0.1450  0.6406
 5492SOL     OW28108   2.314   3.517   8.471 -0.1652 -0.0356 -0.5973
 5492SOL    HW128109   2.269   3.587   8.424 -0.6034  1.1000  1.5371
 5492SOL    HW228110   2.400   3.523   8.430 -0.2678  1.2690 -0.6109
 5493SOL     OW28111   0.392   2.438  14.342 -0.1472  0.0344 -0.2618
 5493SOL    HW128112   0.363   2.419  14.252 -0.6931 -1.0423  0.1450
 5493SOL    HW228113   0.384   2.350  14.378 -1.2819  0.6451  0.9525
 5494SOL     OW28114   4.556   2.817   6.683 -0.8438 -0.0975  0.1019
 5494SOL    HW128115   4.520   2.770   6.758 -1.5527 -1.6719 -1.2280
 5494SOL    HW228116   4.502   2.896   6.691  0.6915  0.7316  2.4069
 5495SOL     OW28117   2.791   2.440   6.060  0.4359 -0.3926 -0.0814
 5495SOL    HW128118   2.737   2.361   6.052 -0.8092  0.1892  2.5574
 5495SOL    HW228119   2.746   2.494   6.125  1.6633 -1.5908  1.7469
 5496SOL     OW28120   2.543   0.891  16.173 -0.8810 -0.0684 -0.4497
 5496SOL    HW128121   2.568   0.811  16.220  0.4892  0.7135  0.1634
 5496SOL    HW228122   2.598   0.882  16.095  0.5236 -0.7043  0.6149
 5497SOL     OW28123   4.615   0.793   5.334  0.3089 -0.2542  0.1392
 5497SOL    HW128124   4.526   0.809   5.365 -0.2532 -2.4257 -0.3348
 5497SOL    HW228125   4.658   0.867   5.375  0.9368 -0.9131  0.6749
 5498SOL     OW28126   0.246   0.009  13.582 -0.0268 -0.2330  0.4438
 5498SOL    HW128127   0.196   4.667  13.564  2.0279 -1.2389 -0.8099
 5498SOL    HW228128   0.339   4.726  13.577 -0.1272 -0.1629 -1.5562
 5499SOL     OW28129   0.259   2.007  10.444 -0.2854 -0.0946  0.3162
 5499SOL    HW128130   0.316   2.077  10.412  0.6587 -0.5222  1.0311
 5499SOL    HW228131   0.213   2.047  10.518  0.8524  0.9322  0.4700
 5500SOL     OW28132   4.322   0.123  15.430  0.1656 -0.1460 -0.4311
 5500SOL    HW128133   4.367   0.151  15.509 -2.8325 -0.9922  1.5687
 5500SOL    HW228134   4.245   0.077  15.462  0.1085 -0.8093 -1.5254
 5501SOL     OW28135   0.288   3.290   6.332  0.0785  0.5289 -0.4892
 5501SOL    HW128136   0.365   3.243   6.299 -1.4466 -1.7555 -0.7766
 5501SOL    HW228137   0.331   3.318   6.413  1.4336 -1.3058 -0.5877
 5502SOL     OW28138   0.348   2.219   9.429 -0.4770  0.0391  0.5815
 5502SOL    HW128139   0.343   2.310   9.459 -0.2862  0.4047 -0.5112
 5502SOL    HW228140   0.434   2.198   9.466 -1.0852 -0.2525  1.8146
 5503SOL     OW28141   2.491   4.469   5.136 -0.1772 -0.2516  0.1464
 5503SOL    HW128142   2.423   4.454   5.070 -1.1134 -0.2634  1.1215
 5503SOL    HW228143   2.572   4.488   5.088 -1.0374  0.7610 -0.9036
 5504SOL     OW28144   1.935   2.875   6.476  0.1314  0.1447  0.1725
 5504SOL    HW128145   1.941   2.924   6.557 -1.5122  1.2836 -0.4028
 5504SOL    HW228146   1.908   2.791   6.513  1.0212 -0.3768 -0.3510
 5505SOL     OW28147   2.870   4.246   9.550  0.5669  0.2116 -0.4642
 5505SOL    HW128148   2.870   4.185   9.476 -0.3567  0.9735 -1.0937
 5505SOL    HW228149   2.859   4.181   9.619  0.3662  2.1313  1.3073
 5506SOL     OW28150   4.188   4.722   8.089  0.1056  0.4739 -0.1182
 5506SOL    HW128151   4.238   4.685   8.162 -0.0513  0.1653 -0.1680
 5506SOL    HW228152   4.100   4.711   8.125  0.2960  0.5930  0.3885
 5507SOL     OW28153   1.833   1.275   4.246  0.1983 -0.2820  0.4068
 5507SOL    HW128154   1.738   1.279   4.255 -0.0445 -0.2783 -2.0800
 5507SOL    HW228155   1.845   1.342   4.178  2.1405 -0.4550  0.5805
 5508SOL     OW28156   3.974   2.021   0.558  0.4297 -0.1516  0.3448
 5508SOL    HW128157   3.999   2.113   0.563  0.0231  0.1106 -2.3480
 5508SOL    HW228158   4.048   1.977   0.600  0.4094 -1.1598 -0.6513
 5509SOL     OW28159   3.480   3.004   2.391  0.3778  0.0352  0.1382
 5509SOL    HW128160   3.501   3.051   2.472  1.7105 -1.2990  0.5857
 5509SOL    HW228161   3.514   3.074   2.335  0.2857  0.4117  0.5519
 5510SOL     OW28162   3.346   1.153  11.702  0.2542  0.0134  0.0089
 5510SOL    HW128163   3.432   1.171  11.738  0.1596 -3.6164  2.1091
 5510SOL    HW228164   3.360   1.144  11.608  1.4415  0.2143  0.1688
 5511SOL     OW28165   0.894   2.019   3.767  0.0592  0.2233 -0.9051
 5511SOL    HW128166   0.975   2.001   3.719  1.2302  0.0775  1.0980
 5511SOL    HW228167   0.919   1.992   3.856  1.1147  1.1623 -0.9140
 5512SOL     OW28168   1.869   2.745   4.367  0.0689  0.3791  0.7084
 5512SOL    HW128169   1.803   2.700   4.419  1.9443 -2.0548  0.9672
 5512SOL    HW228170   1.934   2.756   4.437 -0.0537  3.2859  0.3610
 5513SOL     OW28171   2.466   0.583   8.784  0.0051  0.0478 -0.3252
 5513SOL    HW128172   2.431   0.656   8.733  1.4821  0.0331 -1.3407
 5513SOL    HW228173   2.492   0.516   8.721 -1.5316  0.2229 -1.1642
 5514SOL     OW28174   4.283   2.045   8.459  0.6775 -0.4803  0.0167
 5514SOL    HW128175   4.308   1.994   8.537  0.0525 -0.6608  0.1013
 5514SOL    HW228176   4.258   2.131   8.494  0.6684 -0.1123 -0.9043
 5515SOL     OW28177   0.831   4.429   4.591 -0.5177  0.8244  0.4553
 5515SOL    HW128178   0.754   4.482   4.614  0.4873  0.7127  4.0703
 5515SOL    HW228179   0.859   4.411   4.681  1.5518  0.7220 -0.2148
 5516SOL     OW28180   4.227   0.436  12.628 -0.4243  0.2913  0.8283
 5516SOL    HW128181   4.172   0.364  12.659 -0.3347 -0.3722 -0.5460
 5516SOL    HW228182   4.175   0.515  12.616 -3.0818 -1.5550  0.2943
 5517SOL     OW28183   2.000   0.323   6.487 -0.0895 -0.0861  0.2049
 5517SOL    HW128184   2.031   0.373   6.562 -0.4735 -0.0757  0.3600
 5517SOL    HW228185   1.989   0.396   6.426 -2.2533 -0.2648  0.3757
 5518SOL     OW28186   3.756   4.413  16.760 -0.6453 -0.2272  0.6673
 5518SOL    HW128187   3.737   4.320  16.748  2.2972 -0.6371 -0.8076
 5518SOL    HW228188   3.838   4.411  16.810 -0.0980  4.9446  0.0439
 5519SOL     OW28189   4.723   1.448   5.935 -0.1455  0.3283 -0.0506
 5519SOL    HW128190   4.733   1.460   6.030 -0.1366  1.2609 -0.1758
 5519SOL    HW228191   4.727   1.537   5.901  0.6212  0.9196  1.5890
 5520SOL     OW28192   0.706   1.245  10.789  0.2055 -0.6711  0.2635
 5520SOL    HW128193   0.694   1.218  10.698 -1.2404 -0.4800  0.4109
 5520SOL    HW228194   0.616   1.272  10.805  0.2483 -0.6011  0.3822
 5521SOL     OW28195   3.859   4.227  17.740  0.3345 -0.1885  0.1864
 5521SOL    HW128196   3.791   4.269   0.045  0.7101 -0.1238  0.6144
 5521SOL    HW228197   3.802   4.156  17.710 -0.0642 -0.1983  0.9696
 5522SOL     OW28198   0.802   3.295  14.459 -0.3186  0.1561  0.0802
 5522SOL    HW128199   0.792   3.358  14.530 -0.9993  1.5998 -1.2754
 5522SOL    HW228200   0.839   3.351  14.391 -1.1612  1.1171  0.4066
 5523SOL     OW28201   0.182   1.564   2.884 -0.4281  0.2625  0.5051
 5523SOL    HW128202   0.267   1.577   2.927  1.3206 -0.6569 -2.6518
 5523SOL    HW228203   0.175   1.638   2.824  0.8995 -2.7688 -3.4298
 5524SOL     OW28204   0.503   0.131   2.823  0.0589 -0.2730  0.7303
 5524SOL    HW128205   0.446   0.073   2.773  1.4357 -0.8895 -0.1407
 5524SOL    HW228206   0.441   0.152   2.893 -0.0599 -0.5090  0.6976
 5525SOL     OW28207   1.822   2.009   6.953  0.7827 -0.3467 -0.4026
 5525SOL    HW128208   1.810   1.917   6.932 -1.1610 -0.0155 -0.7104
 5525SOL    HW228209   1.731   2.035   6.967  0.5112 -0.7905 -1.4110
 5526SOL     OW28210   4.292   2.368   5.892  0.5342 -0.0587  0.1461
 5526SOL    HW128211   4.251   2.363   5.978  0.0570 -1.7851 -0.1967
 5526SOL    HW228212   4.380   2.341   5.919  0.2132  0.3389  1.5973
 5527SOL     OW28213   2.745   1.364   3.863 -0.6556 -0.2456 -0.3766
 5527SOL    HW128214   2.657   1.352   3.899 -0.3789 -0.9158  0.0776
 5527SOL    HW228215   2.792   1.310   3.926  0.2165 -3.5944 -3.9026
 5528SOL     OW28216   1.333   0.388   2.553 -0.0712 -0.0026  0.0780
 5528SOL    HW128217   1.290   0.370   2.469  0.7057  2.1088 -0.7735
 5528SOL    HW228218   1.358   0.297   2.571 -0.8007  0.0784  1.4487
 5529SOL     OW28219   2.522   1.772  15.420 -0.4134  0.0692  0.1364
 5529SOL    HW128220   2.543   1.861  15.449  0.9050 -0.2265  0.0740
 5529SOL    HW228221   2.566   1.757  15.337 -0.6007 -2.1025  0.4232
 5530SOL     OW28222   4.000   1.226  10.640 -0.0134 -0.2129 -0.6391
 5530SOL    HW128223   4.070   1.199  10.581 -0.3044  0.3891 -1.2628
 5530SOL    HW228224   3.997   1.147  10.695  1.0827 -0.4307 -0.9078
 5531SOL     OW28225   3.430   2.235  17.168 -0.2981  0.1171 -0.0085
 5531SOL    HW128226   3.360   2.260  17.107 -0.9187  1.5189  1.2948
 5531SOL    HW228227   3.425   2.139  17.172 -0.6318  0.0408 -1.8655
 5532SOL     OW28228   4.302   2.932   5.184 -0.0088 -0.3824 -0.1146
 5532SOL    HW128229   4.210   2.923   5.159  0.5193  1.3067 -2.5343
 5532SOL    HW228230   4.298   2.873   5.260 -0.3126  0.3672  0.4476
 5533SOL     OW28231   3.246   2.613   9.798  0.6558  0.6282 -0.2631
 5533SOL    HW128232   3.331   2.579   9.829  1.3161  0.9776 -1.6929
 5533SOL    HW228233   3.216   2.539   9.746  0.0659  1.5230 -1.1835
 5534SOL     OW28234   1.000   4.535  11.131  0.5212 -0.4440 -0.6171
 5534SOL    HW128235   1.036   4.621  11.153 -0.5514 -0.0363 -0.4644
 5534SOL    HW228236   0.966   4.549  11.043  0.9435 -1.8978 -1.0260
 5535SOL     OW28237   0.012   4.238   0.936 -0.0387  0.2343 -0.0380
 5535SOL    HW128238   4.660   4.266   0.956  0.0550 -2.0087  3.6523
 5535SOL    HW228239   0.052   4.325   0.933 -0.7092  0.5222 -0.6101
 5536SOL     OW28240   4.483   3.609   6.514 -0.2393 -0.8545 -0.5687
 5536SOL    HW128241   4.413   3.561   6.470 -1.2077  0.1540 -0.1326
 5536SOL    HW228242   4.461   3.694   6.476  1.8918 -0.8399 -1.8385
 5537SOL     OW28243   1.982   2.251  13.442  0.1046 -0.0614  0.2914
 5537SOL    HW128244   1.953   2.204  13.364 -1.7007  0.6440  0.5483
 5537SOL    HW228245   1.958   2.343  13.432  1.3133  0.3712  1.3676
 5538SOL     OW28246   3.081   1.574   2.789  0.3130 -0.0397  0.5560
 5538SOL    HW128247   3.063   1.663   2.818  0.0487 -0.3174  1.2465
 5538SOL    HW228248   3.005   1.524   2.818 -0.0955 -0.1523 -0.7288
 5539SOL     OW28249   2.241   3.501   4.138 -0.1665  0.0661 -0.3568
 5539SOL    HW128250   2.195   3.471   4.216  1.1463 -0.3678  0.2251
 5539SOL    HW228251   2.334   3.505   4.160 -0.5700 -1.0339  1.5177
 5540SOL     OW28252   4.705   4.059   7.345  0.3260 -0.1609 -0.0140
 5540SOL    HW128253   4.615   4.061   7.376 -0.0516 -1.2745 -1.0372
 5540SOL    HW228254   0.021   4.019   7.413  1.2851  0.3998 -0.4426
 5541SOL     OW28255   1.994   3.288   6.112  0.0227 -0.2665  0.6714
 5541SOL    HW128256   2.078   3.242   6.116 -0.0529 -0.4305  0.4073
 5541SOL    HW228257   1.944   3.246   6.042 -0.4588  1.1252  0.1944
 5542SOL     OW28258   4.687   4.540   1.349  0.0099 -0.1502 -0.0018
 5542SOL    HW128259   4.734   4.605   1.401 -0.9935 -1.9738  3.1680
 5542SOL    HW228260   4.628   4.512   1.419 -1.3571  0.5568 -0.8753
 5543SOL     OW28261   3.944   4.252   0.443 -0.1248  0.3169 -0.7253
 5543SOL    HW128262   3.964   4.160   0.460 -0.5867  0.3809  0.1819
 5543SOL    HW228263   4.022   4.297   0.475 -1.5355  0.2384  2.8414
 5544SOL     OW28264   2.384   1.213   6.108  0.6069 -0.2916  0.2674
 5544SOL    HW128265   2.464   1.167   6.081  1.2981  0.7807  0.4729
 5544SOL    HW228266   2.356   1.163   6.184 -2.6833  1.1001 -0.0376
 5545SOL     OW28267   4.035   2.805   9.676 -0.0643 -0.4107 -0.0010
 5545SOL    HW128268   4.129   2.818   9.663  0.0997 -0.1523  1.4211
 5545SOL    HW228269   4.027   2.720   9.634  0.9432  0.0820 -1.1681
 5546SOL     OW28270   0.758   3.644   6.079  0.2434 -0.1948  0.2055
 5546SOL    HW128271   0.795   3.723   6.119  3.6008 -2.2288  1.0608
 5546SOL    HW228272   0.684   3.617   6.134  0.4664  1.6366  1.3872
 5547SOL     OW28273   3.948   4.379   5.750  0.5798 -0.0197 -0.1488
 5547SOL    HW128274   3.997   4.335   5.818  0.0938 -2.3588 -1.3104
 5547SOL    HW228275   4.022   4.425   5.711 -0.3377  1.3927 -0.2368
 5548SOL     OW28276   2.421   1.458   8.153 -0.5754  0.5614 -0.0112
 5548SOL    HW128277   2.407   1.365   8.133 -0.9111  0.8925 -1.3215
 5548SOL    HW228278   2.343   1.488   8.106 -0.7592  2.3591  1.4377
 5549SOL     OW28279   1.344   0.323  12.726  0.1891 -0.0947 -0.4714
 5549SOL    HW128280   1.350   0.385  12.654  0.1791 -0.9759 -1.2258
 5549SOL    HW228281   1.342   0.373  12.807  1.6677 -0.5983 -0.1319
 5550SOL     OW28282   2.635   0.721   4.057 -0.4759  0.9479  0.2494
 5550SOL    HW128283   2.634   0.783   3.984 -0.5137  0.4485 -0.1710
 5550SOL    HW228284   2.574   0.658   4.017 -0.0225  1.5635 -1.4345
 5551SOL     OW28285   1.954   0.591   8.407 -0.0028  0.5106  0.0737
 5551SOL    HW128286   1.914   0.509   8.377  0.6626  0.2073 -0.0044
 5551SOL    HW228287   1.919   0.666   8.358  0.9127  0.7687 -0.1970
 5552SOL     OW28288   3.791   4.114   6.780 -0.0114  0.1090 -0.1394
 5552SOL    HW128289   3.725   4.087   6.843  1.4893 -0.7874  1.0478
 5552SOL    HW228290   3.744   4.085   6.702 -1.7397  0.0605  0.9159
 5553SOL     OW28291   4.376   1.199   2.159 -0.3244  0.3283 -0.9108
 5553SOL    HW128292   4.287   1.201   2.123 -0.7610 -1.1835  0.0942
 5553SOL    HW228293   4.414   1.280   2.125  0.2779  0.2187 -0.4950
 5554SOL     OW28294   1.699   0.326   4.462 -0.5408  0.0942 -0.7221
 5554SOL    HW128295   1.623   0.379   4.439 -0.8442 -0.0094  0.0689
 5554SOL    HW228296   1.711   0.266   4.387  0.3621  1.1037 -1.3772
 5555SOL     OW28297   1.343   0.080   3.925  0.2496  0.0186  0.0908
 5555SOL    HW128298   1.388   0.144   3.979  0.9112  0.5813 -1.1109
 5555SOL    HW228299   1.269   0.048   3.976  0.3618 -1.1588 -0.4791
 5556SOL     OW28300   3.320   1.807   7.125  0.5111  0.4811  0.0962
 5556SOL    HW128301   3.267   1.738   7.085  2.1064  0.1503 -1.4738
 5556SOL    HW228302   3.264   1.877   7.156  0.8685  0.8916 -0.1819
 5557SOL     OW28303   2.132   3.916  11.773 -0.1278 -0.5385 -0.5107
 5557SOL    HW128304   2.132   3.931  11.867 -1.0240 -0.4799 -0.5259
 5557SOL    HW228305   2.200   3.980  11.748  0.3337 -0.0126  2.1011
 5558SOL     OW28306   3.745   1.099   6.638  0.0477  0.4989 -0.2607
 5558SOL    HW128307   3.740   1.016   6.685  0.5518  0.4868 -0.2359
 5558SOL    HW228308   3.704   1.160   6.700 -1.4460 -1.2426  0.4879
 5559SOL     OW28309   0.664   2.726   2.229  0.0646  0.1792 -0.3059
 5559SOL    HW128310   0.735   2.787   2.247 -0.6878  0.4708  1.6885
 5559SOL    HW228311   0.611   2.780   2.171 -3.1677 -1.0819  1.4179
 5560SOL     OW28312   3.915   2.464   1.870 -0.1702 -0.4878 -0.3427
 5560SOL    HW128313   3.833   2.500   1.904  0.0905 -1.1846  1.0543
 5560SOL    HW228314   3.970   2.537   1.840 -1.0547  0.2039 -0.2718
 5561SOL     OW28315   0.856   4.186   2.807  0.9100 -0.0998 -0.6009
 5561SOL    HW128316   0.882   4.267   2.763  2.7381 -0.2152  0.2911
 5561SOL    HW228317   0.934   4.159   2.854 -0.8389 -4.2901 -0.0797
 5562SOL     OW28318   2.773   4.008   7.696  0.2185  0.2015  0.2118
 5562SOL    HW128319   2.697   3.957   7.668 -0.2434  0.0998  1.6230
 5562SOL    HW228320   2.838   3.956   7.650  1.5685 -0.1866  2.5465
 5563SOL     OW28321   1.171   4.225   8.337 -0.5745  0.6914  0.5259
 5563SOL    HW128322   1.091   4.233   8.390  0.9425 -0.6716  3.0320
 5563SOL    HW228323   1.136   4.226   8.248 -0.8451 -2.2296  0.5962
 5564SOL     OW28324   2.481   3.011   2.928 -0.6490 -0.2184  0.0859
 5564SOL    HW128325   2.388   3.022   2.907 -0.1976  0.2063 -1.6885
 5564SOL    HW228326   2.497   3.102   2.952 -0.2275 -0.0152 -0.9618
 5565SOL     OW28327   2.929   4.371   1.343  0.2632 -0.0406 -0.6060
 5565SOL    HW128328   2.917   4.345   1.252  3.4576 -0.1215 -1.0125
 5565SOL    HW228329   2.917   4.288   1.390 -1.9895  0.8627  0.4514
 5566SOL     OW28330   0.233   4.588  10.084  0.0410  0.4877  0.0632
 5566SOL    HW128331   0.165   4.616  10.024 -1.7805 -0.6023  1.6201
 5566SOL    HW228332   0.274   4.525  10.024 -0.9235  0.1202 -0.2122
 5567SOL     OW28333   3.049   3.710   9.297  0.0637  0.0685  0.0632
 5567SOL    HW128334   3.124   3.679   9.347  0.8874 -1.9636 -2.4545
 5567SOL    HW228335   3.038   3.796   9.338  1.3108  0.2402  0.0365
 5568SOL     OW28336   0.853   2.538   9.536  0.3337 -0.4446  0.0704
 5568SOL    HW128337   0.777   2.510   9.587 -0.1867  0.8148 -0.0109
 5568SOL    HW228338   0.926   2.512   9.591  0.4785 -1.0843 -0.4186
 5569SOL     OW28339   3.541   3.251  16.357 -0.5624  0.4353 -0.0673
 5569SOL    HW128340   3.567   3.253  16.449  0.6390  1.0564 -0.4208
 5569SOL    HW228341   3.557   3.343  16.335 -1.0361  0.5493  0.0609
 5570SOL     OW28342   2.767   1.476   5.750 -0.6626 -0.0308  0.4332
 5570SOL    HW128343   2.830   1.480   5.822  0.7624  1.4051 -0.8884
 5570SOL    HW228344   2.819   1.462   5.671 -2.5323 -0.6615 -0.7057
 5571SOL     OW28345   3.580   3.494   4.420  0.2279 -0.7941 -0.2004
 5571SOL    HW128346   3.638   3.428   4.382 -0.7626 -1.7606 -0.0324
 5571SOL    HW228347   3.599   3.487   4.513  0.7696  2.5391 -0.0694
 5572SOL     OW28348   3.958   0.360   6.985  0.8034  0.1804 -0.1235
 5572SOL    HW128349   3.945   0.265   6.979  2.6614 -0.1007  0.4366
 5572SOL    HW228350   4.054   0.358   6.988  0.8088  0.7468 -0.0516
 5573SOL     OW28351   3.776   3.038   8.892  0.2531  0.7588  0.0317
 5573SOL    HW128352   3.733   3.118   8.862 -1.4146  0.2769  1.1045
 5573SOL    HW228353   3.745   2.971   8.831 -1.7707  0.5922  1.2431
 5574SOL     OW28354   3.010   3.330   1.198 -0.1488 -0.2111 -0.7177
 5574SOL    HW128355   2.981   3.241   1.179 -2.1052  0.2803 -0.0552
 5574SOL    HW228356   3.023   3.368   1.111 -0.5463  0.5873 -0.4378
 5575SOL     OW28357   3.666   1.087   4.941  0.6175 -0.1539 -0.5344
 5575SOL    HW128358   3.748   1.045   4.969  0.3517  1.4943  2.6523
 5575SOL    HW228359   3.676   1.165   4.995 -1.5113 -0.9131  0.9600
 5576SOL     OW28360   0.773   2.102   4.549  0.4912 -0.4377  0.4926
 5576SOL    HW128361   0.719   2.024   4.560 -0.2898 -0.2113 -1.7168
 5576SOL    HW228362   0.754   2.146   4.632 -0.4202 -0.7142  0.4301
 5577SOL     OW28363   1.611   1.715   8.197  0.2520  0.5114 -0.2852
 5577SOL    HW128364   1.517   1.734   8.196  0.2802  0.5990 -1.2915
 5577SOL    HW228365   1.616   1.624   8.226 -0.3079  1.1923  1.9639
 5578SOL     OW28366   3.906   1.145  12.510 -0.4370  0.0906 -0.1666
 5578SOL    HW128367   3.944   1.131  12.597  0.1412 -0.1970 -0.4598
 5578SOL    HW228368   3.920   1.240  12.505  0.0422  0.0291  0.0049
 5579SOL     OW28369   2.849   2.037  10.071 -0.5955  0.0369 -0.3843
 5579SOL    HW128370   2.849   2.088   9.990 -0.6899  0.0159 -0.3963
 5579SOL    HW228371   2.756   2.016  10.074  0.1611 -2.6941  3.6483
 5580SOL     OW28372   3.145   1.159   7.162  0.4741 -0.3563  0.4981
 5580SOL    HW128373   3.166   1.066   7.162 -0.2708 -0.5195  0.3410
 5580SOL    HW228374   3.122   1.163   7.255  0.3313  0.4795  0.4256
 5581SOL     OW28375   0.987   3.205  13.968  0.5004 -0.6560  0.0835
 5581SOL    HW128376   0.997   3.163  14.054 -2.0931  2.2219  1.8104
 5581SOL    HW228377   1.080   3.195  13.948  0.7024  1.0912  0.1795
 5582SOL     OW28378   2.268   3.841   8.102 -0.4695  0.4685  1.1164
 5582SOL    HW128379   2.232   3.840   8.014 -0.8325  3.3241  1.2293
 5582SOL    HW228380   2.315   3.924   8.108  0.5089  0.0026 -0.1395
 5583SOL     OW28381   1.991   0.418   4.912 -0.0031  0.3691 -0.1300
 5583SOL    HW128382   1.904   0.426   4.951 -1.1636  0.0384 -2.6227
 5583SOL    HW228383   1.981   0.442   4.820 -2.1328  2.0513  0.5505
 5584SOL     OW28384   1.745   1.649   5.607 -0.7285  0.2986  0.0620
 5584SOL    HW128385   1.743   1.623   5.515  1.4506  0.8967 -0.1607
 5584SOL    HW228386   1.834   1.668   5.637 -0.1369  1.4183 -2.3948
 5585SOL     OW28387   3.273   1.202   3.410  0.2108 -0.4236  0.4757
 5585SOL    HW128388   3.316   1.276   3.454  0.1885 -0.3823  0.4269
 5585SOL    HW228389   3.245   1.142   3.479  0.3037  0.4086  1.2486
 5586SOL     OW28390   1.985   2.534   8.162  0.0493 -0.3486 -0.1272
 5586SOL    HW128391   1.924   2.538   8.088 -0.4616  1.2096  0.3694
 5586SOL    HW228392   1.993   2.440   8.172 -1.1595 -0.3568  0.8395
 5587SOL     OW28393   1.386   4.566   4.606 -0.1637  0.1521 -0.5628
 5587SOL    HW128394   1.305   4.611   4.632  0.1759 -0.0701  0.8778
 5587SOL    HW228395   1.439   4.579   4.684 -0.5219  1.1425 -0.4807
 5588SOL     OW28396   1.876   1.929   7.522  0.1114  0.3800  0.8409
 5588SOL    HW128397   1.795   1.882   7.546  0.5521 -0.6029  0.4189
 5588SOL    HW228398   1.908   1.970   7.602  0.4388  0.1110  0.8495
 5589SOL     OW28399   0.890   1.722   1.782 -0.3902  0.6075  0.3837
 5589SOL    HW128400   0.905   1.634   1.746 -1.1636  1.3620 -1.8145
 5589SOL    HW228401   0.937   1.714   1.865  2.2205  1.1158 -1.0595
 5590SOL     OW28402   1.926   0.847  17.004  0.0935  0.2063  0.3829
 5590SOL    HW128403   1.871   0.913  17.046 -0.0727  0.6172 -0.4866
 5590SOL    HW228404   1.894   0.759  17.022  2.0089 -0.5640 -0.0351
 5591SOL     OW28405   1.469   0.768   7.439  0.1365 -0.1625  0.0127
 5591SOL    HW128406   1.530   0.795   7.507 -1.1473  0.1269  1.0375
 5591SOL    HW228407   1.471   0.674   7.458  2.1086  0.1820  1.4745
 5592SOL     OW28408   2.007   0.819   4.259  0.0984 -0.4293  0.4974
 5592SOL    HW128409   1.955   0.859   4.189 -3.2024 -1.9594  2.0542
 5592SOL    HW228410   1.971   0.730   4.261 -1.2111  0.0499 -1.1780
 5593SOL     OW28411   4.492   0.097   8.273 -0.0003 -0.2204  0.4297
 5593SOL    HW128412   4.457   0.180   8.304  2.2501  0.8062  0.2829
 5593SOL    HW228413   4.544   0.068   8.348  0.2454 -0.9996 -0.0371
 5594SOL     OW28414   4.127   3.791  13.786 -1.0172  0.4090  0.3081
 5594SOL    HW128415   4.063   3.862  13.785  0.4184  1.7123  0.6894
 5594SOL    HW228416   4.183   3.824  13.857 -0.0029 -2.2904  0.7596
 5595SOL     OW28417   3.613   3.706   6.015  0.5764  0.3595 -0.8191
 5595SOL    HW128418   3.606   3.640   5.947 -0.1480 -1.9437  1.4775
 5595SOL    HW228419   3.700   3.737   5.991  0.6254 -0.3670 -1.5777
 5596SOL     OW28420   0.468   2.936   2.308 -0.0454 -0.3457 -0.2109
 5596SOL    HW128421   0.471   2.842   2.328  1.2534 -0.3665 -0.4856
 5596SOL    HW228422   0.511   2.966   2.388 -1.8184  1.6316 -0.0011
 5597SOL     OW28423   2.422   1.719  12.444  0.1929 -0.3841  0.1239
 5597SOL    HW128424   2.374   1.788  12.490  0.7853 -0.6519  1.1222
 5597SOL    HW228425   2.493   1.700  12.505 -0.3784  0.6394  1.1222
 5598SOL     OW28426   2.896   4.163   7.908 -0.0546  0.5056  0.1654
 5598SOL    HW128427   2.858   4.134   7.825 -0.9723 -0.8572  1.0549
 5598SOL    HW228428   2.886   4.077   7.950  2.5671  0.5164  0.8606
 5599SOL     OW28429   3.783   2.107   4.873  0.3118  0.3529  0.2824
 5599SOL    HW128430   3.851   2.165   4.909 -0.3482  1.6890 -0.6098
 5599SOL    HW228431   3.743   2.156   4.801  2.8607  0.3288 -1.1621
 5600SOL     OW28432   4.582   4.231   0.219 -0.1437  0.0997 -0.7538
 5600SOL    HW128433   4.636   4.152   0.215 -0.9998 -0.5069 -0.2231
 5600SOL    HW228434   4.510   4.216   0.158 -0.3818 -0.6685 -0.2788
 5601SOL     OW28435   2.093   2.959   5.005  0.3715  0.3363 -0.4494
 5601SOL    HW128436   2.053   2.877   5.032  1.0560 -0.4867 -1.9073
 5601SOL    HW228437   2.137   2.985   5.086  1.5958 -0.9439 -0.6975
 5602SOL     OW28438   3.465   2.856  11.027 -0.0920  1.1224  0.6532
 5602SOL    HW128439   3.388   2.893  10.983  0.8211  0.9028 -1.1095
 5602SOL    HW228440   3.429   2.790  11.087  0.7815  0.9749  1.0190
 5603SOL     OW28441   2.633   2.186   9.051  0.3268  0.3974  0.6269
 5603SOL    HW128442   2.729   2.188   9.060  0.2400 -1.3968  1.8204
 5603SOL    HW228443   2.626   2.274   9.013 -1.5032  0.2302  0.5984
 5604SOL     OW28444   1.104   4.581   7.007  0.2515 -0.2582 -0.3119
 5604SOL    HW128445   1.104   4.564   6.913  0.6799 -1.7150 -0.0464
 5604SOL    HW228446   1.030   4.531   7.040 -2.3183  2.8869 -1.2402
 5605SOL     OW28447   3.023   0.218  15.690 -0.0265 -0.1956  0.3662
 5605SOL    HW128448   3.093   0.218  15.755 -1.4417  0.2737  1.8750
 5605SOL    HW228449   2.959   0.272  15.736 -0.9929 -2.5174  1.7413
 5606SOL     OW28450   2.955   0.104  14.698  0.6573 -0.2543 -0.6510
 5606SOL    HW128451   2.894   0.052  14.750 -1.9174  0.7861 -2.6689
 5606SOL    HW228452   3.029   0.117  14.757  0.3841 -0.0974 -0.3410
 5607SOL     OW28453   3.489   4.706   0.876 -0.5546  0.1200 -0.0383
 5607SOL    HW128454   3.507   4.687   0.784  0.3255  0.7209  0.0076
 5607SOL    HW228455   3.450   4.621   0.897  0.3185 -0.0259  0.9637
 5608SOL     OW28456   0.013   2.047  14.570 -0.8477  0.2459  0.6778
 5608SOL    HW128457   0.060   2.071  14.490  0.3838 -0.8926  1.0551
 5608SOL    HW228458   4.673   2.009  14.530 -0.8757  0.3886  0.5971
 5609SOL     OW28459   2.273   3.089   3.375 -0.1375 -0.2482 -0.1038
 5609SOL    HW128460   2.350   3.146   3.373 -0.4158  0.1411  0.1376
 5609SOL    HW228461   2.303   3.010   3.331 -2.2198 -1.8496  1.3352
 5610SOL     OW28462   4.396   3.233  13.406  0.6622 -0.4950  0.3475
 5610SOL    HW128463   4.344   3.248  13.485 -1.1149 -1.8039 -0.5914
 5610SOL    HW228464   4.336   3.168  13.371  2.0116 -3.0293  2.6916
 5611SOL     OW28465   0.219   0.179   7.867  1.1866  0.1820 -0.2017
 5611SOL    HW128466   0.234   0.105   7.926  0.7841  0.1754 -0.1062
 5611SOL    HW228467   0.142   0.152   7.818  1.3598 -0.4916 -0.1094
 5612SOL     OW28468   4.720   2.543  11.966  0.3447 -0.4557  0.2627
 5612SOL    HW128469   0.004   2.472  11.905  2.6716  0.0510  0.4918
 5612SOL    HW228470   4.720   2.497  12.050  0.1485 -1.8222 -0.4776
 5613SOL     OW28471   2.655   0.308  11.480  0.1066  0.0195  0.0144
 5613SOL    HW128472   2.605   0.241  11.526  2.5413 -1.0589  1.1419
 5613SOL    HW228473   2.607   0.388  11.502  0.6815  0.2891  0.3003
 5614SOL     OW28474   4.011   4.304   4.293 -0.0086  0.5486  0.2442
 5614SOL    HW128475   4.009   4.212   4.320 -1.3609  0.6189  0.3922
 5614SOL    HW228476   3.989   4.349   4.375 -1.6681 -0.4397  0.3467
 5615SOL     OW28477   1.311   0.567   0.799  0.1925  0.4710  0.6145
 5615SOL    HW128478   1.301   0.532   0.711 -1.7126  1.8944  0.2582
 5615SOL    HW228479   1.246   0.636   0.783  1.6832  1.4553 -1.1869
 5616SOL     OW28480   1.774   2.668   8.345  0.0772  0.3116  0.1038
 5616SOL    HW128481   1.802   2.757   8.327  1.6072 -0.5251 -1.6500
 5616SOL    HW228482   1.847   2.624   8.300 -1.0007 -0.2297 -1.1076
 5617SOL     OW28483   1.105   0.273  17.425  0.4356 -0.2914 -0.2408
 5617SOL    HW128484   1.118   0.284  17.331  1.7894 -2.7471 -0.3393
 5617SOL    HW228485   1.127   0.183  17.448  0.1277 -0.4473 -0.5605
 5618SOL     OW28486   2.531   4.010   7.175  0.4025  0.0169 -0.0339
 5618SOL    HW128487   2.543   3.920   7.204  1.7601 -0.1454 -1.0903
 5618SOL    HW228488   2.620   4.046   7.170  0.5346 -0.4101 -0.7691
 5619SOL     OW28489   1.437   3.454   8.228  0.2185  0.5084 -0.2527
 5619SOL    HW128490   1.419   3.547   8.215  0.0004  0.4560 -0.3326
 5619SOL    HW228491   1.407   3.447   8.318 -1.5421  0.9166 -0.8079
 5620SOL     OW28492   0.942   1.445  17.452 -0.1598 -0.4438 -0.4843
 5620SOL    HW128493   0.982   1.358  17.446 -0.6082 -0.4758 -3.2824
 5620SOL    HW228494   0.881   1.421  17.382 -0.7365 -2.0953  0.5874
 5621SOL     OW28495   1.646   0.968  13.431  0.4230 -0.7051  0.3555
 5621SOL    HW128496   1.558   0.985  13.464  0.2679 -1.2480  0.2252
 5621SOL    HW228497   1.695   1.003  13.505 -0.2276 -0.7616  0.8173
 5622SOL     OW28498   3.059   1.815  14.749 -0.0375 -0.1196  0.0488
 5622SOL    HW128499   3.087   1.779  14.665  2.7973  0.4887  0.7268
 5622SOL    HW228500   2.973   1.850  14.724 -0.2011  0.9466  2.0471
 5623SOL     OW28501   3.679   0.543   3.384 -0.6057  0.4176  0.0812
 5623SOL    HW128502   3.668   0.485   3.308 -0.8523  0.6502 -0.0624
 5623SOL    HW228503   3.707   0.627   3.346 -2.2612  0.5824 -0.8108
 5624SOL     OW28504   3.322   0.332   5.556  0.1349  0.5250 -0.1945
 5624SOL    HW128505   3.235   0.302   5.583  0.6035 -0.2369  0.4804
 5624SOL    HW228506   3.371   0.307   5.634 -2.8698 -0.2087  1.4332
 5625SOL     OW28507   4.299   2.453   9.540  0.2036  0.4825 -0.0115
 5625SOL    HW128508   4.315   2.465   9.446 -0.1345  2.7750  0.2233
 5625SOL    HW228509   4.203   2.454   9.540  0.1819 -1.9980 -0.7443
 5626SOL     OW28510   0.774   3.522  14.665  0.9099 -0.2421  0.2217
 5626SOL    HW128511   0.731   3.601  14.632 -1.3797 -0.5182  2.4842
 5626SOL    HW228512   0.816   3.557  14.744 -1.2015  0.3948  1.0869
 5627SOL     OW28513   3.892   2.680   5.635 -0.0294  0.1498  0.4645
 5627SOL    HW128514   3.902   2.703   5.728  0.3054 -1.3847  0.8181
 5627SOL    HW228515   3.798   2.675   5.617  0.3002 -1.3983 -0.7802
 5628SOL     OW28516   0.350   3.769   4.226  0.2972 -0.3592  0.2058
 5628SOL    HW128517   0.416   3.702   4.208  0.9956 -0.0945  1.7831
 5628SOL    HW228518   0.336   3.818   4.145 -0.5914 -0.0481  0.5404
 5629SOL     OW28519   0.010   2.767  14.035  0.4179  0.1431  0.1585
 5629SOL    HW128520   0.103   2.778  14.020  0.1387  0.3631 -1.3596
 5629SOL    HW228521   4.713   2.842  14.084 -0.6304 -2.0867  2.8803
 5630SOL     OW28522   2.591   3.577   0.124  0.7550 -0.2361 -0.5905
 5630SOL    HW128523   2.684   3.576   0.148  0.4422 -1.1638  0.6241
 5630SOL    HW228524   2.555   3.550   0.209 -2.9103  2.0572 -1.4237
 5631SOL     OW28525   4.302   1.138  14.185  0.4392 -0.5226 -0.1777
 5631SOL    HW128526   4.259   1.155  14.269  2.3083  0.3790  0.6136
 5631SOL    HW228527   4.359   1.065  14.211 -1.1871 -1.8942 -0.4846
 5632SOL     OW28528   3.063   0.318   3.068 -0.3908  0.1451 -0.3192
 5632SOL    HW128529   3.045   0.400   3.116 -0.9218  0.5990 -1.2853
 5632SOL    HW228530   3.010   0.309   2.989  1.8918  0.9537 -1.9357
 5633SOL     OW28531   3.391   3.246   9.571  0.8805  0.3058 -0.4629
 5633SOL    HW128532   3.439   3.180   9.520 -0.3837 -1.0763  0.1422
 5633SOL    HW228533   3.434   3.330   9.554  2.5705 -0.5400 -0.3539
 5634SOL     OW28534   3.189   2.183   3.864  0.8587 -0.3378  0.2152
 5634SOL    HW128535   3.113   2.203   3.919 -1.1699 -1.1196 -2.2713
 5634SOL    HW228536   3.161   2.209   3.776  0.2041 -1.0822  0.1969
 5635SOL     OW28537   1.836   2.231  12.013 -0.6909 -0.0141  0.4215
 5635SOL    HW128538   1.857   2.308  12.066  0.4044 -1.7213  2.4627
 5635SOL    HW228539   1.868   2.163  12.072 -0.7420  0.1401  0.6324
 5636SOL     OW28540   3.915   0.273  13.424 -0.2568 -0.0841 -0.1185
 5636SOL    HW128541   3.965   0.195  13.447 -1.7003 -0.7903  0.6318
 5636SOL    HW228542   3.853   0.289  13.495 -1.3294 -0.2293 -1.0195
 5637SOL     OW28543   0.373   3.202   2.682  0.0342  0.1457 -0.3666
 5637SOL    HW128544   0.365   3.294   2.655  0.7632 -0.3367 -2.2678
 5637SOL    HW228545   0.386   3.231   2.772  0.2622 -0.4258 -0.2168
 5638SOL     OW28546   3.061   2.365   6.435 -0.2866  0.1323 -1.0736
 5638SOL    HW128547   3.076   2.275   6.463 -0.3808 -0.0591 -1.6383
 5638SOL    HW228548   3.022   2.350   6.349  0.3097 -0.1687 -1.2913
 5639SOL     OW28549   4.515   1.694   9.021 -0.6647  0.0682  0.1087
 5639SOL    HW128550   4.520   1.739   9.105  3.0968 -0.4288  0.1844
 5639SOL    HW228551   4.520   1.604   9.055  0.1418  1.7758  4.5143
 5640SOL     OW28552   3.087   1.892  12.507 -0.9070 -0.1173  0.0842
 5640SOL    HW128553   3.139   1.940  12.572 -0.4281 -2.3905  1.3871
 5640SOL    HW228554   3.001   1.932  12.516 -0.2798  1.3202 -0.2442
 5641SOL     OW28555   1.025   1.212   7.303 -0.8030 -0.6464 -0.3881
 5641SOL    HW128556   0.985   1.140   7.255 -1.2958 -0.9852  0.5252
 5641SOL    HW228557   1.111   1.215   7.261 -0.8015 -1.5355 -0.4601
 5642SOL     OW28558   2.777   0.266   5.143 -0.2361  0.3348  0.1752
 5642SOL    HW128559   2.682   0.271   5.129 -0.0268 -0.1682 -1.4204
 5642SOL    HW228560   2.805   0.311   5.063 -3.5453 -0.1374 -1.2510
 5643SOL     OW28561   4.040   1.668   5.547  0.1852  0.2505  0.8055
 5643SOL    HW128562   4.043   1.763   5.555 -0.9418  0.1998  1.8448
 5643SOL    HW228563   4.041   1.657   5.452  0.1823 -0.0036  0.8330
 5644SOL     OW28564   0.896   0.082   8.216  0.8443  0.3837  0.1553
 5644SOL    HW128565   0.867   0.128   8.295  0.2619  0.7375 -0.2574
 5644SOL    HW228566   0.810   0.069   8.175  1.1969 -0.0581 -0.4372
 5645SOL     OW28567   3.365   1.946   2.528 -0.6325  0.6534 -0.0423
 5645SOL    HW128568   3.307   1.885   2.482 -1.2137 -1.5616  3.5528
 5645SOL    HW228569   3.436   1.961   2.466 -0.2033  3.8052  1.2229
 5646SOL     OW28570   2.655   3.633   3.323 -0.1157  0.5255 -0.5468
 5646SOL    HW128571   2.668   3.715   3.372  1.3760 -0.2244  0.2882
 5646SOL    HW228572   2.646   3.569   3.393  1.8655  0.1675 -0.6221
 5647SOL     OW28573   2.193   4.447   3.995  0.2921 -0.5408  0.4108
 5647SOL    HW128574   2.226   4.463   4.083 -1.4744 -0.6983  1.1109
 5647SOL    HW228575   2.268   4.457   3.937  0.2457  0.0431  0.4454
 5648SOL     OW28576   3.311   2.427   9.406  0.2841 -0.3976 -0.1733
 5648SOL    HW128577   3.218   2.406   9.400  0.2220  0.3051 -1.7101
 5648SOL    HW228578   3.301   2.512   9.364 -0.1507  0.6341  2.0617
 5649SOL     OW28579   1.981   1.137   3.441  0.0368  0.4254  0.3804
 5649SOL    HW128580   2.009   1.046   3.453  1.6804  0.5321 -2.6348
 5649SOL    HW228581   1.935   1.159   3.521 -0.2013 -1.4301  0.7558
 5650SOL     OW28582   4.167   2.159   4.319  0.9855 -0.4010  0.2248
 5650SOL    HW128583   4.206   2.130   4.237 -0.4410 -0.2742 -0.5003
 5650SOL    HW228584   4.122   2.240   4.296 -0.1286 -0.3983  2.3768
 5651SOL     OW28585   1.991   2.503   5.255 -0.3851  0.2239  0.2545
 5651SOL    HW128586   1.908   2.459   5.273 -0.1649 -0.4095 -0.2625
 5651SOL    HW228587   2.052   2.474   5.323  0.1917 -1.1720 -0.8427
 5652SOL     OW28588   2.910   3.181   7.799  0.1229  0.4425  0.2629
 5652SOL    HW128589   2.952   3.255   7.755  1.2341 -0.3297  0.0298
 5652SOL    HW228590   2.818   3.206   7.800 -0.0986 -0.3109 -1.0274
 5653SOL     OW28591   2.313   3.475   0.464 -0.8709  0.4852  0.3677
 5653SOL    HW128592   2.287   3.456   0.373 -0.5042  2.4124 -0.1297
 5653SOL    HW228593   2.403   3.502   0.447 -1.5619  0.9675 -2.4510
 5654SOL     OW28594   4.187   2.627   8.803 -0.6954  0.4646  0.1094
 5654SOL    HW128595   4.248   2.553   8.792 -0.5430  0.4998  0.6870
 5654SOL    HW228596   4.156   2.607   8.892 -0.3334 -0.1165  0.1075
 5655SOL     OW28597   1.299   2.583   6.589 -0.2030 -0.1335  0.0017
 5655SOL    HW128598   1.313   2.645   6.518 -1.8349 -2.2066 -2.1549
 5655SOL    HW228599   1.334   2.631   6.664  2.2402  0.0645 -1.2605
 5656SOL     OW28600   2.913   1.038   3.459  0.2547 -0.4383 -0.0206
 5656SOL    HW128601   2.863   1.011   3.381 -0.4573  0.6891  0.0360
 5656SOL    HW228602   2.929   1.131   3.440  0.6823 -0.1728  1.7106
 5657SOL     OW28603   0.426   3.284  11.745  0.0642 -0.3552 -0.0546
 5657SOL    HW128604   0.411   3.345  11.672  0.2006 -1.6567 -1.1625
 5657SOL    HW228605   0.350   3.298  11.802 -1.2255 -1.4742 -1.5148
 5658SOL     OW28606   2.879   2.050  10.351 -0.1764 -0.1978 -0.1143
 5658SOL    HW128607   2.881   2.036  10.256  2.6138  1.1604 -0.2746
 5658SOL    HW228608   2.911   1.968  10.388  0.9221  0.5138  0.5226
 5659SOL     OW28609   3.643   2.620   8.313 -0.2274  0.1063  0.4289
 5659SOL    HW128610   3.556   2.659   8.317 -0.3065 -0.0573  0.3092
 5659SOL    HW228611   3.631   2.537   8.268  0.3667 -0.1163  0.6748
 5660SOL     OW28612   3.308   3.270  12.609 -0.6431  0.5668  0.5241
 5660SOL    HW128613   3.286   3.307  12.524 -0.2621 -2.2733 -0.7957
 5660SOL    HW228614   3.349   3.345  12.652 -2.5750  1.9976 -0.1816
 5661SOL     OW28615   3.948   2.220   3.589  0.9168  0.1101 -1.1589
 5661SOL    HW128616   3.853   2.234   3.594  0.8738 -0.0960 -1.3953
 5661SOL    HW228617   3.955   2.149   3.525 -2.6471 -0.5674 -0.8442
 5662SOL     OW28618   3.942   1.694   5.257 -0.5346  0.5420  0.2011
 5662SOL    HW128619   3.860   1.660   5.222 -0.0184 -0.5903  0.1153
 5662SOL    HW228620   3.962   1.752   5.183 -0.1837 -0.3081 -0.3678
 5663SOL     OW28621   0.843   2.429   4.270  0.2482 -0.2700  0.2584
 5663SOL    HW128622   0.799   2.449   4.353 -0.8663  0.3580 -0.4735
 5663SOL    HW228623   0.885   2.512   4.246  1.1539 -0.8636 -0.1744
 5664SOL     OW28624   3.994   1.857   4.073  0.6325 -0.3700  0.0103
 5664SOL    HW128625   3.960   1.936   4.032 -0.9997 -0.4775  1.1680
 5664SOL    HW228626   3.921   1.796   4.081 -0.5455  1.0156 -0.3451
 5665SOL     OW28627   4.442   1.093  10.696  0.2294  0.0813  0.4883
 5665SOL    HW128628   4.443   1.004  10.661  0.7488 -0.7402  2.5464
 5665SOL    HW228629   4.350   1.089  10.722  0.3454  1.6405  1.1466
 5666SOL     OW28630   3.920   3.058   6.415  0.7839  0.0585 -0.2631
 5666SOL    HW128631   3.929   2.966   6.442  0.0800 -0.4493 -1.7929
 5666SOL    HW228632   3.983   3.091   6.480 -1.2329  0.9901  1.2222
 5667SOL     OW28633   1.461   1.069  15.989  0.2178 -0.4584 -0.2541
 5667SOL    HW128634   1.386   1.095  16.042 -1.0643  0.1951 -2.4188
 5667SOL    HW228635   1.454   0.977  15.965 -0.5386 -0.2914 -0.6588
 5668SOL     OW28636   3.563   2.635   1.609  0.4354  0.1218  0.2631
 5668SOL    HW128637   3.594   2.650   1.520  2.0978  0.3649  0.8768
 5668SOL    HW228638   3.615   2.701   1.655  0.7661  1.7145 -2.4177
 5669SOL     OW28639   0.285   1.945   0.980 -0.2502  0.0488 -0.0777
 5669SOL    HW128640   0.204   1.921   0.936  0.5270 -0.9349 -0.9624
 5669SOL    HW228641   0.304   2.028   0.937 -1.6460  0.5666  0.3124
 5670SOL     OW28642   2.285   4.023   7.079  0.2051 -0.4549  0.5382
 5670SOL    HW128643   2.268   4.004   7.171  4.1294 -0.3398  1.2852
 5670SOL    HW228644   2.376   4.054   7.083  0.1824 -0.3597  0.3037
 5671SOL     OW28645   4.126   1.338  17.692  0.0161 -0.3394  0.2916
 5671SOL    HW128646   4.114   1.431  17.672 -0.4947 -0.7768 -1.3849
 5671SOL    HW228647   4.111   1.294  17.609 -2.2743 -2.5549  1.8916
 5672SOL     OW28648   0.485   3.594   9.891 -0.0136 -0.6877 -0.5576
 5672SOL    HW128649   0.394   3.608   9.865 -0.8005 -0.2483  2.4466
 5672SOL    HW228650   0.471   3.614   9.983  0.7507 -1.3616 -0.2889
 5673SOL     OW28651   3.673   3.794   4.063  0.1621 -0.1355  0.4963
 5673SOL    HW128652   3.751   3.842   4.037 -0.1162 -0.0954 -0.2612
 5673SOL    HW228653   3.693   3.774   4.155  1.9240  0.8352  0.3257
 5674SOL     OW28654   2.169   3.047  12.204 -0.8133  0.0822 -0.1059
 5674SOL    HW128655   2.254   3.023  12.241 -2.5761 -0.9789  3.2512
 5674SOL    HW228656   2.183   3.079  12.115  0.0342  0.4291  0.1501
 5675SOL     OW28657   3.253   2.068   7.231  0.2616 -0.3978 -0.3676
 5675SOL    HW128658   3.343   2.040   7.246  1.1800  3.5381  1.3945
 5675SOL    HW228659   3.259   2.161   7.214  2.0410 -0.5124 -0.3194
 5676SOL     OW28660   3.224   2.009   9.601 -0.2909 -0.2383 -0.4878
 5676SOL    HW128661   3.180   2.035   9.520  0.2070  3.7158  0.4784
 5676SOL    HW228662   3.294   2.075   9.600  1.0709 -1.6693  1.4447
 5677SOL     OW28663   4.623   2.375   5.705  0.0673  0.4785 -0.2719
 5677SOL    HW128664   4.664   2.432   5.641  0.8587  0.4457  0.2063
 5677SOL    HW228665   4.566   2.323   5.648  0.5884 -0.3516 -0.0425
 5678SOL     OW28666   0.616   0.565   9.341  0.1050 -0.4245 -0.1660
 5678SOL    HW128667   0.657   0.543   9.258  1.0959 -0.4086  0.3152
 5678SOL    HW228668   0.610   0.660   9.340 -2.0956 -0.5677 -0.4119
 5679SOL     OW28669   4.673   2.302   9.322  0.1123 -0.2701  0.5729
 5679SOL    HW128670   0.030   2.312   9.323  0.1201 -0.3718  0.8485
 5679SOL    HW228671   4.658   2.382   9.371 -3.5655 -2.3835  2.8805
 5680SOL     OW28672   0.154   3.413   0.057  0.8725 -0.1519  0.2746
 5680SOL    HW128673   0.166   3.394   0.150 -0.5052 -0.5101  0.3855
 5680SOL    HW228674   0.237   3.453   0.032  1.9417 -2.1312  0.6880
 5681SOL     OW28675   0.947   1.695   5.774  0.4709  0.0742  0.2457
 5681SOL    HW128676   0.940   1.618   5.830 -0.8585  1.0723  1.4743
 5681SOL    HW228677   0.893   1.678   5.697  0.6009 -0.5842  0.3031
 5682SOL     OW28678   3.024   1.382   2.193 -0.0974  0.0114  0.0792
 5682SOL    HW128679   3.015   1.460   2.138 -1.7576 -1.4288 -1.6992
 5682SOL    HW228680   3.112   1.365   2.157 -0.3334  0.1312 -0.5549
 5683SOL     OW28681   4.190   0.980   2.270 -0.1194  0.8463 -0.1595
 5683SOL    HW128682   4.193   1.051   2.334 -2.3555 -0.4569  1.4028
 5683SOL    HW228683   4.198   1.037   2.193 -0.8182  0.5994 -0.4118
 5684SOL     OW28684   1.231   0.249   3.738 -0.3479 -0.4508  0.0083
 5684SOL    HW128685   1.197   0.280   3.823  1.3298  1.3600  0.0325
 5684SOL    HW228686   1.298   0.189   3.772 -0.5587 -0.8736 -0.3270
 5685SOL     OW28687   2.647   0.938  16.668  0.4284 -0.5074  0.1357
 5685SOL    HW128688   2.579   0.992  16.710  1.4941  2.5570 -2.1028
 5685SOL    HW228689   2.590   0.875  16.624 -1.4678  1.3888 -0.1218
 5686SOL     OW28690   2.260   1.646   1.603 -0.4484  0.4186 -0.2294
 5686SOL    HW128691   2.250   1.715   1.668  1.6709  3.2025 -2.8539
 5686SOL    HW228692   2.306   1.583   1.659 -0.1289  0.4641 -0.4348
 5687SOL     OW28693   4.532   4.359  14.075 -0.1952 -0.2525  0.0877
 5687SOL    HW128694   4.585   4.435  14.050  0.0574 -0.6536 -0.5688
 5687SOL    HW228695   4.488   4.392  14.154 -0.3719 -0.5723  0.1221
 5688SOL     OW28696   3.401   0.994   4.551 -0.2414 -0.5165  0.1300
 5688SOL    HW128697   3.373   0.924   4.610 -2.0210 -0.4841 -0.6851
 5688SOL    HW228698   3.481   1.023   4.595 -0.5562 -0.2631  0.5342
 5689SOL     OW28699   1.305   1.789  11.531  0.0494 -0.1135 -0.5558
 5689SOL    HW128700   1.368   1.726  11.565 -0.6015 -1.5283 -1.9041
 5689SOL    HW228701   1.226   1.759  11.576 -0.4739 -2.6152 -3.1185
 5690SOL     OW28702   1.055   3.072   8.984  0.3126 -0.2222  0.1122
 5690SOL    HW128703   1.108   3.098   8.908 -0.0627  1.6961  0.4840
 5690SOL    HW228704   1.125   3.064   9.048  1.0698  0.0080 -0.6867
 5691SOL     OW28705   1.308   4.181  15.200  0.3531 -0.5082  0.0043
 5691SOL    HW128706   1.335   4.099  15.243  0.3367 -0.6173 -0.1935
 5691SOL    HW228707   1.214   4.165  15.192  0.5600 -1.5130 -0.4627
 5692SOL     OW28708   3.033   2.900  16.132  0.0826 -0.3309  0.2679
 5692SOL    HW128709   2.993   2.816  16.155 -3.4971  0.9684 -1.2131
 5692SOL    HW228710   3.095   2.863  16.069 -0.6053 -2.1917  0.6840
 5693SOL     OW28711   2.349   3.046   5.593 -0.4096 -0.2762 -0.4421
 5693SOL    HW128712   2.367   3.013   5.506 -0.3415  1.0763 -0.9508
 5693SOL    HW228713   2.266   3.093   5.582 -1.1209 -1.4271  0.0290
 5694SOL     OW28714   4.504   2.247  13.855 -0.0134 -1.0539  0.1814
 5694SOL    HW128715   4.490   2.330  13.901 -0.0456 -0.4569 -0.9114
 5694SOL    HW228716   4.411   2.241  13.833  0.1180  0.4276 -0.7389
 5695SOL     OW28717   3.495   0.513  15.161 -0.1585  0.2252  0.2049
 5695SOL    HW128718   3.461   0.593  15.121 -1.8241 -0.9294 -0.6842
 5695SOL    HW228719   3.547   0.554  15.230 -0.4017 -0.4968  0.8145
 5696SOL     OW28720   2.701   3.402   5.879  0.1020 -0.1227 -0.2637
 5696SOL    HW128721   2.744   3.387   5.794 -1.7133 -2.3653 -0.7796
 5696SOL    HW228722   2.641   3.330   5.861  1.6404 -1.4701 -0.0851
 5697SOL     OW28723   3.805   2.911  16.971 -0.0118 -0.2283  0.2416
 5697SOL    HW128724   3.844   2.894  16.885  0.8408  0.4429  0.4969
 5697SOL    HW228725   3.797   3.006  16.956 -0.9553 -0.6080 -1.7762
 5698SOL     OW28726   2.307   1.259   7.344 -0.3073  0.2216  0.0061
 5698SOL    HW128727   2.325   1.261   7.438  0.1234 -0.9791 -0.0446
 5698SOL    HW228728   2.399   1.260   7.317 -0.0449 -1.1606  0.8852
 5699SOL     OW28729   2.771   1.264  12.829 -0.2844  0.1530  0.3005
 5699SOL    HW128730   2.826   1.192  12.860  1.5314  1.0750 -0.7531
 5699SOL    HW228731   2.788   1.255  12.735 -3.4129  0.1108 -0.2620
 5700SOL     OW28732   1.173   2.170  13.192 -0.2281  0.7487 -0.1911
 5700SOL    HW128733   1.197   2.156  13.284 -1.2940  1.0947  0.1433
 5700SOL    HW228734   1.163   2.265  13.189  1.7918  0.9440 -1.2349
 5701SOL     OW28735   3.177   2.594  15.404 -0.1370  0.7107 -0.0393
 5701SOL    HW128736   3.209   2.586  15.314 -0.1013  3.7777 -0.3030
 5701SOL    HW228737   3.253   2.589  15.462  1.1574 -0.4888 -1.8340
 5702SOL     OW28738   3.327   2.066   2.754 -0.0027  0.2175  0.1316
 5702SOL    HW128739   3.343   2.032   2.666  0.3062  1.5099 -0.3209
 5702SOL    HW228740   3.415   2.063   2.793  0.8325 -1.4535 -1.8699
 5703SOL     OW28741   4.195   3.949   9.686 -0.5466  0.1070  0.2319
 5703SOL    HW128742   4.140   3.906   9.751 -0.6634  0.2629  0.2359
 5703SOL    HW228743   4.282   3.909   9.694 -1.0760 -0.8894  1.0015
 5704SOL     OW28744   0.019   2.333  15.581  0.5491 -0.1508  0.3158
 5704SOL    HW128745   0.001   2.240  15.572 -2.2133  0.2983  1.2631
 5704SOL    HW228746   4.726   2.340  15.672  0.1841 -1.4167  0.2880
 5705SOL     OW28747   2.885   1.445   6.997  0.0738 -0.0152  0.0414
 5705SOL    HW128748   2.952   1.385   7.028 -0.4660  0.6410  2.4524
 5705SOL    HW228749   2.807   1.390   7.005 -0.7012  1.0741 -0.0290
 5706SOL     OW28750   3.443   4.204   5.087 -0.3355  0.0239  0.7012
 5706SOL    HW128751   3.513   4.229   5.027 -1.6361 -1.2630 -1.3700
 5706SOL    HW228752   3.504   4.175   5.155 -0.1170 -0.0968  0.4524
 5707SOL     OW28753   2.155   0.331   7.355 -0.2785 -0.4897 -0.1070
 5707SOL    HW128754   2.237   0.361   7.317 -1.1207  1.0058 -0.7446
 5707SOL    HW228755   2.093   0.360   7.288  1.2246  3.4244  0.1886
 5708SOL     OW28756   2.482   3.258   2.651  0.2750  0.4240  0.6610
 5708SOL    HW128757   2.428   3.261   2.731  0.3314  1.6398  0.6668
 5708SOL    HW228758   2.439   3.330   2.604 -0.1802 -0.1413  0.2211
 5709SOL     OW28759   1.244   4.303   4.763  0.4938 -0.0619 -0.4794
 5709SOL    HW128760   1.264   4.395   4.778  0.3153  0.2612 -2.2609
 5709SOL    HW228761   1.305   4.260   4.823 -1.3864  0.2689  1.7143
 5710SOL     OW28762   3.864   0.820   4.467 -0.2277 -0.2405 -0.0038
 5710SOL    HW128763   3.822   0.876   4.402 -0.9688 -1.3584 -0.4887
 5710SOL    HW228764   3.880   0.738   4.420 -2.6239 -0.8844  0.3304
 5711SOL     OW28765   3.175   0.240   9.911  0.0618 -0.7494 -0.7318
 5711SOL    HW128766   3.207   0.150   9.920  1.8928  0.1224  1.5085
 5711SOL    HW228767   3.231   0.279   9.843 -0.4058  0.3844 -0.4622
 5712SOL     OW28768   0.603   4.563   7.626  0.7386  0.0606 -0.2274
 5712SOL    HW128769   0.574   4.487   7.575  2.7036 -1.2408  0.6018
 5712SOL    HW228770   0.635   4.504   7.695 -1.6432 -0.7127  0.2097
 5713SOL     OW28771   1.228   0.291   8.061 -0.1723  0.0097 -0.0647
 5713SOL    HW128772   1.190   0.203   8.062  0.9060 -0.4257  2.2752
 5713SOL    HW228773   1.157   0.352   8.079  1.4707  1.5121  1.3040
 5714SOL     OW28774   2.669   4.547  12.320  0.3870  0.6691 -0.0140
 5714SOL    HW128775   2.617   4.607  12.267 -0.2666 -1.7807 -2.1422
 5714SOL    HW228776   2.673   4.604  12.397  0.9667  4.4456 -2.8951
 5715SOL     OW28777   1.409   1.822   6.722  0.2961 -0.1545  0.0390
 5715SOL    HW128778   1.473   1.893   6.713  1.2569 -1.0939 -0.5303
 5715SOL    HW228779   1.381   1.826   6.813  0.9526  1.3922  0.1747
 5716SOL     OW28780   0.102   4.500  13.567 -0.6283 -0.3710  0.3604
 5716SOL    HW128781   0.136   4.443  13.499 -0.5604  1.3118 -1.0272
 5716SOL    HW228782   0.046   4.444  13.620  1.7267  0.1190  3.3958
 5717SOL     OW28783   1.977   1.556   6.917  0.0404 -0.4317  0.6354
 5717SOL    HW128784   2.036   1.616   6.963  0.0600  0.2566 -0.2912
 5717SOL    HW228785   2.028   1.476   6.924 -0.1243 -0.3909  2.3848
 5718SOL     OW28786   2.644   4.567   2.667  0.1697 -0.1675 -0.0287
 5718SOL    HW128787   2.586   4.575   2.742  0.0225 -0.3899 -0.1188
 5718SOL    HW228788   2.580   4.518   2.615  0.0546  0.2406 -0.2718
 5719SOL     OW28789   3.035   2.442   8.944 -0.2795  0.7546  0.4441
 5719SOL    HW128790   2.952   2.428   8.899  0.2699  1.1903 -0.6983
 5719SOL    HW228791   3.094   2.488   8.884  0.1780  2.4504  2.1821
 5720SOL     OW28792   3.416   2.664   8.021  0.6474 -0.1723  0.2165
 5720SOL    HW128793   3.372   2.658   7.936  1.1937 -0.0107 -0.0749
 5720SOL    HW228794   3.352   2.636   8.087 -1.7843  0.4243 -1.8466
 5721SOL     OW28795   3.250   3.161   4.010 -0.2618  0.8524 -0.1647
 5721SOL    HW128796   3.219   3.095   4.073  2.2337  1.5331  1.8087
 5721SOL    HW228797   3.176   3.221   4.019  0.2085  1.3000  0.7011
 5722SOL     OW28798   0.688   2.712   6.923  0.3339  0.5345 -0.0401
 5722SOL    HW128799   0.692   2.788   6.865  1.7726  0.9571  0.5967
 5722SOL    HW228800   0.714   2.644   6.861  0.3021  0.5781 -0.1010
 5723SOL     OW28801   3.233   4.128   0.040  0.0138  0.4552  0.3674
 5723SOL    HW128802   3.281   4.207   0.064  0.4749  0.4367 -0.5224
 5723SOL    HW228803   3.297   4.060   0.018 -0.0345  0.6613 -0.3966
 5724SOL     OW28804   3.873   2.846  12.409 -0.0895 -0.0610  0.0752
 5724SOL    HW128805   3.934   2.843  12.482 -0.2106  0.8915  0.2129
 5724SOL    HW228806   3.882   2.762  12.364 -2.6879  0.9725 -2.4240
 5725SOL     OW28807   4.462   0.555  12.519  0.4098 -0.0594 -0.4815
 5725SOL    HW128808   4.382   0.539  12.569  0.4070  0.0966 -0.4383
 5725SOL    HW228809   4.515   0.598  12.586  0.3573  1.8476 -1.6790
 5726SOL     OW28810   2.082   1.400   8.360  0.3688  0.5266  0.1139
 5726SOL    HW128811   2.096   1.308   8.383  0.4652  0.8552  1.4057
 5726SOL    HW228812   2.173   1.430   8.356  0.2980  0.9769  1.8451
 5727SOL     OW28813   2.596   4.471   8.400 -0.2160  0.4434 -0.3843
 5727SOL    HW128814   2.639   4.389   8.374  2.7989  1.7747  0.4909
 5727SOL    HW228815   2.640   4.493   8.482 -0.4315 -3.3070  0.7632
 5728SOL     OW28816   0.735   1.849   4.626  0.5081  0.5360 -0.1315
 5728SOL    HW128817   0.724   1.831   4.719 -0.7532  1.9332 -0.0159
 5728SOL    HW228818   0.642   1.843   4.602 -0.1722 -0.0558  2.6902
 5729SOL     OW28819   3.357   1.547   6.704 -0.1883 -0.2174 -0.3936
 5729SOL    HW128820   3.445   1.532   6.668  0.2394 -1.0400  1.0030
 5729SOL    HW228821   3.350   1.642   6.714 -0.3469  0.0506 -3.0185
 5730SOL     OW28822   2.138   3.883   7.826 -0.2462  0.6552 -0.3946
 5730SOL    HW128823   2.052   3.919   7.805 -0.0773  0.4949 -1.3612
 5730SOL    HW228824   2.173   3.958   7.875 -0.0391  0.1783  0.1786
 5731SOL     OW28825   0.199   4.523   5.490 -0.2254 -0.0093 -0.2429
 5731SOL    HW128826   0.216   4.589   5.422  0.4075  2.1846  2.0318
 5731SOL    HW228827   0.269   4.526   5.554  0.9122 -0.5023 -1.4533
 5732SOL     OW28828   1.380   3.210   7.037 -0.2609 -0.0919 -0.1739
 5732SOL    HW128829   1.460   3.167   7.006  0.7728  1.8917 -0.2898
 5732SOL    HW228830   1.420   3.258   7.110  1.6893 -1.0134 -0.6336
 5733SOL     OW28831   1.473   3.506  12.308 -0.1693 -0.3268  0.5743
 5733SOL    HW128832   1.485   3.438  12.374  2.1145  0.6161  1.1408
 5733SOL    HW228833   1.562   3.536  12.289  0.0537 -2.8814 -2.4329
 5734SOL     OW28834   1.140   1.713  12.952 -0.4643 -0.5870  0.2861
 5734SOL    HW128835   1.113   1.795  12.993  1.8252 -0.0162  0.6645
 5734SOL    HW228836   1.081   1.651  12.994 -0.8787 -1.5605 -1.7551
 5735SOL     OW28837   3.948   3.831   2.770 -0.3921  0.4712 -0.0536
 5735SOL    HW128838   4.005   3.899   2.805  2.1021 -0.9821 -1.2777
 5735SOL    HW228839   3.890   3.808   2.843 -1.0489 -1.7829 -1.2622
 5736SOL     OW28840   1.348   2.353  14.055  0.2275 -0.1216  0.2794
 5736SOL    HW128841   1.356   2.355  13.959 -1.7596  1.7959  0.1681
 5736SOL    HW228842   1.404   2.425  14.084  2.1192 -0.5657 -2.2679
 5737SOL     OW28843   1.478   0.237  15.385  0.5030 -0.4690 -0.5065
 5737SOL    HW128844   1.433   0.169  15.435 -0.2761  0.1180 -0.4163
 5737SOL    HW228845   1.446   0.319  15.422 -1.1681 -1.0813 -0.6157
 5738SOL     OW28846   3.699   0.314   3.550  0.3167  0.7400 -0.3632
 5738SOL    HW128847   3.717   0.397   3.505 -1.8698  1.2508 -0.2806
 5738SOL    HW228848   3.609   0.293   3.526  1.4093 -2.6362 -1.5546
 5739SOL     OW28849   0.812   4.358  12.550  0.5231 -0.3758 -0.0926
 5739SOL    HW128850   0.889   4.408  12.579 -0.4941 -0.0898  2.1335
 5739SOL    HW228851   0.756   4.430  12.523  0.0108 -0.3607  1.0214
 5740SOL     OW28852   3.305   2.384   8.444 -0.3113  0.4385  0.2678
 5740SOL    HW128853   3.367   2.418   8.508  1.9398 -1.6442 -0.8290
 5740SOL    HW228854   3.293   2.296   8.478  3.0210  0.0113  0.3048
 5741SOL     OW28855   4.297   1.994   1.482  0.4752  0.1176  0.0918
 5741SOL    HW128856   4.204   2.011   1.502  0.1960 -0.5930 -0.6018
 5741SOL    HW228857   4.319   2.034   1.398 -1.2290  0.5088 -0.1742
 5742SOL     OW28858   4.071   3.833   6.378 -0.2871 -0.1438  0.0163
 5742SOL    HW128859   4.129   3.893   6.425  1.0558 -0.6044 -1.0508
 5742SOL    HW228860   4.035   3.883   6.305  0.5497  1.9848  1.0575
 5743SOL     OW28861   1.677   2.319   3.499  0.1002 -0.1569  0.1511
 5743SOL    HW128862   1.728   2.309   3.579  0.4080 -1.4749 -0.2168
 5743SOL    HW228863   1.597   2.344   3.545  0.4128  0.2345  0.4813
 5744SOL     OW28864   1.436   0.054   6.667  0.0384 -0.5053 -0.7959
 5744SOL    HW128865   1.501   0.039   6.598  0.2469  0.1016 -0.7279
 5744SOL    HW228866   1.492   0.052   6.745 -1.3761  1.2924  0.2651
 5745SOL     OW28867   3.327   2.844   2.665  0.0087  0.2442 -0.0185
 5745SOL    HW128868   3.261   2.854   2.596  0.2000  1.6275  0.0039
 5745SOL    HW228869   3.280   2.869   2.744  0.7220 -0.5274  0.6547
 5746SOL     OW28870   2.374   2.610  10.054 -0.9065 -0.2662 -0.3150
 5746SOL    HW128871   2.400   2.652   9.972 -0.8724 -1.0485 -0.7018
 5746SOL    HW228872   2.414   2.660  10.126  0.0592  1.1691 -1.8331
 5747SOL     OW28873   1.058   0.733   4.766  0.3632 -0.0246 -0.3510
 5747SOL    HW128874   1.036   0.662   4.826  1.4079 -1.2350 -1.3915
 5747SOL    HW228875   1.007   0.698   4.693  0.8340 -1.4961  0.0359
 5748SOL     OW28876   0.627   3.807  17.323  0.5947  0.0270  0.4417
 5748SOL    HW128877   0.676   3.888  17.309 -0.1689  0.5587  0.8850
 5748SOL    HW228878   0.687   3.763  17.385 -2.3244 -0.1360  3.1696
 5749SOL     OW28879   1.123   3.815   2.492 -0.2117 -0.5298  0.0540
 5749SOL    HW128880   1.091   3.871   2.563  0.0870 -1.0279  0.5813
 5749SOL    HW228881   1.213   3.839   2.471 -0.3372 -0.0282  0.0900
 5750SOL     OW28882   4.129   0.227   9.984  0.3260  0.6445  0.2169
 5750SOL    HW128883   4.146   0.140   9.948  1.7364  1.1454 -0.3256
 5750SOL    HW228884   4.172   0.284   9.920  2.4352  0.3830  1.4173
 5751SOL     OW28885   3.561   4.670   8.535 -0.5384  0.3396  0.0510
 5751SOL    HW128886   3.499   4.732   8.573  0.6418  1.3923  0.2617
 5751SOL    HW228887   3.608   4.722   8.470  0.0656  0.0462  0.2586
 5752SOL     OW28888   4.257   3.904  12.430 -0.0844  0.0965 -0.1325
 5752SOL    HW128889   4.348   3.886  12.456  0.3703  2.3824 -0.1443
 5752SOL    HW228890   4.211   3.840  12.485  0.8170  0.6642  1.2834
 5753SOL     OW28891   4.585   1.030   5.541  0.1140 -0.6692 -0.1832
 5753SOL    HW128892   4.544   1.108   5.503  0.5103  0.0466  0.8486
 5753SOL    HW228893   4.539   1.013   5.624  2.4318  0.9035  1.4103
 5754SOL     OW28894   2.637   2.202   6.003 -0.0941  0.1623  0.1095
 5754SOL    HW128895   2.635   2.124   6.058 -1.6737 -1.5922 -2.4367
 5754SOL    HW228896   2.704   2.173   5.942 -0.6116  0.6072 -0.6676
 5755SOL     OW28897   1.869   4.343   5.248  0.4623 -0.2190  0.7068
 5755SOL    HW128898   1.847   4.425   5.294 -1.1499 -0.5705  0.5429
 5755SOL    HW228899   1.963   4.346   5.267  1.1214  1.4214 -2.8037
 5756SOL     OW28900   3.870   3.016   2.389 -0.6145 -0.6551  0.0458
 5756SOL    HW128901   3.805   3.009   2.458 -0.2258  0.2351  0.5041
 5756SOL    HW228902   3.950   3.022   2.442 -2.3587  2.4604  2.3396
 5757SOL     OW28903   1.662   1.619   4.451 -0.7472  0.1833  0.1583
 5757SOL    HW128904   1.736   1.681   4.446 -0.6525  0.1745  1.4615
 5757SOL    HW228905   1.697   1.559   4.517  2.4120  2.1939  0.3383
 5758SOL     OW28906   3.363   4.097  13.023 -0.1551 -0.4835 -0.5950
 5758SOL    HW128907   3.290   4.075  12.965  1.1478  1.0536 -2.8219
 5758SOL    HW228908   3.427   4.124  12.956 -1.0228  2.4262 -0.2475
 5759SOL     OW28909   3.672   2.691   7.844 -0.1134 -0.2813 -0.4019
 5759SOL    HW128910   3.616   2.727   7.913  0.2095 -2.3073  0.9023
 5759SOL    HW228911   3.670   2.597   7.859  1.7522 -0.1850  0.3587
 5760SOL     OW28912   2.908   0.338  10.230 -0.0623  0.0325 -0.1103
 5760SOL    HW128913   2.951   0.419  10.201 -1.5828  0.7397 -0.4139
 5760SOL    HW228914   2.977   0.318  10.294  0.8737  0.6488 -0.9245
 5761SOL     OW28915   1.533   3.160   8.367  0.3307  0.1432  0.3661
 5761SOL    HW128916   1.512   3.069   8.345  1.2462 -0.6127  2.6070
 5761SOL    HW228917   1.456   3.192   8.413  0.4320 -0.3352  0.8576
 5762SOL     OW28918   2.733   4.296   5.015  0.2743 -0.1464  0.2603
 5762SOL    HW128919   2.800   4.345   5.064  1.5144 -0.3917 -1.1976
 5762SOL    HW228920   2.754   4.209   5.049 -1.4032  0.4455  2.8162
 5763SOL     OW28921   0.237   1.890  13.238 -0.6327  0.5906  0.4432
 5763SOL    HW128922   0.243   1.795  13.228  2.1822  0.5746  2.2120
 5763SOL    HW228923   0.227   1.898  13.333 -0.6321  2.9748  0.2350
 5764SOL     OW28924   0.808   1.519  15.045 -0.2121  0.2641  0.3005
 5764SOL    HW128925   0.809   1.491  15.137  0.9598  2.0799  0.8442
 5764SOL    HW228926   0.897   1.553  15.039 -0.0439  0.0790  1.6038
 5765SOL     OW28927   1.181   3.306   7.860 -0.1289 -0.5313  0.5753
 5765SOL    HW128928   1.119   3.241   7.893 -2.2690  0.5159 -1.4578
 5765SOL    HW228929   1.248   3.299   7.928 -0.4869  3.0331  1.2732
 5766SOL     OW28930   0.166   1.840   1.262  0.0760  0.8264 -0.3829
 5766SOL    HW128931   0.208   1.858   1.177  2.9227 -2.6657  0.3260
 5766SOL    HW228932   0.119   1.923   1.272 -1.8533 -0.1687 -1.0278
 5767SOL     OW28933   3.913   1.309   6.222 -0.2543  0.2784 -0.5648
 5767SOL    HW128934   3.887   1.228   6.265  0.9367 -1.0617 -2.3627
 5767SOL    HW228935   4.007   1.295   6.226 -0.6424 -1.8480  1.4126
 5768SOL     OW28936   2.544   0.508   9.031 -0.7987 -0.1857  0.2811
 5768SOL    HW128937   2.503   0.545   8.952  1.9496  1.3892 -0.3974
 5768SOL    HW228938   2.560   0.592   9.073 -3.3521  0.6603 -0.4172
 5769SOL     OW28939   0.861   0.283  13.227  0.3668  0.0587 -0.2628
 5769SOL    HW128940   0.776   0.319  13.200  0.0836  0.6198  1.4040
 5769SOL    HW228941   0.906   0.365  13.245  1.9131 -1.1997  1.5383
 5770SOL     OW28942   2.311   3.536  13.250 -0.2012 -0.4612  0.2327
 5770SOL    HW128943   2.379   3.576  13.197 -0.5582 -1.0775 -0.6947
 5770SOL    HW228944   2.314   3.589  13.329 -1.2184  1.2173 -0.8492
 5771SOL     OW28945   3.627   3.585   3.745 -0.1026 -0.1950 -0.6902
 5771SOL    HW128946   3.672   3.548   3.669 -0.3996 -3.5357  0.7759
 5771SOL    HW228947   3.618   3.512   3.805 -1.7849  1.2234  0.7862
 5772SOL     OW28948   3.406   2.931   7.699  0.1399 -0.1725  0.1672
 5772SOL    HW128949   3.355   3.011   7.689  1.4698  0.6602  0.0992
 5772SOL    HW228950   3.494   2.963   7.721 -0.0092 -0.0526  0.5942
 5773SOL     OW28951   3.548   2.518   9.018 -0.6235 -0.2696  0.0559
 5773SOL    HW128952   3.492   2.565   8.956  0.6566  0.3691 -0.6177
 5773SOL    HW228953   3.607   2.475   8.956 -0.5348 -0.3916  0.2263
 5774SOL     OW28954   0.124   1.895  12.964  0.2062 -0.2004 -0.2586
 5774SOL    HW128955   0.196   1.884  13.026  0.9619  2.2628 -0.7100
 5774SOL    HW228956   0.141   1.981  12.926  1.1704 -0.0190  0.5895
 5775SOL     OW28957   1.922   4.661   7.003 -0.6717  0.3804  0.7971
 5775SOL    HW128958   2.008   4.620   7.014  0.5509  2.5474 -0.5176
 5775SOL    HW228959   1.925   4.727   6.934 -0.5883 -0.3733  0.0850
 5776SOL     OW28960   0.874   0.497   4.789 -0.4325  0.0804 -0.4155
 5776SOL    HW128961   0.864   0.487   4.695 -0.0826  3.7398 -0.8549
 5776SOL    HW228962   0.930   0.423   4.811  1.2141  1.2383 -0.6678
 5777SOL     OW28963   0.861   0.700   0.438 -0.6777 -0.0037  0.0337
 5777SOL    HW128964   0.931   0.707   0.374  1.1353 -1.8373  1.8329
 5777SOL    HW228965   0.788   0.721   0.379  1.1451 -0.3535 -2.3417
 5778SOL     OW28966   0.363   2.772   3.871  0.1634  0.1512 -0.4666
 5778SOL    HW128967   0.439   2.787   3.815 -0.7699 -2.1776 -2.3478
 5778SOL    HW228968   0.367   2.676   3.877 -0.8624  0.0849 -0.9969
 5779SOL     OW28969   1.422   4.561   3.806 -0.6041  0.0995 -0.5813
 5779SOL    HW128970   1.328   4.579   3.808 -0.7629 -0.7941 -0.4077
 5779SOL    HW228971   1.461   4.644   3.835  1.1290 -1.2968  1.0599
 5780SOL     OW28972   2.031   1.003  16.758 -0.1606 -0.0408  0.2548
 5780SOL    HW128973   1.978   1.029  16.683 -1.0611  1.3708  1.4023
 5780SOL    HW228974   1.981   0.943  16.813  1.1203 -0.2593  1.1969
 5781SOL     OW28975   0.176   1.608   5.178  0.1214 -0.4218 -0.5949
 5781SOL    HW128976   0.262   1.629   5.143  0.2033 -0.6057 -0.5034
 5781SOL    HW228977   0.114   1.661   5.127 -0.0914 -0.8309 -0.7581
 5782SOL     OW28978   1.905   3.979   8.360  0.6668 -0.3165  0.4654
 5782SOL    HW128979   1.902   3.884   8.369 -1.0617 -0.4740 -1.6511
 5782SOL    HW228980   1.878   4.000   8.449 -0.5811  0.0193  0.0141
 5783SOL     OW28981   2.698   1.081   2.262  0.1108 -0.6741 -0.0903
 5783SOL    HW128982   2.724   1.021   2.333 -0.3208  1.0923  1.5572
 5783SOL    HW228983   2.652   1.021   2.204 -0.6973 -0.9447  0.8303
 5784SOL     OW28984   3.455   0.335  12.501 -0.2636 -0.4265 -0.4124
 5784SOL    HW128985   3.525   0.274  12.525  1.0802  0.7091 -1.3929
 5784SOL    HW228986   3.502   0.414  12.525 -1.5730  0.5988 -1.2317
 5785SOL     OW28987   3.364   3.335   2.155  0.0507  0.7294  0.2512
 5785SOL    HW128988   3.423   3.410   2.156 -1.8463  2.2024  0.1917
 5785SOL    HW228989   3.424   3.261   2.148  0.6900  1.0652  2.2503
 5786SOL     OW28990   1.057   1.964  13.043 -0.3722 -0.4646  0.8301
 5786SOL    HW128991   1.050   2.014  12.962 -0.1514 -0.6052  0.7244
 5786SOL    HW228992   1.096   2.030  13.100 -1.8166  0.3592  0.8707
 5787SOL     OW28993   2.192   2.639   4.475 -0.0531  0.5344  0.5286
 5787SOL    HW128994   2.143   2.572   4.428  0.7686  0.3536 -0.0819
 5787SOL    HW228995   2.131   2.704   4.509 -0.7329  0.0294  0.2775
 5788SOL     OW28996   2.311   2.713   5.225 -0.4340  0.2762  0.1284
 5788SOL    HW128997   2.334   2.674   5.309 -0.9048  1.2471  0.7145
 5788SOL    HW228998   2.216   2.710   5.233 -0.2849 -0.1193  1.8053
 5789SOL     OW28999   1.949   0.322  10.615 -0.2265 -0.8315  0.3933
 5789SOL    HW129000   2.043   0.334  10.629 -0.4738  0.0401  1.2819
 5789SOL    HW229001   1.937   0.228  10.605 -1.1613 -0.6087 -0.5822
 5790SOL     OW29002   2.927   2.038   3.476  0.0240  0.5382 -0.2882
 5790SOL    HW129003   3.014   2.005   3.496 -0.3495  1.0216  2.1059
 5790SOL    HW229004   2.887   1.953   3.457 -0.4033 -0.1399  3.5481
 5791SOL     OW29005   2.451   3.908   2.400  0.6369  0.3160 -0.7198
 5791SOL    HW129006   2.386   3.838   2.395  1.6208 -0.9114  3.6489
 5791SOL    HW229007   2.507   3.874   2.469  0.6992 -0.0480 -0.9514
 5792SOL     OW29008   0.361   0.561  16.052  0.1956 -0.1362  0.2518
 5792SOL    HW129009   0.399   0.536  15.968 -1.2128 -1.6978  0.0979
 5792SOL    HW229010   0.318   0.646  16.037 -2.6050 -1.6079  0.1096
 5793SOL     OW29011   2.446   0.604   3.606  0.1569  0.2486 -0.7808
 5793SOL    HW129012   2.388   0.571   3.538 -0.7909 -2.5899  1.4254
 5793SOL    HW229013   2.425   0.695   3.587  0.9098  1.0806  2.3852
 5794SOL     OW29014   3.802   4.069   6.300  0.2242 -0.0738  0.1192
 5794SOL    HW129015   3.789   4.108   6.214 -1.6160 -0.6872  0.1129
 5794SOL    HW229016   3.861   4.132   6.341  0.4154 -0.1818  0.0104
 5795SOL     OW29017   4.267   0.459   0.872  0.5104  0.2840 -0.2736
 5795SOL    HW129018   4.268   0.434   0.780  0.3053  0.0997 -0.2252
 5795SOL    HW229019   4.353   0.489   0.900 -0.4252  4.5828 -1.9651
 5796SOL     OW29020   3.663   4.544   6.951  0.1368  0.1902  0.7537
 5796SOL    HW129021   3.607   4.525   6.876  0.8966  0.8138  0.0287
 5796SOL    HW229022   3.745   4.503   6.924 -0.7380 -2.7203  2.5227
 5797SOL     OW29023   2.024   0.345   1.994 -0.6591  0.3942 -0.0460
 5797SOL    HW129024   2.087   0.282   1.959 -2.2557 -0.9277 -0.5750
 5797SOL    HW229025   2.013   0.330   2.088  0.9969 -2.6490 -0.3372
 5798SOL     OW29026   0.415   0.670   0.310 -0.4357 -0.0035  0.8272
 5798SOL    HW129027   0.400   0.663   0.404 -0.8754 -0.8282  0.6966
 5798SOL    HW229028   0.504   0.704   0.299 -1.3616  1.3643 -2.4531
 5799SOL     OW29029   1.918   0.661   3.493 -0.0283 -0.0752 -0.6588
 5799SOL    HW129030   1.878   0.579   3.466  2.3929 -1.0795 -1.2302
 5799SOL    HW229031   1.849   0.679   3.557 -0.7029 -0.3739 -1.3062
 5800SOL     OW29032   2.227   2.642   5.679 -0.2579  0.1013 -0.0654
 5800SOL    HW129033   2.250   2.623   5.770  1.7822 -2.1023 -1.0395
 5800SOL    HW229034   2.168   2.718   5.684  1.3437  1.2539  1.6524
 5801SOL     OW29035   2.004   4.734   0.198  0.1348  0.5277  0.2904
 5801SOL    HW129036   1.955   0.049   0.261  1.3857  1.9015  0.1055
 5801SOL    HW229037   2.019   4.657   0.253  2.9103 -0.5469 -1.9729
 5802SOL     OW29038   1.094   3.109  16.729  0.1247 -0.5530  0.0103
 5802SOL    HW129039   1.137   3.033  16.767 -0.4803  0.2559  2.3125
 5802SOL    HW229040   1.021   3.066  16.683 -0.9614 -0.0176  1.2335
 5803SOL     OW29041   4.554   1.810   7.891 -0.1961  0.2655  0.1178
 5803SOL    HW129042   4.554   1.785   7.799 -0.5405  1.0246 -0.0902
 5803SOL    HW229043   4.598   1.737   7.936  3.0726  2.1224 -0.0716
 5804SOL     OW29044   3.866   3.467   8.864  0.4206 -0.5629 -0.2312
 5804SOL    HW129045   3.895   3.551   8.830  0.0693 -1.4645 -2.7076
 5804SOL    HW229046   3.948   3.441   8.907  0.1487  1.1187  1.3026
 5805SOL     OW29047   0.306   4.412   8.213  0.0402 -0.2551  0.5293
 5805SOL    HW129048   0.296   4.318   8.202 -1.4000  0.0407 -0.7253
 5805SOL    HW229049   0.231   4.451   8.168 -0.4846 -0.0786  1.5459
 5806SOL     OW29050   3.136   3.033   4.276 -0.1889  0.0670 -0.4295
 5806SOL    HW129051   3.193   2.978   4.330 -0.0536  2.4060  1.8063
 5806SOL    HW229052   3.183   3.117   4.276 -0.6417  0.3199 -1.6137
 5807SOL     OW29053   3.633   4.261   4.439  0.2870 -0.4839 -0.1797
 5807SOL    HW129054   3.638   4.172   4.473 -2.2024 -0.7480 -0.5093
 5807SOL    HW229055   3.601   4.243   4.351 -0.0646 -3.1382  0.5099
 5808SOL     OW29056   2.452   2.380   4.915  0.2859  0.2491  0.0424
 5808SOL    HW129057   2.435   2.351   5.005 -3.2169  0.4051 -0.5811
 5808SOL    HW229058   2.544   2.402   4.931  0.4464  0.7547 -1.5439
 5809SOL     OW29059   2.447   3.584   3.163 -0.1439 -0.4495  0.6753
 5809SOL    HW129060   2.517   3.588   3.228  1.3344 -1.9068 -0.8472
 5809SOL    HW229061   2.482   3.655   3.108 -1.0595 -1.2052 -0.8867
 5810SOL     OW29062   3.936   2.582  16.564 -0.0404 -0.1524  0.1001
 5810SOL    HW129063   3.878   2.656  16.551  0.5708 -0.0243 -1.8944
 5810SOL    HW229064   3.962   2.559  16.475 -1.1215 -1.4464  0.1323
 5811SOL     OW29065   3.688   3.108   5.974  0.4616 -0.3749  0.2066
 5811SOL    HW129066   3.726   3.149   6.052 -0.6927 -1.4913  1.3465
 5811SOL    HW229067   3.765   3.094   5.919  0.6294  0.2790  0.2696
 5812SOL     OW29068   2.049   2.071  13.622 -0.7337 -0.2261 -0.5355
 5812SOL    HW129069   2.013   2.139  13.565  0.9158  0.9279 -0.1744
 5812SOL    HW229070   2.128   2.038  13.579 -1.1412 -0.8733 -0.7896
 5813SOL     OW29071   0.239   1.187   2.134 -0.1939  0.2570 -0.7310
 5813SOL    HW129072   0.220   1.200   2.042 -3.0700 -0.2293 -0.2014
 5813SOL    HW229073   0.331   1.160   2.137  0.4626  2.6627  2.1056
 5814SOL     OW29074   3.613   4.548   3.344  0.0809 -0.5909  0.3296
 5814SOL    HW129075   3.610   4.566   3.249  2.3181  0.5400  0.4672
 5814SOL    HW229076   3.617   4.638   3.377  1.6189 -1.0776  1.4599
 5815SOL     OW29077   2.399   1.408  11.998  0.0469 -0.5465  0.0008
 5815SOL    HW129078   2.378   1.480  11.940  1.9249  0.2852  0.3462
 5815SOL    HW229079   2.362   1.335  11.948  0.2610 -0.5732 -0.1207
 5816SOL     OW29080   1.042   1.759   4.971 -0.0992 -0.3106  0.0497
 5816SOL    HW129081   1.103   1.792   4.905  0.6098 -1.6225  0.0461
 5816SOL    HW229082   1.034   1.831   5.034  0.8389  1.1779 -1.5097
 5817SOL     OW29083   0.812   4.413   7.096  0.1281 -0.1834 -0.3058
 5817SOL    HW129084   0.742   4.467   7.134 -0.3845 -1.9395  1.2673
 5817SOL    HW229085   0.778   4.404   7.007 -0.2347  2.3339 -0.4152
 5818SOL     OW29086   2.788   2.075   9.772 -0.3000 -0.3805  0.6026
 5818SOL    HW129087   2.816   2.162   9.800 -0.2866 -0.5891  1.2460
 5818SOL    HW229088   2.868   2.027   9.751  1.1236  1.3434  2.1017
 5819SOL     OW29089   1.556   3.044  16.409 -0.5648 -0.4349  0.2571
 5819SOL    HW129090   1.624   3.007  16.353 -0.2855 -1.7026  1.4449
 5819SOL    HW229091   1.477   3.035  16.355 -0.2737 -1.2300 -0.0310
 5820SOL     OW29092   1.953   1.302   6.157 -0.1516  0.3812  0.2501
 5820SOL    HW129093   1.921   1.231   6.213 -2.8741  0.8663 -0.6995
 5820SOL    HW229094   1.871   1.341   6.127 -0.2535 -1.0114 -1.2488
 5821SOL     OW29095   3.817   1.584   4.979 -0.4331 -0.6474 -0.0744
 5821SOL    HW129096   3.895   1.580   4.924  0.8005  0.4898  1.5965
 5821SOL    HW229097   3.771   1.660   4.944  0.8169  0.0053 -0.2895
 5822SOL     OW29098   2.661   3.851  13.374 -0.2538  0.3667 -0.0172
 5822SOL    HW129099   2.690   3.765  13.343 -0.2435 -0.1184  1.3494
 5822SOL    HW229100   2.663   3.845  13.469  1.5866  1.1257 -0.0161
 5823SOL     OW29101   1.552   0.993   2.099 -0.6737 -0.4151  0.1946
 5823SOL    HW129102   1.600   0.921   2.141  1.0786  0.7404  0.1312
 5823SOL    HW229103   1.468   1.006   2.145  0.6322 -0.9325  2.7302
 5824SOL     OW29104   1.206   1.058   2.625  0.4305  0.1035 -0.1834
 5824SOL    HW129105   1.233   1.015   2.706 -0.0083 -0.3269 -0.2661
 5824SOL    HW229106   1.287   1.063   2.574  1.1886 -0.3585  0.9944
 5825SOL     OW29107   3.345   2.508   3.354 -0.2790  0.2468  0.3437
 5825SOL    HW129108   3.380   2.419   3.357  3.4350  1.6742 -0.9588
 5825SOL    HW229109   3.425   2.550   3.323 -0.4117  0.8674  0.8282
 5826SOL     OW29110   3.152   0.344   8.091 -0.4067 -0.4990 -0.1704
 5826SOL    HW129111   3.226   0.378   8.041 -0.6342  2.1950  1.2978
 5826SOL    HW229112   3.127   0.260   8.053  3.9195 -1.0507 -1.8042
 5827SOL     OW29113   2.341   0.926   7.941  0.0413 -0.0468 -0.7712
 5827SOL    HW129114   2.352   0.960   7.852 -3.9452 -0.0282 -1.2426
 5827SOL    HW229115   2.421   0.966   7.975  0.0478 -0.9506  0.2661
 5828SOL     OW29116   2.544   0.781   3.222  0.5539 -0.3145  0.4035
 5828SOL    HW129117   2.464   0.833   3.217  0.6369 -0.1675  0.5873
 5828SOL    HW229118   2.504   0.703   3.260  0.1120  0.8213  2.2558
 5829SOL     OW29119   3.932   0.995  12.783 -0.1403  0.4247 -0.3787
 5829SOL    HW129120   4.013   0.979  12.831  0.7963  1.6881 -1.5491
 5829SOL    HW229121   3.890   0.910  12.794 -2.8762  1.8172  0.0711
 5830SOL     OW29122   0.273   0.407   4.044 -0.6395 -0.8714  0.0029
 5830SOL    HW129123   0.212   0.480   4.043  0.8478  0.4182  2.6891
 5830SOL    HW229124   0.319   0.432   3.963 -1.8281 -0.3044 -0.4915
 5831SOL     OW29125   0.361   2.087  16.481 -0.0220  0.0902  0.3855
 5831SOL    HW129126   0.337   2.116  16.569 -1.1822  0.7738 -0.1394
 5831SOL    HW229127   0.453   2.111  16.472  0.5863 -2.5692 -0.3240
 5832SOL     OW29128   1.402   0.998   3.952  0.0347  0.0099 -0.0251
 5832SOL    HW129129   1.320   0.950   3.961 -1.1280  2.0903  0.4490
 5832SOL    HW229130   1.451   0.957   4.023  1.2922  0.5222 -0.5908
 5833SOL     OW29131   4.308   3.565   2.624 -0.5603  0.1207  0.0386
 5833SOL    HW129132   4.215   3.588   2.622 -0.5204  0.1502 -1.0574
 5833SOL    HW229133   4.342   3.603   2.705  0.0591 -1.9469  0.7470
 5834SOL     OW29134   3.645   1.214   8.923  0.2884 -0.7093  0.4664
 5834SOL    HW129135   3.658   1.309   8.922  1.9063 -0.9217  1.4504
 5834SOL    HW229136   3.734   1.178   8.917 -0.1313 -1.6023 -0.3672
 5835SOL     OW29137   0.855   2.265   6.643 -0.2320  0.3719 -0.3486
 5835SOL    HW129138   0.856   2.304   6.556  0.4516 -1.5551 -1.2065
 5835SOL    HW229139   0.949   2.252   6.655 -0.5011 -1.0369  0.3123
 5836SOL     OW29140   3.231   4.020   1.649  0.1244  0.1199 -0.1400
 5836SOL    HW129141   3.204   4.041   1.560 -0.5637  2.6034  0.6395
 5836SOL    HW229142   3.192   4.098   1.690  1.6070  0.8788 -0.1640
 5837SOL     OW29143   1.232   2.526   1.329  0.1041  0.0041 -0.0499
 5837SOL    HW129144   1.199   2.603   1.375  1.1018  1.4717 -1.7797
 5837SOL    HW229145   1.157   2.472   1.352 -0.0212  0.2051  0.0162
 5838SOL     OW29146   2.204   0.969   0.352 -0.3970 -0.3369  0.0572
 5838SOL    HW129147   2.281   0.944   0.403  0.5993  0.8550 -0.8440
 5838SOL    HW229148   2.247   0.987   0.269  2.1121 -0.2543  1.3715
 5839SOL     OW29149   3.641   0.169  10.636 -0.2212 -0.4088 -0.3006
 5839SOL    HW129150   3.659   0.173  10.542  0.6584  0.1873 -0.1039
 5839SOL    HW229151   3.699   0.100  10.665  1.1567 -0.0757 -2.2671
 5840SOL     OW29152   2.540   3.026  16.667  0.0061 -0.1369  0.0035
 5840SOL    HW129153   2.518   3.119  16.680 -0.8892 -0.4111  0.4071
 5840SOL    HW229154   2.485   2.989  16.736 -0.0411 -0.1851 -0.0605
 5841SOL     OW29155   0.752   0.384   3.316 -0.3051  0.3523  0.4314
 5841SOL    HW129156   0.823   0.371   3.379 -0.9481 -2.1695  0.6205
 5841SOL    HW229157   0.757   0.311   3.255 -2.1312 -0.7912  1.6380
 5842SOL     OW29158   2.470   1.505   5.279  0.0350  0.3267  0.5348
 5842SOL    HW129159   2.429   1.573   5.226 -0.4916  0.1386  0.7058
 5842SOL    HW229160   2.537   1.558   5.323  0.4440  0.9256 -0.7842
 5843SOL     OW29161   1.912   3.899  15.167  0.2337 -0.2947 -0.2403
 5843SOL    HW129162   1.989   3.953  15.149  1.7154 -1.1050  3.7143
 5843SOL    HW229163   1.872   3.941  15.243  0.3047 -1.0553  0.2090
 5844SOL     OW29164   0.740   2.495   3.399 -0.4877 -0.3738 -0.6249
 5844SOL    HW129165   0.692   2.417   3.427  1.6427 -2.0018 -1.5566
 5844SOL    HW229166   0.815   2.507   3.457 -0.4597  1.0781 -0.9479
 5845SOL     OW29167   1.934   2.730   0.397 -0.0724 -0.4407  0.1388
 5845SOL    HW129168   1.918   2.800   0.460 -1.5673 -1.2835  0.7034
 5845SOL    HW229169   1.852   2.680   0.406  0.1772 -0.9806 -0.5911
 5846SOL     OW29170   3.488   1.977   7.318 -0.4747  0.1037  0.0359
 5846SOL    HW129171   3.544   1.978   7.396  2.1498 -1.6851 -1.8451
 5846SOL    HW229172   3.551   1.947   7.253  0.5765  0.5250  0.8608
 5847SOL     OW29173   2.634   1.743   4.021  0.1404  0.5514 -0.7014
 5847SOL    HW129174   2.644   1.831   4.057  0.1233  0.2370  0.0871
 5847SOL    HW229175   2.667   1.754   3.932  0.7862  0.4801 -0.4678
 5848SOL     OW29176   3.642   1.186   0.951  0.2886 -0.1390 -0.4176
 5848SOL    HW129177   3.567   1.216   1.002 -0.6323 -2.3049 -0.4645
 5848SOL    HW229178   3.693   1.151   1.023 -0.1063  1.1477  0.4833
 5849SOL     OW29179   1.200   0.606  10.130  0.0429  0.0553 -0.0536
 5849SOL    HW129180   1.289   0.626  10.158 -0.0513 -0.4586  0.6243
 5849SOL    HW229181   1.158   0.690  10.150 -1.1140 -0.0412 -2.1078
 5850SOL     OW29182   1.414   2.627   2.819 -0.1496  0.1899 -0.3501
 5850SOL    HW129183   1.355   2.594   2.752  0.0361 -1.4517  0.3089
 5850SOL    HW229184   1.470   2.691   2.775  1.2825 -0.9535 -0.1829
 5851SOL     OW29185   1.139   0.780   7.250  0.4798 -0.2466  0.1283
 5851SOL    HW129186   1.137   0.859   7.304 -0.8073 -0.1971  0.0038
 5851SOL    HW229187   1.171   0.717   7.314 -1.4094 -0.2832  1.0196
 5852SOL     OW29188   0.166   2.964   3.470 -0.1495  0.2532 -0.6171
 5852SOL    HW129189   0.156   2.871   3.492 -0.8035  0.1728 -1.2434
 5852SOL    HW229190   0.261   2.957   3.473 -0.2976 -1.0785  1.0921
 5853SOL     OW29191   0.991   2.745   4.537 -0.2634 -0.2787  0.2100
 5853SOL    HW129192   0.948   2.674   4.489  0.2186  0.0026 -0.6274
 5853SOL    HW229193   1.073   2.740   4.488 -1.1066 -0.4559 -1.1597
 5854SOL     OW29194   1.069   2.615   2.636  0.6903 -0.0711  0.0592
 5854SOL    HW129195   1.124   2.686   2.669 -2.4665  1.6861  1.4868
 5854SOL    HW229196   1.079   2.546   2.702  2.3931 -1.0593 -1.2347
 5855SOL     OW29197   3.260   4.127   3.958  0.0330 -0.0499 -0.0022
 5855SOL    HW129198   3.333   4.071   3.982  1.4243  1.3361 -1.0051
 5855SOL    HW229199   3.189   4.064   3.974 -1.2016  1.4018  0.1812
 5856SOL     OW29200   2.618   0.116   5.538  0.3113 -0.2958  0.1467
 5856SOL    HW129201   2.536   0.089   5.578 -1.3284  1.4691 -2.0306
 5856SOL    HW229202   2.667   0.095   5.618 -0.3861 -3.4770 -0.2414
 5857SOL     OW29203   2.010   0.693   6.454  0.1074 -0.0905  0.4923
 5857SOL    HW129204   1.940   0.685   6.389 -0.0948  1.5454  0.5100
 5857SOL    HW229205   2.093   0.662   6.417 -0.1001 -0.3101  0.2131
 5858SOL     OW29206   0.196   0.066   8.779 -0.3014 -0.0750 -0.3025
 5858SOL    HW129207   0.124   0.028   8.830 -1.7580  0.6769 -1.7659
 5858SOL    HW229208   0.259   0.093   8.845  2.0481 -0.2432 -2.4619
 5859SOL     OW29209   1.290   1.353   6.709 -0.1453  0.2780 -0.5571
 5859SOL    HW129210   1.276   1.387   6.621 -1.1257 -1.0753 -0.9291
 5859SOL    HW229211   1.380   1.321   6.713  0.0497  0.7108 -1.5276
 5860SOL     OW29212   1.722   1.930  12.159  0.3462 -0.0994  0.1176
 5860SOL    HW129213   1.787   1.990  12.124 -1.1722  2.1695  1.2461
 5860SOL    HW229214   1.650   1.992  12.157 -1.5697 -2.3147 -0.6892
 5861SOL     OW29215   3.152   1.252   4.952 -0.2692 -0.4514  0.5737
 5861SOL    HW129216   3.210   1.296   5.015 -0.4892 -0.3560  0.7083
 5861SOL    HW229217   3.182   1.289   4.869 -0.6562 -1.6801 -0.1202
 5862SOL     OW29218   3.608   2.779   5.336 -0.2976 -0.0531 -0.5342
 5862SOL    HW129219   3.542   2.780   5.267 -3.0085  1.7341  2.0923
 5862SOL    HW229220   3.613   2.684   5.346 -3.1533 -0.0372  0.8368
 5863SOL     OW29221   4.633   4.231   5.236  0.1664 -0.6421  0.3421
 5863SOL    HW129222   4.555   4.200   5.190 -1.0891  0.5581  1.6529
 5863SOL    HW229223   4.603   4.231   5.327  0.3284 -0.6543  0.3944
 5864SOL     OW29224   2.843   3.148   1.434 -0.3535  0.1721 -0.3243
 5864SOL    HW129225   2.860   3.110   1.348  0.3567 -0.1199 -0.0541
 5864SOL    HW229226   2.848   3.067   1.485  0.0129  0.8128  0.6524
 5865SOL     OW29227   0.677   2.941   7.526 -0.2829  0.5330 -0.4135
 5865SOL    HW129228   0.769   2.969   7.528 -0.4658  1.0723  0.9843
 5865SOL    HW229229   0.679   2.907   7.437  0.5952 -1.6231  0.4237
 5866SOL     OW29230   4.547   2.121   9.493  0.0158 -0.0339  0.1266
 5866SOL    HW129231   4.557   2.208   9.455  0.0928 -0.4234 -0.7346
 5866SOL    HW229232   4.622   2.084   9.446 -1.2210 -0.5683 -1.4238
 5867SOL     OW29233   3.292   4.409   4.633  0.4664  0.1739 -0.1527
 5867SOL    HW129234   3.288   4.376   4.723  0.0934 -0.0996 -0.2723
 5867SOL    HW229235   3.234   4.346   4.589 -0.9356  0.7686  0.8307
 5868SOL     OW29236   3.112   4.269   5.421 -0.2880 -0.4054 -0.5532
 5868SOL    HW129237   3.158   4.295   5.501  1.0740 -0.3527 -1.3470
 5868SOL    HW229238   3.025   4.299   5.448 -0.5671 -0.9908 -0.8200
 5869SOL     OW29239   1.747   4.504   7.681 -0.0725  0.4191  0.1968
 5869SOL    HW129240   1.771   4.414   7.661 -1.4257  0.2073 -0.4489
 5869SOL    HW229241   1.777   4.522   7.770 -0.9887  1.3469  0.3203
 5870SOL     OW29242   2.872   0.058   6.687 -0.3839  0.3368  0.0003
 5870SOL    HW129243   2.939   0.125   6.700 -0.0289 -0.1462  0.7186
 5870SOL    HW229244   2.807   0.101   6.632 -0.9491 -0.3098  0.1599
 5871SOL     OW29245   2.868   2.753  11.464  0.1835 -0.2248 -0.0010
 5871SOL    HW129246   2.944   2.755  11.406 -0.0366 -0.6978 -0.3073
 5871SOL    HW229247   2.810   2.808  11.411  0.1440  0.3688  0.6541
 5872SOL     OW29248   1.958   1.494   7.318 -0.5248 -0.5689  0.4051
 5872SOL    HW129249   2.010   1.507   7.397  0.6940 -0.2816 -0.4481
 5872SOL    HW229250   2.025   1.505   7.251 -0.0395  0.6240  1.1022
 5873SOL     OW29251   3.667   2.847   1.734  0.0414  0.0428 -0.8611
 5873SOL    HW129252   3.584   2.864   1.778  0.0669  3.6063 -2.1775
 5873SOL    HW229253   3.706   2.932   1.715 -0.4022 -0.0050 -1.9400
 5874SOL     OW29254   0.185   4.116   9.113 -0.6109 -0.2277  0.1761
 5874SOL    HW129255   0.238   4.042   9.084 -0.5611  0.4487 -1.4675
 5874SOL    HW229256   0.100   4.090   9.078 -0.4588 -1.1060  0.4713
 5875SOL     OW29257   0.941   3.465   5.988 -0.5064  0.1688 -0.8546
 5875SOL    HW129258   0.892   3.538   6.025  1.7505  1.5784 -0.6613
 5875SOL    HW229259   0.965   3.413   6.064 -0.0570  1.5241 -0.0806
 5876SOL     OW29260   1.327   0.804   2.748 -0.0564  0.5474  0.2400
 5876SOL    HW129261   1.309   0.798   2.654  0.9637 -3.0069  0.2659
 5876SOL    HW229262   1.322   0.712   2.773  1.9833  0.3394 -0.0608
 5877SOL     OW29263   3.449   1.475   1.852 -0.0826  0.5398 -0.0034
 5877SOL    HW129264   3.460   1.564   1.818 -0.0281  0.9257  1.0493
 5877SOL    HW229265   3.521   1.470   1.914 -0.1366  0.0430  0.0202
 5878SOL     OW29266   1.563   0.979   6.893 -0.6800  0.2327  0.3416
 5878SOL    HW129267   1.653   1.011   6.886 -0.9156  0.8917  0.3043
 5878SOL    HW229268   1.576   0.885   6.897  0.1048  0.3838  1.3011
 5879SOL     OW29269   3.534   3.866   8.572  0.5541 -0.0492  0.2895
 5879SOL    HW129270   3.553   3.848   8.664 -0.8946  1.0251  0.8052
 5879SOL    HW229271   3.612   3.917   8.550  0.2338  1.1590  1.8959
 5880SOL     OW29272   0.484   4.571   5.366 -0.4084 -0.0816 -0.2880
 5880SOL    HW129273   0.572   4.553   5.399  0.0209  1.8928 -0.3779
 5880SOL    HW229274   0.450   4.636   5.427 -0.2433 -0.5578  0.3102
 5881SOL     OW29275   1.117   3.787   8.949  0.4215  0.3799  0.7318
 5881SOL    HW129276   1.139   3.840   9.026  0.6579 -0.7918  1.4604
 5881SOL    HW229277   1.204   3.757   8.922 -0.1391 -0.1745 -0.4397
 5882SOL     OW29278   4.725   3.168   4.914  0.0799 -0.4661 -0.0544
 5882SOL    HW129279   0.039   3.154   4.994  0.7301 -0.0599 -0.4075
 5882SOL    HW229280   4.647   3.122   4.948 -1.4570  0.0817 -2.8712
 5883SOL     OW29281   4.036   1.844  17.145 -0.7352 -0.7635  0.0286
 5883SOL    HW129282   4.025   1.937  17.127  0.4904 -0.8400 -1.1058
 5883SOL    HW229283   4.123   1.850  17.185  0.1051 -0.3327 -1.8516
 5884SOL     OW29284   3.930   3.158  11.376  0.4079 -0.2757  0.1904
 5884SOL    HW129285   3.973   3.074  11.389 -1.4525 -1.4960 -1.5124
 5884SOL    HW229286   3.963   3.207  11.451 -1.7197 -0.3702  1.1982
 5885SOL     OW29287   2.852   2.197   7.931 -0.0718  0.2915 -0.1388
 5885SOL    HW129288   2.934   2.148   7.940  1.0401  2.1827  0.0945
 5885SOL    HW229289   2.887   2.283   7.906  1.4427 -0.0419  0.8024
 5886SOL     OW29290   4.184   4.454   4.133 -0.1196 -0.4492 -1.0293
 5886SOL    HW129291   4.209   4.514   4.203 -2.4465 -1.4494  0.6456
 5886SOL    HW229292   4.114   4.406   4.177 -1.8022  1.3983 -1.7116
 5887SOL     OW29293   1.122   2.516   8.455  0.6547 -0.1700  0.2147
 5887SOL    HW129294   1.213   2.497   8.433  1.0910  1.1120  0.9162
 5887SOL    HW229295   1.080   2.449   8.400  0.2926 -0.9504  1.4403
 5888SOL     OW29296   0.778   0.924  11.996 -0.1260  0.4140  0.0158
 5888SOL    HW129297   0.867   0.920  11.960 -0.6850  1.6432 -1.5105
 5888SOL    HW229298   0.795   0.880  12.080  1.3852 -2.0644 -1.6049
 5889SOL     OW29299   1.875   0.644   6.683 -0.0421  0.3039 -0.1581
 5889SOL    HW129300   1.925   0.658   6.603 -0.7308  2.1549 -0.2592
 5889SOL    HW229301   1.823   0.725   6.686 -2.1661 -1.0773 -0.1564
 5890SOL     OW29302   1.782   0.179   5.369 -0.2451  0.1746 -0.3878
 5890SOL    HW129303   1.737   0.257   5.338  0.1347  1.2707  1.8146
 5890SOL    HW229304   1.712   0.129   5.411  0.0723 -0.3366 -0.4680
 5891SOL     OW29305   3.417   2.156   5.201 -0.1108  0.1292  0.4564
 5891SOL    HW129306   3.510   2.163   5.180  0.0571 -0.2842  1.0614
 5891SOL    HW229307   3.386   2.234   5.156 -0.6643 -0.1649  0.3224
 5892SOL     OW29308   1.090   3.543   9.350  0.1558  0.0520  0.0648
 5892SOL    HW129309   1.075   3.451   9.371  0.6333  0.0050  0.2072
 5892SOL    HW229310   1.004   3.565   9.315 -0.2131 -0.4770  0.6292
 5893SOL     OW29311   0.666   0.857   4.464 -0.6718 -0.0005 -0.2327
 5893SOL    HW129312   0.608   0.928   4.491 -0.2390 -0.3516  1.5729
 5893SOL    HW229313   0.618   0.809   4.396 -1.1010  0.4846 -0.2780
 5894SOL     OW29314   2.553   0.305   3.802 -0.1984  0.0286  0.0147
 5894SOL    HW129315   2.490   0.234   3.813 -1.6307  1.1110 -1.1821
 5894SOL    HW229316   2.537   0.335   3.713  0.0429 -0.6264 -0.2441
 5895SOL     OW29317   1.030   3.198  16.282 -0.5888  0.4366  0.5115
 5895SOL    HW129318   0.997   3.165  16.198 -1.4663  1.5324  0.4239
 5895SOL    HW229319   0.970   3.272  16.291 -0.2133  0.8178 -0.1213
 5896SOL     OW29320   3.775   0.177  10.987 -0.1110  0.6328 -0.1752
 5896SOL    HW129321   3.739   0.254  10.944 -2.6390 -0.4043  0.0837
 5896SOL    HW229322   3.813   0.127  10.915 -1.2416  1.5431 -1.3958
 5897SOL     OW29323   3.479   2.923   3.031 -0.5691  0.1787 -0.5143
 5897SOL    HW129324   3.446   2.903   3.119  0.4628 -0.6282 -0.3065
 5897SOL    HW229325   3.476   2.833   2.998  0.2577  0.2378 -0.7553
 5898SOL     OW29326   4.391   3.115   2.239  0.2853 -0.6443 -0.3361
 5898SOL    HW129327   4.309   3.088   2.198 -0.7682  1.6725  0.2467
 5898SOL    HW229328   4.387   3.207   2.216 -2.7247 -0.0198  2.5847
 5899SOL     OW29329   1.917   2.969   2.728 -0.9550  0.0971  0.2926
 5899SOL    HW129330   1.957   2.891   2.689 -0.4906 -0.3010  1.5839
 5899SOL    HW229331   1.921   2.947   2.821 -0.8248  0.7519  0.4462
 5900SOL     OW29332   3.384   2.395   1.875 -0.1651 -0.0728  0.3375
 5900SOL    HW129333   3.432   2.369   1.797  0.4978 -2.1575  1.4511
 5900SOL    HW229334   3.374   2.490   1.875  0.3253 -0.0264 -3.2915
 5901SOL     OW29335   0.066   1.352   9.311 -0.3217 -0.1585 -0.4319
 5901SOL    HW129336   0.103   1.420   9.255  0.1304  0.3981  0.5487
 5901SOL    HW229337   0.133   1.341   9.378 -0.1922 -1.6324 -0.8029
 5902SOL     OW29338   1.461   3.525  11.735  0.1945  0.4007 -0.3140
 5902SOL    HW129339   1.428   3.613  11.751 -1.1470 -0.2317  0.3676
 5902SOL    HW229340   1.504   3.498  11.816  1.9173  1.1166 -0.9842
 5903SOL     OW29341   3.064   4.662   5.117 -0.2137 -0.3737  0.4107
 5903SOL    HW129342   3.052   0.020   5.118 -1.2457 -0.5065  0.3647
 5903SOL    HW229343   3.114   4.642   5.038  1.4462  1.0409  1.1085
 5904SOL     OW29344   4.268   0.878   7.030 -0.0018  0.0276  0.2156
 5904SOL    HW129345   4.335   0.815   7.003 -0.7017 -0.0456 -1.3261
 5904SOL    HW229346   4.192   0.820   7.027  0.7447 -1.0165  1.2207
 5905SOL     OW29347   2.321   3.569   8.736 -0.6186 -0.3024 -0.5506
 5905SOL    HW129348   2.304   3.662   8.725 -1.7728 -0.3723  0.6258
 5905SOL    HW229349   2.306   3.535   8.648  2.2627 -0.1272 -1.0889
 5906SOL     OW29350   1.062   3.144  14.212  0.2545 -0.3919 -0.2058
 5906SOL    HW129351   1.155   3.126  14.225  0.6008  1.5634  0.0474
 5906SOL    HW229352   1.024   3.058  14.230 -2.1992  0.9889  1.1330
 5907SOL     OW29353   3.094   0.318  14.607  0.3376 -0.3115 -0.2730
 5907SOL    HW129354   3.091   0.227  14.637 -3.0256  0.3561  1.3590
 5907SOL    HW229355   3.055   0.365  14.680 -0.1811  0.2981 -0.9446
 5908SOL     OW29356   1.016   3.585   5.563  0.7612  0.2883  0.6743
 5908SOL    HW129357   0.986   3.550   5.647  1.8252 -1.3631  0.3546
 5908SOL    HW229358   0.950   3.652   5.540  0.6253  0.3221  1.1740
 5909SOL     OW29359   1.808   0.842  17.510  0.5718 -0.4287  0.2015
 5909SOL    HW129360   1.807   0.785  17.587 -1.7785 -0.4566  0.1467
 5909SOL    HW229361   1.869   0.789  17.460 -0.7541 -1.0889 -0.7057
 5910SOL     OW29362   3.642   0.665   1.005 -0.1918  0.0140 -0.4019
 5910SOL    HW129363   3.557   0.650   0.965 -0.5223  1.5222 -0.2668
 5910SOL    HW229364   3.697   0.680   0.928  0.4852  3.8696  0.8686
 5911SOL     OW29365   3.671   2.813  12.071  0.3041 -0.2263 -0.2056
 5911SOL    HW129366   3.585   2.812  12.030 -0.4124 -0.0875  1.2742
 5911SOL    HW229367   3.719   2.808  11.988 -2.8066 -5.3752 -1.6562
 5912SOL     OW29368   4.101   0.174  11.717  0.1121  0.2016  0.2691
 5912SOL    HW129369   4.136   0.193  11.630 -0.2559 -0.7010 -0.0708
 5912SOL    HW229370   4.032   0.111  11.696 -0.3582 -0.0270  2.5011
 5913SOL     OW29371   2.585   1.276   5.207  1.0768  0.5154  0.0371
 5913SOL    HW129372   2.553   1.365   5.217 -0.9103 -0.3955  1.8320
 5913SOL    HW229373   2.558   1.249   5.119 -0.0148 -0.0967  0.5536
 5914SOL     OW29374   2.000   0.636   6.027  0.2051 -0.0009  0.1610
 5914SOL    HW129375   1.911   0.601   6.031  0.2075  0.0370  0.5744
 5914SOL    HW229376   1.977   0.705   5.965 -1.6142 -1.1439 -0.4445
 5915SOL     OW29377   3.966   0.038   9.262  0.8586  0.3135  0.2040
 5915SOL    HW129378   3.956   0.106   9.196  0.6590  0.3103  0.2293
 5915SOL    HW229379   3.999   4.709   9.201  1.4369  1.1870 -0.4294
 5916SOL     OW29380   0.816   4.606   4.113 -0.8124  0.4182  0.1880
 5916SOL    HW129381   0.864   4.575   4.189 -1.4199 -0.1121  0.3628
 5916SOL    HW229382   0.863   4.560   4.043 -2.3011  0.0840 -0.6084
 5917SOL     OW29383   3.511   0.964   6.404  0.1250  0.1349 -0.5670
 5917SOL    HW129384   3.447   0.896   6.386 -1.0677  1.3464 -0.8902
 5917SOL    HW229385   3.468   1.048   6.392 -0.1948 -0.0537 -0.7389
 5918SOL     OW29386   1.012   4.078   4.190  0.0247  0.0702 -0.1726
 5918SOL    HW129387   0.976   4.134   4.258 -0.9366 -0.2290 -0.4317
 5918SOL    HW229388   0.932   4.036   4.160  0.2185 -0.4416  0.0230
 5919SOL     OW29389   2.005   1.638   3.451 -0.0799  0.6492 -0.1075
 5919SOL    HW129390   2.019   1.575   3.381  0.0282 -0.5089  0.9643
 5919SOL    HW229391   1.926   1.687   3.427 -0.7167 -0.1068  0.4530
 5920SOL     OW29392   0.072   2.447   3.384 -0.4090 -0.5036  0.8798
 5920SOL    HW129393   0.138   2.390   3.344  0.7256  1.7128 -0.4389
 5920SOL    HW229394   0.073   2.521   3.323  1.2927 -3.2345 -2.3974
 5921SOL     OW29395   3.751   2.726   7.323  0.3632  0.1225 -0.0518
 5921SOL    HW129396   3.753   2.640   7.280  0.9722 -0.6583  1.5475
 5921SOL    HW229397   3.753   2.696   7.414 -0.7364  2.8908  0.8945
 5922SOL     OW29398   2.921   1.420   5.541 -0.2919  0.1678 -0.1378
 5922SOL    HW129399   2.948   1.507   5.510 -0.5092 -0.2755 -1.5731
 5922SOL    HW229400   2.896   1.381   5.458  0.0363  1.8056 -1.0112
 5923SOL     OW29401   3.034   1.785   2.122 -0.1267 -0.5322  0.1755
 5923SOL    HW129402   2.950   1.752   2.156 -0.3732 -1.4661 -1.3328
 5923SOL    HW229403   3.066   1.713   2.068  1.1052  0.1918 -0.0522
 5924SOL     OW29404   4.534   2.928  15.108  0.7059 -0.0836 -0.1061
 5924SOL    HW129405   4.482   2.977  15.172  0.0687 -1.2835  0.2914
 5924SOL    HW229406   4.563   2.997  15.048 -0.0055 -1.5494 -2.1342
 5925SOL     OW29407   2.613   4.076   3.638  0.5356  0.5128 -0.1149
 5925SOL    HW129408   2.541   4.115   3.590 -1.0132 -1.6911  0.4082
 5925SOL    HW229409   2.681   4.142   3.626  0.1820  0.7460 -0.8298
 5926SOL     OW29410   1.994   0.645   9.424 -0.2476  0.1998  0.4106
 5926SOL    HW129411   1.934   0.709   9.386  0.6708  1.9073  1.8181
 5926SOL    HW229412   2.029   0.600   9.347 -1.0213 -1.7078  1.1489
 5927SOL     OW29413   1.851   4.258  10.252  0.0010  0.3212 -0.4335
 5927SOL    HW129414   1.885   4.203  10.323  1.2120 -0.4931 -1.6374
 5927SOL    HW229415   1.795   4.311  10.310  0.0065  1.2468 -1.2752
 5928SOL     OW29416   0.619   0.104   7.174  0.1228  0.3997  0.0368
 5928SOL    HW129417   0.706   0.077   7.144 -0.7959  0.4024 -2.6355
 5928SOL    HW229418   0.634   0.077   7.264  3.0403 -1.3555 -1.0028
 5929SOL     OW29419   4.190   0.936  12.837  0.6987  0.6260 -0.2218
 5929SOL    HW129420   4.218   0.955  12.747 -0.3616  0.0111 -0.6918
 5929SOL    HW229421   4.243   0.859  12.859 -1.5915 -1.0681 -0.5892
 5930SOL     OW29422   2.122   4.506   1.943 -0.1352  0.6145  0.3182
 5930SOL    HW129423   2.107   4.577   2.005 -0.7858 -0.9847  1.9907
 5930SOL    HW229424   2.150   4.444   2.010  1.6083 -0.8944 -1.7989
 5931SOL     OW29425   0.199   0.678   5.025  0.1142  0.7062  0.0648
 5931SOL    HW129426   0.278   0.732   5.013  2.3217 -2.0255  2.1762
 5931SOL    HW229427   0.134   0.736   5.064  0.9212  1.1523  0.7652
 5932SOL     OW29428   2.696   0.296  13.024 -0.1620  0.4340 -0.2177
 5932SOL    HW129429   2.701   0.217  12.970 -0.5686  0.2430  0.0277
 5932SOL    HW229430   2.784   0.309  13.060 -0.5411 -0.1468  0.8919
 5933SOL     OW29431   0.676   4.216   5.629 -0.4562  0.2156 -0.4080
 5933SOL    HW129432   0.596   4.171   5.657 -0.0645 -0.9846 -1.2454
 5933SOL    HW229433   0.736   4.187   5.699 -0.3013  0.1331 -0.5757
 5934SOL     OW29434   0.569   0.534   6.053  0.5801  0.0178  0.0167
 5934SOL    HW129435   0.567   0.488   6.136 -0.3612  0.1786  0.0890
 5934SOL    HW229436   0.663   0.539   6.036  0.7041  2.9795  1.6878
 5935SOL     OW29437   1.611   0.722   6.819  0.3535 -0.0749 -0.2663
 5935SOL    HW129438   1.648   0.645   6.863  0.7045  1.1656  1.6290
 5935SOL    HW229439   1.528   0.697   6.778  0.4212  0.1667 -0.5523
 5936SOL     OW29440   4.359   4.556   6.989 -0.2607  0.3949 -0.5153
 5936SOL    HW129441   4.435   4.511   7.026 -0.1524 -1.7768 -3.4229
 5936SOL    HW229442   4.365   4.643   7.028 -1.2407  0.2868 -0.1300
 5937SOL     OW29443   4.536   1.693  17.720 -0.0386 -0.3158 -0.3782
 5937SOL    HW129444   4.489   1.610  17.704  0.5674 -0.4373 -1.4957
 5937SOL    HW229445   4.543   1.722  17.630  1.0259  2.2438  0.5313
 5938SOL     OW29446   0.835   4.122   0.211 -0.1151 -0.0230  0.1602
 5938SOL    HW129447   0.761   4.181   0.199  0.5565  0.9691  0.7875
 5938SOL    HW229448   0.905   4.182   0.183  0.8984 -1.4634 -0.3662
 5939SOL     OW29449   0.778   0.007  11.561  0.1638 -0.2005 -0.1874
 5939SOL    HW129450   0.798   0.057  11.640 -2.3314  0.1657  0.2424
 5939SOL    HW229451   0.694   0.051  11.546 -1.3809 -2.1733  2.7298
 5940SOL     OW29452   0.600   4.266   0.153 -0.1941 -0.2760 -0.0472
 5940SOL    HW129453   0.537   4.330   0.187  0.1484 -0.4672  0.9638
 5940SOL    HW229454   0.627   4.310   0.073 -1.1229  2.2903  1.0632
 5941SOL     OW29455   4.487   1.886   2.138  0.4203  1.0424  0.2540
 5941SOL    HW129456   4.544   1.946   2.090  0.9897  0.5971  0.3737
 5941SOL    HW229457   4.549   1.846   2.199  0.2932  1.3082  0.5618
 5942SOL     OW29458   2.326   3.660   2.395  0.3555  0.0854  0.4086
 5942SOL    HW129459   2.277   3.637   2.316  1.5167 -0.9203 -0.0175
 5942SOL    HW229460   2.364   3.574   2.416 -1.3975 -1.1281 -1.2833
 5943SOL     OW29461   3.589   1.108  15.060 -0.5454 -0.1422  0.1925
 5943SOL    HW129462   3.521   1.064  15.008  0.2172 -0.7355 -0.3066
 5943SOL    HW229463   3.548   1.115  15.146 -0.1878 -1.2494  0.4438
 5944SOL     OW29464   0.774   2.475  15.377 -0.0218 -0.4879 -0.3328
 5944SOL    HW129465   0.706   2.440  15.320  1.1377 -1.6362 -0.9921
 5944SOL    HW229466   0.801   2.393  15.417  0.8913 -0.2932 -0.5417
 5945SOL     OW29467   1.184   2.133   1.689 -0.2932 -0.3483  0.0134
 5945SOL    HW129468   1.243   2.203   1.719  0.7370 -1.8678  1.5366
 5945SOL    HW229469   1.237   2.093   1.620  0.1882  1.4488 -0.6710
 5946SOL     OW29470   0.551   4.225   9.484 -0.5852 -0.0857  0.2050
 5946SOL    HW129471   0.463   4.243   9.450  0.9529  4.1799 -1.4729
 5946SOL    HW229472   0.589   4.193   9.402  0.4533 -1.3361  1.1903
 5947SOL     OW29473   0.580   0.921   7.564 -0.1672  0.2484  0.0860
 5947SOL    HW129474   0.490   0.951   7.551 -0.4077 -0.6969 -0.3981
 5947SOL    HW229475   0.627   1.003   7.549  1.8206 -0.3348  3.1803
 5948SOL     OW29476   2.685   2.805   3.739 -0.0909  0.6952  0.2974
 5948SOL    HW129477   2.659   2.723   3.696  1.0513 -0.0588  1.0538
 5948SOL    HW229478   2.667   2.772   3.827 -0.4074  1.7087  0.6129
 5949SOL     OW29479   0.628   2.867   6.362  0.1507 -0.5080 -0.0540
 5949SOL    HW129480   0.698   2.909   6.311  1.3836 -0.9674  1.2621
 5949SOL    HW229481   0.670   2.783   6.382 -2.1228 -1.8751 -1.0339
 5950SOL     OW29482   2.197   3.950  16.400  0.0503  0.2390 -0.2867
 5950SOL    HW129483   2.226   4.024  16.346 -1.9808  1.7050  0.6179
 5950SOL    HW229484   2.121   3.988  16.445  0.7153  0.6277  0.5165
 5951SOL     OW29485   1.000   1.816   6.951  0.0697  0.5317 -0.7553
 5951SOL    HW129486   1.063   1.884   6.975  0.7715 -0.9625  1.6736
 5951SOL    HW229487   1.053   1.762   6.893  0.0531  0.2199 -0.4827
 5952SOL     OW29488   4.399   2.684   7.714 -0.2011 -0.1395  0.8771
 5952SOL    HW129489   4.481   2.634   7.718 -0.5733 -0.6444  2.0750
 5952SOL    HW229490   4.362   2.646   7.793 -0.0770  1.7785  1.8578
 5953SOL     OW29491   0.857   1.576   9.130  0.2877  0.2352  0.0196
 5953SOL    HW129492   0.862   1.664   9.169  0.0178  0.5835 -0.7368
 5953SOL    HW229493   0.887   1.592   9.041  2.9023  1.1951  1.0519
 5954SOL     OW29494   1.578   4.027   2.653 -0.5728 -0.2143 -0.6786
 5954SOL    HW129495   1.656   3.981   2.683 -0.5175  1.5318  1.7794
 5954SOL    HW229496   1.538   4.056   2.734 -0.3339  0.2933 -0.7437
 5955SOL     OW29497   0.721   2.179   4.811  0.6543 -0.2249 -0.2716
 5955SOL    HW129498   0.810   2.207   4.829  0.1897  0.5729  0.8525
 5955SOL    HW229499   0.717   2.098   4.863 -1.1835  1.6106  2.4616
 5956SOL     OW29500   2.860   0.803  13.481 -0.5701 -0.1051 -0.0407
 5956SOL    HW129501   2.943   0.759  13.459 -0.8596  0.1153 -1.5749
 5956SOL    HW229502   2.811   0.803  13.399  0.4770 -0.5813 -0.6704
 5957SOL     OW29503   1.658   2.800  13.938  0.2674  0.6488 -0.4266
 5957SOL    HW129504   1.642   2.826  14.029  1.5147 -0.9551  0.2585
 5957SOL    HW229505   1.585   2.744  13.912  1.2631 -1.4249  1.1879
 5958SOL     OW29506   1.575   3.716   5.663  0.2600  0.2556 -0.2339
 5958SOL    HW129507   1.671   3.715   5.658  0.3366  1.5695  1.0738
 5958SOL    HW229508   1.567   3.808   5.638  1.9237  0.1811 -1.0835
 5959SOL     OW29509   4.718   2.149  17.349 -0.0736  0.0876 -0.3009
 5959SOL    HW129510   0.072   2.131  17.373  0.0701  0.2685 -0.7135
 5959SOL    HW229511   4.684   2.112  17.430 -0.9444 -0.3558 -0.8710
 5960SOL     OW29512   1.060   1.505   6.280 -0.2537  0.0989 -0.6310
 5960SOL    HW129513   0.997   1.500   6.207  0.3634 -0.6884 -1.1176
 5960SOL    HW229514   1.105   1.586   6.258 -3.7435  2.3365  0.6345
 5961SOL     OW29515   3.631   4.182   8.999 -0.2555 -0.5786 -0.1514
 5961SOL    HW129516   3.689   4.128   9.054  2.4239  0.6967 -1.7097
 5961SOL    HW229517   3.623   4.265   9.045 -2.5328 -0.4434 -0.8199
 5962SOL     OW29518   3.433   0.873   2.852 -0.1906  0.0274 -0.6511
 5962SOL    HW129519   3.357   0.815   2.860 -0.2266  0.1389 -0.1584
 5962SOL    HW229520   3.460   0.878   2.944 -0.2335 -0.8006 -0.5948
 5963SOL     OW29521   0.696   4.333   8.446  0.1407 -0.0161  0.0376
 5963SOL    HW129522   0.741   4.344   8.362 -1.5899  0.7934 -0.7825
 5963SOL    HW229523   0.613   4.378   8.428  0.1844 -0.4685 -1.3073
 5964SOL     OW29524   2.933   2.039   4.968 -0.5962 -0.0163 -0.5128
 5964SOL    HW129525   2.927   2.135   4.973 -2.5547 -0.1323 -0.4514
 5964SOL    HW229526   2.840   2.018   4.963 -0.9686  1.7937 -1.3827
 5965SOL     OW29527   1.567   1.668  10.359 -0.5358 -0.6727 -0.6382
 5965SOL    HW129528   1.598   1.717  10.435  1.6977 -3.7045  0.4339
 5965SOL    HW229529   1.618   1.588  10.376  0.2409  0.0673  0.5256
 5966SOL     OW29530   2.828   2.259   2.223  0.7754  0.2012  0.4038
 5966SOL    HW129531   2.889   2.204   2.174  0.6010 -1.3930  1.9818
 5966SOL    HW229532   2.846   2.216   2.306  2.2867  0.0776  0.0172
 5967SOL     OW29533   1.744   0.115   4.252 -0.1699 -0.1454  0.3469
 5967SOL    HW129534   1.712   0.098   4.163 -0.4816 -1.5113  0.7220
 5967SOL    HW229535   1.698   0.052   4.308  0.3819 -0.6147  0.2790
 5968SOL     OW29536   3.092   3.549   6.333  0.4738 -0.3938  0.0691
 5968SOL    HW129537   3.103   3.455   6.319 -0.3719 -0.8215  2.2662
 5968SOL    HW229538   3.164   3.582   6.279 -2.7255  3.6912 -1.7237
 5969SOL     OW29539   3.578   1.131   3.809 -0.5779 -0.6163 -0.3468
 5969SOL    HW129540   3.640   1.058   3.803  1.1949  0.8889 -0.4355
 5969SOL    HW229541   3.637   1.206   3.822 -0.4071 -1.2099  2.2319
 5970SOL     OW29542   2.478   3.995   0.974  0.5176 -0.4082  0.7030
 5970SOL    HW129543   2.463   4.070   1.032 -4.5692 -1.1037  0.2207
 5970SOL    HW229544   2.453   4.037   0.892 -0.4959 -0.6984  0.8716
 5971SOL     OW29545   4.330   3.437   0.613 -0.1608 -0.4538 -0.0447
 5971SOL    HW129546   4.257   3.376   0.626  0.6337 -1.0279  1.8200
 5971SOL    HW229547   4.286   3.522   0.608 -1.9080 -1.3130  0.5782
 5972SOL     OW29548   2.115   0.811   9.656  0.2498  0.5014 -0.0022
 5972SOL    HW129549   2.160   0.738   9.697  0.9227 -0.2501 -2.0800
 5972SOL    HW229550   2.077   0.763   9.582  1.7446 -0.1925 -0.2973
 5973SOL     OW29551   4.408   0.566   6.287 -0.3218 -0.2134 -0.4863
 5973SOL    HW129552   4.336   0.527   6.337  2.3808 -2.3584  1.7636
 5973SOL    HW229553   4.390   0.526   6.202 -0.3619 -0.5671 -0.3131
 5974SOL     OW29554   4.485   0.524   8.844 -0.0382  0.0441 -0.1801
 5974SOL    HW129555   4.529   0.588   8.900 -0.5539 -0.8896  1.3071
 5974SOL    HW229556   4.447   0.465   8.909 -1.1840  0.6598 -0.2908
 5975SOL     OW29557   2.197   4.308   8.927  0.2756  0.5123 -0.5813
 5975SOL    HW129558   2.245   4.357   8.860  1.5235  1.5453  1.0439
 5975SOL    HW229559   2.175   4.379   8.988 -1.2198  2.2976 -3.2250
 5976SOL     OW29560   0.463   1.659   6.753 -0.1485  0.2484  0.7852
 5976SOL    HW129561   0.524   1.643   6.681 -0.4713 -1.5441  0.9082
 5976SOL    HW229562   0.427   1.743   6.726  0.1600 -0.4967 -1.8732
 5977SOL     OW29563   4.386   4.582   4.269 -0.0055 -0.1842  0.3242
 5977SOL    HW129564   4.400   4.575   4.174  1.9253  1.3759  0.5109
 5977SOL    HW229565   4.444   4.655   4.289  0.8092 -0.5539 -0.7169
 5978SOL     OW29566   4.153   4.578   9.395  0.2272  0.2110  0.3785
 5978SOL    HW129567   4.075   4.624   9.366 -0.9796 -0.4173  2.5973
 5978SOL    HW229568   4.203   4.574   9.313  2.1065  0.8529  1.4916
 5979SOL     OW29569   3.062   0.278   6.797  0.4922  0.1136  0.1355
 5979SOL    HW129570   3.136   0.253   6.853  0.9153 -0.8844 -0.8550
 5979SOL    HW229571   3.094   0.300   6.710  0.7583  0.8553  0.4229
 5980SOL     OW29572   0.773   1.431   7.703 -0.5131  0.1268  0.3294
 5980SOL    HW129573   0.710   1.378   7.752  0.1235 -0.3983  0.5859
 5980SOL    HW229574   0.782   1.502   7.767  1.3062  0.1744  0.0465
 5981SOL     OW29575   4.626   0.230   7.671  0.2397  0.2491 -0.0357
 5981SOL    HW129576   4.585   0.220   7.585  0.9127  3.4774 -0.7182
 5981SOL    HW229577   4.698   0.288   7.647 -1.1777  0.6542 -3.2145
 5982SOL     OW29578   4.289   2.517   5.500  0.3025 -0.3211  0.1038
 5982SOL    HW129579   4.258   2.573   5.571 -0.9199 -1.0605  0.1585
 5982SOL    HW229580   4.349   2.572   5.450  1.3397 -1.1805  0.3874
 5983SOL     OW29581   3.419   2.402   7.756 -0.5685  0.3320  0.2169
 5983SOL    HW129582   3.386   2.491   7.749  0.7044  0.6978 -1.1524
 5983SOL    HW229583   3.386   2.358   7.678  2.1538  0.7242 -1.1721
 5984SOL     OW29584   0.217   1.530   1.628 -0.4863  0.0453 -0.3801
 5984SOL    HW129585   0.253   1.600   1.574  1.9035 -0.0047  1.1385
 5984SOL    HW229586   0.127   1.562   1.640  0.0434  1.5701 -0.5470
 5985SOL     OW29587   4.193   0.301  11.511  0.9734 -0.2005 -0.2153
 5985SOL    HW129588   4.105   0.334  11.530  1.8860  1.3539  1.3157
 5985SOL    HW229589   4.200   0.318  11.417  2.5526 -1.2513 -0.2879
 5986SOL     OW29590   1.031   3.983   9.369  0.0500 -0.3461 -0.4311
 5986SOL    HW129591   1.086   4.052   9.406 -0.4252 -0.4751  0.5281
 5986SOL    HW229592   0.941   4.010   9.390  0.5987  0.0217  1.4909
 5987SOL     OW29593   2.747   4.053   2.645  0.1464  0.0038  0.0246
 5987SOL    HW129594   2.668   4.063   2.699 -0.0328 -1.3582  0.0111
 5987SOL    HW229595   2.730   3.968   2.605  0.1813  0.7311 -1.5074
 5988SOL     OW29596   1.671   3.867  11.920 -0.1872  0.4068  0.3388
 5988SOL    HW129597   1.712   3.934  11.865 -0.8956  1.0963  0.6371
 5988SOL    HW229598   1.594   3.833  11.874 -1.7154  4.6130 -0.2185
 5989SOL     OW29599   2.265   4.465   6.724 -0.3486  0.6065 -0.4968
 5989SOL    HW129600   2.331   4.511   6.672  2.3795  0.0010  2.4260
 5989SOL    HW229601   2.300   4.376   6.736 -0.8219  0.2537 -1.7120
 5990SOL     OW29602   4.646   0.083   1.805 -0.1820 -0.0783 -0.1456
 5990SOL    HW129603   4.665   0.171   1.837 -1.0669  0.5501 -1.3403
 5990SOL    HW229604   4.708   0.022   1.846  0.3703  0.1324 -0.6800
 5991SOL     OW29605   2.314   4.452   7.768  0.2663  0.3311  0.1135
 5991SOL    HW129606   2.232   4.489   7.736 -0.3927 -2.1071 -1.0464
 5991SOL    HW229607   2.347   4.517   7.830 -1.2859  0.3231  0.9254
 5992SOL     OW29608   1.133   3.032   6.177 -0.3423 -0.2693  0.1941
 5992SOL    HW129609   1.126   3.041   6.082 -0.3943  0.6934  0.2959
 5992SOL    HW229610   1.225   3.059   6.183 -0.6368  0.6769  0.4159
 5993SOL     OW29611   0.699   4.297   4.170 -0.0916  0.7614 -0.3550
 5993SOL    HW129612   0.768   4.288   4.105 -0.1590  2.0905 -0.6071
 5993SOL    HW229613   0.646   4.369   4.137  0.2102  1.4104  0.5842
 5994SOL     OW29614   4.058   4.539   6.222  0.2631 -0.1680  0.3536
 5994SOL    HW129615   4.053   4.624   6.264  0.8139  0.7024 -1.3383
 5994SOL    HW229616   4.057   4.566   6.130  2.4566 -1.6904 -0.1198
 5995SOL     OW29617   1.598   1.121   4.861 -0.5877 -0.1395  0.1936
 5995SOL    HW129618   1.622   1.145   4.772 -2.3836  1.8724  0.2496
 5995SOL    HW229619   1.643   1.189   4.912  0.7656 -0.0397 -1.1264
 5996SOL     OW29620   2.662   1.965   6.376  0.1234  0.6510  0.1862
 5996SOL    HW129621   2.614   2.048   6.384  0.5914  1.0375 -1.0255
 5996SOL    HW229622   2.687   1.962   6.469 -0.4248  1.9087  0.3744
 5997SOL     OW29623   4.283   3.432   5.578 -0.0858 -0.0564  0.0643
 5997SOL    HW129624   4.252   3.369   5.643  0.8714 -0.1618  0.4216
 5997SOL    HW229625   4.370   3.397   5.559 -0.7115 -0.7097 -1.5500
 5998SOL     OW29626   3.019   4.392   7.063  0.0524  0.0675  0.1598
 5998SOL    HW129627   3.082   4.359   7.127  0.7002  2.1119  0.5779
 5998SOL    HW229628   2.950   4.433   7.114 -0.7331  1.0286 -1.6817
 5999SOL     OW29629   3.318   3.595  10.436 -0.1893  0.0412  0.2533
 5999SOL    HW129630   3.409   3.567  10.441  0.1644  0.9584 -1.2299
 5999SOL    HW229631   3.280   3.507  10.431 -1.3980  0.6691 -1.3778
 6000SOL     OW29632   3.228   3.557   2.690  0.5723 -0.2850 -0.1463
 6000SOL    HW129633   3.189   3.533   2.775  1.4257 -1.5438 -0.0988
 6000SOL    HW229634   3.150   3.547   2.636  1.3096  1.7406 -1.5571
 6001SOL     OW29635   2.961   2.877   3.761 -0.7552  0.0781  0.0401
 6001SOL    HW129636   2.870   2.852   3.750 -0.5455  0.6974 -3.1226
 6001SOL    HW229637   2.993   2.788   3.772  0.1178  0.2600 -1.0023
 6002SOL     OW29638   1.581   0.758   8.031  0.2690 -0.0073  0.0417
 6002SOL    HW129639   1.674   0.770   8.046  0.0044  2.0797  0.0225
 6002SOL    HW229640   1.582   0.793   7.942 -1.9829 -1.7286 -0.6673
 6003SOL     OW29641   1.869   2.808   1.748  0.3652 -0.1806 -0.6240
 6003SOL    HW129642   1.940   2.747   1.769  1.5888  1.7529  0.8694
 6003SOL    HW229643   1.818   2.814   1.828  0.5764 -2.8805 -0.2810
 6004SOL     OW29644   0.634   1.815   7.766  0.0266  0.2124 -0.2207
 6004SOL    HW129645   0.571   1.884   7.787  0.9242  0.4055  1.8773
 6004SOL    HW229646   0.658   1.835   7.675  0.2650  2.8109  0.4240
 6005SOL     OW29647   1.502   3.708   4.619 -0.0061 -0.2750  0.4605
 6005SOL    HW129648   1.457   3.740   4.697  2.9097  0.1205  1.9963
 6005SOL    HW229649   1.510   3.617   4.649 -4.5320 -0.1466  1.9658
 6006SOL     OW29650   3.030   3.384   7.678 -0.4488 -0.3242 -0.8588
 6006SOL    HW129651   3.070   3.447   7.618 -0.0118  0.7780  0.5868
 6006SOL    HW229652   3.062   3.416   7.762 -0.9617 -1.6361 -0.1606
 6007SOL     OW29653   1.021   3.864   5.230  0.4308  0.2862  0.1943
 6007SOL    HW129654   1.115   3.855   5.213  0.2264  0.2206 -0.9121
 6007SOL    HW229655   1.008   3.959   5.233 -0.0643  0.2065  0.5041
 6008SOL     OW29656   2.754   1.779   9.389  0.1241  0.3018 -0.1421
 6008SOL    HW129657   2.680   1.828   9.352 -0.1275  0.8459  1.0866
 6008SOL    HW229658   2.755   1.816   9.477  0.6377 -0.7490  0.2941
 6009SOL     OW29659   2.976   2.815  10.992 -0.2598  0.6266 -0.0327
 6009SOL    HW129660   2.982   2.764  11.073  1.7575 -0.6737 -0.9864
 6009SOL    HW229661   2.972   2.743  10.928 -1.7762  1.4737 -0.8922
 6010SOL     OW29662   3.479   2.865   5.826  0.0688  0.2873 -0.0982
 6010SOL    HW129663   3.436   2.884   5.909  0.0271  2.9330 -0.7278
 6010SOL    HW229664   3.566   2.899   5.843 -0.7034  3.1678 -1.7488
 6011SOL     OW29665   2.495   4.130   4.288 -0.2393  0.1227 -0.1868
 6011SOL    HW129666   2.514   4.096   4.376  1.7044  3.5162  0.6933
 6011SOL    HW229667   2.564   4.191   4.263 -0.3740  0.4359  0.2008
 6012SOL     OW29668   1.262   1.407   6.431 -0.2829  0.6439 -0.1222
 6012SOL    HW129669   1.280   1.321   6.392  0.8667  0.7671  0.1345
 6012SOL    HW229670   1.187   1.440   6.382 -0.6820 -1.0249 -0.6348
 6013SOL     OW29671   1.405   2.697  17.181 -0.2429  0.0144  0.0362
 6013SOL    HW129672   1.396   2.617  17.234 -0.1417 -1.1197 -1.6795
 6013SOL    HW229673   1.471   2.676  17.116 -1.5534 -0.8972 -0.9832
 6014SOL     OW29674   0.562   2.220   3.427  0.1878 -0.0998 -0.5866
 6014SOL    HW129675   0.543   2.268   3.507  0.6033 -0.1940 -0.4305
 6014SOL    HW229676   0.607   2.145   3.468 -0.7075  1.0319  2.4082
 6015SOL     OW29677   2.068   2.747  10.774  0.0615 -0.4081  0.2032
 6015SOL    HW129678   2.082   2.713  10.685  0.6640 -0.7655  0.4345
 6015SOL    HW229679   2.100   2.668  10.818  1.6105 -0.1453 -0.4344
 6016SOL     OW29680   1.174   4.307   7.957 -0.3251  0.5156 -0.2595
 6016SOL    HW129681   1.216   4.379   8.005  1.4026 -1.5509  1.2863
 6016SOL    HW229682   1.115   4.263   8.018 -0.0865  1.6803  0.8197
 6017SOL     OW29683   0.819   0.889   8.249 -0.0762 -0.6348 -0.1335
 6017SOL    HW129684   0.867   0.863   8.171 -1.5530  0.6970 -1.4806
 6017SOL    HW229685   0.731   0.860   8.228 -1.0667  1.6706  0.8145
 6018SOL     OW29686   3.924   4.496   5.196  0.1547  0.1843 -0.2787
 6018SOL    HW129687   3.927   4.414   5.147  1.4681  0.5502 -0.8078
 6018SOL    HW229688   4.003   4.537   5.160  0.3095 -1.0627 -1.3698
 6019SOL     OW29689   0.986   1.528  11.819  0.2977  0.6242 -0.4520
 6019SOL    HW129690   1.016   1.437  11.819  1.1092  0.8902 -2.2587
 6019SOL    HW229691   1.007   1.556  11.908 -1.7010 -1.2172  0.6091
 6020SOL     OW29692   1.797   2.868   3.487 -0.1460  0.4235  0.1914
 6020SOL    HW129693   1.774   2.957   3.516 -0.1224  0.5402 -0.1463
 6020SOL    HW229694   1.761   2.810   3.555 -1.4637  0.6184 -0.3377
 6021SOL     OW29695   1.604   3.204  14.541 -0.5450  0.8401  0.3708
 6021SOL    HW129696   1.528   3.262  14.545 -1.3167 -0.1176 -0.4800
 6021SOL    HW229697   1.654   3.237  14.616 -0.7188  2.4301 -0.2317
 6022SOL     OW29698   2.212   1.802  10.740 -0.1044 -0.6636  0.1000
 6022SOL    HW129699   2.226   1.784  10.647  3.1799  0.6355  0.3391
 6022SOL    HW229700   2.303   1.781  10.761  0.3420  0.9603 -0.2086
 6023SOL     OW29701   2.055   2.679  14.003  0.4088  0.6395  0.3060
 6023SOL    HW129702   2.092   2.604  13.958  0.0077  0.7299 -0.1797
 6023SOL    HW229703   2.032   2.649  14.091  0.2719  2.4869  0.9128
 6024SOL     OW29704   1.960   1.182   5.305  0.6146  0.0802 -0.5772
 6024SOL    HW129705   2.047   1.163   5.338  0.0981 -1.7701 -0.2692
 6024SOL    HW229706   1.930   1.253   5.361  0.9407  0.4551 -0.8768
 6025SOL     OW29707   2.619   2.084   7.339 -0.3085 -0.0733 -0.2239
 6025SOL    HW129708   2.655   2.152   7.396  0.0918  0.6752 -1.3637
 6025SOL    HW229709   2.697   2.034   7.316 -0.1768  0.3473 -0.7018
 6026SOL     OW29710   4.594   2.584   5.097 -0.3294 -0.3016 -0.3171
 6026SOL    HW129711   4.667   2.600   5.156 -0.3639 -0.0254 -0.3489
 6026SOL    HW229712   4.638   2.579   5.012  1.0302 -0.4761  0.3983
 6027SOL     OW29713   1.056   0.196  17.695 -0.2739 -0.2740  0.2349
 6027SOL    HW129714   0.967   0.198  17.730 -0.8956 -0.9705 -1.3196
 6027SOL    HW229715   1.040   0.219  17.603  1.7914 -0.2851 -0.1248
 6028SOL     OW29716   2.305   1.916  14.175  0.0567  0.0116 -0.2773
 6028SOL    HW129717   2.387   1.961  14.193  0.0579 -0.3138  0.5258
 6028SOL    HW229718   2.337   1.868  14.098 -1.4771 -0.7925 -0.4211
 6029SOL     OW29719   2.969   4.573  10.490 -0.8492  0.5711 -0.6097
 6029SOL    HW129720   3.040   4.511  10.510  0.7757  1.9637 -2.1043
 6029SOL    HW229721   3.017   4.655  10.492  1.2766 -0.6947  0.3364
 6030SOL     OW29722   4.247   1.311   7.158  0.6939 -0.6117 -0.1461
 6030SOL    HW129723   4.319   1.257   7.190  1.8865  1.3754  0.5573
 6030SOL    HW229724   4.230   1.267   7.075  0.0727  1.8402 -1.3220
 6031SOL     OW29725   1.193   0.920   7.017 -0.2310 -0.3458 -0.1501
 6031SOL    HW129726   1.246   0.847   6.986  0.0937 -0.6655  1.1334
 6031SOL    HW229727   1.177   0.886   7.105  0.6946 -1.3554 -0.3787
 6032SOL     OW29728   0.399   2.491   0.944  0.0427  0.8438  0.3515
 6032SOL    HW129729   0.347   2.516   1.019  1.2057  1.3489  0.9958
 6032SOL    HW229730   0.419   2.577   0.907  0.0980  0.6048 -0.1793
 6033SOL     OW29731   0.756   4.686   0.420 -0.2551 -0.0877  0.2952
 6033SOL    HW129732   0.769   4.592   0.416 -0.2628  0.0384 -2.5046
 6033SOL    HW229733   0.846   4.714   0.436 -0.2321  0.9397 -1.5603
 6034SOL     OW29734   0.299   0.945   5.012  0.1032 -0.5705 -0.4266
 6034SOL    HW129735   0.348   1.019   4.976 -0.5880 -0.2457 -0.6980
 6034SOL    HW229736   0.256   0.985   5.088 -0.0408 -0.2117 -0.6950
 6035SOL     OW29737   3.423   3.299  13.983 -0.1251 -0.0254  0.2124
 6035SOL    HW129738   3.489   3.242  14.024  0.0918 -0.0466 -0.1598
 6035SOL    HW229739   3.421   3.376  14.039  0.8849 -0.0101  0.2364
 6036SOL     OW29740   2.525   1.622  11.039  0.0585 -0.1116  0.2524
 6036SOL    HW129741   2.430   1.635  11.035  0.1370  0.2252 -0.5803
 6036SOL    HW229742   2.522   1.526  11.045  3.8541 -0.1812  0.9992
 6037SOL     OW29743   2.635   2.656   0.055  0.5937 -0.1604 -0.1480
 6037SOL    HW129744   2.704   2.641  17.739  1.3244 -1.4285  0.9490
 6037SOL    HW229745   2.630   2.752   0.060  1.0990 -0.1967  1.1057
 6038SOL     OW29746   0.564   0.151  10.408  0.0908  0.2171 -0.1416
 6038SOL    HW129747   0.646   0.118  10.444 -0.5821 -0.5112  0.7353
 6038SOL    HW229748   0.587   0.239  10.378 -1.6987  1.2213  1.4414
 6039SOL     OW29749   2.135   2.373   2.886  0.5378 -0.3094 -0.4183
 6039SOL    HW129750   2.180   2.431   2.949 -0.3412 -1.6876  1.4751
 6039SOL    HW229751   2.043   2.374   2.911  0.8054 -0.7905  0.6040
 6040SOL     OW29752   1.798   2.670   3.705 -0.1705 -0.2197 -0.8897
 6040SOL    HW129753   1.858   2.633   3.769 -0.6470  1.6149  0.6028
 6040SOL    HW229754   1.724   2.706   3.754 -0.2194 -0.4557 -0.7908
 6041SOL     OW29755   0.898   3.260  10.705 -0.1064 -0.8283  0.0509
 6041SOL    HW129756   0.963   3.295  10.766  0.0476 -0.8127 -0.1195
 6041SOL    HW229757   0.929   3.303  10.625  2.1327 -1.3541  0.6172
 6042SOL     OW29758   0.271   2.189  14.594  0.0800  0.4348  0.5335
 6042SOL    HW129759   0.230   2.108  14.624  0.2678 -0.0640 -0.5529
 6042SOL    HW229760   0.313   2.202  14.678  0.0577 -1.9927  0.9239
 6043SOL     OW29761   0.509   1.727   5.315  0.4801 -0.5759  0.1806
 6043SOL    HW129762   0.584   1.782   5.333 -1.0612  1.9802 -1.1893
 6043SOL    HW229763   0.430   1.781   5.310  0.7151 -0.1409  1.2469
 6044SOL     OW29764   3.212   2.450   4.678  0.8124 -0.2265  0.0518
 6044SOL    HW129765   3.295   2.406   4.696  0.9731  0.6052  1.3466
 6044SOL    HW229766   3.207   2.443   4.582  1.4678  1.4191 -0.1060
 6045SOL     OW29767   2.909   4.081   1.937  0.0496 -0.8849  0.1795
 6045SOL    HW129768   2.951   4.097   2.021 -2.2409 -3.4413  1.7939
 6045SOL    HW229769   2.972   4.018   1.903  0.3447  0.7060 -2.2851
 6046SOL     OW29770   2.920   4.103  11.254  0.4439 -0.1979  0.2084
 6046SOL    HW129771   2.846   4.163  11.260 -1.5731 -2.5252 -1.6487
 6046SOL    HW229772   2.997   4.160  11.253  0.6384 -0.4941 -0.9043
 6047SOL     OW29773   0.406   2.502  12.517 -0.1333 -0.1158 -0.1620
 6047SOL    HW129774   0.315   2.530  12.522  0.5681  2.6250 -2.8786
 6047SOL    HW229775   0.409   2.457  12.432  1.1445 -1.0547  0.3868
 6048SOL     OW29776   4.583   1.425   0.175  1.2635 -1.0726 -0.3723
 6048SOL    HW129777   4.503   1.376   0.194  1.2229  0.2188  2.8947
 6048SOL    HW229778   4.589   1.436   0.081  0.2497 -2.3693 -0.5969
 6049SOL     OW29779   0.480   2.118   0.280  0.6317  0.0600 -0.3718
 6049SOL    HW129780   0.406   2.128   0.220 -1.8741  1.6918  3.0515
 6049SOL    HW229781   0.451   2.174   0.351  1.7922 -1.5698  1.3858
 6050SOL     OW29782   3.890   4.006   1.700 -0.8058 -0.1855  0.0507
 6050SOL    HW129783   3.848   3.962   1.774  0.9674  0.3648  1.3690
 6050SOL    HW229784   3.816   3.997   1.640 -1.7288  0.9108  1.0190
 6051SOL     OW29785   1.435   1.959  11.348  0.4144 -0.1026 -0.0326
 6051SOL    HW129786   1.369   1.907  11.393 -0.1103 -0.4125 -1.1652
 6051SOL    HW229787   1.466   2.014  11.421  1.3821  0.9545 -1.2395
 6052SOL     OW29788   1.925   2.619   4.144 -0.0912  0.6110  0.7608
 6052SOL    HW129789   2.012   2.652   4.121 -1.2795  0.7879 -3.4377
 6052SOL    HW229790   1.901   2.661   4.226  0.5353 -2.4035  2.5015
 6053SOL     OW29791   2.085   3.330   9.937  0.1106  0.1081  0.0318
 6053SOL    HW129792   2.179   3.347   9.937  0.0368  0.5921 -1.9350
 6053SOL    HW229793   2.085   3.252   9.992  2.3654  0.2329  0.2019
 6054SOL     OW29794   2.498   2.094   8.148  0.3299 -0.0244  1.0454
 6054SOL    HW129795   2.494   2.074   8.054  2.1631 -0.7783  1.1257
 6054SOL    HW229796   2.563   2.164   8.149  0.6270 -0.2435 -2.2157
 6055SOL     OW29797   0.778   3.982   9.611 -0.3514 -0.2715  0.0264
 6055SOL    HW129798   0.815   4.067   9.584  0.5150 -0.2781  1.1843
 6055SOL    HW229799   0.824   3.969   9.694 -2.2992  3.9142  1.7976
 6056SOL     OW29800   3.004   2.004   2.366 -0.0985  0.0962  0.0996
 6056SOL    HW129801   3.002   1.909   2.362 -0.6842  0.0453  1.3154
 6056SOL    HW229802   3.078   2.024   2.424 -1.3876  3.4831  0.6173
 6057SOL     OW29803   2.507   0.131   8.219 -0.2913 -0.0955  0.5785
 6057SOL    HW129804   2.442   0.065   8.194  1.3193 -0.8113 -1.7157
 6057SOL    HW229805   2.457   0.212   8.228  0.3756  0.2457  1.2291
 6058SOL     OW29806   1.585   3.855   8.092  0.5219 -0.5930  0.1490
 6058SOL    HW129807   1.608   3.786   8.029 -1.1082 -1.1586  0.1636
 6058SOL    HW229808   1.491   3.863   8.075  0.6798 -0.2924 -0.5701
 6059SOL     OW29809   3.666   1.438   6.209 -0.1113  0.2031 -0.7900
 6059SOL    HW129810   3.748   1.398   6.237 -0.7621 -0.3000  0.3718
 6059SOL    HW229811   3.692   1.530   6.206 -0.6483  0.3471 -1.0345
 6060SOL     OW29812   3.195   4.489   8.155  0.2907 -0.3539  0.2880
 6060SOL    HW129813   3.287   4.514   8.160  0.5662 -1.6505  1.5690
 6060SOL    HW229814   3.153   4.572   8.178 -0.9393 -0.6435 -0.9273
 6061SOL     OW29815   3.547   1.048   6.021  0.4474 -0.2415 -0.2309
 6061SOL    HW129816   3.536   1.131   6.066 -1.9282 -0.4746 -0.4037
 6061SOL    HW229817   3.579   1.081   5.937 -0.1130  1.4041  0.2034
 6062SOL     OW29818   1.846   3.491   2.511 -0.1505 -0.0256  0.0807
 6062SOL    HW129819   1.813   3.544   2.439  0.4618  1.8364  1.1807
 6062SOL    HW229820   1.844   3.402   2.475 -2.4237 -0.1980  0.6379
 6063SOL     OW29821   4.193   1.387   8.315  0.4802 -0.0657  0.7085
 6063SOL    HW129822   4.269   1.343   8.354  0.4678  0.9730  1.9296
 6063SOL    HW229823   4.172   1.340   8.235  1.4318  1.2825 -0.3368
 6064SOL     OW29824   0.430   3.510   8.991  0.6626 -0.3065 -0.5453
 6064SOL    HW129825   0.514   3.464   8.998  0.3643 -0.6776  0.6276
 6064SOL    HW229826   0.455   3.598   9.021  0.7375 -0.7477  0.7041
 6065SOL     OW29827   1.369   2.174   9.148 -0.6349  0.3377  0.0583
 6065SOL    HW129828   1.444   2.230   9.170 -0.6551  0.0862  0.7625
 6065SOL    HW229829   1.401   2.114   9.080 -0.9396  0.7826 -0.4859
 6066SOL     OW29830   1.537   3.346   7.244  0.3248  0.4453  0.0809
 6066SOL    HW129831   1.575   3.431   7.266  0.2218  0.3849  0.4745
 6066SOL    HW229832   1.535   3.311   7.332  0.9485  0.8769  0.2715
 6067SOL     OW29833   4.532   2.426   4.267 -0.3002 -0.4590 -0.2490
 6067SOL    HW129834   4.584   2.373   4.205  0.1547 -0.3585  0.0454
 6067SOL    HW229835   4.583   2.507   4.272  0.6402 -1.0616 -0.0905
 6068SOL     OW29836   4.653   3.233   2.795  0.4234  0.3573  0.0076
 6068SOL    HW129837   4.603   3.275   2.725 -1.3768  0.8804  1.5937
 6068SOL    HW229838   4.602   3.151   2.797  0.4039  0.3803  0.7032
 6069SOL     OW29839   3.403   4.156   2.988 -0.0149 -0.4334 -0.4211
 6069SOL    HW129840   3.417   4.109   3.071 -0.4025 -0.0872 -0.1592
 6069SOL    HW229841   3.490   4.184   2.961 -0.9482  1.7991 -1.0952
 6070SOL     OW29842   4.221   1.913   0.070 -0.0965  0.0955 -0.0367
 6070SOL    HW129843   4.131   1.890   0.092  0.8111 -1.1445  2.3429
 6070SOL    HW229844   4.253   1.964   0.144  1.4616  0.2931 -0.8466
 6071SOL     OW29845   2.825   3.596   5.230 -0.2856  0.3783  0.4108
 6071SOL    HW129846   2.831   3.556   5.317 -4.3471 -1.3485 -0.1282
 6071SOL    HW229847   2.824   3.690   5.249 -1.8457  0.2052  1.2042
 6072SOL     OW29848   2.391   3.915  11.524 -0.2788  0.8412  0.9147
 6072SOL    HW129849   2.373   4.006  11.550  1.4325  0.8813  1.9056
 6072SOL    HW229850   2.393   3.873  11.610 -1.9544  0.8932  0.9884
 6073SOL     OW29851   4.131   1.768  16.599 -0.6755  0.2519  0.2055
 6073SOL    HW129852   4.046   1.726  16.590  0.5421 -1.7430 -2.0421
 6073SOL    HW229853   4.135   1.793  16.691  0.3978 -0.5758  0.3847
 6074SOL     OW29854   3.747   2.296   9.184  0.1166 -0.1154 -0.2562
 6074SOL    HW129855   3.757   2.264   9.094 -0.4491  0.7049 -0.6167
 6074SOL    HW229856   3.812   2.366   9.190 -1.1813  1.0055  0.7491
 6075SOL     OW29857   0.026   4.609   4.652 -0.1887  0.4332  0.2313
 6075SOL    HW129858   0.015   4.516   4.669 -0.0408  0.7701  2.1941
 6075SOL    HW229859   4.680   4.651   4.673 -1.3019 -2.2093  1.1158
 6076SOL     OW29860   3.845   1.054   8.165 -0.0829 -0.0751 -0.1365
 6076SOL    HW129861   3.821   1.137   8.123  4.1331  0.7912 -0.8272
 6076SOL    HW229862   3.937   1.073   8.181  0.8657 -3.7118 -1.3301
 6077SOL     OW29863   4.425   2.467   3.713  0.3010  0.9043  0.3558
 6077SOL    HW129864   4.454   2.540   3.658 -1.9821  2.3679  1.0944
 6077SOL    HW229865   4.340   2.498   3.745 -0.7207 -1.2762 -0.2835
 6078SOL     OW29866   1.206   0.307  15.630  0.2056  0.2191  0.3758
 6078SOL    HW129867   1.265   0.242  15.670  3.2885  2.4337 -0.5152
 6078SOL    HW229868   1.272   0.372  15.606 -1.2786  0.9467 -1.6909
 6079SOL     OW29869   4.183   2.166   0.752 -0.0094 -0.3550 -0.1062
 6079SOL    HW129870   4.103   2.166   0.806  1.9707  2.7553  2.8143
 6079SOL    HW229871   4.223   2.103   0.812 -0.0623 -1.7382 -1.5443
 6080SOL     OW29872   0.968   2.776   9.118  0.3185 -0.0763 -0.5485
 6080SOL    HW129873   0.991   2.845   9.055 -0.7666  1.6210  0.9257
 6080SOL    HW229874   1.009   2.706   9.068 -1.3627 -0.9002 -0.7349
 6081SOL     OW29875   4.454   2.602   9.047 -0.2743 -0.3187 -0.2548
 6081SOL    HW129876   4.546   2.580   9.029  0.1173  0.4896  0.7523
 6081SOL    HW229877   4.442   2.688   9.008 -1.6002 -0.0986  0.6464
 6082SOL     OW29878   4.196   2.246   6.938 -0.3240  0.2270 -0.0207
 6082SOL    HW129879   4.236   2.161   6.955 -1.1802 -0.1512  0.1095
 6082SOL    HW229880   4.237   2.277   6.857 -0.0665  0.2868  0.1338
 6083SOL     OW29881   1.494   0.324   5.866  0.0771  0.4718  0.2309
 6083SOL    HW129882   1.415   0.355   5.823  0.6581  1.1812 -0.3346
 6083SOL    HW229883   1.451   0.255   5.916 -1.3017  1.1923  0.0364
 6084SOL     OW29884   0.880   0.854   4.257 -0.6343  0.2137 -0.6223
 6084SOL    HW129885   0.842   0.864   4.344  2.7993 -1.6128  1.1132
 6084SOL    HW229886   0.971   0.850   4.285 -0.5143  0.4992 -0.9783
 6085SOL     OW29887   4.522   1.166   0.472 -0.0368 -0.1616 -0.1650
 6085SOL    HW129888   4.580   1.188   0.399 -0.1072 -1.2050 -0.5446
 6085SOL    HW229889   4.576   1.102   0.519 -0.4887 -0.9836 -0.7624
 6086SOL     OW29890   3.602   1.794   9.845  0.0287 -0.7414 -0.8129
 6086SOL    HW129891   3.533   1.746   9.890  2.7436 -1.5567  2.4433
 6086SOL    HW229892   3.676   1.763   9.898 -0.6865  1.9232  1.7317
 6087SOL     OW29893   4.045   0.237   1.420 -0.5808  0.6545  0.8857
 6087SOL    HW129894   4.134   0.229   1.455  0.7614  1.4598 -2.3637
 6087SOL    HW229895   4.032   0.161   1.362  0.2932 -0.6517  2.3941
 6088SOL     OW29896   3.001   1.010   2.242 -0.6419 -0.4206 -0.1802
 6088SOL    HW129897   2.954   0.947   2.187 -2.5281  1.4080 -0.6643
 6088SOL    HW229898   3.089   1.003   2.205  0.9161 -0.1447  3.5125
 6089SOL     OW29899   3.219   0.318   3.611 -0.1732  0.1791  0.3334
 6089SOL    HW129900   3.174   0.388   3.563  1.6405  0.9165 -0.2723
 6089SOL    HW229901   3.197   0.349   3.698  2.6112 -2.3506  1.9118
 6090SOL     OW29902   4.227   0.593   4.520 -0.1945 -0.2260 -0.3064
 6090SOL    HW129903   4.250   0.636   4.437 -1.0770 -0.1859 -0.5223
 6090SOL    HW229904   4.160   0.651   4.557 -0.9814 -1.3030 -0.0610
 6091SOL     OW29905   0.875   3.347   2.690  0.4410  0.4633 -0.1682
 6091SOL    HW129906   0.841   3.285   2.753 -0.4204  0.7115 -0.3914
 6091SOL    HW229907   0.875   3.316   2.599 -0.1721 -0.1698  0.0570
 6092SOL     OW29908   0.440   3.990   5.309 -0.5995 -0.3680 -0.2178
 6092SOL    HW129909   0.459   4.061   5.247  0.3694  0.0915  0.5923
 6092SOL    HW229910   0.523   3.943   5.298 -1.4397 -2.2676  1.5542
 6093SOL     OW29911   3.067   1.805   6.194  0.3994 -0.1873  0.0519
 6093SOL    HW129912   2.993   1.753   6.164 -0.0769  1.3978 -1.4933
 6093SOL    HW229913   3.028   1.879   6.240 -2.4080 -1.9504  0.4907
 6094SOL     OW29914   1.942   4.100  17.159  0.6603  0.0526  0.1747
 6094SOL    HW129915   1.864   4.125  17.209  1.6256  0.9376  1.2387
 6094SOL    HW229916   1.998   4.177  17.173  0.3344  0.0860  1.3230
 6095SOL     OW29917   2.283   4.736   8.250 -0.2434 -0.2466  0.8107
 6095SOL    HW129918   2.218   4.735   8.320 -0.9756  2.0478  0.1810
 6095SOL    HW229919   2.304   4.646   8.225  0.5486  0.2742 -0.3937
 6096SOL     OW29920   3.969   1.576   4.378  0.5249 -0.5920 -0.0632
 6096SOL    HW129921   4.052   1.597   4.335  0.7028 -1.3381 -0.0800
 6096SOL    HW229922   3.924   1.508   4.328  0.2404 -0.8334  0.5164
 6097SOL     OW29923   4.628   2.044  13.943  0.3756  0.0884  0.5319
 6097SOL    HW129924   4.577   2.025  14.022 -2.9217  0.5069 -1.4973
 6097SOL    HW229925   4.572   2.107  13.898  0.0832 -0.1486  0.5652
 6098SOL     OW29926   0.845   3.382   9.759 -0.5199  0.6108 -0.1784
 6098SOL    HW129927   0.861   3.336   9.842 -0.3093  0.6013 -0.2228
 6098SOL    HW229928   0.856   3.314   9.692 -0.5379 -1.9419  2.3758
 6099SOL     OW29929   2.179   3.567   7.645  0.0562 -1.3424  0.1173
 6099SOL    HW129930   2.211   3.647   7.603 -2.1745  0.2717  1.4981
 6099SOL    HW229931   2.086   3.591   7.651  0.4188 -0.1564  0.8793
 6100SOL     OW29932   3.806   0.078   3.223 -0.4338 -0.0916 -0.4486
 6100SOL    HW129933   3.734   0.024   3.190 -1.2762  0.8224 -0.1090
 6100SOL    HW229934   3.883   0.022   3.217 -0.0007  0.6176 -1.4131
 6101SOL     OW29935   2.949   2.169   2.845  0.0774 -0.4175 -0.0433
 6101SOL    HW129936   2.903   2.118   2.778 -0.6640  0.3710 -0.1392
 6101SOL    HW229937   2.926   2.262   2.839 -2.0463 -0.8030  1.9735
 6102SOL     OW29938   3.887   3.055   3.339  0.0407 -0.0857  0.1799
 6102SOL    HW129939   3.829   3.114   3.291  0.7315  0.0039 -0.5378
 6102SOL    HW229940   3.953   3.114   3.375 -0.8142  2.1243 -1.9227
 6103SOL     OW29941   1.170   1.893   7.393  0.4826  0.8577  0.1970
 6103SOL    HW129942   1.177   1.904   7.488 -0.8841  3.0506  0.0638
 6103SOL    HW229943   1.074   1.889   7.391  0.6053 -2.3066  0.6349
 6104SOL     OW29944   2.216   2.431   2.584 -0.0854  0.4466 -0.1018
 6104SOL    HW129945   2.213   2.385   2.668 -0.3537 -1.3402 -1.1126
 6104SOL    HW229946   2.232   2.519   2.620  0.4887 -0.0885  0.9281
 6105SOL     OW29947   1.292   0.872   5.227 -0.1953 -0.6182 -0.4483
 6105SOL    HW129948   1.258   0.787   5.200  2.0037 -1.1851 -1.4532
 6105SOL    HW229949   1.345   0.889   5.149  0.1042  0.5118  0.0040
 6106SOL     OW29950   1.716   3.356   8.328  0.5138 -0.2440  0.0730
 6106SOL    HW129951   1.645   3.291   8.325  0.3772 -0.0981  0.1631
 6106SOL    HW229952   1.681   3.410   8.399 -1.2560 -0.1697 -0.8482
 6107SOL     OW29953   0.810   3.170   3.482 -0.4734  0.2138 -0.1367
 6107SOL    HW129954   0.774   3.177   3.394  1.5223  0.4467 -0.9354
 6107SOL    HW229955   0.819   3.263   3.505  1.4845  0.3303 -1.3946
 6108SOL     OW29956   1.486   1.602   6.598 -0.8908  0.2102 -0.5221
 6108SOL    HW129957   1.441   1.684   6.619 -0.5851  0.1697  0.2724
 6108SOL    HW229958   1.440   1.548   6.662 -1.7248  0.2641 -1.0701
 6109SOL     OW29959   3.838   0.262   9.145  0.2631  0.1349 -0.1369
 6109SOL    HW129960   3.851   0.357   9.143  0.2766  0.1583  0.7273
 6109SOL    HW229961   3.811   0.252   9.054  1.0098 -1.8208 -0.1484
 6110SOL     OW29962   0.531   2.573   6.275  0.4769  0.2709 -0.1895
 6110SOL    HW129963   0.608   2.560   6.330 -0.0968  0.0315  0.5687
 6110SOL    HW229964   0.476   2.632   6.326  1.6807  0.9969  0.2532
 6111SOL     OW29965   3.042   0.486   6.185 -0.1806  0.3535  0.0069
 6111SOL    HW129966   2.991   0.460   6.108  3.4912 -1.2632 -1.9114
 6111SOL    HW229967   3.088   0.405   6.206  0.1537  0.4306 -0.4385
 6112SOL     OW29968   3.926   2.282  11.608  0.1051 -0.1269  0.6843
 6112SOL    HW129969   3.967   2.270  11.693  2.1094  0.6418 -0.1618
 6112SOL    HW229970   3.976   2.235  11.542 -0.4424 -0.5584  0.5797
 6113SOL     OW29971   2.871   2.330   3.103 -0.0149 -0.1027 -0.4047
 6113SOL    HW129972   2.879   2.372   3.018 -1.9040 -0.1195 -0.5925
 6113SOL    HW229973   2.791   2.279   3.090  0.2392 -0.5022 -0.4021
 6114SOL     OW29974   3.594   1.333  14.789 -0.2712 -0.5778  0.5182
 6114SOL    HW129975   3.526   1.267  14.776 -1.0485  0.6186 -1.6078
 6114SOL    HW229976   3.543   1.414  14.784  0.0636 -0.3102  1.4184
 6115SOL     OW29977   4.209   1.114  10.833 -0.7919  0.7947  0.3582
 6115SOL    HW129978   4.123   1.079  10.859 -1.4676  2.8139  0.8398
 6115SOL    HW229979   4.262   1.123  10.912 -0.3842 -1.0153  0.2959
 6116SOL     OW29980   0.981   1.219   9.340  0.4931  0.6331 -0.0894
 6116SOL    HW129981   0.989   1.140   9.394  3.1315  1.4215  0.6710
 6116SOL    HW229982   1.059   1.220   9.284  1.1917  3.0463  0.9130
 6117SOL     OW29983   4.484   3.129  12.366  0.0718 -0.1669  0.5803
 6117SOL    HW129984   4.554   3.080  12.322 -0.8050 -2.0291  1.2370
 6117SOL    HW229985   4.410   3.105  12.309 -0.8587 -0.1864  1.8033
 6118SOL     OW29986   3.017   3.119  11.526 -0.6593  0.5865 -0.6212
 6118SOL    HW129987   3.021   3.105  11.621 -1.0554 -3.7429 -1.2227
 6118SOL    HW229988   3.096   3.169  11.507  1.3229 -1.0327  3.3146
 6119SOL     OW29989   1.689   4.669   0.929  0.3414  0.1541 -0.2702
 6119SOL    HW129990   1.684   0.025   0.949 -1.9057  0.2366 -1.2725
 6119SOL    HW229991   1.699   4.631   1.017  2.7464  0.4238 -0.4356
 6120SOL     OW29992   3.260   0.393   4.134  0.4624 -0.2152  0.6087
 6120SOL    HW129993   3.233   0.474   4.178 -3.8650 -3.4448  3.7704
 6120SOL    HW229994   3.328   0.369   4.197  0.7867  3.1355  1.5632
 6121SOL     OW29995   2.358   1.608   4.945 -0.7090 -0.0907  0.3313
 6121SOL    HW129996   2.380   1.666   4.872 -1.5535 -0.3249 -0.1079
 6121SOL    HW229997   2.436   1.554   4.946 -1.1943 -0.7834  1.1434
 6122SOL     OW29998   4.489   2.469   6.943  0.7498 -0.4619 -0.6219
 6122SOL    HW129999   4.410   2.483   6.994  1.4176 -0.4738  0.4257
 6122SOL    HW230000   4.467   2.392   6.890 -0.0337 -0.1670 -0.7219
 6123SOL     OW30001   2.861   4.362   5.468  0.1702 -0.1258  0.2792
 6123SOL    HW130002   2.813   4.440   5.497 -0.1547 -0.8943  1.8499
 6123SOL    HW230003   2.788   4.302   5.450 -0.8795  0.9636  0.9093
 6124SOL     OW30004   2.619   3.010   7.660  0.2143 -0.2755 -0.0034
 6124SOL    HW130005   2.648   3.076   7.722  2.4025  0.8466 -2.1884
 6124SOL    HW230006   2.671   3.030   7.582  0.3254 -2.4364 -0.4856
 6125SOL     OW30007   0.225   1.468   2.235 -0.6817 -0.0319 -0.2021
 6125SOL    HW130008   0.319   1.450   2.247 -0.9763 -0.1695  1.8949
 6125SOL    HW230009   0.192   1.383   2.208  1.5718 -0.8803 -0.2681
 6126SOL     OW30010   1.854   1.816   4.486 -1.1037  0.5122  0.3480
 6126SOL    HW130011   1.860   1.911   4.475  1.0268  0.3368 -0.1743
 6126SOL    HW230012   1.935   1.791   4.441 -0.1821  0.5626  1.9804
 6127SOL     OW30013   4.096   4.263  13.411 -0.3356 -0.2538  0.3886
 6127SOL    HW130014   4.059   4.284  13.496 -0.7295 -1.0808  0.4192
 6127SOL    HW230015   4.058   4.176  13.399 -0.4726 -0.1533  0.0943
 6128SOL     OW30016   1.438   3.891   7.142  0.0230 -0.6780 -0.0052
 6128SOL    HW130017   1.410   3.816   7.194 -2.8469 -0.7242 -1.6254
 6128SOL    HW230018   1.352   3.910   7.106  0.4720  1.4469  0.0223
 6129SOL     OW30019   3.196   4.414   1.456  0.1652  0.0284 -0.3818
 6129SOL    HW130020   3.128   4.374   1.402  0.6370 -1.3230  0.0334
 6129SOL    HW230021   3.183   4.366   1.537  0.0586 -0.4264 -0.6687
 6130SOL     OW30022   0.560   3.592   4.176 -0.0018  0.2765  0.2911
 6130SOL    HW130023   0.491   3.527   4.188  0.1944 -0.0784 -0.4699
 6130SOL    HW230024   0.635   3.554   4.129 -0.2718 -0.0684  0.1405
 6131SOL     OW30025   1.989   2.887   3.281  0.3897  0.3593  0.0209
 6131SOL    HW130026   1.965   2.980   3.282  1.7835  0.7048  2.0465
 6131SOL    HW230027   1.922   2.853   3.340 -2.4249  3.2164 -1.5511
 6132SOL     OW30028   3.602   0.504   8.997 -0.7232  0.6422  0.3575
 6132SOL    HW130029   3.655   0.501   9.076 -0.8658  1.5378  0.4797
 6132SOL    HW230030   3.622   0.583   8.948 -1.1550 -0.7759 -2.1286
 6133SOL     OW30031   2.154   0.002   7.347 -0.3564  0.0217 -0.2106
 6133SOL    HW130032   2.162   0.096   7.362 -0.3026  0.3040 -1.9620
 6133SOL    HW230033   2.058   0.001   7.340 -0.2895 -1.6650 -0.9119
 6134SOL     OW30034   3.865   4.399   8.186  0.3559  0.1714 -0.1330
 6134SOL    HW130035   3.864   4.349   8.269  0.7917 -1.0603 -0.8610
 6134SOL    HW230036   3.771   4.404   8.170  0.7615  2.6044 -1.6516
 6135SOL     OW30037   1.900   3.676  15.617 -0.2354  0.0626 -0.7778
 6135SOL    HW130038   1.869   3.646  15.531  0.7966 -1.4251 -0.6184
 6135SOL    HW230039   1.992   3.649  15.618 -0.9241 -2.2702 -1.2697
 6136SOL     OW30040   3.050   0.437   2.289  0.3456 -0.2655 -0.1055
 6136SOL    HW130041   3.070   0.506   2.226 -1.1251  0.8004  0.5973
 6136SOL    HW230042   3.122   0.453   2.351  0.8234  0.2537 -0.7919
 6137SOL     OW30043   2.179   3.659  11.938  0.3187 -0.1190  0.3120
 6137SOL    HW130044   2.165   3.725  11.870 -3.5791 -0.3090  0.9136
 6137SOL    HW230045   2.137   3.691  12.018 -3.3643 -0.5854 -1.4538
 6138SOL     OW30046   3.063   3.943   3.980  0.2960  0.8058 -0.0729
 6138SOL    HW130047   3.068   3.934   3.885  1.2820 -2.1251  0.2665
 6138SOL    HW230048   3.072   3.853   4.010 -0.1168  1.1705  1.1795
 6139SOL     OW30049   4.063   3.387   2.569 -0.0914 -0.4502 -0.5920
 6139SOL    HW130050   4.146   3.433   2.559 -0.4497  0.0723 -1.2217
 6139SOL    HW230051   4.006   3.460   2.594  0.2596 -0.9663  1.6757
 6140SOL     OW30052   1.405   2.270   2.880  0.3748  0.1588 -0.4707
 6140SOL    HW130053   1.455   2.299   2.956  1.7728  0.2694 -1.4145
 6140SOL    HW230054   1.435   2.181   2.858 -0.0152  0.6969 -3.1728
 6141SOL     OW30055   0.843   4.069   3.307 -0.1277  0.5429 -0.0283
 6141SOL    HW130056   0.841   4.141   3.244 -0.4946  1.4138  0.9894
 6141SOL    HW230057   0.776   4.010   3.273  0.7690  0.6333 -1.9561
 6142SOL     OW30058   2.803   3.893  16.406  0.5226  0.6625 -0.2850
 6142SOL    HW130059   2.893   3.868  16.387  0.2057 -0.2363 -0.6507
 6142SOL    HW230060   2.777   3.807  16.439  1.6319  0.4361 -0.0378
 6143SOL     OW30061   1.513   0.709   6.119  0.2547 -0.5420  0.1632
 6143SOL    HW130062   1.479   0.779   6.176  0.1520  1.6906 -2.6282
 6143SOL    HW230063   1.431   0.669   6.089  1.0937 -1.3264 -1.0807
 6144SOL     OW30064   0.079   3.354   0.842 -0.6361 -0.1036  0.2901
 6144SOL    HW130065   0.007   3.395   0.794 -1.9344 -1.2570  1.2496
 6144SOL    HW230066   0.114   3.285   0.784  0.3222  1.1793 -0.6680
 6145SOL     OW30067   3.305   3.679   5.643 -0.6224  0.1773 -0.0170
 6145SOL    HW130068   3.364   3.744   5.604  0.8231 -1.5294 -0.7179
 6145SOL    HW230069   3.313   3.608   5.579  3.8413  0.5710  0.0900
 6146SOL     OW30070   1.506   1.263   5.402  0.0028 -0.5067  0.2890
 6146SOL    HW130071   1.568   1.213   5.454  0.4647 -0.8833 -0.6324
 6146SOL    HW230072   1.566   1.291   5.333 -1.1061  2.0299  0.3356
 6147SOL     OW30073   3.851   2.501   4.881  0.0208 -0.8166 -0.2422
 6147SOL    HW130074   3.857   2.501   4.786 -1.2221  0.6070 -0.3229
 6147SOL    HW230075   3.763   2.536   4.894 -0.6546 -1.7001 -2.4745
 6148SOL     OW30076   2.226   1.259  11.821  0.0511  0.1838  0.2949
 6148SOL    HW130077   2.194   1.181  11.774  2.7349 -1.4957  1.2412
 6148SOL    HW230078   2.146   1.308  11.838  2.5231  3.6273  1.8427
 6149SOL     OW30079   3.733   1.271   2.525  0.1463 -0.1331  0.9276
 6149SOL    HW130080   3.695   1.358   2.542  0.2475 -0.1781  1.3876
 6149SOL    HW230081   3.654   1.217   2.531 -0.4290  0.5158 -0.6515
 6150SOL     OW30082   1.555   1.459   6.362  0.4040 -0.0035  0.4723
 6150SOL    HW130083   1.466   1.425   6.372  0.9090 -1.5049 -0.1179
 6150SOL    HW230084   1.561   1.516   6.439  1.4495 -3.0865  2.6451
 6151SOL     OW30085   0.242   1.267   2.883 -0.4065  0.2576  0.3424
 6151SOL    HW130086   0.189   1.249   2.961 -1.7371 -0.1931 -0.6629
 6151SOL    HW230087   0.274   1.348   2.923  0.1504  0.0661  0.2845
 6152SOL     OW30088   1.147   3.098  11.624  0.1073  0.2339  0.1010
 6152SOL    HW130089   1.157   3.095  11.529  2.8901  0.1606  0.3721
 6152SOL    HW230090   1.218   3.157  11.649 -0.7195  1.5494 -0.6923
 6153SOL     OW30091   3.703   2.999   2.638  0.1459  0.0861 -0.1338
 6153SOL    HW130092   3.676   3.091   2.645  0.2410  0.3540 -3.2248
 6153SOL    HW230093   3.727   2.983   2.729  0.1018  0.5934 -0.0323
 6154SOL     OW30094   4.184   2.064   6.639 -0.1378 -0.0697 -0.0373
 6154SOL    HW130095   4.107   2.059   6.695  0.4645  0.3648  0.8305
 6154SOL    HW230096   4.220   2.152   6.648  1.3364 -0.4341 -2.4888
 6155SOL     OW30097   1.313   0.277   4.430 -0.1554 -0.5417  0.1985
 6155SOL    HW130098   1.286   0.243   4.515  0.7531  0.7937  1.0219
 6155SOL    HW230099   1.351   0.362   4.453  1.5087 -0.7062 -1.9039
 6156SOL     OW30100   0.098   3.214   3.372  0.6771  0.3378 -0.1305
 6156SOL    HW130101   0.127   3.123   3.376 -0.5772  0.0579  2.6746
 6156SOL    HW230102   0.004   3.206   3.356  0.7812 -2.1792  0.5357
 6157SOL     OW30103   2.401   3.327   8.181 -0.4291 -0.1947  0.3296
 6157SOL    HW130104   2.410   3.329   8.276  1.4852 -2.7366  0.2311
 6157SOL    HW230105   2.326   3.386   8.172  0.6020  0.9447 -0.8594
 6158SOL     OW30106   3.106   2.308   7.027  0.1562 -0.2783 -0.0326
 6158SOL    HW130107   3.152   2.363   6.964  0.4632  0.3849  0.7745
 6158SOL    HW230108   3.177   2.291   7.089  1.2471  0.9858 -0.9582
 6159SOL     OW30109   4.699   0.915  11.139  0.3469  0.4713  0.2461
 6159SOL    HW130110   4.648   0.920  11.220 -0.4470  0.1429 -0.2431
 6159SOL    HW230111   0.046   0.900  11.181  0.5445 -1.6449 -0.9160
 6160SOL     OW30112   4.437   3.154  15.231 -0.1950 -0.2156 -0.3093
 6160SOL    HW130113   4.361   3.102  15.257  0.2670 -1.3421 -1.2336
 6160SOL    HW230114   4.450   3.205  15.311  1.3444  0.5721 -1.0448
 6161SOL     OW30115   2.451   1.124  11.686 -0.0672 -0.1677  0.3750
 6161SOL    HW130116   2.379   1.158  11.740 -0.2845  0.5377 -0.3579
 6161SOL    HW230117   2.526   1.153  11.737 -0.5701  2.6690 -0.5155
 6162SOL     OW30118   2.050   4.348  17.320 -0.1114 -0.0123 -0.0160
 6162SOL    HW130119   2.138   4.355  17.282 -1.0458  1.5449 -1.8690
 6162SOL    HW230120   2.043   4.431  17.368  2.1932  0.6632 -0.8768
 6163SOL     OW30121   3.390   2.059   6.912 -0.4489  0.4016  0.8405
 6163SOL    HW130122   3.373   2.010   6.992 -1.8897 -2.1227 -1.0295
 6163SOL    HW230123   3.473   2.026   6.879  0.0407  1.1673  1.2962
 6164SOL     OW30124   2.909   0.189  14.162 -0.2710  0.3070  0.0800
 6164SOL    HW130125   2.889   0.226  14.248 -0.1950  0.1482  0.1661
 6164SOL    HW230126   2.821   0.162  14.136 -0.6895  0.0630  1.7304
 6165SOL     OW30127   2.490   2.477   6.690  0.4043  0.1150 -0.3778
 6165SOL    HW130128   2.538   2.413   6.637  0.8300 -0.0345  0.1968
 6165SOL    HW230129   2.517   2.449   6.777 -1.3312 -1.0515 -0.2083
 6166SOL     OW30130   3.420   4.134   8.803  0.0820 -0.0342  0.7020
 6166SOL    HW130131   3.490   4.144   8.866  1.5905 -2.0530 -0.6244
 6166SOL    HW230132   3.433   4.210   8.746 -1.1636  0.3477  0.9207
 6167SOL     OW30133   2.785   2.557   3.906 -0.1415 -0.5851  0.4032
 6167SOL    HW130134   2.851   2.585   3.968 -0.5831  1.5719 -0.0950
 6167SOL    HW230135   2.837   2.512   3.839  1.0653 -0.2129  1.1059
 6168SOL     OW30136   2.420   4.270   5.626  0.2443  0.0743 -0.0958
 6168SOL    HW130137   2.399   4.328   5.699 -0.5551  0.7160 -0.8279
 6168SOL    HW230138   2.468   4.321   5.561 -0.1744 -2.4763 -2.3949
 6169SOL     OW30139   4.393   3.927  10.815 -0.1178 -0.3160  0.4626
 6169SOL    HW130140   4.410   3.932  10.721 -0.0219 -0.6754  0.4588
 6169SOL    HW230141   4.442   4.008  10.832 -1.2976  0.8615 -1.8435
 6170SOL     OW30142   1.866   4.028   3.218 -0.2584 -0.6751  0.5504
 6170SOL    HW130143   1.869   4.099   3.154 -1.6717  0.2959  1.5534
 6170SOL    HW230144   1.831   4.078   3.292  0.6984  1.5831 -0.5143
 6171SOL     OW30145   0.934   1.037  16.176  0.0279 -0.1276  0.0135
 6171SOL    HW130146   0.964   0.946  16.178  0.1081 -0.0605  1.6584
 6171SOL    HW230147   0.851   1.031  16.223 -2.0868  2.3377 -3.4017
 6172SOL     OW30148   3.793   0.434   6.360  0.2489 -0.0118  0.2500
 6172SOL    HW130149   3.869   0.457   6.306  0.0970 -0.1264 -0.0128
 6172SOL    HW230150   3.801   0.340   6.344  1.9934  0.5276 -2.1238
 6173SOL     OW30151   0.788   3.134   2.850  0.5973  0.2079 -0.6208
 6173SOL    HW130152   0.714   3.073   2.860  0.5042  0.4472  0.1874
 6173SOL    HW230153   0.857   3.084   2.894  0.3882  1.9958  1.7570
 6174SOL     OW30154   2.117   1.534   6.171 -0.1771 -0.0077  0.0737
 6174SOL    HW130155   2.052   1.479   6.129  0.8491 -0.5056 -0.8581
 6174SOL    HW230156   2.058   1.591   6.221 -0.4622 -0.6046  0.4179
 6175SOL     OW30157   4.387   0.429   2.893  0.5945 -0.1320 -0.1060
 6175SOL    HW130158   4.353   0.511   2.929 -0.1396  0.1469 -1.4255
 6175SOL    HW230159   4.425   0.460   2.811  0.1419 -2.7322 -1.3037
 6176SOL     OW30160   3.794   3.111  11.719 -0.1609 -0.1868  0.0712
 6176SOL    HW130161   3.846   3.041  11.759 -0.4726 -0.2347  0.3929
 6176SOL    HW230162   3.864   3.164  11.680 -0.4621  1.1864  1.4188
 6177SOL     OW30163   0.510   2.885   7.043  0.7559 -0.4828  0.2194
 6177SOL    HW130164   0.539   2.807   6.995  0.4244 -0.6197  0.2418
 6177SOL    HW230165   0.415   2.875   7.038  0.7576 -0.2089 -0.4299
 6178SOL     OW30166   2.520   3.359   4.569  0.0645  0.4470  0.6921
 6178SOL    HW130167   2.566   3.443   4.560  0.1820  0.3829  0.7010
 6178SOL    HW230168   2.590   3.312   4.615 -1.6542 -0.3919  2.4243
 6179SOL     OW30169   3.968   3.076   8.358 -0.2201  0.7639  0.0841
 6179SOL    HW130170   3.960   3.054   8.451 -1.5398  0.2510 -0.1492
 6179SOL    HW230171   3.877   3.103   8.344 -0.7479 -0.4474  1.2544
 6180SOL     OW30172   0.403   1.937   4.751  0.3193 -0.6479 -0.7576
 6180SOL    HW130173   0.438   1.947   4.839 -1.5191  1.9097 -0.2991
 6180SOL    HW230174   0.400   1.842   4.758  0.4183 -0.5426  0.7425
 6181SOL     OW30175   4.660   2.492   1.540 -0.4527  0.2384 -0.5340
 6181SOL    HW130176   4.664   2.583   1.568  1.6239 -0.1147  0.3243
 6181SOL    HW230177   4.604   2.454   1.608  1.5095 -2.3011 -0.3481
 6182SOL     OW30178   0.344   3.793   9.555 -0.1708 -0.0254  0.0228
 6182SOL    HW130179   0.351   3.727   9.487  0.5861  0.2494 -0.1744
 6182SOL    HW230180   0.437   3.818   9.554 -0.3701  0.6671 -0.6976
 6183SOL     OW30181   4.018   0.254   0.310 -0.0701 -0.6907 -0.0759
 6183SOL    HW130182   4.098   0.307   0.316 -1.1778  0.8925  0.8577
 6183SOL    HW230183   3.998   0.246   0.217  0.3825  0.6194 -0.2937
 6184SOL     OW30184   0.951   2.008   0.251  0.4372 -0.3353 -0.1496
 6184SOL    HW130185   0.978   1.947   0.182  0.9433  0.7822 -0.9444
 6184SOL    HW230186   0.948   1.957   0.332  1.0173 -1.4798 -0.8474
 6185SOL     OW30187   2.999   2.308   6.194  0.5981 -0.0869 -0.1293
 6185SOL    HW130188   2.929   2.351   6.144  0.8645 -0.2835 -0.6753
 6185SOL    HW230189   2.987   2.216   6.170 -0.5260  0.0439 -0.0657
 6186SOL     OW30190   2.508   0.284   2.567  0.8140 -0.2274 -0.1053
 6186SOL    HW130191   2.560   0.364   2.560  2.2169 -1.1509 -0.3152
 6186SOL    HW230192   2.508   0.268   2.662  3.2089  2.6874  0.3653
 6187SOL     OW30193   1.457   4.444   6.877  0.5223  0.0654 -0.4952
 6187SOL    HW130194   1.485   4.506   6.945 -2.1826 -0.8083  1.3810
 6187SOL    HW230195   1.472   4.495   6.797 -0.3233  0.0318 -0.6770
 6188SOL     OW30196   3.462   3.246   3.838 -0.1759  0.3007  0.9761
 6188SOL    HW130197   3.502   3.265   3.923  0.7592 -0.4723  0.7115
 6188SOL    HW230198   3.376   3.208   3.855  0.3484 -0.3664  2.1447
 6189SOL     OW30199   4.407   4.685   5.296 -0.2697 -0.2593  0.6600
 6189SOL    HW130200   4.438   4.631   5.224  2.4053  1.0724  0.8127
 6189SOL    HW230201   4.476   4.673   5.361 -0.4848 -0.6392  0.8130
 6190SOL     OW30202   3.605   2.135   9.338  0.2123 -0.2713  0.0484
 6190SOL    HW130203   3.676   2.109   9.396 -0.1805 -0.9518  0.2201
 6190SOL    HW230204   3.651   2.203   9.288  0.5618 -0.8483 -0.4161
 6191SOL     OW30205   4.139   0.069  13.421 -0.6983 -0.4489 -0.8779
 6191SOL    HW130206   4.173   4.717  13.426 -2.4730 -0.9623  2.2675
 6191SOL    HW230207   4.195   0.108  13.353 -1.1277  2.1257  0.2288
 6192SOL     OW30208   2.731   4.537   8.622 -0.1728  0.7165 -0.2484
 6192SOL    HW130209   2.725   4.631   8.603  0.9396  0.8375  0.0288
 6192SOL    HW230210   2.814   4.532   8.669 -0.6870  1.0560  0.7051
 6193SOL     OW30211   0.080   2.739   3.880  0.0964 -0.0436 -0.1488
 6193SOL    HW130212   0.073   2.644   3.879  0.9630 -0.0935 -0.9503
 6193SOL    HW230213   0.156   2.755   3.825 -0.1834  1.9330  0.0499
 6194SOL     OW30214   1.363   2.141   3.850  0.0195  0.4851  1.2973
 6194SOL    HW130215   1.342   2.160   3.942 -0.6255  0.1043  1.2237
 6194SOL    HW230216   1.330   2.053   3.837  1.4133  0.4461 -1.9266
 6195SOL     OW30217   4.488   2.727   8.021  0.1964 -0.1906 -0.0069
 6195SOL    HW130218   4.441   2.780   8.085  1.2847 -0.7891  1.2897
 6195SOL    HW230219   4.461   2.640   8.048 -1.0776  0.3763  0.5325
 6196SOL     OW30220   3.074   4.169  15.970 -0.3947  0.3213 -0.2123
 6196SOL    HW130221   3.040   4.169  15.881 -1.2287  0.2020  0.1093
 6196SOL    HW230222   3.024   4.239  16.011  1.5850  1.6664 -0.0840
 6197SOL     OW30223   3.091   3.683   4.083 -0.4553 -0.4164 -0.4271
 6197SOL    HW130224   3.008   3.634   4.082 -0.6393 -0.1324  0.2985
 6197SOL    HW230225   3.149   3.608   4.093 -0.6431 -0.7137 -1.5928
 6198SOL     OW30226   0.370   1.791   4.249 -0.1980  0.7308  0.1963
 6198SOL    HW130227   0.337   1.859   4.190 -0.2068  0.9661  0.4698
 6198SOL    HW230228   0.288   1.742   4.256 -0.1781  0.9008  1.5221
 6199SOL     OW30229   2.553   0.917   5.280 -0.2685 -0.3018  0.2346
 6199SOL    HW130230   2.625   0.902   5.218 -0.9535  1.0862 -0.9180
 6199SOL    HW230231   2.603   0.957   5.350  2.2221 -0.0573 -1.6906
 6200SOL     OW30232   1.932   3.210   2.845 -0.0668  0.3691  0.6309
 6200SOL    HW130233   1.909   3.134   2.791  1.3445 -0.3152  0.9800
 6200SOL    HW230234   1.841   3.222   2.870  0.3956 -0.0898  2.5014
 6201SOL     OW30235   0.150   1.252   6.611  0.7127 -0.1119  0.4160
 6201SOL    HW130236   0.075   1.308   6.591  1.0149  0.8499  1.9236
 6201SOL    HW230237   0.224   1.305   6.579 -0.6099  1.5707  0.1940
 6202SOL     OW30238   0.879   3.725   7.402 -0.5359  0.2292  0.0194
 6202SOL    HW130239   0.897   3.633   7.383  2.0146  0.7823 -0.1905
 6202SOL    HW230240   0.924   3.774   7.333 -0.0343  2.3247  1.8473
 6203SOL     OW30241   4.387   4.133   4.340 -0.1584 -0.3956  0.5725
 6203SOL    HW130242   4.393   4.042   4.312 -0.9630 -0.4062  0.4375
 6203SOL    HW230243   4.349   4.129   4.427 -3.6500  0.0971 -0.9187
 6204SOL     OW30244   3.307   3.748   2.907 -0.4242 -0.2007 -0.0970
 6204SOL    HW130245   3.216   3.774   2.921 -0.2277  0.4214  0.0381
 6204SOL    HW230246   3.304   3.703   2.823  0.8778  0.5357 -0.5334
 6205SOL     OW30247   3.782   1.343   5.134  0.1217  0.2836 -0.8850
 6205SOL    HW130248   3.830   1.409   5.085 -1.1986  0.5780 -1.7833
 6205SOL    HW230249   3.703   1.391   5.161 -0.1623 -1.7215  1.8450
 6206SOL     OW30250   2.740   3.292   7.336 -0.6032  0.5020 -0.7178
 6206SOL    HW130251   2.780   3.364   7.384  2.1192 -0.8930 -0.8182
 6206SOL    HW230252   2.813   3.253   7.287  1.4832  1.8918  1.3130
 6207SOL     OW30253   2.035   4.340   5.728 -0.6606  0.2641 -0.1446
 6207SOL    HW130254   2.076   4.425   5.717 -0.2602  0.3572  2.2432
 6207SOL    HW230255   1.955   4.372   5.770 -0.4491  0.9595 -0.2822
 6208SOL     OW30256   0.878   0.626   7.246 -0.5576 -0.3495  0.0853
 6208SOL    HW130257   0.938   0.699   7.228  0.9758 -1.8420 -0.8830
 6208SOL    HW230258   0.899   0.565   7.176  0.5569  3.3077 -2.7557
 6209SOL     OW30259   2.099   3.563   9.763 -0.8880 -0.2663 -0.1198
 6209SOL    HW130260   2.013   3.605   9.770 -0.8879 -0.2627 -0.1394
 6209SOL    HW230261   2.095   3.514   9.845  0.6226  0.6323  0.5048
 6210SOL     OW30262   1.867   4.719   7.295  0.3057  0.6115 -0.2105
 6210SOL    HW130263   1.789   4.697   7.346  1.1850 -1.4478  0.2501
 6210SOL    HW230264   1.849   4.665   7.217  2.0374  0.4003 -0.4629
 6211SOL     OW30265   4.116   1.952   6.189 -0.3757  0.0439  0.5885
 6211SOL    HW130266   4.170   2.028   6.168 -3.8889  1.7426 -2.2278
 6211SOL    HW230267   4.093   1.962   6.281 -0.2045  2.9216  0.3205
 6212SOL     OW30268   3.677   2.678   4.076 -0.0938 -0.0355 -0.8152
 6212SOL    HW130269   3.708   2.769   4.068  1.6490 -0.4945  0.8771
 6212SOL    HW230270   3.748   2.621   4.047  0.8831 -0.7845  3.0663
 6213SOL     OW30271   3.259   4.245   0.890  0.2243 -0.6980  0.1301
 6213SOL    HW130272   3.281   4.233   0.982  1.2266  1.7660  0.2036
 6213SOL    HW230273   3.168   4.218   0.903 -0.5632  2.9363  2.0248
 6214SOL     OW30274   3.980   0.871   1.687 -0.8521  0.0944 -0.2404
 6214SOL    HW130275   3.929   0.796   1.656  0.8781  0.1835 -3.2154
 6214SOL    HW230276   3.982   0.916   1.603 -1.1263 -1.8270 -1.2887
 6215SOL     OW30277   2.179   0.933   4.860 -0.5548  0.2110 -0.2598
 6215SOL    HW130278   2.260   0.922   4.909 -0.9321  1.4489  0.6249
 6215SOL    HW230279   2.121   0.866   4.897 -0.3336 -0.0286 -0.3505
 6216SOL     OW30280   2.418   2.938  12.325  0.2950 -0.2987  0.0815
 6216SOL    HW130281   2.443   3.008  12.385 -1.7414 -0.3951  1.0137
 6216SOL    HW230282   2.431   2.858  12.376 -3.0452 -0.1583  1.1291
 6217SOL     OW30283   2.051   4.321   3.452  0.5136 -0.4055  0.7587
 6217SOL    HW130284   2.075   4.353   3.365 -0.9238  1.0143  0.8748
 6217SOL    HW230285   2.120   4.350   3.512  0.5539  1.8257 -0.3420
 6218SOL     OW30286   4.174   4.133  14.220 -0.4102  0.6527  0.2106
 6218SOL    HW130287   4.176   4.229  14.224 -2.5893  0.7085 -0.0501
 6218SOL    HW230288   4.262   4.099  14.233 -0.9502 -0.6113  0.5587
 6219SOL     OW30289   2.503   4.501   9.687  0.5323 -0.1163 -0.0868
 6219SOL    HW130290   2.489   4.427   9.629  2.9068 -1.9615  1.6726
 6219SOL    HW230291   2.568   4.536   9.626  0.8564  2.2813  1.6331
 6220SOL     OW30292   1.375   2.032   6.085  0.0661 -0.4401  0.1438
 6220SOL    HW130293   1.343   1.966   6.146  0.6668 -0.1920  0.7358
 6220SOL    HW230294   1.290   2.075   6.084  0.6648  0.7929  1.5739
 6221SOL     OW30295   1.309   2.404   2.656 -0.2829  0.3586  0.0702
 6221SOL    HW130296   1.368   2.376   2.726  0.5463 -3.1685 -2.0452
 6221SOL    HW230297   1.226   2.356   2.668  0.7913 -1.3852  0.5043
 6222SOL     OW30298   4.207   2.848   4.269 -0.6267  0.4294  0.4553
 6222SOL    HW130299   4.152   2.891   4.204  0.6967  1.0873 -0.2126
 6222SOL    HW230300   4.211   2.905   4.345  0.9799  1.3883 -0.3493
 6223SOL     OW30301   0.044   3.294  10.076  0.0188  0.7508  0.3288
 6223SOL    HW130302   0.057   3.218  10.132  0.2068  0.2656 -0.3723
 6223SOL    HW230303   0.055   3.247   9.994  1.8083  2.4178 -0.3812
 6224SOL     OW30304   3.102   4.444  15.684  0.2242  0.1050  0.1263
 6224SOL    HW130305   3.147   4.366  15.651  0.2402 -0.1197  0.6748
 6224SOL    HW230306   3.138   4.522  15.642  0.3083 -0.2360 -0.4320
 6225SOL     OW30307   0.479   1.447  10.942  0.2650  0.0959  0.1745
 6225SOL    HW130308   0.435   1.532  10.942 -3.4655 -1.8368 -1.2164
 6225SOL    HW230309   0.448   1.401  10.865 -1.0218  1.7473 -0.3169
 6226SOL     OW30310   1.950   4.253   7.974  0.3046  0.0903 -0.3137
 6226SOL    HW130311   1.877   4.217   8.025  1.0434 -0.7548  0.1555
 6226SOL    HW230312   1.951   4.347   7.987 -0.9075 -0.0399  0.7471
 6227SOL     OW30313   4.601   1.499   3.667  0.3075  0.8618  0.0970
 6227SOL    HW130314   4.642   1.565   3.612  0.7586 -0.0070 -0.6098
 6227SOL    HW230315   4.674   1.462   3.717  0.2672 -0.5513 -0.9014
 6228SOL     OW30316   2.678   3.588   4.560 -0.2680 -0.0496 -0.5380
 6228SOL    HW130317   2.653   3.674   4.526 -1.1266 -0.3770 -0.7258
 6228SOL    HW230318   2.709   3.591   4.651 -1.1821  1.4669 -0.2706
 6229SOL     OW30319   2.090   3.095   5.260  0.1711  0.0664 -0.0278
 6229SOL    HW130320   2.154   3.051   5.315  3.7340  1.2737 -3.1719
 6229SOL    HW230321   2.023   3.031   5.240  0.3665 -0.8159  2.1661
 6230SOL     OW30322   3.171   3.542   1.929  0.7653 -0.0008  0.5098
 6230SOL    HW130323   3.176   3.611   1.862 -1.6313 -1.5366 -1.2348
 6230SOL    HW230324   3.253   3.496   1.909 -0.5759 -1.9853 -0.3222
 6231SOL     OW30325   3.028   0.137   3.631  0.5334  0.7888 -0.3324
 6231SOL    HW130326   2.968   0.171   3.564  2.5314  0.9675 -2.0237
 6231SOL    HW230327   3.095   0.205   3.622  0.1765  0.8109 -2.9246
 6232SOL     OW30328   4.143   0.508   1.738 -0.4235 -0.0026 -0.7607
 6232SOL    HW130329   4.227   0.549   1.719 -1.2842  2.4412  0.7670
 6232SOL    HW230330   4.171   0.416   1.730 -1.6888 -0.5750  1.1477
 6233SOL     OW30331   3.645   3.580   5.027  0.4214  0.0880 -0.4089
 6233SOL    HW130332   3.579   3.569   5.096  1.0638 -0.3157  0.1450
 6233SOL    HW230333   3.596   3.589   4.945 -0.7085  0.9304  0.3541
 6234SOL     OW30334   0.977   2.912  13.022  0.4689  0.2405 -0.3509
 6234SOL    HW130335   0.884   2.914  13.046  0.4119 -1.1705 -0.4563
 6234SOL    HW230336   0.971   2.866  12.938 -1.2607  0.6414 -0.4615
 6235SOL     OW30337   3.719   3.027   6.755  0.2965  0.2588 -0.7306
 6235SOL    HW130338   3.699   2.967   6.683  1.0963 -3.0976  1.8556
 6235SOL    HW230339   3.761   3.103   6.714 -3.1142  2.2411 -0.5405
 6236SOL     OW30340   2.595   0.165  12.717  0.2349  0.4826 -0.1073
 6236SOL    HW130341   2.618   0.257  12.729 -0.2522  0.6856 -0.7461
 6236SOL    HW230342   2.500   0.171  12.713  0.3281  1.1851 -1.0714
 6237SOL     OW30343   3.720   2.283   6.803  0.2695 -0.0760  0.6688
 6237SOL    HW130344   3.684   2.202   6.839  0.0222 -1.0624 -1.8349
 6237SOL    HW230345   3.797   2.290   6.860  0.9750 -3.2063  0.0590
 6238SOL     OW30346   1.175   3.759  10.214  0.0173  0.2159 -0.5331
 6238SOL    HW130347   1.172   3.664  10.217  1.1628  0.2145  0.6777
 6238SOL    HW230348   1.154   3.781  10.124 -0.2756 -1.6933 -0.9244
 6239SOL     OW30349   3.370   3.739  16.918  0.2534 -0.0257 -0.0139
 6239SOL    HW130350   3.290   3.773  16.959  0.0268 -0.3895 -0.1616
 6239SOL    HW230351   3.328   3.666  16.874  1.1006 -0.8611  0.5642
 6240SOL     OW30352   1.988   0.280   8.583  0.2436  0.1323  0.3163
 6240SOL    HW130353   2.055   0.282   8.516 -1.2315  0.0410 -1.1564
 6240SOL    HW230354   1.927   0.347   8.554 -0.0259 -0.3573 -0.2537
 6241SOL     OW30355   0.554   3.311   7.763 -0.1415 -0.0503 -0.3132
 6241SOL    HW130356   0.635   3.268   7.737 -0.1466  0.2311 -0.7956
 6241SOL    HW230357   0.509   3.242   7.811 -0.2468 -0.6086 -1.2290
 6242SOL     OW30358   4.562   1.693   7.639 -0.4777  0.2783  0.7052
 6242SOL    HW130359   4.480   1.644   7.637  1.2068 -2.5482  0.1280
 6242SOL    HW230360   4.624   1.624   7.662 -1.6574 -0.9221  0.2848
 6243SOL     OW30361   3.348   0.392   5.303  0.7854  0.5581  0.0779
 6243SOL    HW130362   3.324   0.366   5.392 -2.6765 -3.6177 -2.1015
 6243SOL    HW230363   3.388   0.478   5.318 -0.4174  0.5692  3.1164
 6244SOL     OW30364   4.264   1.810   3.441 -0.4151 -0.0233 -0.0734
 6244SOL    HW130365   4.214   1.767   3.511 -0.5600  1.0433  0.4705
 6244SOL    HW230366   4.232   1.749   3.374  3.4647 -3.4428  1.1072
 6245SOL     OW30367   4.557   2.126   3.369  0.2222  0.5384  0.0179
 6245SOL    HW130368   4.531   2.203   3.419  2.5847  2.7230 -2.1630
 6245SOL    HW230369   4.641   2.149   3.331  0.2907  0.4727  0.1296
 6246SOL     OW30370   2.503   0.776   5.604  0.1976  0.0673  0.1622
 6246SOL    HW130371   2.540   0.854   5.564  1.5069 -1.2653 -1.2337
 6246SOL    HW230372   2.419   0.814   5.631  0.1895  1.3490 -1.6437
 6247SOL     OW30373   4.540   1.577   2.837 -0.3489  0.0519  0.3068
 6247SOL    HW130374   4.542   1.582   2.933  1.9320  0.7550  0.2140
 6247SOL    HW230375   4.616   1.526   2.810 -0.8295 -0.7528  0.4897
 6248SOL     OW30376   4.410   4.401  17.508  0.0895 -0.0142  0.5573
 6248SOL    HW130377   4.427   4.444  17.592 -1.5148  1.6633  0.0462
 6248SOL    HW230378   4.396   4.484  17.461  1.6919  0.4940  0.9861
 6249SOL     OW30379   1.387   4.573   0.796 -0.3590  0.1512 -0.5610
 6249SOL    HW130380   1.398   4.634   0.869  1.3700  1.0015 -1.5306
 6249SOL    HW230381   1.304   4.531   0.818 -0.6921  0.7811 -0.6112
 6250SOL     OW30382   0.164   1.411   3.200  0.4273  0.3770  0.2415
 6250SOL    HW130383   0.150   1.459   3.282  0.4205  2.3751 -0.9407
 6250SOL    HW230384   0.193   1.326   3.234  0.1489 -0.2163 -0.9903
 6251SOL     OW30385   2.937   3.243  11.253 -0.0202  0.0989  0.1436
 6251SOL    HW130386   2.987   3.228  11.173 -0.7722 -0.6731 -0.1838
 6251SOL    HW230387   2.989   3.199  11.320  0.8207 -0.0669 -0.6117
 6252SOL     OW30388   1.755   2.266  16.636  0.4831  0.1677 -0.1677
 6252SOL    HW130389   1.669   2.233  16.610  0.1475  1.1788 -0.3292
 6252SOL    HW230390   1.762   2.330  16.565 -0.7089  0.4251 -0.0418
 6253SOL     OW30391   3.948   2.902   4.726  0.1073  0.2906  0.4174
 6253SOL    HW130392   3.939   2.852   4.645  2.4352 -0.9349  0.8969
 6253SOL    HW230393   4.023   2.858   4.765 -1.2004 -2.5489 -0.3121
 6254SOL     OW30394   3.848   1.973  10.984  0.2288 -0.5839 -0.2037
 6254SOL    HW130395   3.810   1.962  10.897 -0.6647 -2.2499  0.4108
 6254SOL    HW230396   3.773   2.006  11.033 -1.0655 -1.6099 -1.5053
 6255SOL     OW30397   2.027   4.254  15.725  0.1582 -0.0135  0.5017
 6255SOL    HW130398   2.052   4.342  15.753  0.5343 -1.2114  3.9493
 6255SOL    HW230399   2.110   4.208  15.730  0.1538  0.0937  1.4646
 6256SOL     OW30400   4.594   4.680  17.197 -0.4549  0.0351  0.8623
 6256SOL    HW130401   4.641   4.604  17.229 -2.0718 -1.2382  0.2441
 6256SOL    HW230402   4.542   4.644  17.125 -0.3682 -0.1854  0.9121
 6257SOL     OW30403   2.875   1.037   9.652  0.6272 -0.1892  0.3402
 6257SOL    HW130404   2.793   0.993   9.674  1.0658 -0.0916  2.1401
 6257SOL    HW230405   2.924   0.972   9.602  0.1225  1.2037 -2.0051
 6258SOL     OW30406   1.657   0.275  12.166 -0.5124  1.0699 -0.4177
 6258SOL    HW130407   1.614   0.190  12.174  2.1845 -0.0225  2.1021
 6258SOL    HW230408   1.650   0.307  12.075  1.0747 -0.6086 -1.1201
 6259SOL     OW30409   2.237   3.046   2.300  0.4829 -0.2054  0.0886
 6259SOL    HW130410   2.196   3.129   2.324  0.2287 -0.3024 -0.0125
 6259SOL    HW230411   2.224   3.045   2.206 -0.1763 -1.7262  0.2072
 6260SOL     OW30412   3.526   4.145  17.466 -0.2480 -0.0366  0.2507
 6260SOL    HW130413   3.492   4.142  17.376  1.9877  4.8583 -0.7326
 6260SOL    HW230414   3.619   4.162  17.458 -0.2498  0.0813  0.4654
 6261SOL     OW30415   1.143   0.142   2.008  0.2165  0.1858  0.5174
 6261SOL    HW130416   1.210   0.141   1.939  1.6744  2.7234  1.8923
 6261SOL    HW230417   1.079   0.083   1.969 -0.4604 -0.4754  2.6640
 6262SOL     OW30418   2.623   3.871   4.079 -0.1513 -0.4151 -0.0619
 6262SOL    HW130419   2.542   3.851   4.127 -0.3351 -1.5089 -0.8361
 6262SOL    HW230420   2.633   3.966   4.090 -1.4959 -0.2374 -0.2832
 6263SOL     OW30421   3.207   3.037   5.836  0.4015  0.7314  0.2340
 6263SOL    HW130422   3.141   3.058   5.901 -1.8569 -3.2015 -0.7647
 6263SOL    HW230423   3.282   3.052   5.893 -0.1197  1.3336  0.7613
 6264SOL     OW30424   0.811   2.621   6.464  0.3030  0.0024  0.2187
 6264SOL    HW130425   0.843   2.639   6.552 -0.0859 -0.0042  0.3615
 6264SOL    HW230426   0.838   2.533   6.438 -1.1882 -0.9150  1.7996
 6265SOL     OW30427   1.660   1.234   4.586 -0.1808 -0.5065  0.3051
 6265SOL    HW130428   1.677   1.201   4.498  1.9626 -0.5618  0.7394
 6265SOL    HW230429   1.576   1.276   4.571  0.7830  1.0725 -0.6898
 6266SOL     OW30430   2.601   1.572   9.014 -0.2550  0.4781 -0.9155
 6266SOL    HW130431   2.562   1.486   8.999 -0.9081  0.3537  1.4380
 6266SOL    HW230432   2.689   1.550   8.983 -0.4493  2.4533 -2.8401
 6267SOL     OW30433   2.792   4.126   6.369  0.3358  0.1999  0.6271
 6267SOL    HW130434   2.866   4.186   6.363 -0.2613  0.8452 -0.2968
 6267SOL    HW230435   2.811   4.089   6.282  3.6546 -2.1832  2.3496
 6268SOL     OW30436   3.714   4.123  13.854 -0.5963  0.1199 -0.2548
 6268SOL    HW130437   3.686   4.052  13.912  1.5029 -0.8385 -0.4168
 6268SOL    HW230438   3.667   4.107  13.772 -2.3969  0.3218  0.7254
 6269SOL     OW30439   2.710   3.154   2.148 -0.2036 -0.1529 -0.1512
 6269SOL    HW130440   2.721   3.249   2.140  1.0233 -0.3874 -1.2367
 6269SOL    HW230441   2.798   3.121   2.127 -0.0872  0.2708 -0.3317
 6270SOL     OW30442   0.713   1.877   1.639 -0.2277  0.4715  0.1734
 6270SOL    HW130443   0.789   1.833   1.677 -0.8947 -1.3520 -0.5931
 6270SOL    HW230444   0.746   1.927   1.564 -1.8408  0.4508 -0.5502
 6271SOL     OW30445   4.368   1.580  16.750  0.2616 -1.2688  0.7148
 6271SOL    HW130446   4.303   1.638  16.789  1.5821  0.3733  0.4643
 6271SOL    HW230447   4.322   1.544  16.674  1.0476 -0.3182 -0.2134
 6272SOL     OW30448   2.092   4.585   4.492  0.1876 -0.1292  0.2339
 6272SOL    HW130449   2.040   4.634   4.555 -1.0197 -1.1527  0.0400
 6272SOL    HW230450   2.186   4.596   4.507 -0.0166  2.1366 -0.2665
 6273SOL     OW30451   0.905   3.635   5.139 -0.4202 -0.4091 -0.0518
 6273SOL    HW130452   0.932   3.706   5.198 -1.0206  0.4853 -0.8419
 6273SOL    HW230453   0.906   3.669   5.049 -0.4123 -1.4568 -0.4396
 6274SOL     OW30454   3.854   2.111   6.034  0.1485 -0.1628  0.2756
 6274SOL    HW130455   3.911   2.062   6.093  0.0871  1.9929  2.1328
 6274SOL    HW230456   3.917   2.143   5.969 -0.3949  1.6420  0.6420
 6275SOL     OW30457   1.879   1.089   8.877  0.5542 -0.2446 -0.8218
 6275SOL    HW130458   1.870   0.999   8.909  0.9088  0.7102  1.9400
 6275SOL    HW230459   1.941   1.077   8.804  0.3495 -0.1433 -1.0112
 6276SOL     OW30460   0.987   2.525   5.418  0.1493 -0.1143 -1.0645
 6276SOL    HW130461   1.052   2.482   5.362  2.9285  1.2307  1.1444
 6276SOL    HW230462   0.944   2.588   5.360  0.9111  0.3008 -1.1796
 6277SOL     OW30463   0.063   4.337   4.562 -0.0876  0.7194 -0.1606
 6277SOL    HW130464   0.018   4.379   4.489 -1.0709 -0.3157 -0.1633
 6277SOL    HW230465   0.030   4.248   4.549  0.6629  0.4468 -0.1885
 6278SOL     OW30466   0.359   4.716   0.751 -0.3595  0.4403  0.4503
 6278SOL    HW130467   0.388   4.725   0.842  2.2637  1.1095 -0.4570
 6278SOL    HW230468   0.323   4.628   0.753 -1.4445  0.9018  2.1811
 6279SOL     OW30469   2.535   0.295   6.743  1.6407  0.4893  0.4910
 6279SOL    HW130470   2.451   0.325   6.707  0.8276 -1.2694  0.9294
 6279SOL    HW230471   2.586   0.290   6.662 -0.5808 -1.7529 -0.7614
 6280SOL     OW30472   0.080   3.721  12.902 -0.8710 -0.0371  0.4035
 6280SOL    HW130473   0.096   3.628  12.886 -0.1083  0.2301 -0.3878
 6280SOL    HW230474   0.132   3.739  12.981 -0.0266  1.2700 -0.4580
 6281SOL     OW30475   4.318   3.938  10.266 -0.2788  0.3124  0.3517
 6281SOL    HW130476   4.378   3.865  10.254  0.6858  1.4599 -1.8727
 6281SOL    HW230477   4.268   3.911  10.343  1.6832  0.6887  1.7401
 6282SOL     OW30478   3.764   2.360   2.992 -0.6849 -0.5168  0.2182
 6282SOL    HW130479   3.850   2.325   2.970 -1.1201 -0.8780 -0.9382
 6282SOL    HW230480   3.752   2.364   3.087 -3.5540 -1.6547 -0.0843
 6283SOL     OW30481   2.353   2.753   2.365  0.4496 -0.4369  0.0709
 6283SOL    HW130482   2.331   2.839   2.401  0.5240  0.0598 -1.0713
 6283SOL    HW230483   2.369   2.705   2.446 -0.6422  1.3190  1.3302
 6284SOL     OW30484   2.096   1.875   7.175 -0.1222 -0.2174  0.1922
 6284SOL    HW130485   2.086   1.963   7.138 -2.2688 -1.2657 -1.6787
 6284SOL    HW230486   2.136   1.902   7.258  1.2604 -0.1231 -0.4987
 6285SOL     OW30487   0.266   1.059   4.681 -0.2773 -0.3557  0.4383
 6285SOL    HW130488   0.321   1.077   4.757 -1.9320 -0.7472  1.7230
 6285SOL    HW230489   0.255   1.142   4.635  1.5593 -0.5036 -0.3047
 6286SOL     OW30490   4.722   0.182   1.106 -0.2284 -0.0906 -0.2028
 6286SOL    HW130491   4.698   0.093   1.131 -1.1357  0.1884 -0.0803
 6286SOL    HW230492   0.019   0.160   1.019  1.7878  0.2468  0.4910
 6287SOL     OW30493   4.234   2.802   9.231 -0.4615 -0.4983 -0.2770
 6287SOL    HW130494   4.313   2.841   9.193  0.3613 -1.8056  0.0816
 6287SOL    HW230495   4.236   2.853   9.312 -2.3010  0.6386 -0.9604
 6288SOL     OW30496   4.639   1.068   5.175 -0.3309  0.0644 -0.2180
 6288SOL    HW130497   4.634   1.159   5.147  0.5372  0.4651  0.8770
 6288SOL    HW230498   4.547   1.055   5.197 -0.3192 -1.2117 -0.9613
 6289SOL     OW30499   1.980   0.832   8.973 -0.7682  0.1508  0.4978
 6289SOL    HW130500   2.052   0.845   9.034 -0.9388 -0.7298  0.8763
 6289SOL    HW230501   2.035   0.833   8.895 -1.9358  1.2912 -0.3027
 6290SOL     OW30502   4.532   1.546   1.432  0.1550 -0.3945  0.1871
 6290SOL    HW130503   4.451   1.596   1.441 -0.5243 -1.2852 -0.9296
 6290SOL    HW230504   4.585   1.566   1.509  0.5365  1.7980 -0.6691
 6291SOL     OW30505   3.981   2.275   4.968  0.1258 -0.3141  0.4146
 6291SOL    HW130506   4.056   2.265   4.909 -1.2467  1.7748 -1.6765
 6291SOL    HW230507   3.962   2.365   4.944 -2.7685 -0.0076  3.7875
 6292SOL     OW30508   0.327   0.590   3.585  0.2913 -0.2559 -0.3954
 6292SOL    HW130509   0.327   0.668   3.529  0.1876  1.9360  2.6443
 6292SOL    HW230510   0.242   0.555   3.557 -0.2941  2.2027 -1.7838
 6293SOL     OW30511   2.296   2.966  10.869 -0.0864 -0.3381 -0.5502
 6293SOL    HW130512   2.252   2.994  10.789 -0.6328  0.1119 -0.0955
 6293SOL    HW230513   2.257   2.879  10.875  0.4571 -0.5330  0.1782
 6294SOL     OW30514   3.962   0.191  11.314 -0.2339  0.1312 -0.6076
 6294SOL    HW130515   3.901   0.172  11.385  1.6486 -0.2666  0.9255
 6294SOL    HW230516   3.951   0.284  11.295  1.4903  0.4656 -0.0362
 6295SOL     OW30517   1.094   3.667  15.515  0.3349  0.0677 -0.0376
 6295SOL    HW130518   1.072   3.613  15.439 -0.0663  0.4170 -0.1683
 6295SOL    HW230519   1.165   3.615  15.554  1.1840  1.6023  0.4658
 6296SOL     OW30520   0.494   2.722  12.649  0.4881 -0.1399 -0.0901
 6296SOL    HW130521   0.579   2.723  12.606 -0.3796  1.1078 -1.7893
 6296SOL    HW230522   0.468   2.637  12.614 -0.3457 -0.5228  1.4638
 6297SOL     OW30523   4.500   0.035  16.873  0.5572 -0.5369 -0.8584
 6297SOL    HW130524   4.427   4.720  16.904  0.5475 -0.9543 -1.5643
 6297SOL    HW230525   4.472   0.049  16.782  0.2850 -2.7172 -1.1211
 6298SOL     OW30526   0.976   0.700   5.467  0.9166 -0.1668  0.4694
 6298SOL    HW130527   0.999   0.681   5.376 -1.6536 -2.8347  0.3667
 6298SOL    HW230528   0.900   0.753   5.447  1.5118  1.4060  2.4102
 6299SOL     OW30529   4.597   1.703   4.597  0.1110  0.2809  0.2774
 6299SOL    HW130530   4.647   1.656   4.665 -0.3197 -1.4409 -0.5966
 6299SOL    HW230531   4.547   1.755   4.660 -1.1410 -0.1209 -0.4010
 6300SOL     OW30532   3.243   4.227   2.783  0.1848  0.1612 -0.2485
 6300SOL    HW130533   3.183   4.152   2.786 -0.4291  0.5946 -2.1352
 6300SOL    HW230534   3.298   4.209   2.860 -0.9607 -0.4879  0.4221
 6301SOL     OW30535   4.107   3.012   1.434 -0.0519  0.3184  0.4950
 6301SOL    HW130536   4.148   2.936   1.476  2.4074  1.7501  0.6801
 6301SOL    HW230537   4.101   3.073   1.508  1.3603 -0.4192  1.2224
 6302SOL     OW30538   0.310   2.523   1.488 -0.2139  0.1529  0.4545
 6302SOL    HW130539   0.316   2.582   1.563  1.1959 -0.2680  0.6613
 6302SOL    HW230540   0.293   2.591   1.422  1.3398  1.9203  1.8943
 6303SOL     OW30541   3.724   1.289   7.101 -0.1114  0.1677  0.0754
 6303SOL    HW130542   3.738   1.220   7.166 -1.4159 -0.2899 -0.1296
 6303SOL    HW230543   3.652   1.338   7.140 -1.0635 -0.8439 -0.4162
 6304SOL     OW30544   0.074   3.934   9.952  0.1083  0.1564 -0.0440
 6304SOL    HW130545   0.149   3.900  10.001  0.1652 -0.4563 -0.5466
 6304SOL    HW230546   0.031   3.991  10.015  0.4028 -1.8377  1.9875
 6305SOL     OW30547   0.933   1.955   7.583 -0.1196  0.5297 -0.5862
 6305SOL    HW130548   0.913   2.004   7.663 -2.1257 -2.1042  0.5708
 6305SOL    HW230549   0.861   1.986   7.527  1.5674  1.4309 -2.2479
 6306SOL     OW30550   3.509   0.618   5.375 -0.3404  0.0296  0.4246
 6306SOL    HW130551   3.515   0.648   5.285 -0.6720 -1.1104  0.0243
 6306SOL    HW230552   3.565   0.679   5.423 -0.7012  0.6177  0.1001
 6307SOL     OW30553   3.233   3.634   6.858  0.0672 -0.1102 -0.5272
 6307SOL    HW130554   3.263   3.543   6.861 -0.4421 -0.2964 -1.0425
 6307SOL    HW230555   3.168   3.615   6.926  0.2484 -0.2132 -0.3819
 6308SOL     OW30556   1.824   0.592  11.146 -0.1507 -0.0710  0.2810
 6308SOL    HW130557   1.828   0.642  11.228 -2.0279 -0.6442  0.7320
 6308SOL    HW230558   1.736   0.617  11.119  0.5201 -1.2081 -2.9295
 6309SOL     OW30559   4.106   4.175   6.747  0.2136  0.0655  0.2710
 6309SOL    HW130560   4.147   4.220   6.821 -1.6163  0.0438  1.3090
 6309SOL    HW230561   4.032   4.140   6.798  0.0768  1.2751  0.9014
 6310SOL     OW30562   3.877   2.240   5.600 -0.1009 -0.3952  0.0200
 6310SOL    HW130563   3.849   2.152   5.625 -0.7034 -0.2804 -0.2614
 6310SOL    HW230564   3.873   2.285   5.685 -0.7640  0.6499 -0.5730
 6311SOL     OW30565   4.432   0.405   1.718 -0.1290 -0.0390  0.2116
 6311SOL    HW130566   4.433   0.496   1.748  0.1708  0.6550 -1.9471
 6311SOL    HW230567   4.418   0.358   1.801 -0.4157  0.7107  0.5927
 6312SOL     OW30568   2.528   2.718   0.494 -0.2635  0.1883 -0.4667
 6312SOL    HW130569   2.523   2.801   0.446  1.8509 -0.0687 -1.1348
 6312SOL    HW230570   2.596   2.750   0.553  1.1123 -1.0054 -1.4051
 6313SOL     OW30571   4.187   0.325   8.213  0.0615  0.0504 -0.0844
 6313SOL    HW130572   4.185   0.320   8.308  3.7061 -3.2368 -0.1717
 6313SOL    HW230573   4.186   0.234   8.181 -0.4607 -0.5128  1.5317
 6314SOL     OW30574   3.026   0.718   2.424  0.1256 -0.5713 -0.0291
 6314SOL    HW130575   3.006   0.723   2.330  1.0807  0.6231 -0.1745
 6314SOL    HW230576   3.114   0.755   2.431  0.7489 -1.7957 -1.3597
 6315SOL     OW30577   0.765   1.212  15.225  0.4158  0.0296 -0.0671
 6315SOL    HW130578   0.687   1.264  15.244 -0.3107 -0.6871 -1.0962
 6315SOL    HW230579   0.836   1.269  15.256  0.4864 -0.3312  0.4222
 6316SOL     OW30580   2.451   4.267   6.651 -0.3066 -0.4686 -0.2702
 6316SOL    HW130581   2.533   4.316   6.648  1.3306 -3.1335  0.7993
 6316SOL    HW230582   2.490   4.192   6.606  1.3960 -0.4968  1.2744
 6317SOL     OW30583   2.905   1.439   4.809  0.3361  0.2154  0.2283
 6317SOL    HW130584   2.879   1.507   4.746 -0.2223 -0.0616  0.1653
 6317SOL    HW230585   2.926   1.362   4.756 -0.6556  0.1872 -0.1250
 6318SOL     OW30586   3.956   3.477   3.779 -0.1695  0.2542 -0.3653
 6318SOL    HW130587   4.031   3.425   3.806  1.3855  1.8521 -1.6845
 6318SOL    HW230588   3.900   3.488   3.856  1.0294  0.0504  0.5337
 6319SOL     OW30589   3.450   2.248   3.907  0.0947  0.3802 -0.9608
 6319SOL    HW130590   3.366   2.210   3.881  0.1935  1.0550 -2.2636
 6319SOL    HW230591   3.499   2.178   3.950 -1.9961 -1.5850 -1.7569
 6320SOL     OW30592   4.168   0.796   2.927  0.0036  0.3038  0.7902
 6320SOL    HW130593   4.096   0.767   2.983 -0.6533 -1.4802 -0.9626
 6320SOL    HW230594   4.172   0.729   2.858 -2.6208 -1.4009  2.2822
 6321SOL     OW30595   2.213   1.296   9.771  0.0368 -0.0125 -0.6800
 6321SOL    HW130596   2.269   1.374   9.772 -0.2717  0.2098 -1.0081
 6321SOL    HW230597   2.127   1.329   9.747  0.8883  1.2577 -1.9809
 6322SOL     OW30598   1.111   0.420   9.666  0.0706  0.0448 -0.0233
 6322SOL    HW130599   1.174   0.366   9.618  0.3593  0.0320  0.3682
 6322SOL    HW230600   1.035   0.385   9.619 -1.5099  0.7296  1.9964
 6323SOL     OW30601   4.026   4.445   4.541 -0.1320  0.6386  0.0482
 6323SOL    HW130602   4.111   4.487   4.542 -0.0346  0.3693  2.1727
 6323SOL    HW230603   3.969   4.508   4.584 -0.3745  0.2654  0.2768
 6324SOL     OW30604   0.701   4.657   3.044  0.2172 -0.4892 -0.0874
 6324SOL    HW130605   0.684   4.603   3.121 -2.2915  0.8653  0.2900
 6324SOL    HW230606   0.627   4.717   3.043 -0.8035 -1.7284  1.8520
 6325SOL     OW30607   2.902   4.040  15.295  0.2849  0.1865 -0.1847
 6325SOL    HW130608   2.917   4.129  15.262  2.9085  0.4627  1.7485
 6325SOL    HW230609   2.907   3.989  15.215 -0.2955  1.6269 -1.1358
 6326SOL     OW30610   2.282   0.194   2.212 -0.2420  0.2591 -0.0775
 6326SOL    HW130611   2.335   0.168   2.287  1.0916 -2.3961 -1.9777
 6326SOL    HW230612   2.257   0.108   2.179 -2.4038 -0.4988  3.4841
 6327SOL     OW30613   0.657   0.426   8.590 -0.0167 -0.1532  0.4416
 6327SOL    HW130614   0.637   0.359   8.525 -0.4227 -1.0994  1.5436
 6327SOL    HW230615   0.687   0.502   8.540 -0.2637 -0.9286 -0.8673
 6328SOL     OW30616   4.333   0.212   6.330  0.1888  0.7018 -0.2179
 6328SOL    HW130617   4.313   0.278   6.395  1.2909 -0.3778  1.2213
 6328SOL    HW230618   4.375   0.258   6.257 -1.2439  0.6260 -1.0828
 6329SOL     OW30619   0.802   0.787   7.596  0.3311 -0.3399  0.0522
 6329SOL    HW130620   0.723   0.830   7.563 -0.2911 -1.1056  0.5290
 6329SOL    HW230621   0.807   0.725   7.523 -1.5220 -2.2393  1.5151
 6330SOL     OW30622   2.188   1.868   9.435 -0.2403  0.2193  0.1424
 6330SOL    HW130623   2.175   1.932   9.365 -0.7684 -0.5670 -0.4817
 6330SOL    HW230624   2.206   1.912   9.518 -3.8606 -0.9672  1.5472
 6331SOL     OW30625   4.355   2.118   1.244 -0.1493  0.3813 -0.5119
 6331SOL    HW130626   4.296   2.113   1.169 -0.6434  2.6469 -0.2680
 6331SOL    HW230627   4.357   2.212   1.259 -4.0379  0.0621  2.0440
 6332SOL     OW30628   0.959   0.014   1.848 -0.2997  0.0547  0.2162
 6332SOL    HW130629   1.001   4.695   1.783  1.2132  0.9318  0.4262
 6332SOL    HW230630   0.874   4.710   1.858  0.1649 -1.4745 -1.9894
 6333SOL     OW30631   1.811   3.035   4.323  0.4811 -0.1026 -0.1587
 6333SOL    HW130632   1.889   2.987   4.298  0.1716  0.0165 -1.3501
 6333SOL    HW230633   1.760   3.037   4.242 -0.0731 -0.5394  0.1787
 6334SOL     OW30634   2.591   3.021   8.575 -0.0950 -0.0043 -0.4348
 6334SOL    HW130635   2.644   2.990   8.648  0.7068  0.6058 -0.7553
 6334SOL    HW230636   2.526   2.952   8.566  0.2430 -0.2981 -0.6335
 6335SOL     OW30637   2.891   1.729   7.573 -0.3029 -0.5217 -0.5256
 6335SOL    HW130638   2.984   1.750   7.583  0.1187 -2.7958  0.2404
 6335SOL    HW230639   2.890   1.647   7.524 -0.7950 -0.8094 -0.0283
 6336SOL     OW30640   3.211   4.389   0.150  0.0274 -0.2422 -0.1148
 6336SOL    HW130641   3.255   4.462   0.193  1.1090 -1.1737  0.3454
 6336SOL    HW230642   3.157   4.431   0.083 -0.9342  0.9940  1.4223
 6337SOL     OW30643   1.510   1.686   9.951  0.0952 -0.2215  0.2074
 6337SOL    HW130644   1.474   1.676  10.039 -0.5910 -2.3265 -0.3187
 6337SOL    HW230645   1.428   1.720   9.914  0.1652  0.3343  0.5609
 6338SOL     OW30646   0.811   2.658   8.236  0.0827 -0.2878 -0.4117
 6338SOL    HW130647   0.858   2.587   8.192 -0.1398 -1.8491  1.8503
 6338SOL    HW230648   0.882   2.710   8.275 -1.4412  1.3016  0.2397
 6339SOL     OW30649   4.507   3.579  13.297 -0.2578 -0.0827 -0.2483
 6339SOL    HW130650   4.431   3.592  13.353  0.1251  0.0292  0.2415
 6339SOL    HW230651   4.477   3.514  13.234 -1.2464 -0.1484  0.2968
 6340SOL     OW30652   0.550   4.191   3.861 -0.1631 -0.1696  0.0592
 6340SOL    HW130653   0.549   4.287   3.866 -0.4391 -0.4270  5.0483
 6340SOL    HW230654   0.573   4.156   3.948 -0.1135 -1.2556 -0.4002
 6341SOL     OW30655   0.479   1.489   5.562 -0.1469 -0.4967 -0.6318
 6341SOL    HW130656   0.497   1.575   5.524 -0.2152  0.5231  1.6859
 6341SOL    HW230657   0.456   1.506   5.653 -0.9101 -0.3963 -0.8457
 6342SOL     OW30658   3.554   3.784   7.777  0.2146  0.3967 -0.1402
 6342SOL    HW130659   3.625   3.845   7.793  1.2425 -0.0172 -3.1057
 6342SOL    HW230660   3.594   3.720   7.719  0.1013  1.7742 -1.7204
 6343SOL     OW30661   2.607   1.796   2.499  0.1127  0.4191  0.2268
 6343SOL    HW130662   2.590   1.795   2.593 -1.9970  1.2591 -0.1407
 6343SOL    HW230663   2.550   1.727   2.466 -0.3890  0.2339  1.4633
 6344SOL     OW30664   4.692   2.735   5.547 -0.0856 -0.7369  0.1785
 6344SOL    HW130665   0.025   2.672   5.531  0.9167  0.0960  1.3486
 6344SOL    HW230666   4.642   2.733   5.466  1.8727  1.0481 -1.0749
 6345SOL     OW30667   3.055   1.698   8.482  0.0763  0.3919  0.1953
 6345SOL    HW130668   2.963   1.704   8.509  0.0338 -1.2765  0.3701
 6345SOL    HW230669   3.092   1.639   8.547 -1.7695 -3.7444 -2.5694
 6346SOL     OW30670   1.000   0.665  15.895  0.0009  0.2458 -0.1744
 6346SOL    HW130671   0.982   0.595  15.832 -0.4389 -1.1767  1.5163
 6346SOL    HW230672   1.074   0.700  15.845  0.8930  1.2535  1.8613
 6347SOL     OW30673   0.862   4.469   8.075  0.3199 -0.6316 -0.4356
 6347SOL    HW130674   0.916   4.444   8.150 -2.0414 -2.7387  0.5462
 6347SOL    HW230675   0.838   4.553   8.113 -2.0648 -1.0075 -1.0888
 6348SOL     OW30676   3.491   0.645   7.487 -0.6685 -0.4389  0.9112
 6348SOL    HW130677   3.452   0.617   7.570 -1.1738  0.2860  0.9166
 6348SOL    HW230678   3.447   0.730   7.478  1.9597  0.7939 -0.0972
 6349SOL     OW30679   1.763   4.411   7.296 -0.0314 -0.0010 -0.1915
 6349SOL    HW130680   1.846   4.369   7.274  0.9120  0.7306  2.0506
 6349SOL    HW230681   1.729   4.332   7.336  1.9709  0.7157  2.9467
 6350SOL     OW30682   4.436   1.622   8.346  0.3129  0.5839 -0.1876
 6350SOL    HW130683   4.344   1.629   8.373 -0.0331 -3.2039 -0.3682
 6350SOL    HW230684   4.481   1.628   8.430  2.0674 -1.3516 -0.9737
 6351SOL     OW30685   1.355   4.311   5.937  0.0479 -0.6201  0.2179
 6351SOL    HW130686   1.411   4.353   5.872 -1.6556 -0.0111 -0.8472
 6351SOL    HW230687   1.351   4.224   5.897 -0.0350 -0.2509 -0.5766
 6352SOL     OW30688   3.104   0.982  16.893 -0.0756 -0.0815 -0.5552
 6352SOL    HW130689   3.183   1.006  16.941 -1.8375  0.4672  2.0354
 6352SOL    HW230690   3.036   1.038  16.930 -0.0085  0.4541 -1.2399
 6353SOL     OW30691   2.919   4.336   1.864 -0.0816  0.4024  0.3116
 6353SOL    HW130692   2.825   4.338   1.879 -0.7360 -0.3291 -3.7487
 6353SOL    HW230693   2.935   4.242   1.867  1.5581  0.6644  0.1254
 6354SOL     OW30694   2.103   1.009  11.699  0.5420  0.3001  0.0092
 6354SOL    HW130695   2.183   0.969  11.663 -0.4669 -0.4109 -1.4567
 6354SOL    HW230696   2.045   0.971  11.633  0.1435 -1.1414  1.1787
 6355SOL     OW30697   1.997   0.370   1.317  0.6051 -0.2464  0.2210
 6355SOL    HW130698   2.071   0.420   1.283  0.6690 -1.6258 -1.6596
 6355SOL    HW230699   2.019   0.397   1.406 -1.2841  0.8964  0.3443
 6356SOL     OW30700   1.533   4.326   2.537  0.3701 -0.3636  0.3659
 6356SOL    HW130701   1.527   4.237   2.572 -0.2103  0.8184  3.2707
 6356SOL    HW230702   1.613   4.342   2.588  0.5897 -0.6129  0.0992
 6357SOL     OW30703   0.081   2.323   0.458  0.1738 -0.5448  0.7618
 6357SOL    HW130704   0.071   2.407   0.504 -0.0186  0.3993 -1.0292
 6357SOL    HW230705   0.062   2.351   0.369 -0.4467 -0.7465  0.8259
 6358SOL     OW30706   1.238   2.843   3.041 -0.4513 -0.1714 -0.5074
 6358SOL    HW130707   1.238   2.932   3.075  0.2441  0.9776 -3.4818
 6358SOL    HW230708   1.200   2.849   2.953 -0.0607  2.5872 -0.4791
 6359SOL     OW30709   3.972   1.036   1.489  0.1811 -0.9860  0.6144
 6359SOL    HW130710   3.945   1.115   1.535 -1.4148  0.9389 -3.6963
 6359SOL    HW230711   4.018   1.068   1.412  0.8007 -1.8957  0.6005
 6360SOL     OW30712   4.220   1.679   8.540 -0.5212 -0.2123 -0.3846
 6360SOL    HW130713   4.218   1.732   8.620 -1.3288 -1.1392  0.2172
 6360SOL    HW230714   4.148   1.618   8.558 -1.5087  0.6235 -1.4665
 6361SOL     OW30715   4.328   3.133   1.271  0.2297 -0.2312 -0.4154
 6361SOL    HW130716   4.264   3.090   1.328 -0.0341  0.0620 -0.4934
 6361SOL    HW230717   4.278   3.129   1.189  1.2319 -2.2755 -0.9265
 6362SOL     OW30718   0.989   2.239   5.584 -0.1634  0.0644  0.8345
 6362SOL    HW130719   0.905   2.257   5.542  0.3734 -0.7199 -0.5731
 6362SOL    HW230720   0.970   2.150   5.612 -0.3877  0.0912  0.7639
 6363SOL     OW30721   0.594   4.400   2.203 -0.2165 -0.1517 -0.3657
 6363SOL    HW130722   0.676   4.413   2.155  1.2606 -2.3339  1.5685
 6363SOL    HW230723   0.617   4.384   2.294  2.0454 -0.2976 -0.9612
 6364SOL     OW30724   1.294   3.085   0.176 -0.1966  0.0951 -0.2153
 6364SOL    HW130725   1.229   3.027   0.136  1.0412 -2.9242  2.1379
 6364SOL    HW230726   1.345   3.122   0.103 -0.6284 -0.5686 -0.8529
 6365SOL     OW30727   3.724   2.532   4.429  0.5929 -0.6803  0.0071
 6365SOL    HW130728   3.639   2.558   4.465  0.8632 -1.2259  1.0443
 6365SOL    HW230729   3.770   2.616   4.426 -3.1640  1.4908  2.4546
 6366SOL     OW30730   2.373   2.444  13.291 -0.2119  0.0397  0.6127
 6366SOL    HW130731   2.420   2.433  13.208  0.5185 -0.1937  1.0577
 6366SOL    HW230732   2.282   2.428  13.267  0.2529  0.0453 -1.1643
 6367SOL     OW30733   3.805   0.738   6.082  0.7715  0.6830  0.3494
 6367SOL    HW130734   3.726   0.701   6.120  0.2889  1.1603 -0.1998
 6367SOL    HW230735   3.789   0.832   6.072  1.5631  0.8548  0.6930
 6368SOL     OW30736   2.244   0.944   1.505  0.0623 -0.4515  0.1668
 6368SOL    HW130737   2.293   0.935   1.424 -3.1057  2.1502 -2.0220
 6368SOL    HW230738   2.245   0.853   1.537  1.9947 -0.0364  1.3232
 6369SOL     OW30739   2.082   1.334   5.603 -0.0720  0.6891 -0.3549
 6369SOL    HW130740   2.099   1.410   5.546  0.9856  0.3421 -0.5010
 6369SOL    HW230741   2.097   1.379   5.686  3.5411  0.4992 -0.8779
 6370SOL     OW30742   4.676   1.599   5.352 -0.8556 -0.2523 -0.1564
 6370SOL    HW130743   4.631   1.681   5.333  0.3493  0.7257  1.1981
 6370SOL    HW230744   4.727   1.588   5.272 -0.2697 -0.3889  0.2414
 6371SOL     OW30745   3.736   2.050   7.389  0.0744 -0.2224  0.1733
 6371SOL    HW130746   3.777   1.989   7.450  1.2148  0.2421 -0.1239
 6371SOL    HW230747   3.810   2.111   7.376 -1.8703  2.3281  0.9947
 6372SOL     OW30748   2.255   3.359   4.623 -0.1574  0.5087 -0.6560
 6372SOL    HW130749   2.216   3.311   4.550 -1.9509 -2.1363  2.0584
 6372SOL    HW230750   2.341   3.391   4.595 -0.5667  0.8293 -1.5541
 6373SOL     OW30751   3.474   4.205   3.779 -0.3055  0.0251  0.4807
 6373SOL    HW130752   3.388   4.182   3.815  0.2715  1.2997  2.7081
 6373SOL    HW230753   3.529   4.139   3.819 -1.0107 -1.2878 -0.7238
 6374SOL     OW30754   3.947   1.273  14.001  0.5066  0.0255 -0.2962
 6374SOL    HW130755   3.882   1.220  13.956  0.6424 -2.1545  2.0573
 6374SOL    HW230756   3.933   1.358  13.959  2.5587  0.9832  0.9164
 6375SOL     OW30757   3.018   2.045   6.545  0.0571  0.8896  0.3748
 6375SOL    HW130758   3.091   2.080   6.595  1.4341 -0.2530 -0.8344
 6375SOL    HW230759   2.974   1.996   6.614 -0.5432  1.7018  0.5705
 6376SOL     OW30760   4.285   0.036   5.047  0.0257 -0.3852  0.1830
 6376SOL    HW130761   4.344   0.098   5.090  1.7285 -1.9065  0.0147
 6376SOL    HW230762   4.322   4.694   5.084  1.0083 -0.3343 -0.7081
 6377SOL     OW30763   4.464   3.437   2.989  0.3481  0.2735 -0.5896
 6377SOL    HW130764   4.384   3.422   2.939 -1.0385 -0.3044  1.7787
 6377SOL    HW230765   4.501   3.349   2.997  1.2975  0.6652 -0.7073
 6378SOL     OW30766   3.034   3.478  12.454 -0.0900 -0.1567 -0.5465
 6378SOL    HW130767   3.050   3.571  12.474 -1.5668  0.1346 -0.7118
 6378SOL    HW230768   3.122   3.448  12.429 -1.0096 -1.8997 -1.6652
 6379SOL     OW30769   2.955   1.929   4.527  0.3958 -0.1941 -0.1170
 6379SOL    HW130770   3.005   1.964   4.453 -0.7386  1.5813 -0.0678
 6379SOL    HW230771   2.981   1.975   4.607 -2.0123 -0.3862  0.7726
 6380SOL     OW30772   3.262   3.422   3.797  0.9228 -0.0026  0.0843
 6380SOL    HW130773   3.337   3.364   3.785  1.2655  0.2700  0.8995
 6380SOL    HW230774   3.257   3.407   3.892  0.4616  2.4778  0.4489
 6381SOL     OW30775   4.317   2.093  12.704 -0.1479 -0.4511  0.6136
 6381SOL    HW130776   4.361   2.034  12.766 -0.7099 -2.7894 -1.2120
 6381SOL    HW230777   4.344   2.180  12.732 -0.0016 -0.8883  1.8244
 6382SOL     OW30778   3.680   0.817   4.847  0.1236  0.0607 -0.6242
 6382SOL    HW130779   3.768   0.829   4.884 -0.1464 -0.1613  0.0763
 6382SOL    HW230780   3.637   0.887   4.896  3.1239 -0.1440  2.3351
 6383SOL     OW30781   3.719   3.297   8.673 -0.2750  0.2361  0.3384
 6383SOL    HW130782   3.773   3.358   8.723  0.9046 -0.4743 -0.0678
 6383SOL    HW230783   3.675   3.260   8.749 -2.4126 -0.9984 -1.4757
 6384SOL     OW30784   3.024   0.665   8.778  0.5610  0.3278  0.1907
 6384SOL    HW130785   3.023   0.585   8.726 -0.2274  0.4985 -0.0573
 6384SOL    HW230786   2.941   0.658   8.825  1.0454 -1.1826  0.8239
 6385SOL     OW30787   4.067   3.711   2.573  0.8643 -0.4371 -0.5312
 6385SOL    HW130788   4.072   3.780   2.507 -0.1714  0.8521  0.7366
 6385SOL    HW230789   4.041   3.765   2.648  2.1228 -0.6138  0.0297
 6386SOL     OW30790   1.005   3.003   1.485  0.1620 -0.3728  0.0536
 6386SOL    HW130791   0.988   2.937   1.552  1.8616 -0.9340 -0.0881
 6386SOL    HW230792   1.023   2.950   1.408 -0.5026 -0.4746 -0.0387
 6387SOL     OW30793   3.438   0.495   3.810  0.0509  0.1173 -0.5863
 6387SOL    HW130794   3.512   0.509   3.751 -1.5236  0.5251 -2.4933
 6387SOL    HW230795   3.482   0.457   3.885 -0.3800 -0.4841 -0.6381
 6388SOL     OW30796   3.051   3.797   3.219 -0.3087 -0.2446  0.0591
 6388SOL    HW130797   3.103   3.871   3.189 -0.3593  1.5869  4.5075
 6388SOL    HW230798   3.072   3.803   3.312  0.0283  2.7551 -0.1898
 6389SOL     OW30799   0.726   3.673  12.319 -0.2585 -0.4259 -0.5753
 6389SOL    HW130800   0.715   3.728  12.396  1.1340  0.1070 -0.7676
 6389SOL    HW230801   0.717   3.732  12.244 -0.0199  0.6065  0.2201
 6390SOL     OW30802   0.698   3.471  10.047 -0.3099  0.0585  0.4741
 6390SOL    HW130803   0.717   3.495   9.956  0.3734 -1.7440  0.1274
 6390SOL    HW230804   0.609   3.436  10.045  1.3099 -4.0745  0.8009
 6391SOL     OW30805   3.415   3.451  13.203  0.5044  0.1460 -0.1393
 6391SOL    HW130806   3.362   3.399  13.263  2.0043 -0.5621  0.5663
 6391SOL    HW230807   3.414   3.541  13.235 -1.6409  0.3977 -0.9570
 6392SOL     OW30808   4.497   1.473   3.951 -0.0894 -0.4006  0.2470
 6392SOL    HW130809   4.507   1.475   3.855 -0.7607  0.1905  0.1891
 6392SOL    HW230810   4.406   1.501   3.965 -0.2133 -0.7839  0.2149
 6393SOL     OW30811   0.729   2.096   5.855  0.1706  0.2006  0.0847
 6393SOL    HW130812   0.698   2.006   5.858  4.9584 -1.4260  0.4697
 6393SOL    HW230813   0.817   2.084   5.818  0.1050 -0.9103  0.2985
 6394SOL     OW30814   0.961   2.230  11.543  0.0554  0.3272 -0.0955
 6394SOL    HW130815   1.039   2.196  11.499 -1.3375 -2.9912  0.0484
 6394SOL    HW230816   0.913   2.151  11.566  2.5870 -0.0729  3.9077
 6395SOL     OW30817   0.986   2.055   2.598  0.2922 -0.4826  0.0361
 6395SOL    HW130818   0.896   2.023   2.593 -0.0645  0.1152  2.3492
 6395SOL    HW230819   1.017   2.058   2.508 -0.6164 -0.1468 -0.2740
 6396SOL     OW30820   2.251   2.029   4.086  0.1309  0.1829  0.1759
 6396SOL    HW130821   2.323   2.025   4.023  0.0948  0.1515  0.1374
 6396SOL    HW230822   2.308   2.069   4.152 -0.6171 -0.0164  0.9389
 6397SOL     OW30823   3.001   0.409   5.667  0.0960  0.6645 -0.1077
 6397SOL    HW130824   2.941   0.353   5.717 -0.0532 -0.2900 -1.3576
 6397SOL    HW230825   2.945   0.447   5.599 -0.6363  0.1275  0.1918
 6398SOL     OW30826   2.804   2.245   8.524 -0.0768 -0.4198 -0.6810
 6398SOL    HW130827   2.767   2.182   8.585 -0.4925 -0.3398 -0.8455
 6398SOL    HW230828   2.866   2.185   8.484  2.3362  1.8007 -0.3000
 6399SOL     OW30829   2.696   3.099   3.952  0.0215  0.3698  0.3638
 6399SOL    HW130830   2.691   3.114   3.858  3.9239  1.3137  0.3199
 6399SOL    HW230831   2.603   3.095   3.977 -0.3883  0.3977 -1.1375
 6400SOL     OW30832   0.185   1.896   1.909 -0.2292 -0.2156  0.3499
 6400SOL    HW130833   0.253   1.918   1.973 -0.2572  0.3084  0.1958
 6400SOL    HW230834   0.190   1.801   1.917  3.7893 -0.1384 -1.0366
 6401SOL     OW30835   0.206   2.478   7.964  0.2386 -0.2826  0.3654
 6401SOL    HW130836   0.118   2.440   7.964  0.2981 -0.4256  1.0372
 6401SOL    HW230837   0.219   2.479   7.869 -1.2124 -0.3755  0.1681
 6402SOL     OW30838   3.896   3.606  15.743  0.4470 -0.1995 -0.3653
 6402SOL    HW130839   3.850   3.531  15.708  2.4211 -0.3506 -2.6107
 6402SOL    HW230840   3.981   3.612  15.700  1.0823 -0.3954  0.8646
 6403SOL     OW30841   1.253   0.439   1.502  0.5722 -0.0636  0.1575
 6403SOL    HW130842   1.315   0.471   1.437  0.1359 -0.1610 -0.3129
 6403SOL    HW230843   1.188   0.402   1.442 -1.4684  2.5273  0.7174
 6404SOL     OW30844   4.036   0.427  13.734  0.2503  0.1494  0.2234
 6404SOL    HW130845   4.047   0.519  13.708  0.3400  0.0321 -0.1628
 6404SOL    HW230846   4.117   0.379  13.716 -0.0748 -0.6814  1.0012
 6405SOL     OW30847   3.476   1.102  15.324  0.9033 -0.3796 -0.2584
 6405SOL    HW130848   3.443   1.160  15.393 -2.9756  1.2072 -3.4415
 6405SOL    HW230849   3.416   1.029  15.344  2.4913 -0.5150  4.0411
 6406SOL     OW30850   0.952   3.446  11.540  0.2324  0.0757 -0.1903
 6406SOL    HW130851   0.974   3.519  11.598 -1.1237  0.4094 -0.0912
 6406SOL    HW230852   0.856   3.440  11.545  0.2020  0.7866  0.1383
 6407SOL     OW30853   0.481   2.238  13.332  0.0868 -0.2718  0.3238
 6407SOL    HW130854   0.501   2.265  13.421  2.1688 -0.5040 -0.0831
 6407SOL    HW230855   0.389   2.264  13.330 -0.0414 -0.5934  2.5078
 6408SOL     OW30856   3.991   1.593   8.356  0.0111  0.6231  0.4136
 6408SOL    HW130857   4.004   1.669   8.300 -0.2128  0.2137 -0.2011
 6408SOL    HW230858   4.068   1.541   8.333  0.7738  2.6439 -1.5773
 6409SOL     OW30859   4.098   3.216   9.631 -0.1416 -0.1980  0.1544
 6409SOL    HW130860   4.148   3.243   9.708  0.6688  0.6889 -0.6696
 6409SOL    HW230861   4.130   3.280   9.567 -0.8953 -0.7520 -0.7676
 6410SOL     OW30862   3.596   3.139  11.918  0.6920 -0.0029 -0.6086
 6410SOL    HW130863   3.670   3.166  11.973 -1.1728  0.6575  1.5564
 6410SOL    HW230864   3.637   3.138  11.832  1.0685 -3.1665 -0.4188
 6411SOL     OW30865   1.055   2.196   6.450 -0.0573  0.2929  0.1361
 6411SOL    HW130866   1.092   2.203   6.538  0.5017 -0.7572 -0.0235
 6411SOL    HW230867   1.028   2.104   6.449 -1.0993  0.6109 -0.7796
 6412SOL     OW30868   4.279   1.684  11.670  0.1693  0.1685  0.1209
 6412SOL    HW130869   4.222   1.696  11.746 -1.2911 -1.5088 -0.7291
 6412SOL    HW230870   4.354   1.638  11.708 -0.2904  0.0858  0.9411
 6413SOL     OW30871   4.179   4.303   5.430  0.2051 -0.3435 -0.0965
 6413SOL    HW130872   4.110   4.237   5.428  0.2950 -0.4610  0.8538
 6413SOL    HW230873   4.174   4.335   5.340 -1.8968 -0.8575 -0.1746
 6414SOL     OW30874   3.607   2.395   1.322  0.6855  0.7066  0.4218
 6414SOL    HW130875   3.676   2.412   1.386  1.0477  0.8932 -0.0171
 6414SOL    HW230876   3.596   2.300   1.326  0.8824  0.7776  2.5204
 6415SOL     OW30877   4.531   1.641   7.081 -0.0691  0.2513  0.3840
 6415SOL    HW130878   4.518   1.594   7.164  0.6843  0.2775  0.5159
 6415SOL    HW230879   4.565   1.563   7.037  0.4947 -0.8261  2.7287
 6416SOL     OW30880   0.310   4.398   9.925 -0.2728  0.4928 -0.4664
 6416SOL    HW130881   0.264   4.354   9.854 -1.3980  1.4655 -0.3381
 6416SOL    HW230882   0.345   4.320   9.968 -1.7399 -1.2406 -2.4574
 6417SOL     OW30883   1.123   3.875   6.759  0.0220  0.1150  0.3732
 6417SOL    HW130884   1.119   3.896   6.665 -0.0751 -0.7742  0.1811
 6417SOL    HW230885   1.050   3.925   6.796  0.8963  0.7764  1.2160
 6418SOL     OW30886   0.769   0.429  16.024  0.1898  0.1139 -0.9203
 6418SOL    HW130887   0.855   0.386  16.024 -0.4282 -1.1324  0.0231
 6418SOL    HW230888   0.778   0.505  16.082 -1.3418 -1.1138  0.8984
 6419SOL     OW30889   4.130   2.592   5.010  0.5247 -0.1974  0.3743
 6419SOL    HW130890   4.119   2.572   5.103 -0.2097  1.1853  0.5916
 6419SOL    HW230891   4.042   2.575   4.975 -0.0636  0.6255  1.4596
 6420SOL     OW30892   1.923   2.219  16.844 -0.2666 -0.8087 -0.1965
 6420SOL    HW130893   1.870   2.236  16.766 -2.2873 -2.6184  0.7709
 6420SOL    HW230894   1.856   2.189  16.906 -0.9574 -1.2651 -1.1503
 6421SOL     OW30895   4.718   0.949   1.540 -0.2224 -0.1178  0.6147
 6421SOL    HW130896   4.695   0.923   1.629 -0.4886 -0.8649  0.3266
 6421SOL    HW230897   4.631   0.936   1.504  0.2329  0.4255 -0.6744
 6422SOL     OW30898   4.301   3.261   8.620 -0.0308  0.1971  0.1700
 6422SOL    HW130899   4.322   3.170   8.600 -1.2894 -0.2846  1.0575
 6422SOL    HW230900   4.381   3.283   8.668 -0.7366 -0.6120  1.7366
 6423SOL     OW30901   3.822   2.935   9.424  0.0495  0.2858  0.7887
 6423SOL    HW130902   3.806   2.948   9.331  0.0298  1.1884  0.9144
 6423SOL    HW230903   3.905   2.980   9.442 -0.1740  1.1758 -0.4621
 6424SOL     OW30904   2.799   4.362   3.627 -0.4878  0.2288  0.4510
 6424SOL    HW130905   2.882   4.408   3.638  0.0071 -0.4450 -0.4819
 6424SOL    HW230906   2.750   4.444   3.632 -0.3457  0.3695 -0.3980
 6425SOL     OW30907   3.925   2.133   3.987  0.2522  0.1991  0.2945
 6425SOL    HW130908   3.998   2.137   3.925  0.5606  0.0296  0.6470
 6425SOL    HW230909   3.960   2.187   4.058 -0.1552  0.0954  0.5695
 6426SOL     OW30910   3.360   2.324   8.720 -0.6391 -0.4808  0.2539
 6426SOL    HW130911   3.450   2.352   8.705 -0.0071 -3.0777 -0.6408
 6426SOL    HW230912   3.363   2.250   8.780  0.8237 -1.8876 -1.5428
 6427SOL     OW30913   3.995   3.934   5.540 -0.2745  0.1780 -0.1681
 6427SOL    HW130914   3.991   4.012   5.484  0.0755  1.9982  2.3495
 6427SOL    HW230915   4.008   3.972   5.627  1.3815  0.1453 -0.4062
 6428SOL     OW30916   0.077   1.318  11.111  0.1946  0.7895  0.1809
 6428SOL    HW130917   0.017   1.256  11.069  0.8339  0.2689  0.0320
 6428SOL    HW230918   0.061   1.315  11.205  0.8442 -2.2823  0.1828
 6429SOL     OW30919   2.244   0.957   7.530  0.0938 -0.6562  0.4036
 6429SOL    HW130920   2.174   0.910   7.486  0.0581 -0.1274 -0.1111
 6429SOL    HW230921   2.322   0.924   7.485  0.3752  0.5818 -0.0164
 6430SOL     OW30922   3.700   0.023   6.162  0.2967  0.4901  0.0797
 6430SOL    HW130923   3.744   0.098   6.202  0.4782 -0.2644  1.2798
 6430SOL    HW230924   3.749   4.733   6.084  0.5420 -3.4263  1.5994
 6431SOL     OW30925   0.141   4.307   4.222 -0.2489  0.8239 -0.0870
 6431SOL    HW130926   0.168   4.266   4.304  2.1629  1.5989 -0.4760
 6431SOL    HW230927   0.060   4.354   4.238 -0.0110  0.6212  1.6580
 6432SOL     OW30928   0.391   0.323   7.697 -0.9168 -0.2908 -0.0259
 6432SOL    HW130929   0.339   0.264   7.751  1.2834 -0.8951  1.3996
 6432SOL    HW230930   0.452   0.364   7.758 -0.4647  0.1910 -0.8025
 6433SOL     OW30931   3.559   3.238  16.616 -0.0335  0.2857 -0.0291
 6433SOL    HW130932   3.654   3.232  16.627  0.0156  2.8287  0.8642
 6433SOL    HW230933   3.526   3.240  16.706 -0.2758 -0.1788 -0.1083
 6434SOL     OW30934   2.810   3.671   9.915  0.3815 -0.7103 -0.0673
 6434SOL    HW130935   2.798   3.766   9.912  2.7183 -0.3978  1.0397
 6434SOL    HW230936   2.793   3.654  10.007  1.4085 -0.2124  0.2138
 6435SOL     OW30937   3.434   3.154  11.633 -0.1448  0.2009  0.6017
 6435SOL    HW130938   3.376   3.161  11.557  2.9314  1.3390 -1.6699
 6435SOL    HW230939   3.503   3.215  11.609 -1.9087  1.1843 -1.9631
 6436SOL     OW30940   3.087   2.547  11.062  0.2619 -0.0512  0.0295
 6436SOL    HW130941   3.035   2.488  11.116 -1.1444  0.8068 -0.3869
 6436SOL    HW230942   3.176   2.513  11.067  0.4034  0.6953  2.4389
 6437SOL     OW30943   3.915   1.329   8.903 -0.0476  0.0331  0.4729
 6437SOL    HW130944   3.972   1.306   8.829 -1.0749 -1.3510  0.1017
 6437SOL    HW230945   3.868   1.408   8.878 -0.8263 -0.4244  0.4769
 6438SOL     OW30946   4.401   2.907   3.616  0.3895  0.1304  0.0773
 6438SOL    HW130947   4.466   2.870   3.676  0.2978  2.1301  1.4496
 6438SOL    HW230948   4.402   2.859   3.534  1.8948 -0.3975  0.4019
 6439SOL     OW30949   0.974   2.554  13.522  0.5686  0.2176  0.0063
 6439SOL    HW130950   0.897   2.594  13.481  1.8154 -0.2939 -2.8528
 6439SOL    HW230951   0.938   2.466  13.529 -1.2555  0.5583 -5.5559
 6440SOL     OW30952   1.820   4.504   5.816  0.0647 -0.7542  0.0422
 6440SOL    HW130953   1.771   4.452   5.880  0.9664 -1.7623 -0.0848
 6440SOL    HW230954   1.886   4.543   5.872 -1.0008 -1.6527  1.9422
 6441SOL     OW30955   3.888   0.118   5.218  0.8542 -0.6253  0.5581
 6441SOL    HW130956   3.800   0.155   5.216  0.6775 -1.2687 -3.0602
 6441SOL    HW230957   3.940   0.194   5.241  1.1094 -0.6600  0.0966
 6442SOL     OW30958   2.295   0.367   2.818 -0.3406 -0.2801  0.4915
 6442SOL    HW130959   2.222   0.347   2.759  0.1325 -3.5953  1.0031
 6442SOL    HW230960   2.312   0.460   2.808  1.4053 -0.6375  0.1887
 6443SOL     OW30961   0.092   4.653   3.602  0.3039 -0.1345  0.1372
 6443SOL    HW130962   0.039   4.688   3.531  1.7110  2.2046  0.2270
 6443SOL    HW230963   0.053   4.566   3.610  0.8802 -0.4545 -0.5318
 6444SOL     OW30964   2.052   4.729   6.210 -0.5012 -0.5952 -0.1081
 6444SOL    HW130965   1.983   0.023   6.269 -1.0759 -0.2363 -0.9658
 6444SOL    HW230966   2.116   4.700   6.274 -1.4320 -0.8688  0.7051
 6445SOL     OW30967   3.524   1.125   3.039  0.2616 -0.3041 -0.3105
 6445SOL    HW130968   3.591   1.193   3.040 -1.0861  0.9978  1.2463
 6445SOL    HW230969   3.449   1.179   3.016 -0.2652 -0.2924  1.4302
 6446SOL     OW30970   0.865   2.178   3.353 -0.2164 -0.9123 -0.3754
 6446SOL    HW130971   0.777   2.177   3.389  0.1422  0.6558  0.5530
 6446SOL    HW230972   0.860   2.138   3.266 -0.9355 -1.0728 -0.2532
 6447SOL     OW30973   3.583   1.681  10.292  0.1369  0.5643  0.2583
 6447SOL    HW130974   3.622   1.750  10.346  1.2474 -0.2981  0.5478
 6447SOL    HW230975   3.655   1.663  10.232 -0.5368  1.2427 -0.7459
 6448SOL     OW30976   0.019   1.175   8.087 -0.0504  0.2471  0.1542
 6448SOL    HW130977   4.678   1.215   8.127 -0.0087 -1.4722  1.9771
 6448SOL    HW230978   0.086   1.220   8.138 -1.4029  2.0052  0.3952
 6449SOL     OW30979   0.085   3.921   8.463 -0.0988  0.1678 -0.0652
 6449SOL    HW130980   4.729   3.911   8.481  0.3482 -2.1503  1.0309
 6449SOL    HW230981   0.110   3.840   8.418  0.5909 -0.1117  0.8236
 6450SOL     OW30982   3.228   2.383   5.158 -0.2816 -0.1507 -0.7184
 6450SOL    HW130983   3.219   2.474   5.185  2.9678  0.0105 -0.1260
 6450SOL    HW230984   3.189   2.396   5.071  0.3682  1.0683 -0.8172
 6451SOL     OW30985   0.663   4.352   1.772  0.1406 -0.7065  0.1283
 6451SOL    HW130986   0.683   4.437   1.810  3.8002 -0.3255 -2.6128
 6451SOL    HW230987   0.750   4.317   1.791 -0.0124 -0.5425  1.1358
 6452SOL     OW30988   1.011   4.032   3.853 -0.3845 -0.1707  0.2839
 6452SOL    HW130989   0.992   3.960   3.793 -1.0836 -0.6619  1.1037
 6452SOL    HW230990   0.984   3.986   3.932 -0.3087 -1.8232 -0.6593
 6453SOL     OW30991   3.645   3.735   6.303  0.5118  0.5203 -0.2097
 6453SOL    HW130992   3.646   3.800   6.233  0.9032  0.4082 -0.3086
 6453SOL    HW230993   3.729   3.692   6.287  0.2197 -0.4799  0.9313
 6454SOL     OW30994   1.006   4.051  15.785  0.2045 -0.0024 -0.0588
 6454SOL    HW130995   0.975   4.043  15.694 -2.2768  0.9114  0.6969
 6454SOL    HW230996   0.923   4.074  15.827  1.5332 -1.1525  3.2032
 6455SOL     OW30997   0.470   2.688   1.262  0.3563  0.6584  0.3885
 6455SOL    HW130998   0.531   2.722   1.196  0.3086 -2.0495 -1.0532
 6455SOL    HW230999   0.384   2.667   1.225  1.8216  0.7736 -3.0842
 6456SOL     OW31000   2.634   1.749   3.260  0.3937  0.1504  0.5516
 6456SOL    HW131001   2.630   1.682   3.329 -0.1910 -3.0011 -2.5284
 6456SOL    HW231002   2.719   1.787   3.284 -0.5999  3.1335 -0.7504
 6457SOL     OW31003   2.369   0.836   1.896  0.0216 -0.0736 -0.1810
 6457SOL    HW131004   2.276   0.815   1.905  0.1982 -0.1290  1.4635
 6457SOL    HW231005   2.369   0.930   1.910 -1.3012 -0.2817  1.2043
 6458SOL     OW31006   2.038   0.174   9.428 -0.6455 -0.1220 -0.1607
 6458SOL    HW131007   1.952   0.218   9.434 -0.3405  0.5780 -0.8636
 6458SOL    HW231008   2.006   0.089   9.398  2.0918 -1.6438  1.2554
 6459SOL     OW31009   1.066   3.599   2.350 -0.5096 -0.1108 -0.0001
 6459SOL    HW131010   0.973   3.623   2.357 -0.8021 -0.7340 -1.6290
 6459SOL    HW231011   1.112   3.663   2.405 -1.8850  0.8526  0.0304
 6460SOL     OW31012   4.185   2.602   2.451 -0.2823  0.0108 -0.1790
 6460SOL    HW131013   4.220   2.680   2.407  1.4549 -1.5057 -1.4610
 6460SOL    HW231014   4.203   2.534   2.387 -2.2102 -0.4364 -0.2241
 6461SOL     OW31015   4.445   0.541  15.029 -0.4993  0.2027  0.3131
 6461SOL    HW131016   4.391   0.501  14.960 -2.2727  0.7928  1.3619
 6461SOL    HW231017   4.381   0.607  15.057  1.6791  3.4203 -2.3128
 6462SOL     OW31018   1.788   1.844   8.039 -0.3090 -0.0261  0.1081
 6462SOL    HW131019   1.765   1.936   8.052 -1.1050 -0.0063 -1.3739
 6462SOL    HW231020   1.725   1.808   8.102  0.2949  0.9236  1.2447
 6463SOL     OW31021   2.107   4.590   5.136  0.2015 -0.3714  0.5974
 6463SOL    HW131022   2.105   4.554   5.225 -1.8048 -0.9425  0.3340
 6463SOL    HW231023   2.054   4.668   5.154 -1.5957 -1.6011  0.6651
 6464SOL     OW31024   1.200   0.150   2.317 -0.2768  0.0617  0.5019
 6464SOL    HW131025   1.154   0.217   2.367  2.4860  2.1701  0.2614
 6464SOL    HW231026   1.157   0.165   2.233 -0.4441  1.0689  0.7663
 6465SOL     OW31027   2.542   3.132   5.188  0.1769  0.4018 -0.4535
 6465SOL    HW131028   2.574   3.219   5.165 -1.7070  0.8295 -1.4808
 6465SOL    HW231029   2.594   3.110   5.265 -1.5685 -0.3853  0.5182
 6466SOL     OW31030   1.379   0.277   3.247  0.4702 -0.1853 -0.4396
 6466SOL    HW131031   1.432   0.218   3.194  0.5030  1.0293 -1.7657
 6466SOL    HW231032   1.381   0.363   3.205  2.2350  0.9812  2.0671
 6467SOL     OW31033   0.730   1.466   3.428  0.2789 -0.0372 -0.1708
 6467SOL    HW131034   0.747   1.533   3.493  0.6940 -0.4499  0.1421
 6467SOL    HW231035   0.745   1.508   3.343 -3.7157  1.9840  0.1067
 6468SOL     OW31036   1.499   0.590   4.935 -0.4416 -0.5952  0.0911
 6468SOL    HW131037   1.514   0.661   4.996 -0.3545 -1.6854  1.3437
 6468SOL    HW231038   1.574   0.605   4.876  1.0357 -3.6819  1.1772
 6469SOL     OW31039   3.795   2.877  15.477 -0.8831 -0.3830 -0.3071
 6469SOL    HW131040   3.825   2.963  15.446  0.3063 -0.9622 -0.7318
 6469SOL    HW231041   3.800   2.888  15.572  2.2045 -0.3093 -0.4818
 6470SOL     OW31042   0.692   1.523  11.115  0.4654  0.2332  0.0628
 6470SOL    HW131043   0.730   1.602  11.077  1.4187 -0.0794  0.3801
 6470SOL    HW231044   0.632   1.488  11.049  0.1140 -2.1801  1.6772
 6471SOL     OW31045   3.587   0.997   2.656 -0.3473 -0.0541  0.4022
 6471SOL    HW131046   3.535   0.973   2.733 -1.1092 -0.6642 -0.3114
 6471SOL    HW231047   3.529   0.989   2.581  1.0861 -2.9779 -0.3982
 6472SOL     OW31048   4.356   1.745   5.937 -0.6242  0.1106 -0.3217
 6472SOL    HW131049   4.273   1.790   5.920 -0.2133  0.7598 -0.6089
 6472SOL    HW231050   4.345   1.676   5.871 -0.9805  0.6430 -0.8206
 6473SOL     OW31051   2.844   3.273   3.631 -0.1254 -0.5933 -0.3015
 6473SOL    HW131052   2.914   3.272   3.566  0.3312  2.1666  0.1294
 6473SOL    HW231053   2.887   3.322   3.701 -1.2505 -0.9393  0.6267
 6474SOL     OW31054   0.772   4.558  10.587  0.0562 -0.5776 -0.2850
 6474SOL    HW131055   0.739   4.645  10.612 -1.6221 -1.2209 -0.2566
 6474SOL    HW231056   0.777   4.562  10.492 -0.6222 -0.3701 -0.3139
 6475SOL     OW31057   0.578   2.203   2.719 -0.5379  0.3909 -0.0600
 6475SOL    HW131058   0.652   2.143   2.706  0.6974  1.4712  2.0743
 6475SOL    HW231059   0.509   2.137   2.724  0.7434 -0.9145  0.6034
 6476SOL     OW31060   0.614   0.315  17.744 -0.0731 -0.8759 -0.2254
 6476SOL    HW131061   0.641   0.346   0.082  3.2961  0.9569 -1.9517
 6476SOL    HW231062   0.570   0.391  17.705 -1.0290  0.2858  3.1197
 6477SOL     OW31063   2.258   0.296   9.287 -0.0476 -0.1767  0.5637
 6477SOL    HW131064   2.181   0.260   9.330  0.4900 -2.1458 -0.1364
 6477SOL    HW231065   2.255   0.245   9.206  1.7597 -0.3680  0.6162
 6478SOL     OW31066   0.119   1.950   4.209 -0.0508 -0.1466 -0.1848
 6478SOL    HW131067   0.103   2.016   4.277  1.6099 -0.9598  0.9852
 6478SOL    HW231068   0.069   1.875   4.239  0.4928  0.2792  1.8354
 6479SOL     OW31069   4.676   4.320  16.411 -0.9104 -0.3608  0.0951
 6479SOL    HW131070   4.674   4.415  16.404 -1.6394 -0.4267 -0.7376
 6479SOL    HW231071   0.030   4.297  16.428 -0.1281  1.5222 -1.6086
 6480SOL     OW31072   0.197   0.919   8.101 -0.9742  0.2619 -0.2398
 6480SOL    HW131073   0.147   1.000   8.097  1.7200  1.9380 -0.3095
 6480SOL    HW231074   0.129   0.857   8.124 -1.5362  0.8425 -0.3476
 6481SOL     OW31075   1.099   4.178   2.363 -0.0081 -0.1528 -0.2504
 6481SOL    HW131076   1.017   4.167   2.316 -0.4388 -0.6820  0.6126
 6481SOL    HW231077   1.135   4.091   2.344 -3.3043 -2.0474  2.1312
 6482SOL     OW31078   1.682   0.004   2.259 -0.4834 -0.0562  0.1155
 6482SOL    HW131079   1.660   4.663   2.208  3.3935  0.3790 -2.2572
 6482SOL    HW231080   1.603   0.054   2.239 -1.1291 -0.9678  0.4090
 6483SOL     OW31081   3.754   3.244   4.306  0.1298  0.9258 -0.7106
 6483SOL    HW131082   3.771   3.185   4.380 -0.3277 -0.6651 -1.8664
 6483SOL    HW231083   3.842   3.271   4.279  1.3139  1.9685  4.1365
 6484SOL     OW31084   1.494   1.357   1.630 -0.3929 -0.2489 -0.4528
 6484SOL    HW131085   1.505   1.321   1.542  1.2679  0.1717 -0.4109
 6484SOL    HW231086   1.538   1.287   1.678 -2.0429 -1.2324 -0.3669
 6485SOL     OW31087   3.192   3.026   6.201  0.1563 -0.2983 -0.5835
 6485SOL    HW131088   3.118   3.056   6.149 -0.2876  0.2252  0.3506
 6485SOL    HW231089   3.230   2.967   6.136  2.7049  0.9889 -0.2518
 6486SOL     OW31090   1.488   1.245   7.021 -0.1752 -0.0554  0.7667
 6486SOL    HW131091   1.456   1.155   7.015 -0.8978  0.2781 -0.4394
 6486SOL    HW231092   1.576   1.234   7.057  0.2341 -1.4817 -0.6851
 6487SOL     OW31093   1.517   3.196   0.035  0.0343 -0.3408 -0.5501
 6487SOL    HW131094   1.532   3.273  17.728 -1.0521 -0.0545 -0.4438
 6487SOL    HW231095   1.543   3.124  17.726 -0.2019  1.4754 -2.9414
 6488SOL     OW31096   1.538   0.667   5.346 -0.2988  0.0618 -1.1475
 6488SOL    HW131097   1.514   0.673   5.439  2.7091  0.4565 -0.3909
 6488SOL    HW231098   1.481   0.724   5.294 -0.4724  1.6563  0.7874
 6489SOL     OW31099   2.227   0.384   6.203 -0.0452  0.4779 -0.4825
 6489SOL    HW131100   2.149   0.352   6.157  0.3287 -2.0400  0.6342
 6489SOL    HW231101   2.302   0.339   6.164  1.0371  0.3246  1.7886
 6490SOL     OW31102   3.119   1.055   9.153  0.0556 -0.4458  0.4646
 6490SOL    HW131103   3.131   0.963   9.177 -1.6264 -0.7874 -0.0634
 6490SOL    HW231104   3.151   1.062   9.062 -0.1983 -1.3204  0.3084
 6491SOL     OW31105   2.223   2.958  15.290 -0.5104 -0.0753 -0.1291
 6491SOL    HW131106   2.145   2.914  15.324 -1.3667  1.8879  0.4397
 6491SOL    HW231107   2.225   3.047  15.327  0.0847 -0.3690  0.5394
 6492SOL     OW31108   3.403   2.192  15.370 -0.2376  0.1213  0.4270
 6492SOL    HW131109   3.457   2.113  15.377  0.0426  0.3834  1.1798
 6492SOL    HW231110   3.451   2.255  15.316  0.2024 -0.0427  0.6207
 6493SOL     OW31111   0.426   0.456   3.827 -0.3700  0.0339  0.1937
 6493SOL    HW131112   0.393   0.498   3.748 -0.9710  1.6492  1.2903
 6493SOL    HW231113   0.454   0.376   3.783 -2.8179 -0.8638  0.2612
 6494SOL     OW31114   4.587   3.977   3.146 -0.0453  0.5494 -0.1489
 6494SOL    HW131115   4.566   3.936   3.063  0.6002  1.2919 -0.6847
 6494SOL    HW231116   4.683   3.982   3.147 -0.0439  0.7265 -1.4780
 6495SOL     OW31117   3.735   0.484   5.544  0.1189  0.5487  0.4835
 6495SOL    HW131118   3.698   0.555   5.596 -2.2272 -0.8709  0.7223
 6495SOL    HW231119   3.661   0.423   5.537 -0.8595  1.8857 -0.8022
 6496SOL     OW31120   1.174   1.184   8.216 -0.5731 -0.2508  0.4954
 6496SOL    HW131121   1.129   1.170   8.133 -0.0886  0.4547  0.1165
 6496SOL    HW231122   1.253   1.130   8.213  0.4099  1.2724 -0.7579
 6497SOL     OW31123   0.029   2.134   5.887  0.4956  0.5522 -0.8009
 6497SOL    HW131124   0.123   2.151   5.878  0.4685  1.7932  1.4529
 6497SOL    HW231125   4.725   2.196   5.827 -3.2316  0.7173  1.9783
 6498SOL     OW31126   2.466   1.770   7.053 -0.1226  0.6694  0.1437
 6498SOL    HW131127   2.546   1.770   7.000  0.6297 -0.4712  1.2714
 6498SOL    HW231128   2.497   1.745   7.140  0.9885  0.9945 -0.1519
 6499SOL     OW31129   1.007   4.729   8.930 -0.8595  0.4992 -0.3422
 6499SOL    HW131130   1.033   0.038   9.010 -1.5101  0.7535 -0.2736
 6499SOL    HW231131   1.091   4.706   8.890 -1.1951  0.7451 -1.1886
 6500SOL     OW31132   1.974   0.443   1.606  0.0281 -0.1750  0.4394
 6500SOL    HW131133   1.931   0.365   1.642 -0.9399 -0.8646 -2.1563
 6500SOL    HW231134   1.973   0.491   1.688  1.0764  1.0142 -0.2375
 6501SOL     OW31135   1.884   0.573   2.848  0.0103 -0.1805 -0.2760
 6501SOL    HW131136   1.799   0.617   2.848  0.3113  0.3921  1.2511
 6501SOL    HW231137   1.865   0.492   2.801 -1.6431 -0.3166  0.6485
 6502SOL     OW31138   4.703   4.233  14.269  0.6435  0.3398  0.4355
 6502SOL    HW131139   4.693   4.257  14.176 -0.5163 -0.9992  0.2109
 6502SOL    HW231140   4.627   4.176  14.277  0.0934  1.5063  3.2995
 6503SOL     OW31141   1.851   2.931   7.600 -0.0076  0.4054 -0.0437
 6503SOL    HW131142   1.926   2.907   7.654 -0.6830  0.3730  0.8708
 6503SOL    HW231143   1.796   2.862   7.636  1.8837 -1.9424 -1.6403
 6504SOL     OW31144   4.405   4.443   6.087 -0.3863 -0.4142 -0.1191
 6504SOL    HW131145   4.451   4.527   6.085 -0.4414 -0.3996 -0.7552
 6504SOL    HW231146   4.445   4.410   6.007 -0.3806 -0.4259 -0.1116
 6505SOL     OW31147   0.279   2.816  12.455 -0.2327 -0.1815 -0.3802
 6505SOL    HW131148   0.311   2.843  12.370 -0.8517  1.8962  0.0508
 6505SOL    HW231149   0.349   2.832  12.518 -0.6094 -0.3522  0.0911
 6506SOL     OW31150   4.577   2.899  12.677  0.6052  0.5850 -0.5219
 6506SOL    HW131151   4.637   2.895  12.603  0.1128  0.4020 -0.9147
 6506SOL    HW231152   4.642   2.892  12.747 -1.2159 -2.6319  0.8508
 6507SOL     OW31153   2.944   3.826   0.965  0.2078 -0.1919 -0.6929
 6507SOL    HW131154   2.871   3.807   0.907 -1.5424  0.1849  1.3830
 6507SOL    HW231155   2.912   3.763   1.029 -1.8619  1.2392 -0.3293
 6508SOL     OW31156   2.951   4.420   4.494  0.9259 -0.0311 -0.2648
 6508SOL    HW131157   2.868   4.467   4.509  0.6812 -0.5176 -0.0988
 6508SOL    HW231158   2.949   4.345   4.553 -0.3452  0.6198  0.5375
 6509SOL     OW31159   1.146   2.812   5.831  0.6221 -0.0186 -0.1118
 6509SOL    HW131160   1.096   2.744   5.786 -0.5212  0.4189  0.4973
 6509SOL    HW231161   1.237   2.789   5.813  0.0267 -2.3980 -0.1526
 6510SOL     OW31162   0.559   1.428  14.020  0.4296  0.2826 -0.0269
 6510SOL    HW131163   0.544   1.485  13.945 -3.2152  0.2036  0.6184
 6510SOL    HW231164   0.603   1.356  13.975 -0.5200 -1.0468  1.1544
 6511SOL     OW31165   1.479   2.522   7.743 -0.0640 -0.0307 -0.0231
 6511SOL    HW131166   1.384   2.524   7.757  0.0176 -2.3498  0.8778
 6511SOL    HW231167   1.509   2.498   7.830 -2.1373  1.0620  0.9981
 6512SOL     OW31168   2.278   0.475   1.022 -0.0070 -0.2644 -0.2047
 6512SOL    HW131169   2.277   0.380   1.036  1.0155 -0.6186 -2.6107
 6512SOL    HW231170   2.365   0.495   0.987  0.3831  0.8390  1.3779
 6513SOL     OW31171   1.431   0.996   1.559  0.0762 -0.7737  0.1719
 6513SOL    HW131172   1.360   1.053   1.588 -0.3895 -0.3565 -1.7536
 6513SOL    HW231173   1.459   0.952   1.639 -2.0056 -2.3832  0.0414
 6514SOL     OW31174   1.247   4.035  12.150 -0.1771  0.5891  0.1030
 6514SOL    HW131175   1.266   4.108  12.209 -0.2657 -0.1003  0.9979
 6514SOL    HW231176   1.232   4.070  12.063  1.1206  1.3533  0.1912
 6515SOL     OW31177   2.818   4.292   8.398  0.4024 -0.6657  0.3730
 6515SOL    HW131178   2.899   4.305   8.448  1.0195  0.6592 -0.9644
 6515SOL    HW231179   2.840   4.307   8.306  3.5501  0.6969  1.3350
 6516SOL     OW31180   4.333   3.239   4.067 -0.4203 -0.0074 -0.2002
 6516SOL    HW131181   4.249   3.283   4.052 -1.2366 -1.3738  0.3724
 6516SOL    HW231182   4.316   3.166   4.008 -2.9049  1.6252 -1.4843
 6517SOL     OW31183   2.969   3.545   8.820 -0.1199 -0.3238  0.7235
 6517SOL    HW131184   3.051   3.523   8.864  0.3282  1.9702  1.0199
 6517SOL    HW231185   2.945   3.463   8.776 -0.6475 -0.0055  0.4085
 6518SOL     OW31186   0.002   1.789   5.067  0.1715  0.4061  0.0116
 6518SOL    HW131187   4.728   1.855   5.136  0.6166 -1.3992  1.7923
 6518SOL    HW231188   4.649   1.787   5.035  0.1858  0.9310 -0.0688
 6519SOL     OW31189   2.837   3.387   6.994  0.3410 -0.3055 -0.1438
 6519SOL    HW131190   2.876   3.473   7.009 -2.1971  0.8650 -0.2720
 6519SOL    HW231191   2.912   3.327   7.001  1.0512  0.7368  1.1879
 6520SOL     OW31192   2.894   0.600   8.502 -0.6045  0.5568 -0.5926
 6520SOL    HW131193   2.844   0.604   8.420  1.8089 -2.8931 -2.2187
 6520SOL    HW231194   2.946   0.521   8.484 -1.9323 -0.5616  0.4153
 6521SOL     OW31195   0.712   4.715   5.737  0.0598  0.1818 -0.3478
 6521SOL    HW131196   0.674   4.647   5.681  0.9911  0.4222 -1.2802
 6521SOL    HW231197   0.722   0.045   5.670 -0.4567 -1.3230 -1.9345
 6522SOL     OW31198   3.158   0.840   8.606 -0.1700 -0.4196 -0.2809
 6522SOL    HW131199   3.204   0.765   8.567 -0.0297 -1.3032  1.5576
 6522SOL    HW231200   3.116   0.797   8.681  0.2927  1.6641  1.1810
 6523SOL     OW31201   0.869   1.493   6.085  0.0377 -0.3509 -0.0120
 6523SOL    HW131202   0.836   1.404   6.091 -1.6600  0.1797 -1.3500
 6523SOL    HW231203   0.794   1.534   6.041 -1.3863 -2.6468  0.2749
 6524SOL     OW31204   0.141   4.523  12.691  0.0637  0.0201 -0.1065
 6524SOL    HW131205   0.095   4.582  12.633  0.5718  2.4082  1.9347
 6524SOL    HW231206   0.182   4.588  12.748 -0.1402  2.1410 -2.4013
 6525SOL     OW31207   1.144   4.328   1.401  0.3801 -0.8167 -0.0084
 6525SOL    HW131208   1.237   4.317   1.421  0.9914  1.7521 -1.4070
 6525SOL    HW231209   1.139   4.422   1.383 -1.3261 -0.6932  1.0994
 6526SOL     OW31210   4.736   3.649   3.211 -0.2640 -0.1586 -0.2178
 6526SOL    HW131211   4.733   3.677   3.120 -1.6611  1.1663  0.2173
 6526SOL    HW231212   4.717   3.556   3.217  1.0213 -0.5098 -1.6669
 6527SOL     OW31213   1.595   2.035  15.005 -0.0033  0.0785  0.2479
 6527SOL    HW131214   1.599   2.110  15.064 -0.2541 -0.5071  1.0165
 6527SOL    HW231215   1.687   2.037  14.979  0.1366  1.0097  0.8157
 6528SOL     OW31216   0.221   2.940   7.332 -0.1710 -0.6493 -0.1814
 6528SOL    HW131217   0.147   2.915   7.387  0.2325  1.6654  1.4019
 6528SOL    HW231218   0.192   2.921   7.243  1.3554 -1.1277 -0.5895
 6529SOL     OW31219   1.196   1.726   6.254  0.1211 -0.6201  0.2623
 6529SOL    HW131220   1.191   1.705   6.347 -1.2458  1.9180  0.7662
 6529SOL    HW231221   1.291   1.738   6.246  0.2205 -0.3915  1.8669
 6530SOL     OW31222   4.246   1.725   7.241  0.1213 -0.6561 -0.1002
 6530SOL    HW131223   4.313   1.697   7.178  0.4970 -0.1203  0.0617
 6530SOL    HW231224   4.234   1.641   7.286  0.8305  0.3630  1.9942
 6531SOL     OW31225   1.965   1.386   9.674 -0.4013  0.3104  0.1706
 6531SOL    HW131226   1.987   1.426   9.590  0.6372 -1.4550 -0.3909
 6531SOL    HW231227   1.975   1.467   9.723  0.8201 -0.0524  0.5070
 6532SOL     OW31228   0.401   1.758   7.318 -0.3432  0.2427  0.5127
 6532SOL    HW131229   0.453   1.702   7.261  0.5513  2.0214 -0.4245
 6532SOL    HW231230   0.315   1.730   7.285  0.3386 -2.8408  1.3250
 6533SOL     OW31231   1.728   3.177   4.688 -0.5724 -0.7752 -0.0384
 6533SOL    HW131232   1.795   3.242   4.710 -3.5053  2.2088 -0.0320
 6533SOL    HW231233   1.773   3.092   4.694 -0.8075 -0.8625  0.5257
 6534SOL     OW31234   2.769   1.160   8.692 -0.7382  0.3972 -0.2394
 6534SOL    HW131235   2.784   1.151   8.786 -3.1274 -0.9006  0.0292
 6534SOL    HW231236   2.813   1.081   8.660 -0.3323  0.7392 -0.5183
 6535SOL     OW31237   2.610   2.928   5.685  0.8062 -0.0176 -0.3754
 6535SOL    HW131238   2.594   2.848   5.636 -0.8046 -1.4517  2.4753
 6535SOL    HW231239   2.533   2.977   5.658 -0.1755 -0.3246  1.8418
 6536SOL     OW31240   3.756   0.592   5.222  0.0743  0.4520 -0.5670
 6536SOL    HW131241   3.725   0.532   5.155 -1.5992 -0.6588  1.1859
 6536SOL    HW231242   3.763   0.546   5.306  1.9979 -1.4316 -1.7923
 6537SOL     OW31243   2.033   1.226   9.169  0.1586 -0.1863 -0.3689
 6537SOL    HW131244   1.965   1.237   9.235  0.5536  1.7721 -0.2803
 6537SOL    HW231245   2.000   1.260   9.086 -1.4466  2.9558  1.5833
 6538SOL     OW31246   3.717   0.364   1.082 -0.1045  0.3380 -0.3444
 6538SOL    HW131247   3.695   0.445   1.035 -0.1296 -0.3600 -1.5235
 6538SOL    HW231248   3.634   0.335   1.120  1.2250 -2.3456  0.5134
 6539SOL     OW31249   3.722   3.249   3.220  0.5539  0.1483 -0.0714
 6539SOL    HW131250   3.686   3.238   3.132  1.1814 -1.7053 -0.0948
 6539SOL    HW231251   3.638   3.252   3.266  0.2642 -0.2260 -0.5827
 6540SOL     OW31252   4.293   1.923   7.717  0.4352 -1.2925 -0.0267
 6540SOL    HW131253   4.373   1.974   7.706 -0.2636 -0.3060 -0.5187
 6540SOL    HW231254   4.244   1.941   7.636  0.7933 -0.6218 -0.0896
 6541SOL     OW31255   1.020   2.771  17.173 -0.6190 -0.0820 -0.1378
 6541SOL    HW131256   0.981   2.829  17.238 -1.9451 -0.4799 -0.5821
 6541SOL    HW231257   1.004   2.687  17.214 -1.2664  0.3270  0.4401
 6542SOL     OW31258   1.678   0.098   9.436  0.4937  0.2166  0.5747
 6542SOL    HW131259   1.743   0.089   9.505  0.4634 -1.2644  0.4108
 6542SOL    HW231260   1.637   0.182   9.457  2.0200  1.3177 -0.9100
 6543SOL     OW31261   1.573   2.177  16.883  0.1569  0.7249  0.1418
 6543SOL    HW131262   1.656   2.172  16.931  1.3843 -2.9701 -2.3694
 6543SOL    HW231263   1.583   2.259  16.834 -2.5639  2.1215  1.9182
 6544SOL     OW31264   0.058   1.159   4.875  0.2173 -0.1651 -0.0539
 6544SOL    HW131265   0.049   1.144   4.781 -0.7555  0.0186  0.0111
 6544SOL    HW231266   0.093   1.071   4.891 -1.0927 -0.5578  0.7363
 6545SOL     OW31267   3.019   0.554   3.186  0.5275  0.2009 -0.0935
 6545SOL    HW131268   2.924   0.561   3.194  0.4495 -0.3026 -0.5768
 6545SOL    HW231269   3.029   0.627   3.124  1.0554  1.9531  2.0395
 6546SOL     OW31270   3.295   3.078   3.451 -0.1433  0.4968  0.2438
 6546SOL    HW131271   3.241   3.017   3.401  0.1959  1.4989 -1.3265
 6546SOL    HW231272   3.226   3.111   3.509 -0.4474  0.4732 -0.1059
 6547SOL     OW31273   3.584   1.983  10.155  0.6547  0.1048 -0.3828
 6547SOL    HW131274   3.569   1.889  10.143  1.6973 -0.0824 -0.2553
 6547SOL    HW231275   3.625   2.011  10.074  1.8223  1.6131  0.7310
 6548SOL     OW31276   4.660   3.012   6.085 -0.3657 -0.6101  0.0633
 6548SOL    HW131277   4.686   3.084   6.142  0.8995 -0.1735 -1.0713
 6548SOL    HW231278   4.721   2.942   6.110  0.9224  1.3200  2.3640
 6549SOL     OW31279   0.546   0.440   0.233 -0.2177 -0.2452  0.8145
 6549SOL    HW131280   0.492   0.394   0.297 -0.2192 -1.0911  0.2050
 6549SOL    HW231281   0.501   0.524   0.228  1.4895  0.7222  1.6692
 6550SOL     OW31282   0.226   2.490   6.378  0.9168 -0.0412  0.1532
 6550SOL    HW131283   0.136   2.458   6.364  1.3041 -0.6267 -0.9801
 6550SOL    HW231284   0.228   2.564   6.318 -0.6842 -0.0107  0.1194
 6551SOL     OW31285   3.704   1.605   1.660 -0.0739  0.1521  0.0369
 6551SOL    HW131286   3.740   1.686   1.623  0.0846  0.0955  0.0692
 6551SOL    HW231287   3.640   1.643   1.720 -0.4241  1.7487 -1.3507
 6552SOL     OW31288   3.724   1.150  10.691 -0.4281  0.5187 -0.0718
 6552SOL    HW131289   3.722   1.171  10.784 -2.6813  0.5866 -0.1471
 6552SOL    HW231290   3.819   1.149  10.676 -0.2528 -0.7555  1.1785
 6553SOL     OW31291   0.868   1.507  12.739 -0.6202  0.1066  0.5778
 6553SOL    HW131292   0.826   1.422  12.728 -2.3876  1.2433 -1.5019
 6553SOL    HW231293   0.902   1.512  12.650  1.4293 -0.2932  1.3433
 6554SOL     OW31294   0.417   2.913   5.546  0.1204  0.3995  0.1799
 6554SOL    HW131295   0.405   2.995   5.594  0.4122 -0.5124  1.7922
 6554SOL    HW231296   0.507   2.892   5.571 -0.7739 -1.1650  2.0456
 6555SOL     OW31297   2.987   2.647   4.045 -0.3934  0.0622  0.0006
 6555SOL    HW131298   2.990   2.725   4.101  0.7211 -2.0243  2.8779
 6555SOL    HW231299   3.080   2.631   4.035  0.2168  4.5139 -1.2317
 6556SOL     OW31300   1.283   0.805   8.803  0.1390 -0.2781  0.9888
 6556SOL    HW131301   1.261   0.750   8.878 -0.4032 -0.5105  0.6551
 6556SOL    HW231302   1.296   0.890   8.844  1.9976  1.0173 -2.2636
 6557SOL     OW31303   2.159   2.807   4.003  0.0177  0.0147  0.9193
 6557SOL    HW131304   2.250   2.786   3.984 -0.1054  2.6233 -2.6792
 6557SOL    HW231305   2.160   2.843   4.091  0.4698  1.1610  0.4547
 6558SOL     OW31306   3.740   4.209   5.499 -0.0133 -0.2086  0.7024
 6558SOL    HW131307   3.756   4.301   5.478 -0.2082 -0.2315  0.4460
 6558SOL    HW231308   3.743   4.201   5.594  1.7658  0.8155  0.7249
 6559SOL     OW31309   4.043   4.089   2.153 -0.3118  0.1079 -0.4220
 6559SOL    HW131310   3.965   4.034   2.155 -0.1692 -0.1114 -0.8665
 6559SOL    HW231311   4.006   4.169   2.116  0.1517  0.2688 -0.5449
 6560SOL     OW31312   2.171   0.864   8.297 -0.2649  0.0370 -0.7480
 6560SOL    HW131313   2.184   0.775   8.330  2.9712  0.1334 -1.8285
 6560SOL    HW231314   2.149   0.850   8.205 -1.0493 -0.1345 -0.5324
 6561SOL     OW31315   2.924   0.015   4.524  0.2147  0.0024 -0.5622
 6561SOL    HW131316   3.001   0.057   4.562  1.2218 -1.9797 -0.4324
 6561SOL    HW231317   2.951   4.661   4.525 -2.1673 -0.7003  0.0851
 6562SOL     OW31318   1.706   4.589  11.662  0.1762 -0.2970  0.4876
 6562SOL    HW131319   1.621   4.593  11.706  0.5315 -1.8108  1.3085
 6562SOL    HW231320   1.679   4.598  11.571 -1.4390 -1.4960  0.8486
 6563SOL     OW31321   2.038   1.516   9.411 -0.3437  0.2388 -0.2210
 6563SOL    HW131322   2.048   1.462   9.333  2.8707  0.2021  0.1980
 6563SOL    HW231323   2.129   1.536   9.434 -0.3173  1.6775 -1.5800
 6564SOL     OW31324   1.256   0.211   5.224  0.5263 -0.2182 -0.2193
 6564SOL    HW131325   1.279   0.207   5.317  0.4000 -2.4566 -0.2981
 6564SOL    HW231326   1.251   0.120   5.195  2.0007 -0.2054 -0.5258
 6565SOL     OW31327   2.458   2.937  12.020  0.2214 -0.2236 -0.7323
 6565SOL    HW131328   2.380   2.967  11.975 -0.0495 -0.4762 -0.4276
 6565SOL    HW231329   2.432   2.929  12.112  1.2708  0.8068 -0.3432
 6566SOL     OW31330   2.522   0.356   3.103 -0.0550  0.1920  0.3380
 6566SOL    HW131331   2.598   0.388   3.054  0.5973  0.0808  1.2789
 6566SOL    HW231332   2.452   0.359   3.038  0.9325  1.0077 -0.7032
 6567SOL     OW31333   3.461   1.370   7.178 -0.4054 -0.5035  0.2956
 6567SOL    HW131334   3.462   1.275   7.189 -1.3347 -0.8575 -2.7754
 6567SOL    HW231335   3.501   1.386   7.264  1.2369  0.6265 -0.6650
 6568SOL     OW31336   3.930   3.436  17.353 -0.0492  0.5218 -0.2179
 6568SOL    HW131337   3.990   3.417  17.425  0.6846 -1.9366 -1.4931
 6568SOL    HW231338   3.995   3.462  17.289  1.2075  1.5915  1.4880
 6569SOL     OW31339   3.976   1.855   5.038 -0.3859 -0.2376 -0.3710
 6569SOL    HW131340   4.029   1.898   4.971 -2.2601  2.7829  0.0785
 6569SOL    HW231341   3.889   1.869   5.001 -0.6720  0.1022  0.4482
 6570SOL     OW31342   2.537   1.409   6.712 -0.2067  0.0253  0.7819
 6570SOL    HW131343   2.561   1.410   6.619  0.3668 -0.1116  0.9295
 6570SOL    HW231344   2.458   1.463   6.708 -0.8070 -0.8566  0.7334
 6571SOL     OW31345   4.557   4.379   4.914  0.1622 -0.4751  0.2019
 6571SOL    HW131346   4.536   4.342   4.829  1.0534 -0.2735 -0.1129
 6571SOL    HW231347   4.638   4.334   4.938  1.4995  0.6681 -2.1998
 6572SOL     OW31348   0.207   3.804  13.125  0.0176 -0.2634 -0.1340
 6572SOL    HW131349   0.292   3.781  13.163  1.2426  1.6992 -1.7156
 6572SOL    HW231350   0.162   3.732  13.171  2.8373 -0.3576  2.4558
 6573SOL     OW31351   2.433   0.555   6.098  0.2897 -0.1018 -0.1355
 6573SOL    HW131352   2.390   0.531   6.016 -1.3010  0.3397  0.5618
 6573SOL    HW231353   2.385   0.633   6.123  1.0049  0.6342 -1.0595
 6574SOL     OW31354   0.445   0.939  12.632 -0.3681 -0.2433  0.3510
 6574SOL    HW131355   0.537   0.965  12.636 -0.0887 -1.2595  0.6796
 6574SOL    HW231356   0.458   0.846  12.617 -2.3110 -0.1207 -1.9073
 6575SOL     OW31357   0.709   2.313   1.676 -0.3101 -0.7267  0.1882
 6575SOL    HW131358   0.698   2.369   1.599 -0.8486 -0.0847  0.7284
 6575SOL    HW231359   0.766   2.243   1.645  1.4594  0.7743  0.0136
 6576SOL     OW31360   1.106   2.839   1.283 -0.3334  0.3610 -0.5216
 6576SOL    HW131361   1.189   2.867   1.246 -0.5358 -0.5044 -1.6150
 6576SOL    HW231362   1.139   2.791   1.359 -0.9882  2.0265  0.8231
 6577SOL     OW31363   4.220   3.475   9.719  0.2157 -0.4571  0.2931
 6577SOL    HW131364   4.222   3.571   9.708 -0.5586 -0.3791  0.8751
 6577SOL    HW231365   4.301   3.437   9.686  0.1331 -1.3948  1.1964
 6578SOL     OW31366   1.705   3.045   2.560 -1.0359 -0.1640  0.5383
 6578SOL    HW131367   1.767   3.038   2.632 -0.6264 -1.1418  0.0839
 6578SOL    HW231368   1.707   2.954   2.532  2.4491  0.1629 -0.3337
 6579SOL     OW31369   3.947   2.479  16.125 -0.1775 -0.1218 -0.0369
 6579SOL    HW131370   3.870   2.460  16.178 -0.9274 -0.3311 -1.2102
 6579SOL    HW231371   4.010   2.511  16.189 -0.0914 -0.7133  0.1755
 6580SOL     OW31372   3.520   2.977  13.808 -0.1340 -0.4760 -0.1382
 6580SOL    HW131373   3.426   2.997  13.813 -0.1784 -0.7675  0.1653
 6580SOL    HW231374   3.555   3.064  13.788 -0.7743 -0.0330  0.6567
 6581SOL     OW31375   0.903   3.407   5.347  0.0088  0.0977 -0.0962
 6581SOL    HW131376   0.984   3.358   5.333 -0.6469 -1.1434  0.3490
 6581SOL    HW231377   0.906   3.468   5.274 -2.2564  1.5337  1.0352
 6582SOL     OW31378   3.840   3.204  16.682 -0.1472 -0.7798  0.5330
 6582SOL    HW131379   3.851   3.195  16.777 -0.3424 -1.3951  0.4939
 6582SOL    HW231380   3.893   3.283  16.668 -1.2169 -0.4370 -1.5256
 6583SOL     OW31381   4.060   4.131   1.377 -0.2920 -0.2241 -0.0668
 6583SOL    HW131382   4.063   4.219   1.415  0.3305 -0.6639  0.9364
 6583SOL    HW231383   3.975   4.123   1.336 -0.4293 -1.2288  0.4130
 6584SOL     OW31384   1.969   1.871   2.518 -0.0696 -0.1776  0.2260
 6584SOL    HW131385   2.023   1.906   2.447 -1.7695  2.0038  0.0196
 6584SOL    HW231386   1.983   1.939   2.583 -0.9025  0.4047 -0.1995
 6585SOL     OW31387   3.760   0.068   7.025 -0.1348 -0.0279 -0.1139
 6585SOL    HW131388   3.684   0.121   7.046  0.8315  1.5945 -0.7049
 6585SOL    HW231389   3.726   4.718   7.006 -0.9343  0.6653 -1.8281
 6586SOL     OW31390   4.695   2.160   3.893  0.5516 -0.0193  0.3414
 6586SOL    HW131391   4.727   2.212   3.818 -0.5040  0.9681  0.5824
 6586SOL    HW231392   4.709   2.073   3.855  1.3851  0.0610  0.4649
 6587SOL     OW31393   3.702   0.176   4.558 -0.7739 -0.0250 -0.3870
 6587SOL    HW131394   3.634   0.114   4.585 -1.1895  0.8659  0.5905
 6587SOL    HW231395   3.700   0.174   4.463 -0.5046  1.1385 -0.4172
 6588SOL     OW31396   3.549   3.418  11.166 -0.4042  0.0029 -0.0670
 6588SOL    HW131397   3.640   3.419  11.136  0.0531  0.1371  1.3019
 6588SOL    HW231398   3.546   3.508  11.198 -2.5025  0.4696 -1.6166
 6589SOL     OW31399   4.634   2.857  16.594 -0.5083 -0.3165 -0.2430
 6589SOL    HW131400   4.696   2.928  16.612 -0.3702 -0.1660 -1.3067
 6589SOL    HW231401   4.652   2.801  16.670 -0.7581  1.0361  0.8144
 6590SOL     OW31402   2.384   0.439   8.190  0.3957  0.0229 -0.4315
 6590SOL    HW131403   2.407   0.518   8.238 -0.0615 -0.8715  1.2694
 6590SOL    HW231404   2.290   0.456   8.181  0.4058  1.0391  1.3376
 6591SOL     OW31405   0.741   3.295   5.539  0.0610 -0.6363 -0.4945
 6591SOL    HW131406   0.819   3.258   5.581 -0.0716 -0.5204 -0.1431
 6591SOL    HW231407   0.789   3.344   5.473  1.5953  0.0245  1.1059
 6592SOL     OW31408   0.408   2.083   4.996 -0.1598  0.3532  0.5954
 6592SOL    HW131409   0.324   2.107   5.036 -0.5581 -0.8332  0.4530
 6592SOL    HW231410   0.471   2.101   5.066  2.1827 -0.8860 -1.1839
 6593SOL     OW31411   4.173   3.800  15.126  0.4766  0.2454  0.3173
 6593SOL    HW131412   4.118   3.843  15.191  0.2604 -0.2569  0.4701
 6593SOL    HW231413   4.164   3.846  15.043  0.8618  1.0578  0.7283
 6594SOL     OW31414   4.358   2.760   4.047 -0.3076  0.3767  0.2906
 6594SOL    HW131415   4.308   2.757   4.129  0.1018 -0.7011  0.4990
 6594SOL    HW231416   4.425   2.824   4.071  0.4426  0.1440 -1.1904
 6595SOL     OW31417   0.201   3.138  11.999 -0.7041  0.2299  0.1783
 6595SOL    HW131418   0.254   3.132  12.078 -1.0562  0.0431  0.3977
 6595SOL    HW231419   0.220   3.214  11.944  0.2111 -1.2141 -1.5098
 6596SOL     OW31420   1.788   0.217   7.058  0.5985  0.1120  0.2502
 6596SOL    HW131421   1.798   0.167   7.140 -3.3158  0.4148  0.9170
 6596SOL    HW231422   1.857   0.186   7.000  1.2660  1.9461  0.0621
 6597SOL     OW31423   4.686   0.873  13.525  0.3182 -0.1995 -0.4788
 6597SOL    HW131424   0.021   0.811  13.514 -0.2628 -0.7048 -1.4904
 6597SOL    HW231425   4.649   0.852  13.439  0.2108 -0.6587 -0.3199
 6598SOL     OW31426   0.886   0.140   3.784  0.3576 -0.6286 -0.6434
 6598SOL    HW131427   0.948   0.131   3.856 -3.0082 -1.3473  2.1609
 6598SOL    HW231428   0.948   0.101   3.723 -0.4050 -1.1394 -1.1044
 6599SOL     OW31429   1.998   3.895   4.951  0.0534  0.6292  0.4820
 6599SOL    HW131430   2.026   3.980   4.987  0.5619  0.0934  1.3365
 6599SOL    HW231431   2.082   3.867   4.912 -0.8784  1.1322 -1.9179
 6600SOL     OW31432   4.408   4.221  16.959  0.3628 -0.0968 -0.5901
 6600SOL    HW131433   4.321   4.242  16.925  0.3141  0.8541  0.1064
 6600SOL    HW231434   4.392   4.129  16.941  0.7092 -0.1327 -0.7059
 6601SOL     OW31435   2.959   2.038   7.607 -0.2168 -0.5830 -0.5447
 6601SOL    HW131436   2.998   2.044   7.520 -0.9261  2.2876 -0.6427
 6601SOL    HW231437   3.018   1.986   7.661  0.2118  0.1031 -0.3591
 6602SOL     OW31438   2.550   0.201   7.000 -0.4733 -0.1603  0.0316
 6602SOL    HW131439   2.493   0.128   6.973  0.2062 -0.2265 -1.1900
 6602SOL    HW231440   2.557   0.244   6.915  1.2002 -0.9065 -0.2070
 6603SOL     OW31441   4.377   0.501  12.270 -0.0435  0.1331 -0.2660
 6603SOL    HW131442   4.291   0.468  12.296  0.2261  0.3772  0.9340
 6603SOL    HW231443   4.418   0.539  12.349 -2.0872  1.4756  0.1367
 6604SOL     OW31444   2.463   3.106  12.784  0.0264  0.5968 -0.4577
 6604SOL    HW131445   2.446   3.195  12.816 -1.8446 -0.0461  0.3636
 6604SOL    HW231446   2.386   3.050  12.795  1.1805 -1.0549 -0.8288
 6605SOL     OW31447   2.892   1.942   8.838  0.0529  0.5220 -0.4484
 6605SOL    HW131448   2.883   1.931   8.933 -1.9614  1.2710 -0.5560
 6605SOL    HW231449   2.977   1.902   8.820 -0.7029 -0.7748 -1.1559
 6606SOL     OW31450   3.180   2.528  16.161  0.1701  0.1874  0.1335
 6606SOL    HW131451   3.104   2.586  16.155 -0.7697 -1.1144 -0.5774
 6606SOL    HW231452   3.164   2.492  16.248 -2.1826 -1.3309 -0.9181
 6607SOL     OW31453   1.176   4.417  15.803 -0.1623 -0.1906 -0.1776
 6607SOL    HW131454   1.266   4.404  15.832 -0.0072 -1.5138 -1.2416
 6607SOL    HW231455   1.190   4.480  15.732  1.4425 -1.1590 -0.7323
 6608SOL     OW31456   2.192   3.275   3.051  0.0615 -0.2271 -0.6580
 6608SOL    HW131457   2.257   3.306   2.987  0.4266 -0.2812 -0.3167
 6608SOL    HW231458   2.212   3.182   3.049  0.6366 -0.1846  2.5353
 6609SOL     OW31459   1.720   2.364   5.156 -0.0522  0.1675 -0.0750
 6609SOL    HW131460   1.773   2.320   5.090  1.8053  1.8577  0.2904
 6609SOL    HW231461   1.680   2.288   5.200 -0.1224  0.7110  0.8017
 6610SOL     OW31462   1.245   1.824   4.460  0.2358  0.2327 -0.6664
 6610SOL    HW131463   1.242   1.745   4.406  0.1440 -1.0615  1.2154
 6610SOL    HW231464   1.155   1.817   4.491 -0.8973 -0.0096 -3.9761
 6611SOL     OW31465   1.187   1.475   0.122  0.6653 -0.0062  0.4249
 6611SOL    HW131466   1.241   1.523   0.185  1.0591  0.5063 -0.3045
 6611SOL    HW231467   1.097   1.505   0.130  1.1807  1.0063  2.4436
 6612SOL     OW31468   2.907   1.217   5.067  0.1879  0.0947  0.2022
 6612SOL    HW131469   2.991   1.229   5.021  0.2989 -3.5231 -0.4888
 6612SOL    HW231470   2.851   1.251   4.997 -0.3995 -0.2466  0.5099
 6613SOL     OW31471   3.343   4.653   1.509  0.3546 -0.5881 -0.7757
 6613SOL    HW131472   3.271   4.596   1.484 -0.9916  0.9896 -0.5251
 6613SOL    HW231473   3.320   0.008   1.495 -2.7002 -1.0664  1.3496
 6614SOL     OW31474   3.083   3.400   8.309 -0.4430 -0.1877  0.0906
 6614SOL    HW131475   3.163   3.423   8.261 -1.8239 -0.5714 -2.3646
 6614SOL    HW231476   3.090   3.306   8.295 -0.8387  0.0494 -1.7212
 6615SOL     OW31477   3.027   1.169   2.462 -0.1087 -0.2058  0.4542
 6615SOL    HW131478   3.007   1.102   2.397 -1.0355 -0.3600  0.9007
 6615SOL    HW231479   3.121   1.187   2.452  0.1708 -1.3033  1.1178
 6616SOL     OW31480   1.577   0.420  14.731 -0.5342  0.2390  0.4438
 6616SOL    HW131481   1.611   0.487  14.672  0.1319 -0.4799  0.0136
 6616SOL    HW231482   1.631   0.342  14.719 -1.5616 -0.6567  1.5641
 6617SOL     OW31483   2.481   4.353  15.910  0.5292  0.3320  0.5627
 6617SOL    HW131484   2.535   4.320  15.981  2.4569 -0.0814 -1.0792
 6617SOL    HW231485   2.439   4.428  15.951 -0.1393  0.1413  0.2253
 6618SOL     OW31486   4.440   4.280   4.689 -0.1180 -0.0023  0.2279
 6618SOL    HW131487   4.444   4.323   4.603 -0.0226  0.4864  0.4762
 6618SOL    HW231488   4.378   4.209   4.671  0.0386 -0.0704 -0.0415
 6619SOL     OW31489   0.043   1.302   0.368 -0.3058 -0.2670 -0.0525
 6619SOL    HW131490   0.001   1.343   0.292  0.8155  1.9399  0.5247
 6619SOL    HW231491   0.122   1.272   0.322 -0.8522 -2.4529  0.4285
 6620SOL     OW31492   1.398   2.310   1.718  0.7039 -0.1022  0.0209
 6620SOL    HW131493   1.473   2.278   1.769  0.6042 -0.9027 -0.3399
 6620SOL    HW231494   1.410   2.270   1.632  0.8129  0.9044 -0.4286
 6621SOL     OW31495   0.368   0.549   3.230  0.3993  0.1453  0.1810
 6621SOL    HW131496   0.278   0.572   3.252  0.3584 -1.2294  1.4485
 6621SOL    HW231497   0.363   0.555   3.134 -0.6494 -2.1902  0.0735
 6622SOL     OW31498   3.883   4.187   1.149  0.5269 -0.2157  0.1006
 6622SOL    HW131499   3.965   4.148   1.120  2.3188  1.5856  2.7268
 6622SOL    HW231500   3.888   4.269   1.100 -2.2829 -0.5209 -0.7089
 6623SOL     OW31501   2.187   1.817   7.641  0.3055 -0.0619 -0.1434
 6623SOL    HW131502   2.113   1.847   7.695  1.0888  0.1859  0.7981
 6623SOL    HW231503   2.263   1.817   7.700  1.4927  3.3862 -1.7043
 6624SOL     OW31504   0.531   3.850   7.450 -0.8390 -0.6578  0.0159
 6624SOL    HW131505   0.556   3.846   7.357 -2.2935 -0.4928 -0.3862
 6624SOL    HW231506   0.546   3.941   7.476 -0.5723 -0.7676  0.2426
 6625SOL     OW31507   4.229   1.497   7.419 -0.8995 -0.3295  0.1929
 6625SOL    HW131508   4.212   1.467   7.329  0.5704 -1.2612  0.2300
 6625SOL    HW231509   4.143   1.521   7.455  0.0261  0.8632  1.5944
 6626SOL     OW31510   0.987   0.985  16.538 -0.1830  0.1955  0.1637
 6626SOL    HW131511   0.907   0.994  16.486  1.2192 -0.2799 -2.0739
 6626SOL    HW231512   0.971   0.897  16.571 -0.4084  0.1500 -0.0590
 6627SOL     OW31513   2.801   2.931   1.594  0.2506 -0.4955 -0.5698
 6627SOL    HW131514   2.728   2.874   1.568 -0.5628  0.2062  0.1602
 6627SOL    HW231515   2.818   2.902   1.684 -1.3840  0.1894 -0.0305
 6628SOL     OW31516   0.106   2.679   2.237  0.2035  0.6147 -0.0020
 6628SOL    HW131517   0.183   2.706   2.187 -0.1106 -0.4471 -1.0800
 6628SOL    HW231518   0.128   2.586   2.238 -0.5024  0.4429 -0.4647
 6629SOL     OW31519   0.699   1.630   3.657  0.6854 -0.1127  0.0757
 6629SOL    HW131520   0.690   1.687   3.733 -2.0510  2.0474 -1.8659
 6629SOL    HW231521   0.739   1.695   3.598  1.3229  0.2146  0.8663
 6630SOL     OW31522   0.728   1.091   4.222  0.3681 -0.7169 -0.2538
 6630SOL    HW131523   0.651   1.045   4.189 -1.5028  2.4018 -0.2597
 6630SOL    HW231524   0.767   1.012   4.260  0.0968 -0.6246  0.2190
 6631SOL     OW31525   3.745   3.019   4.883 -0.2161  0.5208 -0.2171
 6631SOL    HW131526   3.801   2.983   4.814  0.7619  2.5706 -0.5070
 6631SOL    HW231527   3.813   3.025   4.950 -0.4967  0.6955  0.0467
 6632SOL     OW31528   3.053   3.614   7.074  0.2426  0.0949 -0.1538
 6632SOL    HW131529   3.056   3.649   7.162  3.2739  4.6154 -2.0620
 6632SOL    HW231530   2.967   3.651   7.054  1.9470  3.4964 -1.2147
 6633SOL     OW31531   2.356   1.443   2.868  0.2084 -0.7808 -0.4936
 6633SOL    HW131532   2.315   1.407   2.790  0.4546  0.5559 -1.2497
 6633SOL    HW231533   2.425   1.502   2.836 -0.8741 -0.1669 -1.6685
 6634SOL     OW31534   0.313   3.999   1.890  0.0938  0.4047  0.0605
 6634SOL    HW131535   0.357   4.081   1.913  0.6246 -0.1992  1.2115
 6634SOL    HW231536   0.243   3.988   1.955 -0.1809 -1.4108 -0.5487
 6635SOL     OW31537   0.002   3.652   1.447  0.6419 -0.0904  0.0309
 6635SOL    HW131538   4.705   3.739   1.469 -0.1282 -0.1759 -0.8183
 6635SOL    HW231539   0.008   3.614   1.535 -2.5473 -0.0755  0.2580
 6636SOL     OW31540   4.442   1.984  12.921  0.2332 -0.3884 -0.0502
 6636SOL    HW131541   4.414   1.894  12.908  0.5640 -0.5210  0.1428
 6636SOL    HW231542   4.412   1.989  13.012 -0.9343  0.6146 -0.4910
 6637SOL     OW31543   1.743   0.596   4.784  0.7456 -0.2384 -0.1275
 6637SOL    HW131544   1.813   0.566   4.726 -0.1223 -2.0107 -0.2772
 6637SOL    HW231545   1.762   0.689   4.799  0.5434  0.2255 -2.7741
 6638SOL     OW31546   3.658   2.133   4.097 -0.6525  0.6974  0.1706
 6638SOL    HW131547   3.665   2.224   4.124 -2.0540  0.0774  2.6310
 6638SOL    HW231548   3.728   2.128   4.032  0.2502 -1.3324  1.2792
 6639SOL     OW31549   3.282   2.908   9.589 -0.0116 -0.0674 -0.2446
 6639SOL    HW131550   3.373   2.878   9.593 -0.4440 -1.4157 -0.7091
 6639SOL    HW231551   3.280   2.951   9.674  2.0321 -1.5681  0.5727
 6640SOL     OW31552   3.309   1.302   3.017 -0.5895 -0.5266 -0.0414
 6640SOL    HW131553   3.338   1.363   3.084 -1.7183 -0.5109  0.4284
 6640SOL    HW231554   3.247   1.248   3.066  1.6633 -1.4124  1.8021
 6641SOL     OW31555   2.463   2.942   4.221 -0.2156 -0.6415 -0.3807
 6641SOL    HW131556   2.482   3.013   4.282 -1.2306 -0.8892  0.2242
 6641SOL    HW231557   2.550   2.923   4.185 -0.7064  0.6202 -2.2399
 6642SOL     OW31558   2.170   2.846   8.969  0.5778  0.1136  0.0021
 6642SOL    HW131559   2.205   2.804   9.047  1.2317 -1.8673 -1.3756
 6642SOL    HW231560   2.137   2.920   9.019 -0.1973  0.0074 -0.3442
 6643SOL     OW31561   0.241   2.890   4.852  0.1422  0.2054  0.8537
 6643SOL    HW131562   0.235   2.837   4.931  1.6714 -2.2289 -0.6769
 6643SOL    HW231563   0.266   2.825   4.787 -0.6338  0.1469  0.6084
 6644SOL     OW31564   3.078   4.024   3.720  0.3880  0.1421  0.0878
 6644SOL    HW131565   3.115   3.965   3.653 -0.2245 -0.6588  0.4518
 6644SOL    HW231566   2.989   4.038   3.688  0.9047  0.0295 -1.4089
 6645SOL     OW31567   4.076   0.770   5.501  0.0657  0.1933  0.0752
 6645SOL    HW131568   4.013   0.821   5.451  0.6797  0.0045 -0.8836
 6645SOL    HW231569   4.032   0.758   5.585 -1.2310  0.0905 -0.6223
 6646SOL     OW31570   0.575   0.137  11.407  0.1520  0.0223  0.5182
 6646SOL    HW131571   0.626   0.159  11.329 -0.8011  1.8918  0.4324
 6646SOL    HW231572   0.494   0.104  11.367  1.5644 -2.1801 -0.5074
 6647SOL     OW31573   2.481   2.446   9.704 -0.1490  0.2543 -0.2376
 6647SOL    HW131574   2.508   2.358   9.733 -0.4133  0.5720  0.9634
 6647SOL    HW231575   2.513   2.491   9.782 -0.8305 -0.6353  0.5563
 6648SOL     OW31576   2.177   3.209  17.464  0.0965  0.2002 -0.6854
 6648SOL    HW131577   2.083   3.225  17.456 -0.0922  0.6496  2.4900
 6648SOL    HW231578   2.175   3.114  17.479  0.7814  0.5811  1.8390
 6649SOL     OW31579   1.760   3.233  11.834 -0.0147  0.5749 -0.0122
 6649SOL    HW131580   1.808   3.294  11.777  1.6278 -1.5362 -0.9028
 6649SOL    HW231581   1.831   3.183  11.874  0.8123 -0.2060 -2.4740
 6650SOL     OW31582   0.938   4.642   0.145  0.1363  0.0269 -0.3034
 6650SOL    HW131583   0.891   4.725   0.149 -0.8789 -0.5715  0.4787
 6650SOL    HW231584   0.995   4.649   0.221  0.3429  0.0383 -0.4579
 6651SOL     OW31585   0.557   3.819  10.544  0.2609  0.0876  0.3497
 6651SOL    HW131586   0.623   3.750  10.543 -0.3032 -0.4196 -3.2185
 6651SOL    HW231587   0.617   3.890  10.567  0.4335  0.3615 -0.9558
 6652SOL     OW31588   0.247   2.842  11.653  0.5319  0.8275 -0.0988
 6652SOL    HW131589   0.175   2.887  11.696 -0.3432 -0.3241 -0.3516
 6652SOL    HW231590   0.313   2.912  11.653 -0.0598  1.3883 -2.4206
 6653SOL     OW31591   2.449   3.987  10.415 -0.0869  0.0102  0.0529
 6653SOL    HW131592   2.436   3.965  10.323 -1.5933 -0.4646  0.3676
 6653SOL    HW231593   2.470   4.078  10.394 -0.0834 -0.2667 -1.0992
 6654SOL     OW31594   1.466   2.859   8.950  0.7019  0.1609 -0.5471
 6654SOL    HW131595   1.403   2.924   8.978  0.0643 -0.6307 -0.1361
 6654SOL    HW231596   1.434   2.849   8.860  0.0252 -0.5697 -0.2199
 6655SOL     OW31597   1.532   0.965   5.771  0.6717 -0.2603  0.4146
 6655SOL    HW131598   1.549   1.051   5.811  1.0840  0.4025 -1.1693
 6655SOL    HW231599   1.543   0.984   5.678  0.8869 -1.1565  0.2637
 6656SOL     OW31600   1.683   0.910   6.599 -0.2198  0.1291  0.4728
 6656SOL    HW131601   1.637   0.911   6.683 -1.4465  0.4204 -0.2029
 6656SOL    HW231602   1.641   0.832   6.561  1.2949 -0.4772  0.0245
 6657SOL     OW31603   3.610   2.917  11.612  0.2376  0.7678 -0.4733
 6657SOL    HW131604   3.519   2.916  11.583  0.6306 -3.0003 -1.6170
 6657SOL    HW231605   3.645   3.003  11.634  0.9722 -0.0233  1.5131
 6658SOL     OW31606   2.576   2.004  15.526  0.2201  0.3239 -0.4508
 6658SOL    HW131607   2.665   2.005  15.560 -0.0859 -0.0504  0.3621
 6658SOL    HW231608   2.523   2.026  15.603  0.4971 -1.1714  0.1533
 6659SOL     OW31609   0.664   2.368   9.743  0.3157 -0.2936  0.2460
 6659SOL    HW131610   0.627   2.454   9.724  1.4359  0.3287  0.8568
 6659SOL    HW231611   0.680   2.375   9.837  3.6124 -1.2017 -0.2776
 6660SOL     OW31612   1.290   2.881  11.232  0.1457  0.3462  0.0673
 6660SOL    HW131613   1.307   2.908  11.141  0.2178  0.6830  0.1817
 6660SOL    HW231614   1.197   2.859  11.228 -0.0379  0.7252  2.2362
 6661SOL     OW31615   0.736   0.507  10.090 -0.1455  0.0102  0.1155
 6661SOL    HW131616   0.816   0.554  10.113 -0.2451  0.9629 -1.4430
 6661SOL    HW231617   0.767   0.477  10.004  0.3521  0.9575 -0.0413
 6662SOL     OW31618   2.924   3.909  13.910 -0.3534  0.0099  0.3745
 6662SOL    HW131619   2.953   3.990  13.950  3.5989 -1.1285 -0.2231
 6662SOL    HW231620   2.866   3.939  13.839 -1.5958  2.8343  2.6133
 6663SOL     OW31621   0.970   3.228   4.664  0.0519 -0.0211 -0.0561
 6663SOL    HW131622   0.940   3.251   4.576 -0.0981 -1.4029 -0.3579
 6663SOL    HW231623   0.919   3.150   4.684  0.4086  0.0383  1.0795
 6664SOL     OW31624   3.056   3.519  10.159  0.4086  0.1982  0.3799
 6664SOL    HW131625   3.003   3.474  10.225  1.2351  1.1525  1.7122
 6664SOL    HW231626   3.139   3.479  10.187  0.1799  0.0636  0.8613
 6665SOL     OW31627   4.715   3.641   7.794  0.9696 -0.2068  0.1658
 6665SOL    HW131628   0.032   3.696   7.850  1.5638  0.4057 -1.0067
 6665SOL    HW231629   4.628   3.643   7.833  0.0183  0.6102 -1.9808
 6666SOL     OW31630   0.305   0.327   6.055  0.1013  0.0591  0.0120
 6666SOL    HW131631   0.333   0.252   6.107 -1.2164 -1.0119 -0.8316
 6666SOL    HW231632   0.211   0.308   6.048  0.0019  1.1631 -1.6928
 6667SOL     OW31633   1.160   1.572   5.560  0.7826  0.2222 -0.3703
 6667SOL    HW131634   1.133   1.589   5.650 -0.2120 -2.1964 -0.2180
 6667SOL    HW231635   1.155   1.477   5.568  1.0271  0.2840  0.5893
 6668SOL     OW31636   0.303   0.832   5.355 -0.1189 -0.1822  0.6128
 6668SOL    HW131637   0.270   0.887   5.284  0.4348  1.8694  1.9419
 6668SOL    HW231638   0.368   0.889   5.395  1.0762 -0.8205 -0.4169
 6669SOL     OW31639   2.650   4.572   1.476  0.0223 -0.2134  0.5867
 6669SOL    HW131640   2.588   4.641   1.494  1.1415  0.0233  3.5968
 6669SOL    HW231641   2.724   4.606   1.527  0.3632  2.5047 -1.7478
 6670SOL     OW31642   2.993   2.003   0.801 -0.1241  0.1133  0.3094
 6670SOL    HW131643   2.992   1.914   0.834  1.3729 -0.2499 -0.6425
 6670SOL    HW231644   3.031   1.984   0.716 -1.6754  0.6101 -0.4946
 6671SOL     OW31645   2.326   4.670   6.287 -0.3160 -0.0657 -0.7144
 6671SOL    HW131646   2.336   4.581   6.255 -1.4277  0.6752 -3.1385
 6671SOL    HW231647   2.348   4.652   6.378  1.6375 -0.0299 -1.1669
 6672SOL     OW31648   0.764   0.650   3.344  0.1681 -0.1882  0.1118
 6672SOL    HW131649   0.739   0.558   3.337 -1.1377  0.2578 -1.0969
 6672SOL    HW231650   0.728   0.677   3.429  2.5596  2.3039  0.3058
 6673SOL     OW31651   3.353   3.379   3.077 -0.4454 -0.4143 -0.5630
 6673SOL    HW131652   3.363   3.285   3.071 -1.8491 -0.5138 -1.4353
 6673SOL    HW231653   3.350   3.393   3.172 -0.9271  0.3171 -0.6848
 6674SOL     OW31654   4.173   1.522   5.159 -0.1194  0.2033  0.4079
 6674SOL    HW131655   4.107   1.584   5.190 -1.3597 -0.4372 -0.9279
 6674SOL    HW231656   4.120   1.458   5.110 -0.3052 -0.3995  1.3884
 6675SOL     OW31657   1.155   1.969   7.139 -0.0926  0.2536 -0.5708
 6675SOL    HW131658   1.186   1.946   7.226  2.3734  0.1878 -1.4756
 6675SOL    HW231659   1.101   2.045   7.164 -0.6539 -0.7419  1.2522
 6676SOL     OW31660   4.227   2.606   3.796  0.3020 -0.1261 -0.2284
 6676SOL    HW131661   4.270   2.635   3.876  1.9726  0.3688 -1.3031
 6676SOL    HW231662   4.138   2.638   3.809  0.7297  0.9527  0.0364
 6677SOL     OW31663   4.000   1.712   6.169 -0.1094  0.9734 -0.2555
 6677SOL    HW131664   4.009   1.679   6.079 -0.9336 -0.9095  0.3406
 6677SOL    HW231665   4.045   1.796   6.167  1.9680 -0.1697 -2.0862
 6678SOL     OW31666   3.207   4.683   0.593  0.4410 -0.1030  0.1830
 6678SOL    HW131667   3.155   4.603   0.596  0.4007 -0.1506 -1.3858
 6678SOL    HW231668   3.270   4.650   0.528  1.7637  1.9295  0.4229
 6679SOL     OW31669   1.352   2.040   3.577 -0.6291 -0.5878 -0.2840
 6679SOL    HW131670   1.330   2.102   3.508 -0.9957  0.1727  0.5220
 6679SOL    HW231671   1.359   2.096   3.654  3.6038 -1.3288 -0.1210
 6680SOL     OW31672   0.938   0.453   7.998 -0.0316 -0.1546  0.1530
 6680SOL    HW131673   0.861   0.398   7.984  0.0994 -0.2872 -0.0483
 6680SOL    HW231674   0.919   0.529   7.943 -2.1666 -1.8566 -1.4715
 6681SOL     OW31675   0.834   4.312  10.400  0.5717  0.3429 -0.3501
 6681SOL    HW131676   0.911   4.346  10.355  1.8293  1.4832  2.6100
 6681SOL    HW231677   0.875   4.323  10.486  1.5075 -2.5885 -0.4267
 6682SOL     OW31678   4.612   3.993   9.349 -0.0733 -0.3618  0.1397
 6682SOL    HW131679   4.519   3.983   9.369 -0.5798  1.3406 -1.4231
 6682SOL    HW231680   4.616   4.089   9.351  0.5140 -0.3706 -0.5517
 6683SOL     OW31681   0.127   3.748   4.390 -0.0752  0.1260 -0.2165
 6683SOL    HW131682   0.087   3.835   4.378 -1.3056 -0.5737 -1.1986
 6683SOL    HW231683   0.213   3.765   4.352  1.0052 -2.3726  1.0987
 6684SOL     OW31684   2.591   0.265   5.967 -0.0156  0.0525  0.0300
 6684SOL    HW131685   2.593   0.329   6.038  0.1641 -0.0580  0.1232
 6684SOL    HW231686   2.564   0.186   6.014  0.7613 -1.2920 -1.8348
 6685SOL     OW31687   1.790   1.044  12.625  0.2570 -0.5606 -0.0066
 6685SOL    HW131688   1.838   1.120  12.658 -0.2513 -0.5779  0.7719
 6685SOL    HW231689   1.806   1.050  12.531 -0.5766  2.0575  0.0221
 6686SOL     OW31690   2.252   3.380   3.656 -0.1009 -0.0458  0.3112
 6686SOL    HW131691   2.300   3.463   3.655 -0.5128  0.2018  1.1234
 6686SOL    HW231692   2.320   3.314   3.659 -1.8453 -1.7228  2.7235
 6687SOL     OW31693   0.921   4.629   9.943  0.0406  0.3467  0.2240
 6687SOL    HW131694   0.948   4.578   9.867 -2.2229 -0.7121  0.1156
 6687SOL    HW231695   0.983   4.699   9.961  1.4953 -0.7329 -0.5640
 6688SOL     OW31696   0.037   3.990   8.101  0.3056 -0.4455  0.3698
 6688SOL    HW131697   0.061   3.916   8.157 -0.1770  0.0777  1.2729
 6688SOL    HW231698   0.053   3.942   8.020  2.1834 -0.0638  0.5253
 6689SOL     OW31699   1.221   2.313   4.733 -0.2190  0.3899 -0.0644
 6689SOL    HW131700   1.191   2.384   4.676 -1.9974  1.0062  1.6151
 6689SOL    HW231701   1.310   2.294   4.705  0.3649 -0.0928  2.1710
 6690SOL     OW31702   4.353   3.391   1.392 -0.6350  0.2101  0.1240
 6690SOL    HW131703   4.365   3.309   1.343 -0.2073  0.2924  0.0926
 6690SOL    HW231704   4.264   3.413   1.364 -1.0686  0.9360  2.0995
 6691SOL     OW31705   0.286   3.701   9.265  0.6670 -0.5978  0.2482
 6691SOL    HW131706   0.198   3.721   9.232  2.0532  1.5054 -2.1921
 6691SOL    HW231707   0.325   3.789   9.266 -1.9604  0.5825  0.2425
 6692SOL     OW31708   4.401   0.014   7.718  0.0257 -0.3482  0.6767
 6692SOL    HW131709   4.412   0.103   7.685 -2.2197 -0.5101 -0.5236
 6692SOL    HW231710   4.481   0.014   7.771  1.9755  0.7909 -2.2251
 6693SOL     OW31711   3.817   1.994   5.689 -0.0602 -0.5705  0.1838
 6693SOL    HW131712   3.836   1.908   5.727  1.4816 -0.3878 -0.1604
 6693SOL    HW231713   3.722   1.991   5.679 -0.2194  2.1377  0.9641
 6694SOL     OW31714   0.952   0.573   2.314  0.1440  0.2418 -0.3183
 6694SOL    HW131715   0.872   0.596   2.362 -0.5275  0.6324 -1.6089
 6694SOL    HW231716   0.925   0.544   2.227  1.5853 -0.2184 -0.6038
 6695SOL     OW31717   2.508   2.150   0.831 -0.0117 -0.0740  0.6082
 6695SOL    HW131718   2.493   2.083   0.898 -2.3642  0.3454  0.5260
 6695SOL    HW231719   2.578   2.109   0.782  2.5848  2.6692  2.0202
 6696SOL     OW31720   2.201   1.267   9.380 -0.9754  0.1245  0.1063
 6696SOL    HW131721   2.142   1.235   9.311 -0.4465  0.4460 -0.5046
 6696SOL    HW231722   2.195   1.190   9.437 -2.2771  1.6545  2.0311
 6697SOL     OW31723   4.409   4.066  11.709 -0.1375  0.1341 -0.7252
 6697SOL    HW131724   4.489   4.021  11.734 -0.0365  0.5302 -0.3295
 6697SOL    HW231725   4.443   4.148  11.672  0.0072 -0.2893 -1.5267
 6698SOL     OW31726   4.710   2.314   4.098 -0.0325  0.1046 -0.4946
 6698SOL    HW131727   4.730   2.226   4.131 -1.5094 -0.6460 -1.6037
 6698SOL    HW231728   4.707   2.301   4.003  0.3213 -0.4404 -0.4311
 6699SOL     OW31729   3.761   0.150   5.910  0.3639 -0.3749  0.2196
 6699SOL    HW131730   3.746   0.058   5.891 -0.8474  0.0421 -0.8695
 6699SOL    HW231731   3.832   0.171   5.849  0.2603  0.4786  0.3929
 6700SOL     OW31732   4.282   0.917   7.315  0.9260 -0.2105 -0.1315
 6700SOL    HW131733   4.276   0.910   7.220  2.8542  0.6248 -0.3342
 6700SOL    HW231734   4.330   1.000   7.321  0.0727  0.2498  0.2773
 6701SOL     OW31735   0.774   1.415  11.689 -0.4746  0.2712  0.1186
 6701SOL    HW131736   0.782   1.467  11.609 -4.9036  3.4941  1.8087
 6701SOL    HW231737   0.855   1.437  11.735  0.5069 -1.5228 -0.7283
 6702SOL     OW31738   1.275   0.095  12.245 -0.0741  0.0085  0.0967
 6702SOL    HW131739   1.229   0.134  12.320  1.9431  1.1074  0.7457
 6702SOL    HW231740   1.227   0.013  12.233 -1.0539  0.5831  0.0855
 6703SOL     OW31741   0.789   2.140  13.331  0.7897  0.0903  0.1483
 6703SOL    HW131742   0.840   2.062  13.354 -2.2152 -2.2529 -1.1896
 6703SOL    HW231743   0.725   2.109  13.268  1.3203  0.1626 -0.4219
 6704SOL     OW31744   3.075   1.570   1.973  0.2352 -0.2308  0.0834
 6704SOL    HW131745   3.017   1.558   1.898  0.2697 -0.9111  0.1638
 6704SOL    HW231746   3.157   1.529   1.944 -0.1853  0.1842 -1.6822
 6705SOL     OW31747   0.074   2.412  15.315 -0.1321  0.4790  0.1188
 6705SOL    HW131748   0.169   2.417  15.301 -0.5745  3.6371 -1.8993
 6705SOL    HW231749   0.069   2.360  15.394 -1.8903 -2.8404 -2.1762
 6706SOL     OW31750   0.113   4.555   5.932  0.5906 -0.2570 -0.1131
 6706SOL    HW131751   0.122   4.574   6.025 -0.9037  0.1970 -0.0577
 6706SOL    HW231752   0.201   4.575   5.899  1.6270 -2.6335  1.2308
 6707SOL     OW31753   1.074   4.257   9.900 -0.6861  0.0148 -0.0897
 6707SOL    HW131754   1.054   4.268   9.993 -0.4221  0.3672 -0.0735
 6707SOL    HW231755   1.053   4.337   9.852  0.8300  0.4410 -0.0477
 6708SOL     OW31756   1.531   2.428   4.365  0.2834  0.1769  0.3809
 6708SOL    HW131757   1.597   2.411   4.298 -1.5913  1.5000 -1.7730
 6708SOL    HW231758   1.469   2.469   4.305  1.5566 -2.1070 -2.4750
 6709SOL     OW31759   1.159   0.181   7.473  0.6038 -0.2235  0.3253
 6709SOL    HW131760   1.149   0.107   7.413  0.9888  0.8820 -1.1026
 6709SOL    HW231761   1.092   0.167   7.540  0.8539 -0.0426  0.6149
 6710SOL     OW31762   0.415   0.687   7.421 -0.1328 -0.3855 -0.1408
 6710SOL    HW131763   0.489   0.734   7.382 -0.2591 -0.8046 -0.8909
 6710SOL    HW231764   0.435   0.698   7.514 -1.3521  0.1615  0.0468
 6711SOL     OW31765   1.143   2.087   8.050  0.2474 -0.3944  0.6558
 6711SOL    HW131766   1.223   2.137   8.068  0.2596 -0.0412 -0.3690
 6711SOL    HW231767   1.129   2.046   8.135  0.6401 -2.3637 -0.2353
 6712SOL     OW31768   1.852   1.097  17.360  0.5967  0.0960 -0.5675
 6712SOL    HW131769   1.826   1.085  17.268 -0.4292  3.2920 -0.6991
 6712SOL    HW231770   1.827   1.016  17.404 -2.9727  1.9248  0.7389
 6713SOL     OW31771   1.707   3.694   6.491  0.1696  0.1060 -0.2378
 6713SOL    HW131772   1.633   3.641   6.462  1.3637 -1.9126  0.4038
 6713SOL    HW231773   1.761   3.708   6.413 -0.2804 -1.2219 -0.7857
 6714SOL     OW31774   1.515   0.855   3.727 -0.3027  0.2574 -0.3733
 6714SOL    HW131775   1.469   0.925   3.773  0.0387 -1.4531  2.5460
 6714SOL    HW231776   1.569   0.909   3.669  0.8832 -1.4435 -0.8395
 6715SOL     OW31777   0.269   4.428  17.621 -0.1755 -0.1089 -0.2043
 6715SOL    HW131778   0.326   4.418  17.696  0.5744  0.3873 -0.7082
 6715SOL    HW231779   0.296   4.353  17.568 -0.1707  1.7574 -2.8795
 6716SOL     OW31780   3.092   3.066   6.999 -0.3847  0.1031  0.0095
 6716SOL    HW131781   2.998   3.056   6.984 -0.3430  0.8576 -0.8142
 6716SOL    HW231782   3.118   3.102   6.913  1.9630 -0.9710  0.2670
 6717SOL     OW31783   1.194   0.849   9.480  0.1239  0.1916  0.1517
 6717SOL    HW131784   1.178   0.766   9.435  1.3984 -0.2341  0.4856
 6717SOL    HW231785   1.283   0.832   9.509  0.6915  1.3301 -0.9340
 6718SOL     OW31786   0.663   2.485   2.126  0.2705 -0.5508  0.0178
 6718SOL    HW131787   0.672   2.572   2.164 -1.1738 -0.5255  0.2968
 6718SOL    HW231788   0.738   2.441   2.166  0.4776 -0.2107  0.0038
 6719SOL     OW31789   1.011   4.377   5.255  0.2686  0.8970 -0.0718
 6719SOL    HW131790   0.924   4.338   5.263  0.4174  0.1576 -2.2144
 6719SOL    HW231791   0.990   4.452   5.199  1.5331 -0.6414 -2.6204
 6720SOL     OW31792   2.451   0.158  11.610  0.2336 -0.5080  0.0918
 6720SOL    HW131793   2.397   0.103  11.555  2.0325 -2.1790  0.0016
 6720SOL    HW231794   2.469   0.098  11.682 -2.5312 -0.1261  1.1179
 6721SOL     OW31795   2.671   2.575   1.661  0.2346 -0.1215  0.1350
 6721SOL    HW131796   2.687   2.497   1.715  1.2116  0.0729  0.1199
 6721SOL    HW231797   2.719   2.638   1.713 -1.8231  2.2224 -0.8117
 6722SOL     OW31798   4.452   2.732   6.942 -0.1355 -0.1446 -0.2966
 6722SOL    HW131799   4.359   2.746   6.928 -0.0178 -0.0877 -1.0400
 6722SOL    HW231800   4.451   2.638   6.957  0.9895  0.4043  3.0819
 6723SOL     OW31801   2.745   4.374   6.722 -0.4143 -0.9385 -0.1705
 6723SOL    HW131802   2.711   4.460   6.698  2.3127 -0.0909 -0.9582
 6723SOL    HW231803   2.837   4.396   6.732 -0.3536 -1.5502  0.5952
 6724SOL     OW31804   2.129   4.340   0.188  0.5317 -0.1969 -0.2625
 6724SOL    HW131805   2.050   4.295   0.218  0.4062 -0.8694 -1.6011
 6724SOL    HW231806   2.106   4.359   0.097  0.8926 -3.2176 -1.0074
 6725SOL     OW31807   4.058   4.508   4.842 -0.7300 -0.3025 -0.7481
 6725SOL    HW131808   3.984   4.556   4.804 -1.2208  0.5069  1.2081
 6725SOL    HW231809   4.077   4.561   4.920 -0.2431  1.9314 -2.3920
 6726SOL     OW31810   0.297   4.188  11.189  0.5139  0.1003 -0.2728
 6726SOL    HW131811   0.225   4.235  11.231 -0.4581 -2.2307  0.6526
 6726SOL    HW231812   0.301   4.111  11.245 -1.6677  0.9343  1.0289
 6727SOL     OW31813   4.232   1.445   4.002 -0.0423 -0.3717 -0.8709
 6727SOL    HW131814   4.213   1.443   4.096 -1.2240 -0.8792 -1.1236
 6727SOL    HW231815   4.213   1.537   3.983  0.5079 -0.2429 -0.8017
 6728SOL     OW31816   3.342   1.809  16.532 -0.5937 -0.7556 -0.4359
 6728SOL    HW131817   3.371   1.877  16.471 -1.8195  0.4144  0.2753
 6728SOL    HW231818   3.304   1.747  16.469  0.3117 -0.2818 -1.4463
 6729SOL     OW31819   0.400   4.426   0.582 -0.1051  0.0188 -0.4733
 6729SOL    HW131820   0.362   4.474   0.656 -1.0787  1.7348 -2.1147
 6729SOL    HW231821   0.400   4.336   0.616 -0.7943 -0.2740 -1.2684
 6730SOL     OW31822   1.467   4.287   5.277  0.1537 -0.0231 -0.0966
 6730SOL    HW131823   1.541   4.253   5.226  0.6021 -0.6654  1.0004
 6730SOL    HW231824   1.440   4.223   5.342  2.2461  0.8089  1.5790
 6731SOL     OW31825   1.076   3.668   5.853 -0.7832 -0.2794 -0.3358
 6731SOL    HW131826   1.016   3.604   5.890 -0.0065 -1.3323 -0.9243
 6731SOL    HW231827   1.154   3.620   5.827 -0.1213  1.3817 -1.3911
 6732SOL     OW31828   0.387   2.553   3.162  0.3228  0.0330  0.0463
 6732SOL    HW131829   0.332   2.609   3.217 -0.7115 -0.4271 -0.5138
 6732SOL    HW231830   0.465   2.604   3.186  0.6821 -0.2694 -0.4634
 6733SOL     OW31831   0.209   4.235   7.450  0.3506 -0.1536  0.5156
 6733SOL    HW131832   0.246   4.283   7.523  0.3994 -0.4566  0.6886
 6733SOL    HW231833   0.169   4.151   7.474 -1.0126 -0.2240 -1.9247
 6734SOL     OW31834   2.235   0.209   1.091  0.3331  0.0143 -0.5742
 6734SOL    HW131835   2.260   0.170   1.008  1.4901 -1.3576  0.4108
 6734SOL    HW231836   2.139   0.207   1.097  0.2817  2.9606 -0.5840
 6735SOL     OW31837   3.566   0.618  10.092  0.4457 -0.5062 -0.2022
 6735SOL    HW131838   3.518   0.686  10.045 -1.8270 -0.6673  1.8780
 6735SOL    HW231839   3.490   0.568  10.121  1.2705 -1.7735 -0.2247
 6736SOL     OW31840   2.816   4.550   5.118  0.3449 -0.0697 -0.3208
 6736SOL    HW131841   2.763   4.614   5.164  2.2755  2.4563 -1.6224
 6736SOL    HW231842   2.905   4.573   5.145  1.6188 -3.4653 -1.5579
 6737SOL     OW31843   0.042   1.966   6.119  0.2944 -0.1000  0.1886
 6737SOL    HW131844   0.001   1.879   6.126 -0.4101  0.3255  1.3821
 6737SOL    HW231845   0.019   1.985   6.029 -1.9766 -0.6291  0.6512
 6738SOL     OW31846   2.409   2.611   6.446  0.6575 -0.6191 -0.2306
 6738SOL    HW131847   2.419   2.566   6.530  1.7202 -0.2094 -0.1328
 6738SOL    HW231848   2.495   2.652   6.433  0.5772 -0.2725  0.3106
 6739SOL     OW31849   1.561   0.715   0.979  0.2931 -0.6272 -0.2863
 6739SOL    HW131850   1.553   0.742   1.070  0.1826 -1.3968 -0.0683
 6739SOL    HW231851   1.475   0.678   0.961 -0.2859 -0.4635  2.1856
 6740SOL     OW31852   0.802   3.429   8.307  0.4262 -0.0724 -0.0533
 6740SOL    HW131853   0.791   3.395   8.396  1.4206 -3.0605 -1.0688
 6740SOL    HW231854   0.795   3.522   8.330  5.0665  0.5478 -1.1732
 6741SOL     OW31855   3.908   2.562   4.016  0.8148  0.5250 -0.1316
 6741SOL    HW131856   3.939   2.653   4.020 -2.2976  1.6192 -0.7303
 6741SOL    HW231857   3.980   2.528   3.963 -1.6468 -0.5310 -2.8485
 6742SOL     OW31858   0.737   0.282   4.145 -0.5335 -0.1732  0.0703
 6742SOL    HW131859   0.701   0.195   4.166  0.0462  0.1439  2.3795
 6742SOL    HW231860   0.675   0.334   4.195 -0.1021  2.5468 -2.2448
 6743SOL     OW31861   1.107   0.224   6.922  0.5397  0.1905 -0.2361
 6743SOL    HW131862   1.116   0.183   6.836 -0.5169  1.0692 -0.7630
 6743SOL    HW231863   1.198   0.228   6.953  0.9868  1.0490 -1.6334
 6744SOL     OW31864   0.219   4.610   1.739 -0.3543  0.6401  0.8054
 6744SOL    HW131865   0.173   4.620   1.823 -1.3376 -0.9367  0.4612
 6744SOL    HW231866   0.299   4.659   1.758 -0.1851  0.8961 -0.5523
 6745SOL     OW31867   0.580   0.398   4.593  0.4240 -0.0254 -0.2051
 6745SOL    HW131868   0.581   0.487   4.629  0.3421 -0.6630  1.3758
 6745SOL    HW231869   0.487   0.376   4.601  0.5630 -0.7606 -0.6070
 6746SOL     OW31870   3.717   2.350   5.395  0.6803  0.0750 -0.4160
 6746SOL    HW131871   3.742   2.321   5.483  0.4490 -1.1833 -0.7664
 6746SOL    HW231872   3.793   2.315   5.349  1.8703  1.4547  0.5098
 6747SOL     OW31873   4.194   0.333   8.908 -0.1324 -0.0022  0.5964
 6747SOL    HW131874   4.253   0.269   8.869  0.1614  2.6934 -3.3811
 6747SOL    HW231875   4.162   0.281   8.982 -0.9381 -2.4437 -1.4648
 6748SOL     OW31876   2.852   3.787   8.794 -0.4206 -0.3609 -0.3266
 6748SOL    HW131877   2.796   3.764   8.719  0.8991 -1.1685 -1.0610
 6748SOL    HW231878   2.897   3.703   8.806 -0.4851 -0.2814  0.4563
 6749SOL     OW31879   4.299   4.135   3.064 -0.3661 -1.2300  0.7036
 6749SOL    HW131880   4.212   4.170   3.041 -0.0755  0.0892  1.5905
 6749SOL    HW231881   4.278   4.042   3.075 -1.3008 -1.1821 -0.6913
 6750SOL     OW31882   3.972   1.172   5.214  0.1334 -0.1227 -0.0770
 6750SOL    HW131883   3.916   1.244   5.186  0.1381 -0.3632 -0.7015
 6750SOL    HW231884   4.032   1.167   5.140 -0.4121  1.2549 -0.6124
 6751SOL     OW31885   1.173   0.390   4.026  0.3222  0.0364 -0.1128
 6751SOL    HW131886   1.149   0.466   4.079  0.3520 -0.8419  1.1377
 6751SOL    HW231887   1.229   0.342   4.087 -0.9715 -0.8985  0.3381
 6752SOL     OW31888   2.013   2.407   6.483 -0.2977 -0.0100 -0.6104
 6752SOL    HW131889   2.009   2.316   6.453 -1.9079  0.6224 -2.2949
 6752SOL    HW231890   1.957   2.405   6.561  1.7602  2.0604  0.9233
 6753SOL     OW31891   3.436   4.528  16.194 -0.1824  0.6740 -0.2224
 6753SOL    HW131892   3.420   4.441  16.158 -0.0201  0.8804 -0.7971
 6753SOL    HW231893   3.488   4.572  16.126  0.8021 -1.4888 -0.8702
 6754SOL     OW31894   0.193   0.539   8.397  0.7049  0.0125  0.6322
 6754SOL    HW131895   0.156   0.589   8.325  1.7683 -1.1032 -0.7208
 6754SOL    HW231896   0.284   0.570   8.394  0.7512 -0.1439  0.3669
 6755SOL     OW31897   3.954   1.164   1.176 -0.7138 -0.7296 -0.1106
 6755SOL    HW131898   3.881   1.103   1.188  0.5108 -2.4765 -1.6040
 6755SOL    HW231899   4.033   1.112   1.190 -0.8762 -0.4983  1.7111
 6756SOL     OW31900   4.170   1.224   5.869 -0.0011  0.6234 -0.1360
 6756SOL    HW131901   4.143   1.274   5.791 -0.2665  1.2213  0.3388
 6756SOL    HW231902   4.251   1.273   5.882  0.1207 -0.0803  1.7471
 6757SOL     OW31903   1.799   0.976   6.008 -0.1506  0.3941 -0.1363
 6757SOL    HW131904   1.768   1.056   6.050  1.9310  1.1131  0.0306
 6757SOL    HW231905   1.781   0.912   6.076 -1.6423  2.0354  1.0072
 6758SOL     OW31906   4.362   1.853   5.557  0.0657  0.9613  0.0474
 6758SOL    HW131907   4.268   1.837   5.551  0.1172  1.3006 -1.8879
 6758SOL    HW231908   4.365   1.925   5.620  0.3936  0.6490  0.3830
 6759SOL     OW31909   1.116   0.038   8.051  0.4605  0.3950  0.2531
 6759SOL    HW131910   1.154   4.691   8.077  1.9160  0.8822 -0.3053
 6759SOL    HW231911   1.045   0.043   8.115 -0.9545 -2.1375 -1.1216
 6760SOL     OW31912   3.176   0.861   5.853  0.1507 -0.1639 -0.1920
 6760SOL    HW131913   3.102   0.802   5.864  0.2414  0.3430  3.2071
 6760SOL    HW231914   3.139   0.943   5.821  2.3418  1.5531  1.6723
 6761SOL     OW31915   1.846   1.767   7.217 -0.1795 -0.1058 -0.0029
 6761SOL    HW131916   1.866   1.701   7.283  1.6299  0.6867  0.2360
 6761SOL    HW231917   1.932   1.803   7.196  0.1504 -0.1645  1.2558
 6762SOL     OW31918   0.218   3.015   1.657  0.7583 -0.8309 -0.0491
 6762SOL    HW131919   0.151   3.068   1.700  0.6400 -0.9039 -0.1440
 6762SOL    HW231920   0.295   3.057   1.696  0.6083  0.2774 -0.9780
 6763SOL     OW31921   0.823   3.803   6.284 -0.0127 -0.3511 -0.2473
 6763SOL    HW131922   0.825   3.886   6.331 -0.1241 -1.0672  1.0281
 6763SOL    HW231923   0.791   3.740   6.350 -1.6560  0.7822  0.0321
 6764SOL     OW31924   0.764   1.333   8.562  0.0946 -0.4450 -0.1526
 6764SOL    HW131925   0.832   1.342   8.629 -0.4109  0.3329  0.2600
 6764SOL    HW231926   0.798   1.257   8.515 -0.8918 -1.2143  0.3886
 6765SOL     OW31927   3.382   2.172   4.514 -0.5706  0.3902 -0.1242
 6765SOL    HW131928   3.438   2.141   4.443 -0.8419 -0.2031 -0.0755
 6765SOL    HW231929   3.304   2.120   4.495 -0.5236 -0.0836  0.9592
 6766SOL     OW31930   0.639   2.027   6.709 -0.1710 -0.2327 -0.3443
 6766SOL    HW131931   0.678   1.947   6.674 -1.4554 -1.3327  0.7144
 6766SOL    HW231932   0.718   2.079   6.721 -0.2675 -0.8439  2.8864
 6767SOL     OW31933   2.860   1.200  12.586 -0.0967 -0.1139  0.0859
 6767SOL    HW131934   2.878   1.173  12.496 -0.8938  0.7285 -0.3302
 6767SOL    HW231935   2.944   1.184  12.628  0.8386  0.0117 -1.7072
 6768SOL     OW31936   4.631   4.464   3.694 -0.3949  0.6573 -0.1862
 6768SOL    HW131937   4.586   4.395   3.647 -1.1835  2.7548 -2.5086
 6768SOL    HW231938   4.638   4.422   3.780  2.4595 -0.8459 -1.1391
 6769SOL     OW31939   0.472   1.837   2.989  0.8914  0.4110 -0.1299
 6769SOL    HW131940   0.391   1.807   3.030  1.0290  1.3328  0.8283
 6769SOL    HW231941   0.523   1.890   3.050  1.4701  0.1517 -0.3828
 6770SOL     OW31942   4.425   0.933  17.723 -0.5423  0.5590  0.3762
 6770SOL    HW131943   4.463   0.996   0.036 -1.6410  0.8221  0.7918
 6770SOL    HW231944   4.341   0.977  17.708 -1.1570 -0.8642 -0.4286
 6771SOL     OW31945   3.228   0.676   2.712  0.4357 -0.1211  0.0611
 6771SOL    HW131946   3.164   0.606   2.701 -1.2403  1.4148 -0.1191
 6771SOL    HW231947   3.252   0.699   2.622 -3.4434  1.2314 -0.6530
 6772SOL     OW31948   4.152   1.687   2.393 -0.0109  0.4192  0.3208
 6772SOL    HW131949   4.191   1.690   2.306 -0.5141  1.8460  0.1515
 6772SOL    HW231950   4.230   1.700   2.448  0.3942 -2.2138  0.3472
 6773SOL     OW31951   2.782   3.377   9.049  0.0527  0.0935  0.5501
 6773SOL    HW131952   2.805   3.469   9.030 -0.2434  0.2330  0.8660
 6773SOL    HW231953   2.689   3.386   9.069 -0.3999 -1.4172 -0.9446
 6774SOL     OW31954   4.450   2.101  17.747  0.1293  0.4605  0.7249
 6774SOL    HW131955   4.439   2.100   0.094 -2.4339 -0.6956  0.3914
 6774SOL    HW231956   4.414   2.188  17.728  0.1154  0.9781  3.1779
 6775SOL     OW31957   2.038   0.921   0.564  0.2455 -0.2680  0.4743
 6775SOL    HW131958   1.961   0.905   0.509 -0.4179 -1.3413  1.7368
 6775SOL    HW231959   2.103   0.929   0.494  1.7679 -2.0801  1.6853
 6776SOL     OW31960   4.694   1.611   7.990 -0.5278 -0.2589 -0.5684
 6776SOL    HW131961   4.643   1.544   8.034 -0.1132 -2.2405 -3.1464
 6776SOL    HW231962   0.038   1.616   8.041 -1.6470 -0.3969  1.2231
 6777SOL     OW31963   2.562   2.145   1.257  0.5549 -0.4214 -0.5224
 6777SOL    HW131964   2.572   2.102   1.172  0.9878  0.5113 -0.9399
 6777SOL    HW231965   2.467   2.158   1.267  0.5876 -1.4471  1.1618
 6778SOL     OW31966   3.082   2.438   9.671 -0.6727  0.3220 -0.2038
 6778SOL    HW131967   3.088   2.413   9.578  2.0749 -0.5777  0.2098
 6778SOL    HW231968   2.993   2.474   9.671 -1.6377 -2.0097 -2.4057
 6779SOL     OW31969   2.858   0.201   1.775 -0.0335  0.1481 -0.1810
 6779SOL    HW131970   2.897   0.217   1.861  0.0436  2.0094 -0.5692
 6779SOL    HW231971   2.810   0.283   1.759  3.0446  1.8949 -0.4933
 6780SOL     OW31972   1.097   4.490   6.730 -0.0671 -0.2028 -0.5699
 6780SOL    HW131973   1.043   4.556   6.687 -2.6613 -1.4674  0.7537
 6780SOL    HW231974   1.183   4.507   6.690 -0.8085 -2.1951 -2.9793
 6781SOL     OW31975   1.430   1.031   0.494  0.0487  0.1216  0.3664
 6781SOL    HW131976   1.395   1.012   0.407  2.0232 -1.4197 -0.1001
 6781SOL    HW231977   1.495   1.098   0.472  0.8851 -0.9849 -0.5367
 6782SOL     OW31978   4.577   1.084   1.274 -0.1062  0.1128  0.5049
 6782SOL    HW131979   4.542   1.043   1.353 -0.5171  2.2953  1.4294
 6782SOL    HW231980   4.522   1.161   1.266 -0.5647  0.0056  2.6770
 6783SOL     OW31981   3.009   2.937   7.881  0.5237 -0.3433  0.2768
 6783SOL    HW131982   3.010   3.015   7.826  2.5165  1.2269  2.5243
 6783SOL    HW231983   2.938   2.964   7.940  0.2015  1.7710 -1.0764
 6784SOL     OW31984   1.347   2.999   7.974 -0.4376 -0.1888  0.1823
 6784SOL    HW131985   1.291   3.070   8.006 -0.1101  0.1100  0.0817
 6784SOL    HW231986   1.276   2.939   7.947 -1.4886  0.6155  1.1802
 6785SOL     OW31987   0.965   1.987   5.735  0.2685 -0.0187  0.0221
 6785SOL    HW131988   1.022   2.005   5.810 -1.0913 -1.0666  1.3218
 6785SOL    HW231989   0.952   1.893   5.743 -2.2486  0.1753 -1.5955
 6786SOL     OW31990   0.278   3.896  10.144  0.8052 -0.1999 -0.0742
 6786SOL    HW131991   0.326   3.924  10.222  2.1042 -1.8422 -0.2761
 6786SOL    HW231992   0.295   3.802  10.150  1.2822  0.0838  2.7129
 6787SOL     OW31993   0.644   0.520   0.499 -0.0411  0.1732 -0.4264
 6787SOL    HW131994   0.727   0.567   0.499  0.6656 -1.0570  0.9007
 6787SOL    HW231995   0.618   0.520   0.407  0.8224 -0.5935 -0.6635
 6788SOL     OW31996   0.053   2.977   0.235 -0.2709  0.2869 -0.2657
 6788SOL    HW131997   4.714   2.939   0.191 -1.6499 -1.0339  3.2696
 6788SOL    HW231998   0.019   3.009   0.318 -1.3659  1.0817 -1.0310
 6789SOL     OW31999   3.482   3.737   6.910  0.2409  0.4235  0.2919
 6789SOL    HW132000   3.395   3.718   6.875 -1.5711  2.5245  3.6878
 6789SOL    HW232001   3.495   3.819   6.861  1.5753 -0.7904 -1.4036
 6790SOL     OW32002   3.468   2.268   8.238  0.4828  0.1823 -0.4429
 6790SOL    HW132003   3.463   2.177   8.267 -0.9914  0.1955 -0.6338
 6790SOL    HW232004   3.409   2.320   8.292  2.1381  1.6494 -0.0693
 6791SOL     OW32005   2.946   4.414  15.900 -0.2877 -0.4710  0.6040
 6791SOL    HW132006   3.015   4.433  15.836  0.9735 -1.4741  1.6525
 6791SOL    HW232007   2.878   4.474  15.870  0.9398  0.6396  0.0138
 6792SOL     OW32008   2.275   2.518   0.238  0.7057 -0.5495 -0.1552
 6792SOL    HW132009   2.228   2.435   0.231  1.5710 -0.8977 -1.9989
 6792SOL    HW232010   2.295   2.516   0.331 -0.9885  1.0392  0.2246
 6793SOL     OW32011   1.590   2.724   1.077 -0.1639  0.2181 -0.3595
 6793SOL    HW132012   1.639   2.798   1.040  1.2194 -0.0382  0.9398
 6793SOL    HW232013   1.594   2.749   1.169  0.5157 -0.7444 -0.1287
 6794SOL     OW32014   1.919   4.429   4.138 -0.0423 -0.3870  0.0762
 6794SOL    HW132015   1.983   4.361   4.118 -0.2069 -1.0926  1.9664
 6794SOL    HW232016   1.923   4.418   4.233  1.5796 -0.1609  0.0313
 6795SOL     OW32017   2.216   1.559   7.984 -0.1382 -0.3242 -0.5175
 6795SOL    HW132018   2.252   1.648   7.992  0.5198 -0.5355 -1.0775
 6795SOL    HW232019   2.131   1.565   8.027  0.3646  1.3939  0.2541
 6796SOL     OW32020   1.349   3.617  15.684 -0.3116 -0.3104  0.0089
 6796SOL    HW132021   1.333   3.657  15.770 -0.5616 -1.4059  0.4695
 6796SOL    HW232022   1.363   3.526  15.709 -1.5181 -0.5781 -0.2704
 6797SOL     OW32023   0.366   0.571   1.558  0.1020 -0.7752 -0.4243
 6797SOL    HW132024   0.428   0.573   1.485  0.3101 -0.6018 -0.2407
 6797SOL    HW232025   0.287   0.613   1.523  0.3901 -0.8266 -1.1279
 6798SOL     OW32026   0.701   0.381   1.636 -0.2249 -0.5549  0.3570
 6798SOL    HW132027   0.644   0.388   1.559 -1.2477 -2.8572  0.9078
 6798SOL    HW232028   0.673   0.297   1.671 -2.6934 -0.6920 -1.9574
 6799SOL     OW32029   0.546   3.472  12.495 -0.2340  0.2966  0.0551
 6799SOL    HW132030   0.527   3.541  12.432  0.8667  1.9837  1.5661
 6799SOL    HW232031   0.537   3.516  12.580  1.3207  1.0397 -0.1483
 6800SOL     OW32032   2.505   0.877  15.031 -0.3255 -0.1852 -0.0170
 6800SOL    HW132033   2.461   0.854  15.112  1.4193 -0.2427  0.9208
 6800SOL    HW232034   2.488   0.971  15.026 -0.8464 -0.3836 -1.9263
 6801SOL     OW32035   3.651   3.969   5.733 -0.2834  0.0830  0.0285
 6801SOL    HW132036   3.596   3.973   5.811 -0.3279  0.6467 -0.0307
 6801SOL    HW232037   3.683   4.060   5.734 -0.9619  0.3043  1.3892
 6802SOL     OW32038   0.498   2.205   6.065 -0.4357  0.0223 -0.5588
 6802SOL    HW132039   0.575   2.254   6.035 -2.4129  2.9156 -0.8706
 6802SOL    HW232040   0.473   2.158   5.985 -0.4422  0.3502 -0.7505
 6803SOL     OW32041   0.723   2.281  16.849 -0.7284 -0.4056 -0.4017
 6803SOL    HW132042   0.743   2.200  16.801  1.1147  0.4999 -1.1819
 6803SOL    HW232043   0.682   2.336  16.783 -0.3023  1.3845  0.8239
 6804SOL     OW32044   0.685   0.869   4.789  0.0598  0.2995  0.1993
 6804SOL    HW132045   0.662   0.953   4.828  0.6095  0.4462  0.2022
 6804SOL    HW232046   0.764   0.892   4.740  1.1471 -0.8574  1.3949
 6805SOL     OW32047   0.797   1.480  10.508  0.2140  0.2582 -0.0134
 6805SOL    HW132048   0.881   1.444  10.480 -0.0231 -0.9487  0.8107
 6805SOL    HW232049   0.825   1.514  10.593 -2.1952 -1.4561  1.4908
 6806SOL     OW32050   2.219   3.041   2.900 -0.1013  0.0650 -0.1038
 6806SOL    HW132051   2.179   3.081   2.823 -0.4563  1.6350  0.8802
 6806SOL    HW232052   2.165   2.963   2.910 -3.0223  1.9958 -0.8869
 6807SOL     OW32053   1.604   3.721   3.600 -0.3862  0.3071  0.2274
 6807SOL    HW132054   1.638   3.805   3.630 -1.3465  0.5593  0.6166
 6807SOL    HW232055   1.632   3.718   3.508  0.6504 -1.1650  0.5829
 6808SOL     OW32056   2.615   1.411   9.467  0.0548  0.4857  0.1072
 6808SOL    HW132057   2.622   1.481   9.532 -0.1835 -0.0118  0.6716
 6808SOL    HW232058   2.639   1.343   9.531 -2.1309  0.1058  0.5140
 6809SOL     OW32059   3.561   3.285   4.123  0.0704  0.1970  0.6019
 6809SOL    HW132060   3.491   3.226   4.153 -0.3426  1.0184  1.2494
 6809SOL    HW232061   3.641   3.258   4.169  0.5660  0.6304 -0.0191
 6810SOL     OW32062   0.308   4.130   2.899  0.5220  0.3490  0.6285
 6810SOL    HW132063   0.328   4.197   2.964  0.2130  1.3638 -0.3077
 6810SOL    HW232064   0.213   4.138   2.889  0.5520  0.5687  0.5086
 6811SOL     OW32065   2.322   4.199  15.737 -0.8772 -0.1687 -0.5449
 6811SOL    HW132066   2.373   4.243  15.805 -2.6493 -1.3090  1.5371
 6811SOL    HW232067   2.368   4.244  15.666 -0.7245 -0.2130 -0.4751
 6812SOL     OW32068   3.694   1.386   2.976  0.1949 -0.1866 -0.1136
 6812SOL    HW132069   3.740   1.399   3.059 -3.2233  0.8538  1.6276
 6812SOL    HW232070   3.646   1.470   2.975  2.3324  1.0588  2.6164
 6813SOL     OW32071   3.226   2.913  10.943 -0.7354 -0.5727 -0.0980
 6813SOL    HW132072   3.137   2.878  10.948 -1.9410  2.2827 -1.4911
 6813SOL    HW232073   3.226   2.949  10.854 -0.7034  0.1050  0.1773
 6814SOL     OW32074   3.789   0.455  13.602  0.1773  0.6869  0.3147
 6814SOL    HW132075   3.867   0.471  13.654  1.6475  1.2690 -2.0764
 6814SOL    HW232076   3.715   0.483  13.655  0.2676  1.5459 -0.0143
 6815SOL     OW32077   4.409   3.663  15.084 -0.1102 -0.3205  0.0326
 6815SOL    HW132078   4.476   3.726  15.059 -1.2313  1.9877  2.8453
 6815SOL    HW232079   4.329   3.705  15.115  0.4545 -0.3918  1.5601
 6816SOL     OW32080   0.741   0.613   6.672 -0.2389 -0.1014  0.0514
 6816SOL    HW132081   0.733   0.692   6.725  2.6756 -0.1384  0.5017
 6816SOL    HW232082   0.770   0.545   6.733  0.0182 -2.4111 -2.6501
 6817SOL     OW32083   2.940   3.154  15.258  0.0115 -0.0374 -0.1206
 6817SOL    HW132084   2.980   3.070  15.280 -2.9525 -1.4014  0.0884
 6817SOL    HW232085   3.000   3.182  15.189  1.4911 -1.0159  0.7664
 6818SOL     OW32086   2.850   0.216   5.410 -0.2993  0.1671  0.0770
 6818SOL    HW132087   2.826   0.253   5.325 -2.3229 -0.2704  0.4503
 6818SOL    HW232088   2.770   0.167   5.431 -0.5347  1.0390  1.2353
 6819SOL     OW32089   0.484   1.214   9.297 -0.4279  0.0058  0.5008
 6819SOL    HW132090   0.503   1.303   9.266  1.1336 -0.3831  0.3006
 6819SOL    HW232091   0.552   1.199   9.363 -0.5332  1.2458  0.8939
 6820SOL     OW32092   2.972   1.854   6.775 -0.6195 -0.0521  0.5488
 6820SOL    HW132093   2.984   1.937   6.822  2.3852  0.3996 -0.9760
 6820SOL    HW232094   3.007   1.789   6.835  0.9029  0.8724  0.6906
 6821SOL     OW32095   1.520   2.052   5.862 -0.5465  0.4091 -0.6465
 6821SOL    HW132096   1.458   2.037   5.933  0.1859  0.2944 -0.0328
 6821SOL    HW232097   1.597   2.082   5.910  0.2934 -0.6875 -1.2906
 6822SOL     OW32098   3.499   3.284   5.705 -0.3129  0.1329  0.4815
 6822SOL    HW132099   3.464   3.363   5.664 -0.9366 -0.0974  0.5702
 6822SOL    HW232100   3.440   3.277   5.780 -0.0162  2.4770  0.9166
 6823SOL     OW32101   2.392   2.196   7.223 -0.3271  0.2453  0.2791
 6823SOL    HW132102   2.355   2.124   7.172  0.0679  0.4490 -0.2817
 6823SOL    HW232103   2.455   2.147   7.276  1.5142  1.8465 -0.4426
 6824SOL     OW32104   1.451   3.604   7.727 -0.4377 -0.6682 -0.3608
 6824SOL    HW132105   1.366   3.622   7.767  0.4626  1.1236  0.7379
 6824SOL    HW232106   1.431   3.520   7.685  0.6559 -1.4994  0.7603
 6825SOL     OW32107   3.910   3.445  13.785  0.0465  0.7504 -0.4802
 6825SOL    HW132108   3.854   3.428  13.709 -0.9636  0.1955  0.3952
 6825SOL    HW232109   3.863   3.384  13.841 -0.7712  0.8791 -1.0246
 6826SOL     OW32110   2.399   2.220   2.398  0.2827  0.5105 -0.1308
 6826SOL    HW132111   2.338   2.150   2.421  0.2345  1.0652  1.4382
 6826SOL    HW232112   2.422   2.247   2.487 -0.9348 -2.6695  1.1388
 6827SOL     OW32113   3.471   1.508   7.861 -0.0429  0.1430 -0.0833
 6827SOL    HW132114   3.495   1.514   7.953 -0.3329 -0.9498  0.0618
 6827SOL    HW232115   3.539   1.564   7.823  0.7644 -2.5874 -2.6711
 6828SOL     OW32116   3.389   4.095   4.273 -0.3088 -0.2864  0.1490
 6828SOL    HW132117   3.351   4.175   4.309 -2.0959  0.2487 -2.9380
 6828SOL    HW232118   3.442   4.130   4.202 -1.3233  0.8744 -0.0329
 6829SOL     OW32119   4.255   4.318  13.220 -0.0349 -0.2185  0.1572
 6829SOL    HW132120   4.318   4.382  13.255 -1.2437  1.0280  0.0563
 6829SOL    HW232121   4.198   4.307  13.296  1.6837 -0.9501  1.3293
 6830SOL     OW32122   1.358   0.969   9.197 -0.2348  0.4819 -0.3193
 6830SOL    HW132123   1.397   0.916   9.127 -0.7245 -0.0017 -0.2224
 6830SOL    HW232124   1.418   0.941   9.266 -0.8834  2.0278  0.8652
 6831SOL     OW32125   2.593   3.788  13.658 -0.5003  0.1765 -0.2003
 6831SOL    HW132126   2.518   3.732  13.635  1.4180 -1.9289 -1.4073
 6831SOL    HW232127   2.557   3.824  13.738 -3.3084  0.3093 -1.5346
 6832SOL     OW32128   4.719   2.772  15.234  0.1131 -0.1034 -0.6215
 6832SOL    HW132129   4.645   2.804  15.182  0.8878  0.4955 -1.3512
 6832SOL    HW232130   4.715   2.682  15.204 -0.2549 -0.5284  0.6828
 6833SOL     OW32131   4.217   2.045  16.890 -0.2728 -0.1248  0.3811
 6833SOL    HW132132   4.300   2.092  16.889 -1.7847  2.5558  0.8184
 6833SOL    HW232133   4.180   2.049  16.801  2.4141  1.4350 -0.6645
 6834SOL     OW32134   0.629   0.824   6.054  0.3603  0.3482  0.4290
 6834SOL    HW132135   0.570   0.851   5.983  1.1582  2.2194  0.4769
 6834SOL    HW232136   0.588   0.739   6.068 -0.1602  0.9668  2.6040
 6835SOL     OW32137   2.116   2.251   0.211  0.0148  0.2009  0.4001
 6835SOL    HW132138   2.142   2.239   0.302  0.3811  0.0819  0.2806
 6835SOL    HW232139   2.031   2.209   0.202  0.2412  0.1446 -1.4855
 6836SOL     OW32140   3.597   4.338   1.061  0.0714  0.3943 -0.4039
 6836SOL    HW132141   3.683   4.300   1.079  0.2472  1.3131  0.7246
 6836SOL    HW232142   3.536   4.274   1.097 -0.3692 -0.0793 -2.0212
 6837SOL     OW32143   0.997   0.186  15.504 -0.4641 -0.3712 -0.4073
 6837SOL    HW132144   0.931   0.253  15.519  1.7553  2.1050 -1.6185
 6837SOL    HW232145   1.060   0.229  15.562 -0.2653  0.2007 -1.0400
 6838SOL     OW32146   2.558   1.722   1.951 -0.0327  0.1092 -0.0703
 6838SOL    HW132147   2.506   1.642   1.958 -1.1636  0.8631  0.1033
 6838SOL    HW232148   2.539   1.759   2.037  1.0176 -0.2340  0.3163
 6839SOL     OW32149   4.472   1.736   5.025 -0.2467  0.3133 -0.2220
 6839SOL    HW132150   4.414   1.722   5.100  0.1408  0.1253  0.0436
 6839SOL    HW232151   4.417   1.709   4.951  0.4668 -2.9769  0.4415
 6840SOL     OW32152   1.833   2.593  16.114  0.3618  0.3287 -0.3850
 6840SOL    HW132153   1.843   2.680  16.153  1.4875  0.0999 -0.1634
 6840SOL    HW232154   1.923   2.583  16.085  0.3793  1.4804 -0.7087
 6841SOL     OW32155   1.245   1.998   8.889 -0.4246  0.2724  0.0336
 6841SOL    HW132156   1.243   2.076   8.834  1.4022  0.3595  0.0914
 6841SOL    HW232157   1.179   2.020   8.955 -0.3631  2.9252 -0.7950
 6842SOL     OW32158   2.587   1.911   2.160  0.1312  0.1594  0.4593
 6842SOL    HW132159   2.599   1.971   2.087 -0.0878  1.3796  1.4259
 6842SOL    HW232160   2.589   1.973   2.233  0.2882 -0.5740  1.0821
 6843SOL     OW32161   4.543   1.081   3.088 -0.0899  0.4882  0.8866
 6843SOL    HW132162   4.463   1.086   3.140 -0.9026 -1.3254 -0.2023
 6843SOL    HW232163   4.502   1.058   3.004 -1.5198  2.8243  0.9461
 6844SOL     OW32164   1.305   4.077  15.800  0.5797 -0.3319 -0.0860
 6844SOL    HW132165   1.346   3.997  15.767  0.4081 -0.6502  0.4734
 6844SOL    HW232166   1.212   4.082  15.779  0.8883 -0.2909 -1.4564
 6845SOL     OW32167   4.549   4.678   6.101  0.4179  0.3818 -0.2426
 6845SOL    HW132168   4.567   0.030   6.072 -0.1466  1.1922  1.9056
 6845SOL    HW232169   4.625   4.668   6.158 -0.2240 -3.2992 -0.0527
 6846SOL     OW32170   3.506   0.215   9.297  0.2279  0.1045  0.3437
 6846SOL    HW132171   3.578   0.268   9.331  0.4682  0.1310 -0.1972
 6846SOL    HW232172   3.468   0.169   9.371  0.0086 -1.4752 -0.7510
 6847SOL     OW32173   1.386   4.594   7.285  0.3820 -0.6716  0.4778
 6847SOL    HW132174   1.391   4.501   7.306 -0.9507 -0.7627  0.3918
 6847SOL    HW232175   1.352   4.628   7.367  0.1349 -0.8043  0.4298
 6848SOL     OW32176   2.360   3.951  17.098 -0.1245  0.3572  0.1303
 6848SOL    HW132177   2.425   4.018  17.118  1.4479 -1.1348  0.0792
 6848SOL    HW232178   2.376   3.938  17.005 -2.6271 -0.4385 -0.1888
 6849SOL     OW32179   3.641   3.272  10.250 -0.0392 -0.4104 -0.1201
 6849SOL    HW132180   3.678   3.260  10.162  2.2429  1.9064  0.5438
 6849SOL    HW232181   3.643   3.181  10.279  1.4352 -0.6137 -0.8425
 6850SOL     OW32182   3.198   4.643   8.525  0.4717  0.1777 -0.2207
 6850SOL    HW132183   3.202   4.720   8.581  2.5363  0.9625 -1.4181
 6850SOL    HW232184   3.236   4.676   8.443  2.4860  0.1150  0.6765
 6851SOL     OW32185   4.046   0.815   0.366 -0.6478 -0.0555  0.4575
 6851SOL    HW132186   4.100   0.805   0.445 -0.4365 -1.6199  0.1164
 6851SOL    HW232187   4.117   0.807   0.303 -0.3073  1.0171  0.7187
 6852SOL     OW32188   0.488   4.635   8.732  0.4959 -0.7882  0.9606
 6852SOL    HW132189   0.473   4.719   8.690  1.0307 -0.7840  0.7750
 6852SOL    HW232190   0.573   4.606   8.698 -0.0464  1.3500 -2.2154
 6853SOL     OW32191   0.071   4.051   5.711 -0.0818 -0.4659 -0.3335
 6853SOL    HW132192   0.121   3.996   5.652  0.6062  1.6266 -1.7109
 6853SOL    HW232193   4.721   4.037   5.675  0.5415 -2.0224 -1.1932
 6854SOL     OW32194   2.534   0.361   5.629 -0.2805 -0.3813  0.1090
 6854SOL    HW132195   2.447   0.323   5.620 -0.1859 -0.4806 -0.3783
 6854SOL    HW232196   2.586   0.292   5.587  0.6102 -0.0734  0.7053
 6855SOL     OW32197   1.291   4.132  17.079  0.2778 -0.7068  0.2120
 6855SOL    HW132198   1.342   4.149  16.999  2.1695 -0.4929  1.4549
 6855SOL    HW232199   1.282   4.037  17.076  0.8266 -0.6553 -3.1446
 6856SOL     OW32200   2.852   0.889   1.827 -0.2230  0.1221 -0.0691
 6856SOL    HW132201   2.819   0.976   1.806  0.0374  0.1822 -0.2172
 6856SOL    HW232202   2.821   0.849   1.746  0.6336  1.6316 -1.1471
 6857SOL     OW32203   2.781   2.563   0.836 -0.4612  0.6872 -0.2059
 6857SOL    HW132204   2.783   2.489   0.775 -0.8646  0.2910  0.2650
 6857SOL    HW232205   2.758   2.516   0.916  1.2912 -1.0142 -0.6929
 6858SOL     OW32206   4.630   2.879   5.232 -0.4986 -0.0108 -0.6018
 6858SOL    HW132207   4.667   2.962   5.203  0.5961  0.0075  0.8401
 6858SOL    HW232208   4.712   2.830   5.236 -1.4836 -1.6915 -0.7132
 6859SOL     OW32209   4.287   1.005  11.125 -0.2220 -0.0466 -0.1579
 6859SOL    HW132210   4.307   0.912  11.124  0.8852  0.1992 -1.8091
 6859SOL    HW232211   4.213   1.015  11.185 -1.2739  4.6876 -2.1889
 6860SOL     OW32212   4.598   2.977   8.784 -0.4122  0.3027  0.4757
 6860SOL    HW132213   4.558   3.026   8.712 -2.1772 -0.6835  0.7861
 6860SOL    HW232214   4.692   2.994   8.775 -0.6230 -0.0574 -2.1881
 6861SOL     OW32215   4.478   2.019  15.743  0.3028  0.1763 -0.2627
 6861SOL    HW132216   4.563   2.030  15.700 -0.3918  0.1492 -1.6721
 6861SOL    HW232217   4.436   1.960  15.680 -0.2742 -1.8873  2.0929
 6862SOL     OW32218   4.271   2.093   9.409  0.4367 -0.1073 -0.3136
 6862SOL    HW132219   4.226   2.037   9.472 -0.2034 -0.1189 -0.7798
 6862SOL    HW232220   4.356   2.095   9.452 -0.0489 -0.5923  0.6726
 6863SOL     OW32221   0.623   3.193   8.299 -0.4902 -0.0781  0.0708
 6863SOL    HW132222   0.662   3.256   8.238 -2.2666  0.2242 -0.7546
 6863SOL    HW232223   0.537   3.235   8.311 -0.2459  0.0920  1.2219
 6864SOL     OW32224   0.225   4.491   0.812 -0.0677  0.3129  0.1068
 6864SOL    HW132225   0.138   4.457   0.790 -0.5701  1.1510  0.7899
 6864SOL    HW232226   0.234   4.478   0.907 -0.5512 -0.5713  0.0235
 6865SOL     OW32227   0.829   0.218   5.285 -0.2857 -0.0977 -0.3542
 6865SOL    HW132228   0.783   0.155   5.230 -0.6854  2.4504 -2.9168
 6865SOL    HW232229   0.795   0.302   5.257 -0.3297  0.1555  0.4656
 6866SOL     OW32230   1.934   2.709   6.742  0.3831  0.0644  0.5549
 6866SOL    HW132231   1.840   2.700   6.724  0.6618 -0.0215 -0.8461
 6866SOL    HW232232   1.948   2.789   6.792  0.7230 -0.4356  1.2670
 6867SOL     OW32233   3.284   4.300   2.049  0.5478  0.2516  0.3832
 6867SOL    HW132234   3.319   4.219   2.086 -0.2424 -0.6881 -0.9279
 6867SOL    HW232235   3.190   4.284   2.051  0.5630  0.0011 -0.8793
 6868SOL     OW32236   4.169   3.090  16.576  0.0914 -0.5780 -0.2246
 6868SOL    HW132237   4.125   3.136  16.504  0.2108  0.3034  0.2715
 6868SOL    HW232238   4.256   3.072  16.543  0.3003 -0.7930  0.4438
 6869SOL     OW32239   2.040   3.713   5.352 -0.7776  0.2132  0.0714
 6869SOL    HW132240   2.046   3.631   5.400  2.2909  0.9076  0.8623
 6869SOL    HW232241   2.124   3.726   5.308 -1.3438  0.2770 -0.9845
 6870SOL     OW32242   2.698   2.239   4.122  0.3172 -0.0416 -0.0662
 6870SOL    HW132243   2.729   2.247   4.212 -0.1720  3.0304 -0.1591
 6870SOL    HW232244   2.640   2.314   4.111 -0.4841 -0.2490  2.7530
 6871SOL     OW32245   2.175   0.367  10.747 -0.5360  0.2247 -0.1601
 6871SOL    HW132246   2.240   0.307  10.783 -1.3951 -0.9304 -0.5174
 6871SOL    HW232247   2.175   0.434  10.815 -0.3300  0.3776 -0.3116
 6872SOL     OW32248   4.661   1.668   6.628  0.1760  0.0499 -0.1714
 6872SOL    HW132249   4.701   1.707   6.706 -2.5456  1.3784  0.5771
 6872SOL    HW232250   4.660   1.738   6.563  1.7546  1.0200  0.8470
 6873SOL     OW32251   0.108   0.005   2.258  0.2325  0.3073  0.4559
 6873SOL    HW132252   0.100   4.680   2.330  0.7979  1.4894  1.5571
 6873SOL    HW232253   0.180   0.066   2.277  1.0795 -0.3312 -0.7592
 6874SOL     OW32254   0.516   1.468   9.187 -0.1309 -0.6004  0.0444
 6874SOL    HW132255   0.562   1.440   9.108 -0.3961 -1.6078  0.2451
 6874SOL    HW232256   0.567   1.544   9.213 -1.0709 -0.2013  0.7258
 6875SOL     OW32257   2.215   1.622   9.099  0.1043 -0.2921 -0.0710
 6875SOL    HW132258   2.218   1.549   9.037 -0.3826  0.2851 -0.7764
 6875SOL    HW232259   2.307   1.633   9.121  0.0542  3.3858 -1.6345
 6876SOL     OW32260   1.893   0.107   7.567 -0.0540 -0.4742 -0.1192
 6876SOL    HW132261   1.862   0.069   7.484 -1.2086  1.2422 -0.4807
 6876SOL    HW232262   1.858   0.047   7.632  0.7591  0.0234  0.7676
 6877SOL     OW32263   2.254   3.907   1.267 -0.0321  0.1162  0.1829
 6877SOL    HW132264   2.201   3.932   1.191 -0.9488  0.6276  0.9958
 6877SOL    HW232265   2.266   3.814   1.247 -1.5547 -0.3273  1.3264
 6878SOL     OW32266   2.539   3.238   3.077 -0.2924 -0.9779  0.3068
 6878SOL    HW132267   2.518   3.229   3.170 -2.6206  2.1873  0.0415
 6878SOL    HW232268   2.635   3.239   3.086 -0.2841  0.4942 -0.0635
 6879SOL     OW32269   0.461   1.239   3.111  0.1034 -0.5500 -0.0761
 6879SOL    HW132270   0.387   1.180   3.129 -1.7570  1.7819 -0.1192
 6879SOL    HW232271   0.496   1.194   3.034  0.7555 -0.7537  0.3348
 6880SOL     OW32272   2.759   2.213   4.377  0.4893  0.2068  0.0697
 6880SOL    HW132273   2.845   2.215   4.417 -0.2749  0.8618  1.6882
 6880SOL    HW232274   2.708   2.164   4.442  0.6244 -0.9799 -0.7169
 6881SOL     OW32275   0.634   0.331  10.993  0.1301  0.1622  0.0660
 6881SOL    HW132276   0.542   0.348  10.972 -0.2373 -2.8848 -0.7477
 6881SOL    HW232277   0.661   0.421  11.013  1.6403  0.0769 -1.5340
 6882SOL     OW32278   0.041   0.171   6.364 -0.4196 -0.6730  0.5611
 6882SOL    HW132279   0.002   0.157   6.450  0.0621  3.0291  1.3799
 6882SOL    HW232280   0.068   0.262   6.372  0.9049 -0.9236 -0.8265
 6883SOL     OW32281   4.603   2.387   2.145  0.2553  0.1765  0.4207
 6883SOL    HW132282   4.697   2.373   2.134 -0.2057 -1.5895 -1.3013
 6883SOL    HW232283   4.550   2.326   2.094  1.8869  0.0454 -1.1150
 6884SOL     OW32284   0.933   4.195   1.846  0.5855  0.5379 -0.9667
 6884SOL    HW132285   0.888   4.129   1.899  1.2098  1.4135  0.6513
 6884SOL    HW232286   1.015   4.150   1.826  0.3046  1.2072 -3.6047
 6885SOL     OW32287   2.780   1.111   9.237  0.0797 -0.3029  0.4221
 6885SOL    HW132288   2.841   1.176   9.272  1.1710 -1.3625  0.5260
 6885SOL    HW232289   2.723   1.119   9.314  1.6679  2.8614  1.2523
 6886SOL     OW32290   3.205   1.929  16.746  1.1039 -0.1513 -0.6268
 6886SOL    HW132291   3.235   1.887  16.665 -1.3540 -1.0086 -1.0880
 6886SOL    HW232292   3.194   2.015  16.705 -1.1388 -0.8465 -1.4862
 6887SOL     OW32293   1.677   2.958   0.963 -0.2674  0.0777 -0.4998
 6887SOL    HW132294   1.715   3.000   1.041 -0.7871  0.9646 -0.7339
 6887SOL    HW232295   1.652   3.028   0.904  1.0695  1.1043  0.1501
 6888SOL     OW32296   0.379   0.585  14.350 -0.5081  0.3010 -0.4108
 6888SOL    HW132297   0.397   0.585  14.256 -0.9126 -1.0526 -0.4955
 6888SOL    HW232298   0.452   0.631  14.390  0.8948 -1.6352 -0.7473
 6889SOL     OW32299   3.611   4.705   8.004  0.0111  0.4040  0.7256
 6889SOL    HW132300   3.692   4.665   7.973 -1.0469 -1.1318 -0.0981
 6889SOL    HW232301   3.553   4.718   7.929  0.6822 -0.5498  0.0392
 6890SOL     OW32302   4.072   1.035  14.067 -0.2856  0.3398 -0.4272
 6890SOL    HW132303   4.038   1.116  14.028  1.7299  1.1066 -0.5758
 6890SOL    HW232304   4.155   1.058  14.108 -0.1248 -1.9490  0.5412
 6891SOL     OW32305   0.261   0.389   7.207  0.0020  0.4458 -0.4431
 6891SOL    HW132306   0.320   0.398   7.282 -0.7039  0.2187  0.1444
 6891SOL    HW232307   0.306   0.334   7.143 -0.1866  0.7759 -0.8594
 6892SOL     OW32308   4.672   1.836  17.484  0.2416 -0.1086 -0.0116
 6892SOL    HW132309   0.016   1.825  17.435  0.1104  1.1883 -0.5268
 6892SOL    HW232310   4.605   1.854  17.417  0.9615 -0.8586 -0.9302
 6893SOL     OW32311   3.836   1.504  11.335 -0.2137  0.1318 -0.4095
 6893SOL    HW132312   3.865   1.591  11.364 -0.3008 -0.0294  0.1646
 6893SOL    HW232313   3.768   1.482  11.399  0.8252  1.3505  1.1224
 6894SOL     OW32314   2.479   0.946   0.172  0.4726  0.2243 -0.4760
 6894SOL    HW132315   2.470   1.033   0.210  0.1905 -0.5629  1.2315
 6894SOL    HW232316   2.401   0.929   0.119  0.4607  1.2494 -0.7875
 6895SOL     OW32317   1.685   1.129   5.551  0.0457  0.2252 -0.2749
 6895SOL    HW132318   1.753   1.068   5.522 -0.1943  0.3652 -1.1376
 6895SOL    HW232319   1.738   1.177   5.614  0.8668  1.4194 -1.8731
 6896SOL     OW32320   3.689   3.006  11.369  0.1210 -0.1115 -0.1927
 6896SOL    HW132321   3.768   3.059  11.382  0.7717 -0.8875 -1.0617
 6896SOL    HW232322   3.677   2.976  11.459 -1.0158  4.1893  1.1087
 6897SOL     OW32323   3.312   2.080   0.777  0.6757  0.2334  0.4888
 6897SOL    HW132324   3.230   2.071   0.728 -0.6591 -1.8145  3.1095
 6897SOL    HW232325   3.332   2.172   0.756  3.0052 -0.5018 -0.5593
 6898SOL     OW32326   1.597   4.027   4.970 -0.0720  0.4356  0.4377
 6898SOL    HW132327   1.632   3.971   5.039  1.0495  1.7508  0.9476
 6898SOL    HW232328   1.669   4.086   4.948  0.7699 -1.3787 -1.6336
 6899SOL     OW32329   2.735   2.863   2.814 -0.1491 -0.1447  0.3151
 6899SOL    HW132330   2.756   2.913   2.893 -2.3946 -0.3412  1.0094
 6899SOL    HW232331   2.661   2.908   2.772 -0.0381  0.1376  0.4180
 6900SOL     OW32332   1.188   2.091  11.705 -0.2137  0.1578  0.1199
 6900SOL    HW132333   1.192   2.103  11.610 -1.0340  1.3137  0.2326
 6900SOL    HW232334   1.268   2.043  11.726  1.2616  2.1468 -0.9780
 6901SOL     OW32335   3.391   0.115   7.116 -0.1546  0.1830  0.4693
 6901SOL    HW132336   3.468   0.163   7.084 -0.7258 -0.0661 -1.2647
 6901SOL    HW232337   3.327   0.158   7.059 -2.8264 -1.4873  2.2129
 6902SOL     OW32338   4.034   4.378   7.044  0.1573 -0.1929 -0.0321
 6902SOL    HW132339   4.098   4.307   7.046  1.3140  0.8279 -0.8898
 6902SOL    HW232340   4.027   4.393   7.138  0.8734 -0.0163 -0.0051
 6903SOL     OW32341   4.673   4.398   4.008 -0.1168 -0.9218 -0.1737
 6903SOL    HW132342   4.698   4.306   4.003 -0.0019 -0.9338  0.5968
 6903SOL    HW232343   4.578   4.388   4.003  0.1765 -2.8912 -1.8484
 6904SOL     OW32344   1.636   1.097   7.235 -0.3291  0.7055 -0.2750
 6904SOL    HW132345   1.604   1.016   7.196  1.3031  0.7506 -1.7054
 6904SOL    HW232346   1.575   1.110   7.307 -0.9963  2.0850 -1.0750
 6905SOL     OW32347   3.710   3.599  11.439 -0.1241  0.1665 -0.2938
 6905SOL    HW132348   3.617   3.596  11.461 -0.1595 -3.1132 -0.9684
 6905SOL    HW232349   3.720   3.665  11.369  2.0880 -0.1585 -0.2998
 6906SOL     OW32350   0.939   4.371  12.896 -0.2856  0.6422  0.3631
 6906SOL    HW132351   0.890   4.291  12.919  1.8859 -0.8697 -0.2394
 6906SOL    HW232352   0.905   4.432  12.961  1.2394  2.0309 -0.1471
 6907SOL     OW32353   4.517   4.472   7.563 -0.3428 -0.4780  0.1186
 6907SOL    HW132354   4.500   4.552   7.613  0.0066 -0.0097 -0.5140
 6907SOL    HW232355   4.429   4.435   7.564 -0.6211  0.1959  0.7407
 6908SOL     OW32356   0.719   2.061  11.429  0.2628  0.4768  0.0090
 6908SOL    HW132357   0.624   2.057  11.421  0.1708  0.6601  1.0300
 6908SOL    HW232358   0.734   2.146  11.388 -0.5648  0.3595 -0.5243
 6909SOL     OW32359   2.921   1.648   9.643 -0.1287 -0.5536  0.3786
 6909SOL    HW132360   2.935   1.691   9.559 -1.3510 -0.2196  0.3389
 6909SOL    HW232361   3.000   1.599   9.665 -1.3377 -2.9643 -0.6625
 6910SOL     OW32362   4.693   4.339  16.873 -0.0032 -0.6881  0.0321
 6910SOL    HW132363   4.658   4.428  16.870  0.3749 -0.5028  1.1502
 6910SOL    HW232364   4.646   4.292  16.942 -1.9167 -0.7718 -1.3334
 6911SOL     OW32365   0.953   2.968  17.352  0.2217 -0.1468 -0.2112
 6911SOL    HW132366   0.865   2.967  17.389 -0.2492 -0.6133 -1.3634
 6911SOL    HW232367   0.994   3.042  17.397  0.0991 -0.0089 -0.3281
 6912SOL     OW32368   0.294   0.652   6.136 -0.1605  0.2081 -0.6579
 6912SOL    HW132369   0.263   0.742   6.150  2.4203  1.2084 -1.2287
 6912SOL    HW232370   0.374   0.655   6.189 -0.1324 -0.3666 -0.6769
 6913SOL     OW32371   0.226   1.348   1.407 -0.5115 -0.1400 -0.1614
 6913SOL    HW132372   0.181   1.404   1.343 -0.7292  1.9121  1.7820
 6913SOL    HW232373   0.234   1.407   1.482  0.0498 -1.0611  0.5019
 6914SOL     OW32374   2.967   2.547   2.510  0.2274 -0.4925 -0.3708
 6914SOL    HW132375   2.983   2.582   2.423 -1.9225  0.6089 -0.3238
 6914SOL    HW232376   2.936   2.626   2.554  2.9876 -0.1914  1.0391
 6915SOL     OW32377   0.354   0.459   9.345  0.9311 -0.3703 -0.2306
 6915SOL    HW132378   0.312   0.479   9.428 -2.7006 -1.4254 -1.8041
 6915SOL    HW232379   0.447   0.477   9.360  0.2042  0.7520  2.8097
 6916SOL     OW32380   0.075   0.988   7.802  0.0457 -0.1598 -0.1417
 6916SOL    HW132381   0.012   1.038   7.853  1.4832 -1.3449  2.7892
 6916SOL    HW232382   0.016   0.965   7.730 -0.8775  0.4131  0.4521
 6917SOL     OW32383   1.142   3.425  11.321  0.1367 -0.2235 -0.2650
 6917SOL    HW132384   1.116   3.517  11.326 -0.7775 -0.4416 -1.0016
 6917SOL    HW232385   1.106   3.397  11.405  0.3535  1.0516  0.2573
 6918SOL     OW32386   1.187   2.569   7.802  0.3065  0.2735 -0.1761
 6918SOL    HW132387   1.143   2.618   7.733 -2.3449 -0.0925  1.2373
 6918SOL    HW232388   1.120   2.505   7.826 -0.4450  1.2528  0.3601
 6919SOL     OW32389   3.701   1.587   3.376 -0.7791  0.1232  0.1932
 6919SOL    HW132390   3.734   1.536   3.302  1.5776  0.6089  0.8909
 6919SOL    HW232391   3.748   1.665   3.347 -2.8462  1.2443 -0.1527
 6920SOL     OW32392   3.020   0.028   7.131 -0.1183  0.1296  0.1913
 6920SOL    HW132393   3.080   0.010   7.058 -0.6425  2.1644 -0.7260
 6920SOL    HW232394   2.938   0.019   7.082  0.3221  0.0474 -0.5331
 6921SOL     OW32395   0.555   0.140   4.797 -0.4438 -0.1913  0.3506
 6921SOL    HW132396   0.522   0.230   4.788 -0.3249 -0.1407  0.4082
 6921SOL    HW232397   0.582   0.105   4.712 -1.5983 -0.6607  0.1891
 6922SOL     OW32398   3.126   0.277   4.857 -0.4752 -0.4368 -0.2070
 6922SOL    HW132399   3.095   0.204   4.911  2.1956 -2.2150 -1.1026
 6922SOL    HW232400   3.046   0.327   4.841 -1.1310 -0.5016  2.8534
 6923SOL     OW32401   3.927   1.697  12.251  0.5256 -0.6905  0.2238
 6923SOL    HW132402   3.914   1.663  12.340 -4.5054 -0.0876 -0.3147
 6923SOL    HW232403   4.022   1.714  12.247  0.6343 -0.7129  2.2775
 6924SOL     OW32404   4.726   2.150  10.613  0.3497 -0.3325 -0.2938
 6924SOL    HW132405   4.677   2.077  10.572 -1.0773  0.8796 -0.7556
 6924SOL    HW232406   0.029   2.105  10.686 -1.2405  1.3810  1.6369
 6925SOL     OW32407   2.252   2.914  12.909  0.8234  0.2071 -0.0842
 6925SOL    HW132408   2.177   2.892  12.964  0.1197  1.9228 -0.3399
 6925SOL    HW232409   2.213   2.995  12.875 -1.1686 -0.4387  0.6326
 6926SOL     OW32410   3.511   0.781   3.903 -0.2205 -0.1616  0.2101
 6926SOL    HW132411   3.562   0.769   3.983 -0.1016 -2.9832 -0.2898
 6926SOL    HW232412   3.539   0.699   3.862 -1.0227 -0.3185 -0.0196
 6927SOL     OW32413   1.635   3.541  16.559 -0.5184 -0.5462  0.9189
 6927SOL    HW132414   1.546   3.573  16.573  0.1289  1.6416 -0.0696
 6927SOL    HW232415   1.623   3.457  16.515 -2.6811  0.9817 -1.3874
 6928SOL     OW32416   3.200   1.999   3.569  0.1453  0.3909 -0.0724
 6928SOL    HW132417   3.258   1.952   3.628 -0.6972  1.4298  1.5871
 6928SOL    HW232418   3.263   2.031   3.504 -1.2046 -1.4310 -2.3127
 6929SOL     OW32419   1.918   2.198   4.232 -0.0023  0.3061 -0.2380
 6929SOL    HW132420   1.847   2.202   4.167  1.0454 -0.2597 -1.4193
 6929SOL    HW232421   1.883   2.157   4.311  2.4612 -0.5232  0.4257
 6930SOL     OW32422   0.916   3.534   8.003  0.0053 -0.2291 -0.2951
 6930SOL    HW132423   0.920   3.627   7.982  0.6533  0.4779  2.9800
 6930SOL    HW232424   0.971   3.534   8.082 -0.1763  1.9611 -0.1711
 6931SOL     OW32425   1.027   1.180   7.969 -0.2572 -0.0989 -0.4831
 6931SOL    HW132426   0.947   1.228   7.951 -0.1033  0.7514  1.1375
 6931SOL    HW232427   1.039   1.118   7.896 -0.7693 -0.4004 -0.3110
 6932SOL     OW32428   0.320   3.478   2.684  0.3626 -0.4951 -0.2761
 6932SOL    HW132429   0.372   3.557   2.668  0.7702 -0.7748 -0.3248
 6932SOL    HW232430   0.239   3.529   2.677  1.7182  1.5387 -1.3980
 6933SOL     OW32431   1.010   1.758  14.764 -0.1139 -0.0294  0.3450
 6933SOL    HW132432   0.924   1.722  14.741  0.1607 -1.8529  2.1923
 6933SOL    HW232433   1.039   1.775  14.674 -0.9010  1.2526  0.3393
 6934SOL     OW32434   1.257   0.844  11.572 -0.0523  0.4703  0.0415
 6934SOL    HW132435   1.276   0.928  11.615 -0.1314  0.9214 -0.8110
 6934SOL    HW232436   1.226   0.799  11.651 -0.2996  3.2261  1.4947
 6935SOL     OW32437   4.497   1.888   9.231 -0.1681 -0.1423 -0.0193
 6935SOL    HW132438   4.496   1.984   9.225  1.9288 -0.1557 -0.5411
 6935SOL    HW232439   4.564   1.876   9.299 -0.9325  0.4826  0.8378
 6936SOL     OW32440   3.119   3.353   5.438  0.4889 -0.7882 -0.0562
 6936SOL    HW132441   3.052   3.325   5.376  0.8688 -0.9001 -0.4142
 6936SOL    HW232442   3.077   3.324   5.519 -1.4824  1.8571 -0.1130
 6937SOL     OW32443   3.104   2.015  11.883  0.0672  0.1909  0.0862
 6937SOL    HW132444   3.046   1.942  11.903  1.1979 -0.0981  2.2715
 6937SOL    HW232445   3.038   2.083  11.868 -0.8906 -0.8241 -0.2608
 6938SOL     OW32446   2.259   2.205   9.255 -0.3950 -0.6186 -0.0170
 6938SOL    HW132447   2.192   2.138   9.264 -1.0361  0.1309  0.7845
 6938SOL    HW232448   2.282   2.230   9.345 -4.6216 -2.1781  1.4497
 6939SOL     OW32449   1.119   0.447  16.377 -0.5986  0.1565  0.0742
 6939SOL    HW132450   1.169   0.499  16.439 -0.0123 -2.3690  1.6946
 6939SOL    HW232451   1.162   0.467  16.294 -0.9498 -1.8139 -0.5770
 6940SOL     OW32452   3.692   3.128   8.434  0.6020  0.3021  0.2238
 6940SOL    HW132453   3.707   3.176   8.516  2.7173  0.6405 -0.3839
 6940SOL    HW232454   3.600   3.152   8.420  0.9834  0.5710 -1.7160
 6941SOL     OW32455   0.504   2.364   5.053 -0.3464 -0.0901 -0.2383
 6941SOL    HW132456   0.460   2.360   4.967 -1.0259  0.1303  0.0948
 6941SOL    HW232457   0.592   2.393   5.031 -0.5716 -0.1047 -1.1677
 6942SOL     OW32458   4.554   3.272   7.696 -0.0962  0.9041 -0.0844
 6942SOL    HW132459   4.630   3.318   7.662  1.5473 -1.4052  0.4602
 6942SOL    HW232460   4.553   3.286   7.791 -0.3274 -0.9774  0.2036
 6943SOL     OW32461   4.130   2.461   7.874  0.5814 -0.2084  0.5559
 6943SOL    HW132462   4.071   2.386   7.881  1.1777 -0.5822  1.6971
 6943SOL    HW232463   4.189   2.455   7.949  0.2466 -2.8699  0.6182
 6944SOL     OW32464   0.236   3.993   5.488 -0.2198 -0.0582  0.1315
 6944SOL    HW132465   0.298   3.992   5.414 -1.3352  1.4923 -0.8264
 6944SOL    HW232466   0.178   4.065   5.463  1.7884  1.6230  0.3372
 6945SOL     OW32467   0.643   0.752   7.220  0.1157 -0.3901  0.3468
 6945SOL    HW132468   0.717   0.692   7.225  0.8810  0.4632 -0.8624
 6945SOL    HW232469   0.586   0.706   7.158  2.1647 -0.2708 -1.6266
 6946SOL     OW32470   1.432   2.372   3.679 -0.0153 -0.8682  0.5822
 6946SOL    HW132471   1.346   2.411   3.695  0.6852  0.5296  0.9365
 6946SOL    HW232472   1.420   2.287   3.723 -1.2793 -0.5773  0.8004
 6947SOL     OW32473   4.534   1.137   6.562 -0.3937  0.2894 -0.0947
 6947SOL    HW132474   4.606   1.076   6.576  0.5124  1.2647 -0.4976
 6947SOL    HW232475   4.563   1.221   6.598  2.3305  0.6596 -3.1529
 6948SOL     OW32476   4.039   2.355   6.410 -0.1292  0.3998 -0.1602
 6948SOL    HW132477   4.104   2.289   6.434  0.4872  1.2088  0.3812
 6948SOL    HW232478   3.970   2.336   6.473  0.7550 -2.0511  0.0845
 6949SOL     OW32479   0.269   0.618   1.265  0.4177 -0.0233 -0.3617
 6949SOL    HW132480   0.221   0.641   1.345 -0.1007 -0.3046 -0.5894
 6949SOL    HW232481   0.323   0.696   1.255  1.6177 -0.9671 -1.1769
 6950SOL     OW32482   3.465   4.594   8.212  0.3024 -0.1631  0.7166
 6950SOL    HW132483   3.402   4.658   8.243  0.3344  0.3380 -0.2535
 6950SOL    HW232484   3.520   4.654   8.162  1.8738 -1.4706  0.8663
 6951SOL     OW32485   1.075   1.436  17.159 -0.0911  0.1905 -0.0288
 6951SOL    HW132486   1.156   1.394  17.131 -1.0102 -1.1648 -0.6197
 6951SOL    HW232487   1.106   1.478  17.239 -2.3415  0.5902  0.6431
 6952SOL     OW32488   2.535   1.419   0.718 -0.1228  0.2992 -0.0515
 6952SOL    HW132489   2.507   1.466   0.797  0.3654 -1.4765  1.1691
 6952SOL    HW232490   2.623   1.396   0.747  0.5753  1.3642 -1.3488
 6953SOL     OW32491   1.084   2.272  13.856 -0.5358  0.1101  0.8208
 6953SOL    HW132492   0.990   2.257  13.842 -0.6964  2.4445 -0.4822
 6953SOL    HW232493   1.099   2.283  13.950 -0.1028  2.8845  0.4151
 6954SOL     OW32494   3.848   0.079   4.770  0.3986  0.3203  0.5230
 6954SOL    HW132495   3.935   0.116   4.782 -0.1580  0.2782  4.4782
 6954SOL    HW232496   3.819   0.119   4.688  0.1612  0.5875  0.7418
 6955SOL     OW32497   4.251   0.715   4.262 -0.6678  0.6490  0.1699
 6955SOL    HW132498   4.329   0.755   4.224 -0.8901  4.2798  3.4258
 6955SOL    HW232499   4.207   0.797   4.287 -1.0063 -0.1965  2.3971
 6956SOL     OW32500   2.036   4.526   8.961  0.2903 -0.6048  0.0749
 6956SOL    HW132501   2.076   4.536   9.047 -1.4771  0.0818  0.8136
 6956SOL    HW232502   1.979   4.603   8.960 -0.2994 -1.0166  1.2916
 6957SOL     OW32503   2.393   1.881  15.172 -0.7131 -0.0365 -0.1152
 6957SOL    HW132504   2.445   1.948  15.215  1.0292 -1.2095 -0.3864
 6957SOL    HW232505   2.310   1.899  15.216  0.3438 -1.1937  2.3435
 6958SOL     OW32506   2.550   0.180   7.396  0.1805  0.0241 -0.3359
 6958SOL    HW132507   2.602   0.180   7.476 -1.2706 -1.4805  0.6178
 6958SOL    HW232508   2.491   0.106   7.414  3.0583 -2.4995 -1.1969
 6959SOL     OW32509   2.048   0.116   8.795 -0.3411 -0.1651 -0.3745
 6959SOL    HW132510   2.054   0.023   8.774  0.7036  0.3039 -2.2157
 6959SOL    HW232511   2.017   0.167   8.719  0.2898  0.0843 -0.4716
 6960SOL     OW32512   3.468   3.944   6.745  0.0751  0.0614 -0.2972
 6960SOL    HW132513   3.476   4.038   6.727 -0.7879  0.2795  0.4452
 6960SOL    HW232514   3.465   3.907   6.656  2.5851 -0.1853 -0.2732
 6961SOL     OW32515   3.157   4.021   7.193 -0.8463 -0.0199 -0.8523
 6961SOL    HW132516   3.186   4.017   7.102 -0.5006 -0.4331 -0.7272
 6961SOL    HW232517   3.168   4.115   7.203  0.3016 -0.1754 -0.6149
 6962SOL     OW32518   3.469   3.286  14.788 -0.1185 -0.4322  0.1905
 6962SOL    HW132519   3.501   3.207  14.744  0.2736 -0.4511  0.5183
 6962SOL    HW232520   3.488   3.354  14.723  3.8856 -0.8512  0.9661
 6963SOL     OW32521   0.950   0.084   8.692 -0.0727  0.2596 -0.7592
 6963SOL    HW132522   0.948   0.040   8.777 -0.1719 -0.0618 -0.9252
 6963SOL    HW232523   1.031   0.134   8.692 -0.3097  0.6360 -0.2521
 6964SOL     OW32524   4.384   3.711   5.044 -0.1830 -0.3770  0.0623
 6964SOL    HW132525   4.291   3.689   5.046  0.0262 -1.4841 -2.4235
 6964SOL    HW232526   4.412   3.620   5.050 -1.0822 -0.6432  0.2061
 6965SOL     OW32527   4.523   4.281   9.100  0.0090  0.1835  0.3782
 6965SOL    HW132528   4.585   4.214   9.073  1.1800  1.9815 -1.3380
 6965SOL    HW232529   4.589   4.348   9.083 -0.4564  0.4946 -0.2184
 6966SOL     OW32530   1.472   2.618   3.221  0.6523  0.2948 -0.0186
 6966SOL    HW132531   1.415   2.637   3.146  1.2082  2.2834  0.0691
 6966SOL    HW232532   1.531   2.693   3.219  3.3028 -1.7269  3.5910
 6967SOL     OW32533   3.542   3.732   6.548 -0.3367 -0.3449 -0.2552
 6967SOL    HW132534   3.562   3.756   6.458  0.5984  1.2558  0.3890
 6967SOL    HW232535   3.633   3.725   6.577 -0.4306 -1.2779 -0.1908
 6968SOL     OW32536   3.760   4.539   8.703  0.1685  0.0385  0.5119
 6968SOL    HW132537   3.687   4.593   8.675 -0.4954 -0.6217  0.9542
 6968SOL    HW232538   3.759   4.559   8.797 -0.6904  1.3692  0.2063
 6969SOL     OW32539   2.576   1.263   2.079 -0.6522  0.4741  0.3897
 6969SOL    HW132540   2.646   1.198   2.080 -3.0554 -2.1481 -0.8622
 6969SOL    HW232541   2.559   1.267   2.173 -0.5932  0.6397  0.3934
 6970SOL     OW32542   3.322   4.470   6.029  0.2696  0.5597  0.2056
 6970SOL    HW132543   3.404   4.495   6.073 -0.0936 -2.2433  2.4516
 6970SOL    HW232544   3.319   4.522   5.949  1.4751 -0.8018 -0.7236
 6971SOL     OW32545   4.732   0.276   8.153  0.5616 -0.0372  0.2725
 6971SOL    HW132546   0.042   0.353   8.123  0.7605  0.5232  1.9907
 6971SOL    HW232547   0.062   0.241   8.211  0.1981 -0.2175  0.5944
 6972SOL     OW32548   4.729   2.095  15.667 -0.0113 -0.4589  0.2709
 6972SOL    HW132549   0.003   2.054  15.581  1.5119 -1.1416  0.8074
 6972SOL    HW232550   0.022   2.022  15.722 -1.1478  0.0757  1.6107
 6973SOL     OW32551   3.282   1.675  17.056 -0.1696 -0.2365 -0.3257
 6973SOL    HW132552   3.256   1.763  17.029  1.6735  0.4541  0.1659
 6973SOL    HW232553   3.363   1.692  17.103  0.7748  0.0774 -2.0577
 6974SOL     OW32554   4.223   1.779  12.273  0.4371  0.6652  0.4725
 6974SOL    HW132555   4.261   1.715  12.333 -1.5226  1.4010  2.5338
 6974SOL    HW232556   4.246   1.858  12.323 -0.0026 -0.1174  1.9140
 6975SOL     OW32557   1.583   4.069   9.448  0.2631 -0.0536  0.0566
 6975SOL    HW132558   1.636   4.080   9.369 -0.1562 -0.0179 -0.2208
 6975SOL    HW232559   1.578   3.974   9.463  1.3220  0.2701  2.4090
 6976SOL     OW32560   2.965   3.132   9.916 -0.3948  0.0898  0.3940
 6976SOL    HW132561   2.902   3.187   9.868 -0.1874 -0.1521 -0.1493
 6976SOL    HW232562   2.906   3.095   9.982 -0.0295 -1.2631 -0.0576
 6977SOL     OW32563   2.704   3.208   8.821  0.1868 -0.3676 -0.3658
 6977SOL    HW132564   2.676   3.140   8.882 -1.0299  1.5593  1.2081
 6977SOL    HW232565   2.768   3.262   8.867  1.8238 -1.9169 -0.7927
 6978SOL     OW32566   1.653   2.568  17.333 -0.1448 -0.5964  0.0710
 6978SOL    HW132567   1.630   2.585  17.241 -1.3219 -0.7300  0.3476
 6978SOL    HW232568   1.747   2.557  17.318 -0.7424 -1.4978 -3.2201
 6979SOL     OW32569   0.010   2.911  12.479  0.6127  0.3033 -0.1607
 6979SOL    HW132570   0.091   2.862  12.459  0.1685 -0.6547  0.3708
 6979SOL    HW232571   0.030   2.998  12.445 -1.5066  0.8357 -0.0298
 6980SOL     OW32572   3.108   3.389   2.206 -0.3269  0.2319 -0.5502
 6980SOL    HW132573   3.075   3.305   2.175 -1.8957 -0.0289  1.7695
 6980SOL    HW232574   3.201   3.381   2.183 -0.2827 -1.0118  0.0580
 6981SOL     OW32575   3.080   0.453   5.152 -0.0893 -0.0252 -0.2155
 6981SOL    HW132576   3.149   0.506   5.191 -0.1952  0.5237 -0.7697
 6981SOL    HW232577   3.006   0.514   5.149  1.9113  2.2679 -2.9905
 6982SOL     OW32578   1.999   2.585   9.426 -0.5847 -0.5136 -0.3180
 6982SOL    HW132579   2.015   2.546   9.341 -0.1067 -0.2916 -0.3306
 6982SOL    HW232580   1.979   2.507   9.478 -0.7796  0.0680  0.4906
 6983SOL     OW32581   4.640   1.255  10.782 -0.1027  0.4321  0.0236
 6983SOL    HW132582   4.644   1.218  10.870 -1.9175  1.9110  0.7399
 6983SOL    HW232583   4.564   1.206  10.752  0.3203  0.9260 -1.8496
 6984SOL     OW32584   1.154   0.470   7.722 -0.0268 -0.3275  0.4379
 6984SOL    HW132585   1.061   0.447   7.721 -0.1957  0.2794  2.0179
 6984SOL    HW232586   1.183   0.384   7.753  3.1034  0.0975 -1.3055
 6985SOL     OW32587   1.324   2.525   3.473 -0.3182 -0.0840 -0.0941
 6985SOL    HW132588   1.354   2.526   3.564  2.6737 -0.1214 -1.0789
 6985SOL    HW232589   1.382   2.589   3.431  0.2609 -0.7535 -0.3044
 6986SOL     OW32590   0.202   2.830   2.905 -0.2806 -0.1040 -0.3611
 6986SOL    HW132591   0.170   2.895   2.842 -0.6157  0.2949  0.2165
 6986SOL    HW232592   0.217   2.747   2.861 -2.1650 -1.6504  1.8954
 6987SOL     OW32593   2.616   4.282  12.355  0.3617 -0.2102  0.1500
 6987SOL    HW132594   2.703   4.264  12.392  0.8281  2.9966  0.6431
 6987SOL    HW232595   2.623   4.377  12.357 -1.4770 -0.1155  1.9913
 6988SOL     OW32596   1.595   2.419   8.442 -0.0136 -0.0052  0.0465
 6988SOL    HW132597   1.660   2.351   8.427 -0.6355 -0.7415  0.7128
 6988SOL    HW232598   1.655   2.494   8.439 -1.3571  1.2208  3.2663
 6989SOL     OW32599   2.503   0.561   3.871 -0.1845 -0.5043  0.3726
 6989SOL    HW132600   2.519   0.468   3.852 -0.3244 -0.9840  2.5834
 6989SOL    HW232601   2.496   0.607   3.787  1.6014 -2.1109 -0.6534
 6990SOL     OW32602   2.714   0.581  13.039  0.2134 -0.2889  0.8421
 6990SOL    HW132603   2.714   0.566  13.133 -1.6493 -0.6236  0.7905
 6990SOL    HW232604   2.704   0.492  13.004  0.6622  0.2910 -0.7518
 6991SOL     OW32605   3.309   0.104   5.312 -0.2346  0.0742 -0.0962
 6991SOL    HW132606   3.273   0.184   5.274  0.1990  1.4234  2.3275
 6991SOL    HW232607   3.329   0.048   5.238  2.6543 -0.4230  1.0560
 6992SOL     OW32608   0.467   0.636   8.336 -0.3232 -0.1731 -0.2130
 6992SOL    HW132609   0.551   0.605   8.369 -0.2802 -1.4929 -1.5701
 6992SOL    HW232610   0.477   0.731   8.333 -1.1162 -0.0739  0.3588
 6993SOL     OW32611   3.572   3.652  15.968 -0.6239  0.6501  0.2593
 6993SOL    HW132612   3.542   3.740  15.988 -0.6325  0.8821 -0.7616
 6993SOL    HW232613   3.489   3.607  15.984  1.6444 -3.2439  1.1625
 6994SOL     OW32614   0.874   1.609   6.637 -0.7647 -0.5577  0.3858
 6994SOL    HW132615   0.879   1.543   6.568  0.3919 -0.5448  0.4576
 6994SOL    HW232616   0.962   1.605   6.675 -1.5338  0.4299  2.2559
 6995SOL     OW32617   0.085   4.273   1.817 -0.1198  0.1778 -0.3982
 6995SOL    HW132618   0.147   4.341   1.790 -0.6909 -0.3041 -2.9351
 6995SOL    HW232619   0.098   4.210   1.747  0.4623  0.3731 -0.4645
 6996SOL     OW32620   1.464   2.397   8.715  0.2627  0.1133 -0.4706
 6996SOL    HW132621   1.545   2.428   8.674 -0.0680  0.5072 -0.8317
 6996SOL    HW232622   1.435   2.347   8.639  1.7025 -1.6773  0.1657
 6997SOL     OW32623   1.239   0.221   4.697  0.3214  0.3381 -0.4070
 6997SOL    HW132624   1.305   0.163   4.735 -0.0000  0.2147 -0.0272
 6997SOL    HW232625   1.272   0.298   4.742 -2.3498  0.3714  1.5224
 6998SOL     OW32626   0.532   3.766   8.574  0.1231 -0.4440  0.0446
 6998SOL    HW132627   0.529   3.861   8.574 -0.0351 -0.4461 -3.0332
 6998SOL    HW232628   0.439   3.740   8.573 -0.7529  2.7405  0.1795
 6999SOL     OW32629   2.723   2.964  11.245 -0.3330 -0.1839 -0.1669
 6999SOL    HW132630   2.815   2.948  11.225 -0.4836  0.9157 -1.7190
 6999SOL    HW232631   2.726   3.025  11.318 -1.5181 -0.3319 -0.0026
 7000SOL     OW32632   4.113   1.642   3.593  0.8056  0.3757 -0.0518
 7000SOL    HW132633   4.061   1.617   3.669  2.1164 -1.3061  0.2850
 7000SOL    HW232634   4.072   1.594   3.522  0.5961  1.3927 -0.6217
 7001SOL     OW32635   0.847   0.202   8.461  0.9027  0.0711  0.6243
 7001SOL    HW132636   0.768   0.182   8.510  1.7163 -1.7390  1.1746
 7001SOL    HW232637   0.917   0.153   8.503 -0.4007 -1.9273  0.4304
 7002SOL     OW32638   3.977   1.854  15.617 -0.2923  0.5164  0.4131
 7002SOL    HW132639   3.964   1.948  15.624  2.2641  0.8490  0.7299
 7002SOL    HW232640   4.059   1.841  15.665 -0.8048  0.2808  1.2362
 7003SOL     OW32641   1.167   4.614  15.600 -0.1366 -0.5987  0.4738
 7003SOL    HW132642   1.126   4.613  15.513 -0.4283 -0.2585  0.6052
 7003SOL    HW232643   1.116   4.670  15.659 -4.4138 -1.7170 -2.1573
 7004SOL     OW32644   1.367   1.628   3.919 -0.8796  0.1772 -0.2711
 7004SOL    HW132645   1.443   1.589   3.962 -1.0561 -1.1082 -1.0977
 7004SOL    HW232646   1.302   1.558   3.917  0.7259 -1.3660  1.0835
 7005SOL     OW32647   4.615   0.055   8.000 -0.2268 -0.2729  0.6182
 7005SOL    HW132648   4.545   0.042   8.065  0.0370  1.4993  1.2579
 7005SOL    HW232649   4.663   0.128   8.040  1.1787  0.6817 -2.8636
 7006SOL     OW32650   4.507   4.241   3.568 -0.2513  0.3535 -0.0960
 7006SOL    HW132651   4.422   4.266   3.602 -1.4210 -0.3008 -2.5844
 7006SOL    HW232652   4.483   4.204   3.484 -0.2373 -0.5462  0.2916
 7007SOL     OW32653   3.552   4.498   4.556  0.7037 -0.3939  0.5798
 7007SOL    HW132654   3.470   4.475   4.597 -0.4687 -0.2872 -1.6866
 7007SOL    HW232655   3.553   4.417   4.506 -2.3816  1.5380 -2.6269
 7008SOL     OW32656   1.045   1.434   7.658  0.1425 -0.5246 -0.3412
 7008SOL    HW132657   1.042   1.528   7.679  1.4207 -0.4442 -0.5112
 7008SOL    HW232658   0.953   1.408   7.656  0.0011 -0.0596 -0.1301
 7009SOL     OW32659   1.414   2.274  17.587  0.1147  0.3575  0.3173
 7009SOL    HW132660   1.471   2.197  17.598 -0.5694 -0.1652  0.1830
 7009SOL    HW232661   1.339   2.242  17.538  1.7589  0.5137 -2.2712
 7010SOL     OW32662   0.943   4.534   9.520  0.6324  0.5169 -0.3586
 7010SOL    HW132663   0.849   4.551   9.530  0.6785 -0.0439  1.0179
 7010SOL    HW232664   0.973   4.577   9.440  0.4798  1.0693 -0.1241
 7011SOL     OW32665   0.901   1.006   0.251  0.0156  0.0409  0.0230
 7011SOL    HW132666   0.898   1.047   0.165  0.2834 -2.5560 -1.2146
 7011SOL    HW232667   0.807   0.986   0.250  0.1578 -0.6659  0.9113
 7012SOL     OW32668   1.748   0.268   1.326 -1.0419  0.1343 -0.5246
 7012SOL    HW132669   1.713   0.230   1.245 -2.4277 -0.6953  0.4618
 7012SOL    HW232670   1.833   0.306   1.303 -1.6428  2.0096  0.3211
 7013SOL     OW32671   2.101   3.374   6.483 -0.4954  0.1996  0.0770
 7013SOL    HW132672   2.023   3.404   6.530 -0.6940 -1.2744  0.6644
 7013SOL    HW232673   2.175   3.426   6.514  0.3906 -0.4443 -0.9432
 7014SOL     OW32674   3.684   4.283   0.544  0.0666 -0.0108 -0.4115
 7014SOL    HW132675   3.774   4.278   0.512  1.1211 -0.5126  2.6178
 7014SOL    HW232676   3.691   4.305   0.637  1.6281 -2.0284 -0.0417
 7015SOL     OW32677   1.936   2.647   5.938 -0.6618 -0.2967 -0.6276
 7015SOL    HW132678   1.855   2.618   5.979  0.2764  0.5565  1.7961
 7015SOL    HW232679   1.936   2.735   5.975 -2.5411 -0.8132  0.5282
 7016SOL     OW32680   1.997   0.933  13.127  0.4199 -0.0850  0.1430
 7016SOL    HW132681   1.963   0.846  13.149  2.0391 -0.9431 -0.7566
 7016SOL    HW232682   2.078   0.909  13.080 -0.5225  1.6970 -2.4182
 7017SOL     OW32683   1.636   0.980   4.154 -0.0843  0.0986 -0.2617
 7017SOL    HW132684   1.724   1.009   4.177  0.0773 -1.5202  1.2068
 7017SOL    HW232685   1.663   0.905   4.100  0.7746  0.1447  0.1104
 7018SOL     OW32686   3.313   3.894   4.968  0.0214  0.0801  0.0313
 7018SOL    HW132687   3.292   3.879   5.060  1.1664  1.1765  0.4575
 7018SOL    HW232688   3.391   3.948   4.980 -1.4000  1.8930  1.1353
 7019SOL     OW32689   3.451   2.267   9.060 -0.2450 -0.0338  0.8821
 7019SOL    HW132690   3.476   2.350   9.022  0.6420 -0.4874  0.4783
 7019SOL    HW232691   3.511   2.272   9.135  0.5107 -0.1958  0.2847
 7020SOL     OW32692   0.061   3.405   7.656  0.3747  0.2072  0.0252
 7020SOL    HW132693   0.030   3.485   7.699 -3.0721 -0.7731 -0.6594
 7020SOL    HW232694   0.139   3.381   7.707  0.0306  1.3720  1.1116
 7021SOL     OW32695   3.338   3.927  12.751  0.3998  0.0564 -0.1111
 7021SOL    HW132696   3.387   3.992  12.700 -0.4907 -0.1112 -1.1893
 7021SOL    HW232697   3.416   3.878  12.777  0.3091 -0.2710 -0.4578
 7022SOL     OW32698   0.298   1.289   4.568  0.6722 -0.4974 -0.0641
 7022SOL    HW132699   0.275   1.319   4.480  1.6619  1.4049  0.3259
 7022SOL    HW232700   0.285   1.367   4.622  1.3991 -0.6220  0.2914
 7023SOL     OW32701   2.786   4.487   9.563 -0.0007 -0.1023  0.3412
 7023SOL    HW132702   2.796   4.392   9.571 -0.7442 -0.0571  1.8568
 7023SOL    HW232703   2.769   4.505   9.470 -1.5592 -0.1820  0.6099
 7024SOL     OW32704   0.027   0.421   2.982  0.1802 -0.0036  0.3211
 7024SOL    HW132705   4.705   0.380   2.919  1.4739 -0.7420 -0.4260
 7024SOL    HW232706   0.040   0.341   3.032  0.6906 -0.6947 -0.9325
 7025SOL     OW32707   3.527   0.796  15.842  0.0900  0.1177 -0.0610
 7025SOL    HW132708   3.604   0.774  15.790 -0.9806 -0.3996 -1.4363
 7025SOL    HW232709   3.506   0.884  15.810 -0.3801 -0.5666 -1.6564
 7026SOL     OW32710   4.050   0.844   7.991  1.0343 -0.5045 -0.6880
 7026SOL    HW132711   4.099   0.799   7.923  3.5969  1.9936 -0.4742
 7026SOL    HW232712   4.086   0.807   8.072  2.4254  2.9332  0.2515
 7027SOL     OW32713   2.134   0.544   8.062  0.0331 -0.2268  0.0454
 7027SOL    HW132714   2.086   0.510   7.987  2.7472 -1.0323 -1.3115
 7027SOL    HW232715   2.078   0.620   8.079 -2.6895 -2.2679  0.2214
 7028SOL     OW32716   3.667   3.884   5.012 -1.4129  0.3021  0.1314
 7028SOL    HW132717   3.694   3.866   4.922 -0.2243  1.3705  0.2764
 7028SOL    HW232718   3.650   3.792   5.035 -1.9063  0.3993  0.1687
 7029SOL     OW32719   1.011   4.052  16.350  0.4316 -0.6549  0.2789
 7029SOL    HW132720   1.036   4.093  16.268 -3.1464  3.7363  1.3975
 7029SOL    HW232721   0.917   4.041  16.341  0.5251 -1.7939  0.7625
 7030SOL     OW32722   4.381   1.205   6.338 -0.0165  0.2470 -0.2168
 7030SOL    HW132723   4.438   1.159   6.399 -0.0241  1.2440  0.5405
 7030SOL    HW232724   4.421   1.173   6.257  0.1411  0.2095 -0.1246
 7031SOL     OW32725   0.975   4.301  11.985  0.9643  0.2302 -0.2894
 7031SOL    HW132726   1.043   4.235  11.980  0.7655  0.0635 -0.8603
 7031SOL    HW232727   0.966   4.303  11.889 -0.2843 -1.4329 -0.1987
 7032SOL     OW32728   4.256   3.978  16.837  0.2998 -0.2674  0.5283
 7032SOL    HW132729   4.319   3.906  16.837  1.0274  0.3582 -0.4092
 7032SOL    HW232730   4.198   3.940  16.902 -0.5579  1.0619  0.5405
 7033SOL     OW32731   2.105   1.815   4.355 -0.1832 -0.3737  0.3840
 7033SOL    HW132732   2.125   1.726   4.326 -0.5673 -1.3837  3.2293
 7033SOL    HW232733   2.081   1.847   4.268 -0.6512 -2.2371 -0.1726
 7034SOL     OW32734   0.252   1.547   5.786 -0.3415 -0.2773  0.5985
 7034SOL    HW132735   0.307   1.489   5.837 -1.4005  0.3016  2.3925
 7034SOL    HW232736   0.185   1.496   5.741 -2.4776  1.6866  1.5853
 7035SOL     OW32737   3.620   2.016   6.742  0.4944  0.5291  0.2899
 7035SOL    HW132738   3.628   1.921   6.737 -0.8207  0.4831 -0.8475
 7035SOL    HW232739   3.594   2.031   6.651  0.1928  0.0071  0.2905
 7036SOL     OW32740   2.527   2.216  12.398 -0.0646  0.5125 -0.1099
 7036SOL    HW132741   2.622   2.200  12.395  0.3780  2.6346  2.4798
 7036SOL    HW232742   2.488   2.129  12.399  1.2982 -0.0615  3.6858
 7037SOL     OW32743   4.726   0.886   5.946 -0.0545 -0.3702  0.1704
 7037SOL    HW132744   4.699   0.799   5.915 -1.0877 -0.1085  0.3480
 7037SOL    HW232745   0.017   0.872   6.037 -0.2061 -0.7491  0.1592
 7038SOL     OW32746   0.162   0.608   2.455  0.4040  0.0853 -0.7754
 7038SOL    HW132747   0.099   0.658   2.403  0.1305  1.3651  0.8121
 7038SOL    HW232748   0.246   0.634   2.417 -1.1844  1.1086 -3.5981
 7039SOL     OW32749   0.224   3.994   2.571  0.4976 -0.1136  0.2114
 7039SOL    HW132750   0.145   3.961   2.527 -0.0596  1.2922  0.1467
 7039SOL    HW232751   0.270   3.911   2.563 -0.9987 -0.7456 -1.8400
 7040SOL     OW32752   3.983   0.018   4.145  0.0515  0.4744  0.2555
 7040SOL    HW132753   4.032   4.711   4.076 -1.9194 -0.0003 -0.8235
 7040SOL    HW232754   3.959   4.679   4.197 -0.2276  1.7645  2.0307
 7041SOL     OW32755   3.330   1.949   4.037 -0.3690  0.0669  0.1096
 7041SOL    HW132756   3.293   2.033   4.010 -2.3857 -0.5520  0.9423
 7041SOL    HW232757   3.248   1.921   4.077 -0.0979 -2.4468 -1.1295
 7042SOL     OW32758   0.447   1.146   4.873 -0.1826 -0.2660  0.3225
 7042SOL    HW132759   0.537   1.135   4.905 -0.0250 -0.4059 -0.1748
 7042SOL    HW232760   0.427   1.238   4.891  0.5253 -0.7587  3.5599
 7043SOL     OW32761   0.592   1.816  16.620 -0.0582 -0.4354 -0.6606
 7043SOL    HW132762   0.533   1.837  16.693  0.1128 -1.3213 -0.2685
 7043SOL    HW232763   0.615   1.905  16.592 -0.3471 -0.3523 -0.6346
 7044SOL     OW32764   1.837   0.365   4.129 -0.5247  0.3986  0.0038
 7044SOL    HW132765   1.748   0.392   4.105 -0.4542  0.5582 -0.0810
 7044SOL    HW232766   1.828   0.270   4.134 -0.0146  0.2554 -1.9928
 7045SOL     OW32767   3.761   2.144  10.596  0.3715 -0.0353 -0.1402
 7045SOL    HW132768   3.788   2.113  10.509  1.7857  0.7692  0.0019
 7045SOL    HW232769   3.783   2.067  10.648 -0.3876 -0.6742 -0.7694
 7046SOL     OW32770   0.674   0.575   8.824  0.4071 -0.5280 -0.1388
 7046SOL    HW132771   0.587   0.571   8.864 -0.4352 -0.6739 -1.9850
 7046SOL    HW232772   0.657   0.518   8.750  1.1547 -0.0266 -0.6864
 7047SOL     OW32773   3.372   0.911   7.466 -0.5744 -0.5864  0.5539
 7047SOL    HW132774   3.447   0.967   7.485 -0.3722 -1.3233  1.9064
 7047SOL    HW232775   3.316   0.937   7.540  0.9377 -0.3674  1.6183
 7048SOL     OW32776   2.229   4.712   5.515 -0.3604 -0.0965  0.0471
 7048SOL    HW132777   2.290   0.014   5.578 -1.1232  1.5997 -0.2505
 7048SOL    HW232778   2.258   0.018   5.435  0.7483 -2.6644 -0.9281
 7049SOL     OW32779   2.549   3.808   0.535 -0.3928 -0.3295 -0.5042
 7049SOL    HW132780   2.586   3.867   0.469 -1.3945 -1.1213 -1.7733
 7049SOL    HW232781   2.462   3.847   0.530 -0.5241 -0.4726  0.7250
 7050SOL     OW32782   2.479   3.724   0.955 -0.4158  0.6806 -0.2895
 7050SOL    HW132783   2.563   3.749   0.916 -0.8671  0.5712 -1.3594
 7050SOL    HW232784   2.452   3.814   0.976  2.5302  1.7764 -1.2086
 7051SOL     OW32785   1.392   2.800   1.693 -0.4048  0.1679 -0.0352
 7051SOL    HW132786   1.424   2.722   1.738 -1.0596 -1.1979 -1.9901
 7051SOL    HW232787   1.468   2.851   1.664 -0.0812  1.0271  2.3099
 7052SOL     OW32788   2.241   1.889   2.939  0.2961  0.0350 -0.1427
 7052SOL    HW132789   2.272   1.979   2.948  2.4937 -0.7354 -0.0065
 7052SOL    HW232790   2.241   1.863   3.031 -0.0030  1.5066  0.2671
 7053SOL     OW32791   0.241   4.356   0.197 -0.0073  0.3656  0.0896
 7053SOL    HW132792   0.173   4.300   0.235  0.3760 -0.7592 -0.8786
 7053SOL    HW232793   0.192   4.434   0.171  0.9048  1.0460  0.4051
 7054SOL     OW32794   0.951   3.007   7.479 -0.1947  0.2545 -0.3482
 7054SOL    HW132795   0.997   2.923   7.480 -0.2000  0.2683  0.7032
 7054SOL    HW232796   0.923   3.023   7.389 -2.1970 -0.3581  0.1662
 7055SOL     OW32797   3.662   0.814   5.516  0.6752 -0.4144  1.0143
 7055SOL    HW132798   3.630   0.887   5.569 -2.4011  0.5517 -2.2175
 7055SOL    HW232799   3.700   0.850   5.436 -0.8633  2.7052  1.7110
 7056SOL     OW32800   2.273   1.907  15.590  0.1681  0.3433  1.3345
 7056SOL    HW132801   2.187   1.898  15.630 -1.5865  2.9854 -1.8572
 7056SOL    HW232802   2.305   1.981  15.641  2.7675  0.0641  0.1070
 7057SOL     OW32803   1.602   4.015   8.799 -0.1322 -0.0796 -0.1118
 7057SOL    HW132804   1.588   3.921   8.810  0.5433  0.0161  1.5158
 7057SOL    HW232805   1.533   4.056   8.851  0.4083  0.6411  0.0384
 7058SOL     OW32806   2.132   0.257   3.025  0.0257 -0.9767 -0.0233
 7058SOL    HW132807   2.079   0.178   3.012 -1.0677 -0.1389 -0.6468
 7058SOL    HW232808   2.184   0.265   2.945  0.5949  0.8199  0.5194
 7059SOL     OW32809   4.704   2.828  13.378 -0.5180  0.2364 -0.0188
 7059SOL    HW132810   0.039   2.887  13.360  0.8828 -1.3223  0.5003
 7059SOL    HW232811   4.645   2.896  13.411 -0.2333 -1.1138  3.3100
 7060SOL     OW32812   3.282   0.930  17.320  0.0823  0.3776  0.2348
 7060SOL    HW132813   3.226   0.952  17.394  0.6075  2.8606 -0.0830
 7060SOL    HW232814   3.338   0.866  17.364 -0.0378 -0.2552 -0.5384
 7061SOL     OW32815   0.965   4.182   7.119 -0.0301  0.2787  0.0552
 7061SOL    HW132816   0.904   4.256   7.112 -1.6330 -1.0025  0.5536
 7061SOL    HW232817   1.049   4.227   7.119  0.8030 -1.2988  0.9077
 7062SOL     OW32818   1.974   1.071   8.193  0.0985  0.1158  0.2163
 7062SOL    HW132819   2.021   1.011   8.135  0.2495  1.3284 -0.8932
 7062SOL    HW232820   2.025   1.059   8.273  2.2072  0.3474 -1.1173
 7063SOL     OW32821   2.873   2.966   9.289  0.7020 -0.4622  0.3428
 7063SOL    HW132822   2.895   2.877   9.314  3.1186 -0.2190 -0.9258
 7063SOL    HW232823   2.956   3.008   9.310  0.5643 -0.1404  0.2508
 7064SOL     OW32824   0.861   0.118   6.657  0.7140 -0.0091  0.6127
 7064SOL    HW132825   0.956   0.124   6.658  0.8533 -2.1972 -0.6175
 7064SOL    HW232826   0.830   0.204   6.687 -3.1737 -1.1882 -0.0305
 7065SOL     OW32827   1.081   3.929   0.064  0.2621  0.0579  0.1641
 7065SOL    HW132828   1.131   4.010   0.070  2.7163 -1.5819  1.7252
 7065SOL    HW232829   1.148   3.869   0.096 -0.0154 -1.3216 -1.8580
 7066SOL     OW32830   4.061   0.553   7.378  0.8210  0.3973  0.0784
 7066SOL    HW132831   4.106   0.562   7.294  0.8125 -0.3912 -0.0130
 7066SOL    HW232832   3.972   0.571   7.348  1.7262  1.5082 -1.9094
 7067SOL     OW32833   0.620   2.066   8.237  0.3215 -0.2553 -0.1839
 7067SOL    HW132834   0.639   2.120   8.161  1.1078  1.8323  1.4866
 7067SOL    HW232835   0.532   2.038   8.215 -0.0286  1.8951 -1.4918
 7068SOL     OW32836   0.914   4.437   3.446 -0.3573  0.5203  0.2757
 7068SOL    HW132837   0.907   4.357   3.497  0.3188 -1.1179 -2.1940
 7068SOL    HW232838   0.875   4.503   3.503 -1.1771  0.3833 -0.1382
 7069SOL     OW32839   0.200   2.089   0.528 -0.4632 -0.5548 -0.5589
 7069SOL    HW132840   0.147   2.011   0.514  0.2710 -1.2090  0.3216
 7069SOL    HW232841   0.135   2.147   0.487 -1.5400  1.0438  3.4139
 7070SOL     OW32842   2.702   1.471  15.227 -0.3282  0.7125 -0.5760
 7070SOL    HW132843   2.639   1.530  15.184 -1.2209  0.8168  0.8606
 7070SOL    HW232844   2.663   1.456  15.313 -3.1331  1.1915 -1.7567
 7071SOL     OW32845   0.209   3.459  10.270  0.2043 -0.4876 -0.0874
 7071SOL    HW132846   0.128   3.474  10.319 -1.2032 -3.1758 -1.5649
 7071SOL    HW232847   0.168   3.474  10.185  0.0904 -1.9732 -0.2848
 7072SOL     OW32848   0.962   4.188   9.542  0.0923  0.3203  0.2630
 7072SOL    HW132849   0.914   4.271   9.542  2.1711  1.5023 -0.4687
 7072SOL    HW232850   0.999   4.184   9.630 -0.5080 -1.6445  0.4341
 7073SOL     OW32851   1.844   0.958   6.894  0.1739 -0.0426 -0.6247
 7073SOL    HW132852   1.920   0.918   6.850 -1.6304 -0.6525 -3.2266
 7073SOL    HW232853   1.877   1.047   6.903  0.0590  0.0828 -1.4365
 7074SOL     OW32854   1.215   0.304  13.330 -0.0071  0.0806  0.1906
 7074SOL    HW132855   1.258   0.281  13.412 -0.2652 -3.6923 -0.7376
 7074SOL    HW232856   1.160   0.231  13.303  0.5415  0.3540 -1.6709
 7075SOL     OW32857   0.681   4.649   4.640  0.3446 -0.3183  0.2891
 7075SOL    HW132858   0.633   4.597   4.576 -0.2620 -0.0929  0.5634
 7075SOL    HW232859   0.694   4.730   4.591  0.8268  0.1318  1.1449
 7076SOL     OW32860   2.429   3.333   9.392 -0.0435  0.4604  0.1664
 7076SOL    HW132861   2.519   3.300   9.400 -0.4128  0.1282  2.9570
 7076SOL    HW232862   2.406   3.337   9.485  1.7934  0.0577  0.6488
 7077SOL     OW32863   4.050   2.120  11.402  0.6206 -0.4169 -0.5736
 7077SOL    HW132864   4.107   2.043  11.396  2.0923  0.6170  0.1827
 7077SOL    HW232865   4.009   2.129  11.316 -0.6637  1.4509  0.2498
 7078SOL     OW32866   2.485   4.321  11.508  0.0483 -0.0484 -0.0904
 7078SOL    HW132867   2.416   4.370  11.463 -0.0461  0.3069  0.4341
 7078SOL    HW232868   2.486   4.360  11.596 -1.5181  2.1652 -1.0619
 7079SOL     OW32869   2.549   1.095   4.434 -0.1416  0.2905 -0.1426
 7079SOL    HW132870   2.520   1.064   4.348 -0.9000 -1.3824  0.7140
 7079SOL    HW232871   2.616   1.029   4.454  1.7469  2.3920  0.3700
 7080SOL     OW32872   4.022   2.516   9.623  0.5622  0.2849  0.0314
 7080SOL    HW132873   3.929   2.498   9.608  0.9672 -0.8755 -1.0689
 7080SOL    HW232874   4.035   2.446   9.688  0.3655  0.3741  0.1670
 7081SOL     OW32875   4.073   4.141  16.399 -0.5882  0.4087 -0.3558
 7081SOL    HW132876   4.041   4.057  16.433 -1.5479  1.0340  0.2757
 7081SOL    HW232877   4.162   4.133  16.435  0.5140  1.6521 -2.8113
 7082SOL     OW32878   1.708   4.136   5.277 -0.1955 -0.2193  0.1006
 7082SOL    HW132879   1.760   4.213   5.255  0.9739 -0.4171  2.2156
 7082SOL    HW232880   1.771   4.067   5.259  0.9086  0.7897  0.1331
 7083SOL     OW32881   4.199   1.698  15.952 -0.0568  0.0876 -0.0044
 7083SOL    HW132882   4.225   1.750  15.876 -0.5226  0.8311  0.3537
 7083SOL    HW232883   4.106   1.718  15.963 -0.6817 -1.5732 -2.0537
 7084SOL     OW32884   1.272   2.284   5.526 -0.3685 -0.3634  0.4333
 7084SOL    HW132885   1.181   2.261   5.509 -0.3605  0.0143 -0.1131
 7084SOL    HW232886   1.297   2.214   5.586 -1.2148  1.4355  2.8929
 7085SOL     OW32887   1.529   3.307  16.482  0.0180 -0.0264  0.4956
 7085SOL    HW132888   1.540   3.216  16.455  0.1034 -0.2189  1.1712
 7085SOL    HW232889   1.458   3.332  16.423  1.6792  2.4013 -0.4746
 7086SOL     OW32890   1.378   2.443  11.230 -0.6825 -0.2828 -0.3852
 7086SOL    HW132891   1.464   2.446  11.272 -0.5340 -1.1293 -0.6383
 7086SOL    HW232892   1.326   2.454  11.310  1.0867 -3.2778  1.1699
 7087SOL     OW32893   1.633   2.133   5.363  0.0276 -0.2455 -0.3669
 7087SOL    HW132894   1.669   2.151   5.449 -0.3316  0.3282 -0.3352
 7087SOL    HW232895   1.590   2.049   5.379 -2.2866  0.7030 -1.4760
 7088SOL     OW32896   0.027   4.266   9.292 -0.1097 -0.2435  0.3750
 7088SOL    HW132897   0.078   4.230   9.220  3.0105 -0.6302  2.7535
 7088SOL    HW232898   0.059   4.356   9.299 -1.9583  0.3009  1.7708
 7089SOL     OW32899   0.687   1.945   4.959 -0.2351  0.0495 -0.5705
 7089SOL    HW132900   0.674   1.978   5.048 -1.1499 -2.4020  0.1883
 7089SOL    HW232901   0.719   1.856   4.967 -0.2640  0.1660  0.8058
 7090SOL     OW32902   2.364   0.561   7.066 -0.4296 -0.1520  0.0532
 7090SOL    HW132903   2.379   0.652   7.089 -1.8047 -0.0673  0.6043
 7090SOL    HW232904   2.375   0.508   7.144 -0.1589 -0.5433 -0.2486
 7091SOL     OW32905   1.123   2.112   6.092 -0.4391 -0.3171 -0.4000
 7091SOL    HW132906   1.149   2.189   6.142  0.5302 -1.2474  0.5114
 7091SOL    HW232907   1.114   2.149   6.004  0.6892 -1.4855 -0.9963
 7092SOL     OW32908   0.219   1.253   7.387 -0.6655 -0.2123  0.0646
 7092SOL    HW132909   0.286   1.319   7.368 -1.2400  0.4969  0.4710
 7092SOL    HW232910   0.160   1.298   7.447 -1.0518 -0.3978 -0.1759
 7093SOL     OW32911   0.791   3.627   2.361  0.4060 -0.3986  0.2113
 7093SOL    HW132912   0.783   3.702   2.420 -1.5316 -0.2667 -0.2351
 7093SOL    HW232913   0.727   3.562   2.388 -0.6423  0.7399  0.4711
 7094SOL     OW32914   1.543   1.407   3.743 -0.5239  0.0894 -0.4199
 7094SOL    HW132915   1.556   1.414   3.838 -1.3621  1.7012 -0.4182
 7094SOL    HW232916   1.474   1.342   3.732 -0.4011 -0.0701 -0.2469
 7095SOL     OW32917   3.734   4.488  17.086 -0.2361 -0.0756 -0.4614
 7095SOL    HW132918   3.664   4.435  17.122 -0.0853 -0.6066 -0.9554
 7095SOL    HW232919   3.791   4.411  17.082 -1.8310 -1.1915 -1.5925
 7096SOL     OW32920   4.732   0.478  12.667  0.5671  0.0698  0.4530
 7096SOL    HW132921   4.728   0.409  12.601 -0.3226  0.9238 -0.3660
 7096SOL    HW232922   0.045   0.428  12.732 -0.4885  0.2521  1.4131
 7097SOL     OW32923   3.541   4.204  12.871 -0.1611  0.3596  0.4647
 7097SOL    HW132924   3.581   4.260  12.805 -0.3373  2.5180  2.1801
 7097SOL    HW232925   3.598   4.216  12.947 -0.6021 -1.6681  1.1033
 7098SOL     OW32926   0.502   3.330   1.983 -0.2363 -0.0669  0.5989
 7098SOL    HW132927   0.566   3.396   2.010  1.5849 -0.9436 -1.6140
 7098SOL    HW232928   0.508   3.252   2.039 -0.2095  0.3123  1.1301
 7099SOL     OW32929   0.407   3.099   7.826 -0.4576 -0.0051  0.8137
 7099SOL    HW132930   0.396   3.058   7.740 -1.4200 -1.0280  1.4175
 7099SOL    HW232931   0.434   3.022   7.876  0.6044  0.3558  0.7935
 7100SOL     OW32932   3.575   4.442   1.799  0.0489 -0.7247  0.4284
 7100SOL    HW132933   3.644   4.405   1.855  0.0476 -1.8294 -0.2996
 7100SOL    HW232934   3.518   4.476   1.867 -0.3345  1.4830 -1.0171
 7101SOL     OW32935   1.079   0.888   3.372  0.7149 -0.5110  0.2636
 7101SOL    HW132936   1.047   0.832   3.443  1.7276 -0.1424  1.0084
 7101SOL    HW232937   1.110   0.965   3.419 -1.5328  0.6801 -0.2167
 7102SOL     OW32938   3.914   4.259   5.061 -0.0903 -0.5212 -0.2481
 7102SOL    HW132939   3.946   4.181   5.107  0.6326  0.1742  0.4333
 7102SOL    HW232940   3.956   4.240   4.978  0.4284  1.7752 -0.5185
 7103SOL     OW32941   2.577   3.794   8.124 -0.0753  0.3605 -0.8811
 7103SOL    HW132942   2.510   3.781   8.190 -0.2105 -2.2424 -1.5111
 7103SOL    HW232943   2.661   3.772   8.165 -0.0624  1.4604 -0.3215
 7104SOL     OW32944   4.038   1.503  13.339  0.4827  0.0043  0.2085
 7104SOL    HW132945   4.071   1.591  13.324 -1.0421  0.4973 -0.2507
 7104SOL    HW232946   4.081   1.453  13.269 -1.7263  0.0458 -1.1707
 7105SOL     OW32947   2.339   2.667   0.010 -0.1191  0.0939  0.7234
 7105SOL    HW132948   2.291   2.613   0.073  2.6587 -2.3069  0.7835
 7105SOL    HW232949   2.425   2.677   0.050  0.2245 -0.1215  0.0443
 7106SOL     OW32950   4.498   1.855  12.220 -0.6524  0.5623 -0.0413
 7106SOL    HW132951   4.461   1.892  12.300 -2.0576  0.8082 -0.7987
 7106SOL    HW232952   4.533   1.771  12.249 -2.8023 -0.8812 -1.5362
 7107SOL     OW32953   0.522   2.409   1.212  0.0891 -0.1210  0.2488
 7107SOL    HW132954   0.510   2.440   1.122  0.9464  0.3638  0.2948
 7107SOL    HW232955   0.450   2.350   1.229 -0.3137  0.4915  0.6599
 7108SOL     OW32956   3.803   2.417   1.489  0.1795 -0.2023  0.1758
 7108SOL    HW132957   3.845   2.497   1.520 -0.3734 -0.4074  1.4494
 7108SOL    HW232958   3.849   2.357   1.548  3.2175  3.7464  1.8534
 7109SOL     OW32959   2.450   2.165   8.631  0.7770 -0.5324  0.3510
 7109SOL    HW132960   2.427   2.073   8.630 -0.5097 -0.2203  0.6567
 7109SOL    HW232961   2.542   2.162   8.659  0.5643  0.8233  1.2527
 7110SOL     OW32962   4.416   1.887  13.390  0.1027  0.7735  0.4443
 7110SOL    HW132963   4.417   1.899  13.485 -1.9559 -0.2139  0.5769
 7110SOL    HW232964   4.490   1.827  13.391  0.3462  1.0544 -1.3530
 7111SOL     OW32965   3.057   0.362   8.735 -0.7694 -0.5118  0.6361
 7111SOL    HW132966   3.057   0.390   8.644  3.2139  1.1761  1.1508
 7111SOL    HW232967   2.963   0.349   8.747 -1.0434  0.5357 -0.3310
 7112SOL     OW32968   1.673   1.769   5.914 -0.4135 -0.0298  0.0389
 7112SOL    HW132969   1.716   1.845   5.953  1.6308 -0.8422 -0.6003
 7112SOL    HW232970   1.670   1.783   5.820 -0.5090 -2.9981 -0.4017
 7113SOL     OW32971   0.336   2.941   8.688 -0.1720  0.1901  0.2375
 7113SOL    HW132972   0.409   2.920   8.746  1.1263  0.7211 -1.2024
 7113SOL    HW232973   0.393   2.963   8.614 -0.4175 -0.2819 -0.0878
 7114SOL     OW32974   3.893   2.131  10.326 -0.0023 -0.1015 -0.3690
 7114SOL    HW132975   3.949   2.075  10.272  0.2715 -1.2596  1.1283
 7114SOL    HW232976   3.954   2.155  10.395 -1.2083 -0.1724  0.7324
 7115SOL     OW32977   0.501   0.539   2.329 -0.1508 -0.1835 -0.7350
 7115SOL    HW132978   0.595   0.550   2.344 -0.4279 -0.2933  1.0850
 7115SOL    HW232979   0.505   0.571   2.239  1.1025  0.8955 -0.3070
 7116SOL     OW32980   3.821   4.398  16.010 -0.5934  0.0024 -0.3114
 7116SOL    HW132981   3.741   4.439  16.041  0.1109  0.7802  0.4827
 7116SOL    HW232982   3.876   4.476  16.010  0.1628 -0.5243 -1.1593
 7117SOL     OW32983   2.843   0.604   7.534  0.3906  0.5267  0.5718
 7117SOL    HW132984   2.920   0.579   7.585 -1.4110 -0.7569  2.6469
 7117SOL    HW232985   2.777   0.538   7.552 -0.1778  0.2990 -2.2925
 7118SOL     OW32986   3.772   3.045  14.401  0.0808  0.8184 -0.1719
 7118SOL    HW132987   3.743   3.134  14.384  1.5173  1.1548 -0.8310
 7118SOL    HW232988   3.789   3.014  14.312  0.3589 -0.7888  0.4431
 7119SOL     OW32989   0.481   2.256   4.356 -0.6250  0.1580  0.1647
 7119SOL    HW132990   0.419   2.216   4.417 -0.0182  0.2774  0.8618
 7119SOL    HW232991   0.518   2.313   4.423  0.0088  1.4159 -1.2811
 7120SOL     OW32992   0.772   0.699  12.459 -0.1914  0.1888 -0.0813
 7120SOL    HW132993   0.846   0.639  12.449  0.5336  0.9470  0.7501
 7120SOL    HW232994   0.698   0.642  12.478  0.4080  0.0396  1.7941
 7121SOL     OW32995   0.797   1.483   1.455  0.3077 -0.4929  0.4023
 7121SOL    HW132996   0.848   1.535   1.517  1.0589 -1.4001  0.5485
 7121SOL    HW232997   0.709   1.518   1.468  1.5174  2.5760  0.2599
 7122SOL     OW32998   3.578   4.596  16.788  0.0909  0.0031 -0.6089
 7122SOL    HW132999   3.644   4.528  16.777 -0.9624 -0.8906 -1.3348
 7122SOL    HW233000   3.602   4.636  16.872  0.7097 -1.8973  0.1110
 7123SOL     OW33001   0.108   0.602   4.677  0.4704 -0.7831  0.1301
 7123SOL    HW133002   0.109   0.689   4.718 -1.0964 -0.2456 -0.9766
 7123SOL    HW233003   0.123   0.627   4.586  4.5508 -2.0104  0.4775
 7124SOL     OW33004   2.702   4.574   5.488 -0.5707  0.3730  0.1105
 7124SOL    HW133005   2.727   4.639   5.423 -1.4281  1.8111  1.2253
 7124SOL    HW233006   2.732   4.623   5.564  1.2504  0.1554 -0.4711
 7125SOL     OW33007   2.932   0.077   2.949 -0.0215  0.2263 -0.2906
 7125SOL    HW133008   2.888   0.040   2.873  0.5992 -0.3366 -0.3785
 7125SOL    HW233009   2.873   0.038   3.015  0.8633 -0.9933 -0.2233
 7126SOL     OW33010   3.822   1.826   1.547 -0.5080 -0.1905 -0.0401
 7126SOL    HW133011   3.909   1.828   1.588 -1.7491 -3.4925  2.7898
 7126SOL    HW233012   3.849   1.858   1.461 -0.3285  0.2817  0.1938
 7127SOL     OW33013   2.709   3.093  14.125 -0.0441 -0.1225  1.0133
 7127SOL    HW133014   2.768   3.159  14.087 -2.1413  1.0691 -0.1608
 7127SOL    HW233015   2.773   3.050  14.182  0.4982 -1.8252 -0.8875
 7128SOL     OW33016   2.501   2.488   3.923 -0.1679  0.0542 -0.0006
 7128SOL    HW133017   2.591   2.516   3.939 -0.6392  0.6691  1.6257
 7128SOL    HW233018   2.506   2.429   3.848 -2.3521  0.2580 -0.3128
 7129SOL     OW33019   4.502   1.404   2.591 -0.3800 -0.1949  0.2469
 7129SOL    HW133020   4.587   1.417   2.634  0.7371 -2.0279 -1.4093
 7129SOL    HW233021   4.519   1.335   2.527  1.0441 -0.6928  1.1473
 7130SOL     OW33022   1.386   0.138   2.599  0.6712  0.2798 -0.3340
 7130SOL    HW133023   1.454   0.077   2.571 -0.6020 -2.0619  1.6142
 7130SOL    HW233024   1.363   0.094   2.681 -0.0223 -3.5490 -2.6082
 7131SOL     OW33025   3.073   4.391   8.464 -0.3422  0.7053 -0.0736
 7131SOL    HW133026   3.082   4.485   8.479  0.1252  0.6273  0.1297
 7131SOL    HW233027   3.145   4.360   8.519 -1.3936  0.1310  0.9935
 7132SOL     OW33028   2.748   1.934   6.684 -0.1788 -0.5905  0.3098
 7132SOL    HW133029   2.830   1.897   6.718 -0.1529 -1.6201 -0.8912
 7132SOL    HW233030   2.686   1.916   6.755 -2.5116  0.0996 -1.5377
 7133SOL     OW33031   2.598   3.199  13.852  0.1855 -0.7542 -0.1506
 7133SOL    HW133032   2.535   3.270  13.862 -0.4277 -1.7841  3.1387
 7133SOL    HW233033   2.632   3.191  13.941  1.8106 -2.2099 -0.8826
 7134SOL     OW33034   0.425   4.097  17.239 -0.1655  0.2025 -0.1801
 7134SOL    HW133035   0.436   4.055  17.154  0.5745  0.2093 -0.0885
 7134SOL    HW233036   0.514   4.098  17.275 -0.3450 -0.9327  0.3208
 7135SOL     OW33037   3.502   1.846   3.390 -0.2466 -0.0353 -0.1164
 7135SOL    HW133038   3.456   1.763   3.401 -0.6753  0.4079  1.4498
 7135SOL    HW233039   3.509   1.848   3.294 -0.7926  1.7118 -0.1268
 7136SOL     OW33040   3.774   1.534  14.655 -0.0502  0.2198 -0.1396
 7136SOL    HW133041   3.747   1.591  14.727 -0.7168  1.5564 -1.4618
 7136SOL    HW233042   3.724   1.458  14.685  1.7149 -0.4127  1.2439
 7137SOL     OW33043   2.401   0.179   4.839 -0.1999 -0.1699 -0.3804
 7137SOL    HW133044   2.408   0.206   4.747  0.2954  1.8404  0.2530
 7137SOL    HW233045   2.306   0.183   4.843 -0.2187  1.0234 -1.7779
 7138SOL     OW33046   1.574   0.368   5.303  0.1447 -0.7819 -1.1005
 7138SOL    HW133047   1.513   0.365   5.377 -0.8070  3.3023 -1.7065
 7138SOL    HW233048   1.562   0.461   5.287 -1.7038 -0.7364  0.5592
 7139SOL     OW33049   4.148   1.444  11.569 -0.2878 -0.1700  0.1209
 7139SOL    HW133050   4.194   1.523  11.599 -2.0722  0.3464  1.4878
 7139SOL    HW233051   4.112   1.422  11.654  0.1382 -2.0262 -0.1841
 7140SOL     OW33052   0.216   2.250   6.679  0.1170 -0.2490  0.3003
 7140SOL    HW133053   0.248   2.259   6.769 -0.0465 -0.0951  0.3434
 7140SOL    HW233054   0.207   2.157   6.657  0.8013  0.1488 -1.6633
 7141SOL     OW33055   0.125   0.458   6.308 -0.1829 -0.7302  0.1051
 7141SOL    HW133056   0.068   0.526   6.343  0.1434 -0.8616  0.8990
 7141SOL    HW233057   0.157   0.500   6.229  0.8989  0.4122  1.1437
 7142SOL     OW33058   3.124   1.234   7.865  0.0387  1.0380 -0.1086
 7142SOL    HW133059   3.073   1.314   7.858  1.9517  2.2728  0.2121
 7142SOL    HW233060   3.136   1.210   7.773 -2.4262 -1.1893  0.1479
 7143SOL     OW33061   2.571   1.660   7.287  0.1955  0.0732 -0.3839
 7143SOL    HW133062   2.612   1.724   7.344  1.1276 -0.4005 -0.5121
 7143SOL    HW233063   2.643   1.598   7.274 -0.2439 -0.8526  1.6329
 7144SOL     OW33064   0.584   0.650   3.541  0.0359 -0.1348  0.2329
 7144SOL    HW133065   0.500   0.610   3.563  0.0084 -0.1402  0.1182
 7144SOL    HW233066   0.639   0.573   3.560  0.5374  0.0205 -0.5947
 7145SOL     OW33067   3.510   1.613   4.828  0.0756  0.8612  0.0963
 7145SOL    HW133068   3.426   1.628   4.785  0.2657  0.0773 -0.5569
 7145SOL    HW233069   3.495   1.647   4.916 -0.4634  0.1435  0.2813
 7146SOL     OW33070   1.648   3.821  16.708 -0.1570  0.3412 -0.0135
 7146SOL    HW133071   1.701   3.856  16.779  0.5055  0.2467 -0.4640
 7146SOL    HW233072   1.713   3.796  16.642  0.5291  2.4772 -0.1521
 7147SOL     OW33073   3.713   4.185   1.416  0.4054 -0.0604  0.0730
 7147SOL    HW133074   3.715   4.275   1.384 -1.4370  0.0299  0.2234
 7147SOL    HW233075   3.727   4.136   1.335 -2.5035 -2.2248  0.8714
 7148SOL     OW33076   0.283   2.592   8.751 -0.5758 -0.1610  0.0495
 7148SOL    HW133077   0.242   2.505   8.751 -4.6558  1.8036 -0.0954
 7148SOL    HW233078   0.274   2.629   8.838 -1.5895  0.5257 -0.3529
 7149SOL     OW33079   4.619   3.072  14.378 -0.9895 -0.8115 -0.5679
 7149SOL    HW133080   4.699   3.087  14.328  0.8841 -0.9460  2.3999
 7149SOL    HW233081   4.568   3.029  14.310 -0.1429 -0.4066 -1.4593
 7150SOL     OW33082   3.599   4.553   7.510  0.7541  0.3847  0.2152
 7150SOL    HW133083   3.596   4.508   7.425  1.3468 -0.7084  0.7746
 7150SOL    HW233084   3.581   4.643   7.484  0.4630  1.1485  3.1036
 7151SOL     OW33085   0.574   2.810  14.056  0.0165 -0.1428  0.0769
 7151SOL    HW133086   0.579   2.769  14.143  3.4615 -0.8285 -0.4682
 7151SOL    HW233087   0.482   2.792  14.033  0.0854  0.2865 -0.5079
 7152SOL     OW33088   1.260   1.347   8.584 -0.5918  0.2117  0.0720
 7152SOL    HW133089   1.285   1.255   8.590 -0.1553  0.3700  0.6375
 7152SOL    HW233090   1.272   1.377   8.674  0.0022  1.7529 -0.5266
 7153SOL     OW33091   0.205   0.146   0.576  0.4320 -0.2841 -0.1908
 7153SOL    HW133092   0.243   0.083   0.638  0.7843 -1.8482 -1.9895
 7153SOL    HW233093   0.140   0.086   0.538 -0.2197 -0.8889  1.8400
 7154SOL     OW33094   1.426   3.597   6.490 -0.1915  0.1332  0.2372
 7154SOL    HW133095   1.428   3.661   6.561  3.9105  0.3189 -0.0139
 7154SOL    HW233096   1.411   3.518   6.543  0.2475 -0.5323 -0.6287
 7155SOL     OW33097   1.642   3.595   7.320  0.0996 -0.1017  0.3305
 7155SOL    HW133098   1.716   3.574   7.376  0.7160  1.6353  0.1611
 7155SOL    HW233099   1.673   3.682   7.295 -0.7234  1.2108  3.9022
 7156SOL     OW33100   1.131   2.683   6.960 -0.3829 -0.0109 -0.1807
 7156SOL    HW133101   1.048   2.649   6.993 -0.6654  0.3583 -0.5058
 7156SOL    HW233102   1.185   2.717   7.031  0.5858  0.4162 -1.1147
 7157SOL     OW33103   0.034   1.907   8.350  0.0363  0.2017 -0.2515
 7157SOL    HW133104   4.683   1.928   8.379 -0.1021 -0.1390 -0.4368
 7157SOL    HW233105   0.085   1.966   8.406  0.9877 -1.2416  0.3986
 7158SOL     OW33106   0.330   1.474  13.420  0.0593  0.5465  0.2196
 7158SOL    HW133107   0.278   1.495  13.498  0.3396  0.0313  0.5426
 7158SOL    HW233108   0.366   1.390  13.448  0.1237  0.6253  0.3731
 7159SOL     OW33109   1.244   4.707   5.134  0.4900  0.5110  0.0531
 7159SOL    HW133110   1.315   4.656   5.173  0.8777  0.0757 -1.2265
 7159SOL    HW233111   1.251   4.683   5.042 -1.6049 -0.0107  0.0325
 7160SOL     OW33112   0.195   1.364   7.889 -0.3133 -0.0794  0.0720
 7160SOL    HW133113   0.232   1.292   7.839  0.6637  1.8062 -1.8794
 7160SOL    HW233114   0.110   1.321   7.906 -0.4070 -0.0249 -0.2615
 7161SOL     OW33115   0.715   1.898   4.115  0.2399  0.2882  0.1786
 7161SOL    HW133116   0.719   1.973   4.174  1.2147  2.0413 -2.1068
 7161SOL    HW233117   0.700   1.830   4.181 -1.2200  1.4651  1.0595
 7162SOL     OW33118   3.777   3.282   1.650  0.0256  0.0650 -0.9664
 7162SOL    HW133119   3.749   3.261   1.561 -2.3410  1.1957 -0.4846
 7162SOL    HW233120   3.750   3.373   1.658 -0.4802 -0.1121 -0.6633
 7163SOL     OW33121   0.791   4.253   3.095 -0.5958  0.0458 -0.4729
 7163SOL    HW133122   0.743   4.333   3.078  2.6773  1.5124 -2.8824
 7163SOL    HW233123   0.799   4.212   3.009 -0.1971 -0.6082 -0.1244
 7164SOL     OW33124   3.763   0.105   4.044  0.4904  0.5735 -0.1317
 7164SOL    HW133125   3.838   0.057   4.080  0.9655  1.1344 -0.3758
 7164SOL    HW233126   3.769   0.072   3.955 -2.6831 -2.8717  0.8980
 7165SOL     OW33127   2.815   3.400   2.886 -0.1004  0.0129 -0.0927
 7165SOL    HW133128   2.894   3.391   2.938 -1.2347  1.6838  1.9727
 7165SOL    HW233129   2.848   3.395   2.797 -0.3789 -2.3640 -0.0483
 7166SOL     OW33130   3.631   1.424   4.683 -0.0162 -0.5662  0.2955
 7166SOL    HW133131   3.559   1.362   4.696 -2.5689  2.6639  1.6411
 7166SOL    HW233132   3.604   1.496   4.740  3.1089  1.0019 -0.2155
 7167SOL     OW33133   3.192   2.316   3.574  0.1399  0.1797  0.1083
 7167SOL    HW133134   3.161   2.226   3.565  0.0879  0.1755  0.3270
 7167SOL    HW233135   3.285   2.294   3.573  0.1063  0.0160  0.5087
 7168SOL     OW33136   3.957   2.001   3.420 -0.3048 -0.2665 -0.5449
 7168SOL    HW133137   3.906   1.930   3.380 -1.1920  1.0827 -1.8134
 7168SOL    HW233138   4.024   2.011   3.353  1.5450  0.4969  1.3988
 7169SOL     OW33139   0.008   4.185   3.831  0.3433 -0.7980 -0.3602
 7169SOL    HW133140   0.085   4.239   3.848  0.0777 -0.5496  0.0484
 7169SOL    HW233141   0.060   4.143   3.762  0.9667 -2.1636  0.9361
 7170SOL     OW33142   1.762   3.680   4.312 -0.1892 -0.2628  0.1187
 7170SOL    HW133143   1.741   3.591   4.286 -2.0315  0.2617 -0.1463
 7170SOL    HW233144   1.746   3.681   4.407 -1.4563  1.7723 -0.1078
 7171SOL     OW33145   4.133   3.457   1.712  0.5610 -0.1420  0.2900
 7171SOL    HW133146   4.207   3.511   1.684  0.1589  1.0971  1.5868
 7171SOL    HW233147   4.111   3.509   1.789 -0.0263 -1.9444  1.3519
 7172SOL     OW33148   0.989   4.177   8.119  0.7588 -0.3464  0.7645
 7172SOL    HW133149   0.927   4.140   8.056  0.8594  1.3817 -0.3392
 7172SOL    HW233150   0.949   4.131   8.193 -1.8708  0.0215 -0.4014
 7173SOL     OW33151   1.299   3.221  10.786  0.1834 -0.1121 -0.0403
 7173SOL    HW133152   1.321   3.200  10.877  0.2873 -1.0714 -0.2827
 7173SOL    HW233153   1.238   3.294  10.801  1.1497  0.6364  0.1995
 7174SOL     OW33154   0.073   0.614   7.697  0.3428 -0.0113  0.1625
 7174SOL    HW133155   4.734   0.586   7.748  0.2110  0.9303  0.4650
 7174SOL    HW233156   0.055   0.561   7.618  1.2514  1.4386 -1.0103
 7175SOL     OW33157   2.417   1.657  10.227 -0.5278  0.5412  0.7779
 7175SOL    HW133158   2.503   1.698  10.216  0.3018 -1.5293 -0.2335
 7175SOL    HW233159   2.387   1.702  10.148 -0.2806  0.2677  0.5271
 7176SOL     OW33160   1.246   2.068  14.334 -0.2308  0.8749 -0.0426
 7176SOL    HW133161   1.230   2.030  14.248  1.1461  1.2688 -0.4760
 7176SOL    HW233162   1.338   2.042  14.349  0.0485  1.5075 -0.6970
 7177SOL     OW33163   2.161   3.563   6.035 -0.3734  0.2202  0.1438
 7177SOL    HW133164   2.117   3.479   6.022 -0.1292 -0.0636  1.1737
 7177SOL    HW233165   2.149   3.570   6.130  1.0623  1.0503  0.2695
 7178SOL     OW33166   1.811   3.539  17.581 -0.8894  0.0733 -0.4114
 7178SOL    HW133167   1.743   3.569  17.641 -0.3810  0.3779  0.0125
 7178SOL    HW233168   1.798   3.588  17.499  0.6865 -0.0032 -0.7038
 7179SOL     OW33169   2.156   3.510  17.341  0.4600 -0.3353  0.2433
 7179SOL    HW133170   2.173   3.416  17.353  0.8242 -0.4350 -1.1104
 7179SOL    HW233171   2.159   3.526  17.436 -3.5013 -0.2529  0.3517
 7180SOL     OW33172   0.733   0.804   2.620  0.1188  0.0701  0.0742
 7180SOL    HW133173   0.666   0.806   2.552  1.5554 -1.4613 -1.3984
 7180SOL    HW233174   0.691   0.815   2.705 -1.3575 -0.0913 -0.6405
 7181SOL     OW33175   3.684   1.248   3.307 -0.8744  0.5890  0.7956
 7181SOL    HW133176   3.746   1.297   3.254 -0.9016 -2.9478 -2.4554
 7181SOL    HW233177   3.606   1.303   3.310 -1.1654  0.0038  4.1418
 7182SOL     OW33178   3.796   3.268  11.179 -0.1106 -0.1191  0.0197
 7182SOL    HW133179   3.784   3.223  11.095  0.3638 -2.8855  1.4403
 7182SOL    HW233180   3.839   3.208  11.240  1.4770  0.2727 -0.7292
 7183SOL     OW33181   4.639   3.066  17.068 -0.6652  0.1423  0.1136
 7183SOL    HW133182   4.584   3.094  16.994 -0.0548  0.8144 -0.0830
 7183SOL    HW233183   4.595   2.983  17.087  0.8218 -0.8090 -0.6190
 7184SOL     OW33184   2.261   1.352   8.894 -0.3359 -0.0961 -0.2011
 7184SOL    HW133185   2.234   1.270   8.852 -3.5371  1.1777 -0.6784
 7184SOL    HW233186   2.291   1.317   8.978 -1.4449 -0.2054  0.1525
 7185SOL     OW33187   0.411   1.738   8.609  0.6731  0.3668 -0.0603
 7185SOL    HW133188   0.423   1.763   8.701  0.3835 -2.5371  0.7872
 7185SOL    HW233189   0.381   1.647   8.621  0.9591  0.3623  0.6399
 7186SOL     OW33190   1.925   3.310   6.787  0.1065 -0.5676  0.1935
 7186SOL    HW133191   1.895   3.397   6.763  0.6786 -0.1335  1.0526
 7186SOL    HW233192   1.991   3.328   6.854  0.1393 -1.2408  0.3422
 7187SOL     OW33193   0.988   0.657   3.842 -0.1513  0.2463  0.3298
 7187SOL    HW133194   0.959   0.573   3.878 -1.2529  0.5751  0.1956
 7187SOL    HW233195   0.923   0.724   3.861  1.5431  1.9362  0.0954
 7188SOL     OW33196   1.025   0.784  16.134 -0.0088 -0.1891 -0.0939
 7188SOL    HW133197   1.110   0.746  16.156  0.7942  1.2356 -0.7384
 7188SOL    HW233198   1.008   0.737  16.053  2.1030 -2.0961  0.5534
 7189SOL     OW33199   3.306   0.428   3.252  0.2871 -0.4727  0.0872
 7189SOL    HW133200   3.306   0.506   3.196 -0.8699 -2.0044 -2.0423
 7189SOL    HW233201   3.278   0.357   3.194 -0.0155 -1.5945  1.6276
 7190SOL     OW33202   3.032   2.117   2.050 -0.1305 -0.1583 -0.3559
 7190SOL    HW133203   3.073   2.031   2.047  0.0767 -0.0473 -0.6887
 7190SOL    HW233204   3.082   2.163   1.983 -1.9141  1.7079 -0.4325
 7191SOL     OW33205   3.660   2.097   5.120  0.1525  0.2950  0.3379
 7191SOL    HW133206   3.730   2.046   5.162 -0.8457 -0.7174  0.7719
 7191SOL    HW233207   3.706   2.129   5.042  0.3393 -0.6219  0.0700
 7192SOL     OW33208   0.550   4.452   9.768  0.5232  0.2546 -0.8017
 7192SOL    HW133209   0.491   4.377   9.774 -0.5518  0.8700 -3.4616
 7192SOL    HW233210   0.536   4.482   9.858  0.1095 -0.4947 -0.6152
 7193SOL     OW33211   0.886   3.103   4.283 -0.0660  0.5256 -0.3674
 7193SOL    HW133212   0.882   3.184   4.333 -0.8822  0.9560 -1.1239
 7193SOL    HW233213   0.980   3.091   4.271 -0.3702 -0.1638 -2.1073
 7194SOL     OW33214   0.274   0.836  15.225  0.6652 -0.2305  0.4163
 7194SOL    HW133215   0.209   0.799  15.165  1.2282 -2.2294  1.0403
 7194SOL    HW233216   0.303   0.755  15.266  1.8334 -0.4440 -0.8118
 7195SOL     OW33217   0.171   0.991   0.731  0.4848  0.4758  0.2585
 7195SOL    HW133218   0.086   0.983   0.687  0.2685  0.1873  0.7285
 7195SOL    HW233219   0.157   1.045   0.809  1.5962  0.2069  0.6326
 7196SOL     OW33220   2.015   3.124   3.455  0.2289 -0.1462 -0.2620
 7196SOL    HW133221   2.107   3.109   3.433  0.1236 -3.3577  1.5847
 7196SOL    HW233222   2.003   3.214   3.425 -0.5063  0.0659  0.6862
 7197SOL     OW33223   2.898   0.216   2.413 -0.0529 -0.0181  0.6522
 7197SOL    HW133224   2.992   0.212   2.431 -0.2950 -2.0148  1.5359
 7197SOL    HW233225   2.872   0.164   2.489  0.2354 -2.4996 -0.9342
 7198SOL     OW33226   0.224   2.933   9.454 -0.0051 -0.3246 -0.3376
 7198SOL    HW133227   0.273   2.957   9.532  2.2981  0.3348 -2.0104
 7198SOL    HW233228   0.281   2.949   9.379  0.5025 -0.4327  0.0321
 7199SOL     OW33229   1.193   0.839   3.984 -0.2677  0.5535 -0.1247
 7199SOL    HW133230   1.137   0.785   3.929 -2.1131 -0.9116  3.1751
 7199SOL    HW233231   1.216   0.777   4.053  2.4920 -1.5577 -2.9826
 7200SOL     OW33232   0.931   0.082   3.280 -0.8575  0.2000 -0.0338
 7200SOL    HW133233   0.973   4.737   3.257  0.1368  0.9374 -0.8895
 7200SOL    HW233234   0.995   0.151   3.260  2.1966 -2.3088  1.0763
 7201SOL     OW33235   1.434   0.974   5.006  0.2976  0.4910  0.0305
 7201SOL    HW133236   1.383   0.944   4.930  1.0451 -0.0435 -0.2641
 7201SOL    HW233237   1.491   1.039   4.965  1.3190  0.7879  1.9249
 7202SOL     OW33238   4.165   2.929   5.549  0.7471  0.0845  0.0616
 7202SOL    HW133239   4.130   2.853   5.501  0.4615  1.5885 -2.0989
 7202SOL    HW233240   4.087   2.983   5.534  0.7160  0.1363  0.4091
 7203SOL     OW33241   4.369   2.752   8.516  0.3480 -0.0067  0.0210
 7203SOL    HW133242   4.429   2.696   8.565  3.0611  2.7974 -0.0837
 7203SOL    HW233243   4.285   2.727   8.554  0.4297  0.8611  0.7782
 7204SOL     OW33244   4.660   2.087  17.604 -0.1006  0.2384 -0.0171
 7204SOL    HW133245   4.669   1.998  17.572 -1.8808 -0.2021  0.7436
 7204SOL    HW233246   4.582   2.086  17.660  1.2300 -1.1637  1.8056
 7205SOL     OW33247   0.809   0.370  12.788  0.1724  0.1858 -0.1032
 7205SOL    HW133248   0.728   0.415  12.810  0.6131  1.6260 -1.3528
 7205SOL    HW233249   0.779   0.298  12.733 -0.4066  1.4960 -1.4889
 7206SOL     OW33250   2.436   1.181   5.809 -0.3630  0.5649  0.2217
 7206SOL    HW133251   2.443   1.088   5.832  0.9884  0.7657  0.5992
 7206SOL    HW233252   2.451   1.194   5.715  0.7486  0.9254  0.4523
 7207SOL     OW33253   2.662   3.998   9.679  0.4090 -0.0942 -0.0396
 7207SOL    HW133254   2.619   4.017   9.595  0.4092 -2.6043 -0.6319
 7207SOL    HW233255   2.747   3.957   9.664  0.2602 -0.0615 -0.9836
 7208SOL     OW33256   3.167   2.004  10.036  0.3807 -0.1172 -0.0276
 7208SOL    HW133257   3.072   2.007  10.048 -0.0162  0.2282 -3.2605
 7208SOL    HW233258   3.176   2.077   9.975  0.5012 -0.6149 -0.6042
 7209SOL     OW33259   2.409   4.496   7.477 -1.1466 -0.1724 -0.1585
 7209SOL    HW133260   2.375   4.498   7.387 -1.1842 -0.0945 -0.1426
 7209SOL    HW233261   2.331   4.472   7.527 -2.0674  1.1319 -0.9376
 7210SOL     OW33262   3.918   2.280   6.980  0.1399 -0.0200  0.1740
 7210SOL    HW133263   4.006   2.261   6.947  0.1900 -0.8128  0.7522
 7210SOL    HW233264   3.898   2.199   7.026 -1.8009  1.0020  1.1102
 7211SOL     OW33265   3.205   1.952  15.553  0.6940 -0.2609 -0.3434
 7211SOL    HW133266   3.259   2.013  15.604  0.2815 -1.2554  1.2979
 7211SOL    HW233267   3.269   1.929  15.486 -0.3782  0.8266 -1.7416
 7212SOL     OW33268   3.374   1.786   7.985 -0.6821 -0.2058  0.0042
 7212SOL    HW133269   3.405   1.856   7.927 -3.0942 -0.2805 -1.3544
 7212SOL    HW233270   3.450   1.759   8.037 -0.0659  0.9236 -0.3015
 7213SOL     OW33271   1.622   0.401   6.798  0.2719 -0.4835  0.6241
 7213SOL    HW133272   1.707   0.433   6.827  1.0977 -3.0528  1.0412
 7213SOL    HW233273   1.645   0.308   6.801 -0.9809 -0.8426 -1.0501
 7214SOL     OW33274   2.142   1.946   6.823 -0.1111 -0.3366 -0.1221
 7214SOL    HW133275   2.115   1.863   6.784  1.3171  0.6168 -3.1416
 7214SOL    HW233276   2.064   2.000   6.810  1.7759  2.9207  1.9002
 7215SOL     OW33277   3.785   2.257   2.660  0.0253 -0.0614 -0.3484
 7215SOL    HW133278   3.697   2.254   2.621  0.8200  0.0028 -2.1700
 7215SOL    HW233279   3.832   2.296   2.586 -0.9357  3.2232  0.7624
 7216SOL     OW33280   0.249   3.154   4.042  0.4133  0.7770  0.0999
 7216SOL    HW133281   0.318   3.100   4.079 -0.0286  0.6949  0.8083
 7216SOL    HW233282   0.177   3.117   4.094  1.2959 -1.9796 -0.6525
 7217SOL     OW33283   4.094   1.691   1.098  0.4181  0.6421 -1.1242
 7217SOL    HW133284   4.187   1.715   1.090  1.0828 -1.4693  0.3455
 7217SOL    HW233285   4.065   1.678   1.008 -0.1269 -1.3396 -0.6738
 7218SOL     OW33286   3.073   3.759   7.323  0.3302 -0.1834 -0.2798
 7218SOL    HW133287   3.158   3.757   7.366  0.2936  1.2153 -0.1407
 7218SOL    HW233288   3.066   3.845   7.282  0.6904  0.0749  0.2038
 7219SOL     OW33289   2.845   1.262  10.933  0.5998  0.5495  0.3173
 7219SOL    HW133290   2.906   1.190  10.945  0.1791 -0.1541 -1.8204
 7219SOL    HW233291   2.769   1.214  10.899  0.5098  1.3557 -0.6198
 7220SOL     OW33292   1.986   3.665   2.676 -0.0321 -0.4396  0.1866
 7220SOL    HW133293   1.989   3.612   2.756 -0.0203 -0.9500 -0.1470
 7220SOL    HW233294   1.938   3.605   2.618 -0.5209  2.3319 -2.2944
 7221SOL     OW33295   4.429   1.892  13.678 -0.1345 -0.3612  0.5301
 7221SOL    HW133296   4.411   1.800  13.699  0.1447 -0.8013 -1.2342
 7221SOL    HW233297   4.365   1.921  13.743  0.3208  2.2314 -0.1870
 7222SOL     OW33298   2.797   2.058   2.671 -0.2327  0.5007  0.3955
 7222SOL    HW133299   2.788   2.128   2.606  1.6590 -0.7341 -1.1878
 7222SOL    HW233300   2.802   1.984   2.610 -1.7531  1.4684 -0.9215
 7223SOL     OW33301   2.826   0.023   2.595  0.0451 -0.4166  0.1125
 7223SOL    HW133302   2.874   4.678   2.589  2.0716  0.8412 -1.2485
 7223SOL    HW233303   2.741   4.722   2.574 -0.2062 -1.2074  2.6252
 7224SOL     OW33304   3.992   1.000   5.705 -0.3374 -0.5188  0.2983
 7224SOL    HW133305   4.020   0.984   5.795  0.0641 -0.4433  0.1892
 7224SOL    HW233306   3.934   0.927   5.683 -1.3676  0.3536  0.1225
 7225SOL     OW33307   2.791   3.687   7.037  0.0875 -0.1119 -0.2219
 7225SOL    HW133308   2.755   3.722   7.118  2.4834  0.2627  0.6914
 7225SOL    HW233309   2.784   3.769   6.986 -0.6597  0.7562  1.2778
 7226SOL     OW33310   2.687   2.760   9.605 -0.3006  0.2345  0.0144
 7226SOL    HW133311   2.750   2.781   9.536 -0.4103 -1.5395 -0.6161
 7226SOL    HW233312   2.647   2.846   9.616 -1.3796 -0.3056  0.3787
 7227SOL     OW33313   4.697   2.542   9.033 -0.0034  0.4145 -0.2296
 7227SOL    HW133314   0.028   2.504   8.978  2.1952 -0.6741  3.2318
 7227SOL    HW233315   4.705   2.496   9.117  1.1608  1.2368  0.1144
 7228SOL     OW33316   2.743   1.624  10.613 -0.0341  0.2581 -0.1651
 7228SOL    HW133317   2.676   1.556  10.626  0.5983 -0.0086  1.6694
 7228SOL    HW233318   2.817   1.573  10.644  1.4396  1.1708 -2.2227
 7229SOL     OW33319   4.725   0.830   6.242 -0.0528 -0.0131  0.0484
 7229SOL    HW133320   0.047   0.891   6.287  1.4996 -1.4127 -0.0934
 7229SOL    HW233321   4.683   0.781   6.313 -0.9281  0.3701 -0.2085
 7230SOL     OW33322   2.938   2.319   4.999 -0.4542 -0.0671 -0.2614
 7230SOL    HW133323   3.015   2.370   4.974  1.5006 -1.3889  3.0839
 7230SOL    HW233324   2.882   2.337   4.923  0.4776 -1.2318 -1.2175
 7231SOL     OW33325   3.924   0.928  17.715  0.5440  0.4273  0.4048
 7231SOL    HW133326   3.880   0.874   0.033 -2.7421 -1.4337 -3.2720
 7231SOL    HW233327   3.871   1.007  17.702  0.8835  0.8662  1.6623
 7232SOL     OW33328   4.643   3.641   4.261 -0.2709  0.5121 -0.6370
 7232SOL    HW133329   4.674   3.585   4.190 -3.8231 -0.6665 -1.2360
 7232SOL    HW233330   4.725   3.654   4.308  0.4731 -0.4313 -1.6765
 7233SOL     OW33331   1.944   0.359   3.817  0.9070 -0.2780  0.2171
 7233SOL    HW133332   2.015   0.422   3.821  1.3091 -0.7952  1.2983
 7233SOL    HW233333   1.919   0.351   3.909  1.0970 -2.3448  0.1016
 7234SOL     OW33334   2.677   3.674  10.844  0.0231 -0.0337  0.2996
 7234SOL    HW133335   2.768   3.693  10.823  0.3724 -1.1571  0.7873
 7234SOL    HW233336   2.680   3.714  10.930  0.0349  1.2543 -0.3007
 7235SOL     OW33337   1.951   1.098   2.234  0.2054  0.2710  0.1078
 7235SOL    HW133338   1.890   1.149   2.181  0.3251 -0.4615 -0.7397
 7235SOL    HW233339   1.924   1.006   2.230 -2.0827  0.9337  0.2688
 7236SOL     OW33340   3.623   4.041  10.920 -0.0952 -0.2514  0.1381
 7236SOL    HW133341   3.695   3.983  10.897 -1.1053 -1.8699  0.9930
 7236SOL    HW233342   3.664   4.123  10.895 -0.3671  0.1187  0.8987
 7237SOL     OW33343   1.111   0.861  10.171  0.5972  0.5871  0.0278
 7237SOL    HW133344   1.140   0.935  10.117 -1.6264  0.8885 -0.7339
 7237SOL    HW233345   1.166   0.868  10.249 -0.9457  0.5793  1.1087
 7238SOL     OW33346   4.309   3.517   3.244  0.5535 -0.2148  0.7195
 7238SOL    HW133347   4.370   3.481   3.308  1.2043 -0.3822  0.0057
 7238SOL    HW233348   4.367   3.523   3.168 -0.2795 -0.0603  0.0991
 7239SOL     OW33349   3.448   4.446   6.798 -0.4835  0.1883 -0.1506
 7239SOL    HW133350   3.455   4.399   6.881 -0.3976  1.2860  0.4671
 7239SOL    HW233351   3.450   4.368   6.742 -1.6721  0.0048  0.0583
 7240SOL     OW33352   4.343   0.735   0.665  0.2370  0.4305  0.0052
 7240SOL    HW133353   4.430   0.733   0.704 -0.5133  1.0304  1.6929
 7240SOL    HW233354   4.356   0.672   0.594 -0.0712 -1.4865  1.6638
 7241SOL     OW33355   3.324   0.862   5.412 -0.0943 -0.3714  0.5533
 7241SOL    HW133356   3.284   0.776   5.405  0.7494 -0.7940  1.0031
 7241SOL    HW233357   3.290   0.907   5.335 -0.1872 -0.2043  0.6897
 7242SOL     OW33358   2.566   4.009   9.171 -0.7446  0.1115 -0.0446
 7242SOL    HW133359   2.525   3.927   9.141  0.7589 -0.3280 -0.8946
 7242SOL    HW233360   2.598   4.031   9.083 -2.1818  2.4905  0.0328
 7243SOL     OW33361   2.827   4.352   6.014 -0.1496  0.4863  0.1868
 7243SOL    HW133362   2.798   4.382   6.100 -1.4517 -0.8970  0.2216
 7243SOL    HW233363   2.774   4.272   6.006  0.1217  0.4069 -0.8692
 7244SOL     OW33364   0.740   2.909   6.716 -0.2079  0.3753  0.0650
 7244SOL    HW133365   0.679   2.965   6.669  0.0133  1.3720  0.9521
 7244SOL    HW233366   0.804   2.900   6.645 -0.0556  1.9154  0.0090
 7245SOL     OW33367   2.431   0.251   7.685 -0.2379  0.2054 -0.3955
 7245SOL    HW133368   2.337   0.268   7.674 -0.5732 -1.2899  0.1645
 7245SOL    HW233369   2.439   0.158   7.667  0.1175  0.1508  0.0452
 7246SOL     OW33370   0.967   2.017   1.857 -0.2898  0.6547 -0.8768
 7246SOL    HW133371   1.043   2.050   1.809  0.9331 -3.8312 -1.9664
 7246SOL    HW233372   0.953   1.927   1.829  0.4192  0.5277 -0.8260
 7247SOL     OW33373   1.198   2.878   2.776 -0.6209  0.6198  0.4639
 7247SOL    HW133374   1.180   2.966   2.744  1.3319 -0.0838 -2.6002
 7247SOL    HW233375   1.276   2.848   2.730 -0.1419  0.4533  1.3767
 7248SOL     OW33376   3.646   2.830   8.134  0.0727  0.3137 -0.0737
 7248SOL    HW133377   3.704   2.762   8.168 -0.0900  0.7508  1.0732
 7248SOL    HW233378   3.558   2.795   8.126 -0.4629  1.4891  0.8054
 7249SOL     OW33379   0.342   0.310   0.363  0.0039  1.0614  0.0861
 7249SOL    HW133380   0.385   0.225   0.359 -0.8662  0.7008 -1.6526
 7249SOL    HW233381   0.281   0.302   0.436 -0.7297  2.1279 -0.4195
 7250SOL     OW33382   0.715   1.673   6.327  0.9373 -0.4819 -0.4381
 7250SOL    HW133383   0.734   1.732   6.399  1.9238  0.5103 -1.5174
 7250SOL    HW233384   0.706   1.727   6.249  0.4472 -1.1833 -0.8777
 7251SOL     OW33385   2.240   2.782   3.321 -0.5565 -0.0014 -0.0879
 7251SOL    HW133386   2.155   2.826   3.322  1.0088  3.0179  1.0616
 7251SOL    HW233387   2.277   2.810   3.405  1.6677 -0.6408 -0.8608
 7252SOL     OW33388   0.041   3.021   4.204 -0.8341 -0.4659  0.3266
 7252SOL    HW133389   0.037   3.097   4.262 -0.6128 -1.3607  1.5426
 7252SOL    HW233390   0.093   2.962   4.259  0.7271  0.5076 -0.1071
 7253SOL     OW33391   4.240   3.713   1.415 -0.3179  0.4842  0.5202
 7253SOL    HW133392   4.160   3.742   1.458 -0.5917 -1.1209  1.0768
 7253SOL    HW233393   4.210   3.626   1.386  0.7700  0.6525 -1.1432
 7254SOL     OW33394   1.773   3.167   6.315 -0.0446  0.0507 -0.3918
 7254SOL    HW133395   1.758   3.115   6.236 -2.2745  0.8799 -0.5089
 7254SOL    HW233396   1.843   3.228   6.291  1.2572 -0.6110  1.7166
 7255SOL     OW33397   2.051   1.859   4.098 -0.0748  0.4526  0.3954
 7255SOL    HW133398   2.090   1.790   4.045 -1.6053 -1.1994  1.4171
 7255SOL    HW233399   2.114   1.930   4.084  0.2032  0.4492  1.6029
 7256SOL     OW33400   4.271   3.747   9.983 -0.2945 -0.2897  0.3176
 7256SOL    HW133401   4.335   3.791   9.928 -1.3435  0.2944 -0.4467
 7256SOL    HW233402   4.199   3.741   9.921 -0.6686 -1.8596  0.9146
 7257SOL     OW33403   1.129   3.894   4.954  0.0742  0.0127  0.8995
 7257SOL    HW133404   1.131   3.989   4.960  1.4623  0.0022  0.7168
 7257SOL    HW233405   1.036   3.874   4.956 -0.3226  1.9418  1.1359
 7258SOL     OW33406   3.732   4.644   5.026  0.0815  0.1606  0.5780
 7258SOL    HW133407   3.814   4.628   5.074  1.5722 -1.6850 -2.5762
 7258SOL    HW233408   3.765   4.693   4.951  0.4181 -1.0072 -0.0430
 7259SOL     OW33409   2.178   3.882   3.825 -0.3885  0.0479  0.2613
 7259SOL    HW133410   2.191   3.974   3.804  1.8202 -0.0971  1.0181
 7259SOL    HW233411   2.114   3.858   3.758 -2.4249  2.1210  1.4639
 7260SOL     OW33412   0.529   2.609   6.683 -0.3074 -0.2782  0.4804
 7260SOL    HW133413   0.512   2.528   6.635  2.4381 -1.7947  2.0473
 7260SOL    HW233414   0.623   2.601   6.696 -0.5160  0.7271  2.7207
 7261SOL     OW33415   1.972   1.208  13.140  0.3859  0.3113  0.3970
 7261SOL    HW133416   1.987   1.115  13.124 -0.4763  0.0681  1.0013
 7261SOL    HW233417   1.905   1.211  13.208 -1.1224 -1.5838 -1.0102
 7262SOL     OW33418   3.340   3.374   6.812 -0.1141  0.3847 -0.1333
 7262SOL    HW133419   3.400   3.310   6.849 -0.3094 -0.1559 -0.7636
 7262SOL    HW233420   3.273   3.314   6.779  1.3081 -1.2923  0.0335
 7263SOL     OW33421   0.312   1.179  13.875  0.1094 -0.4409 -0.4111
 7263SOL    HW133422   0.253   1.251  13.852  1.2372  0.0955 -1.6161
 7263SOL    HW233423   0.352   1.168  13.789  0.2857  0.5381 -0.4554
 7264SOL     OW33424   2.193   3.758  15.504 -0.0711 -0.3352 -0.4462
 7264SOL    HW133425   2.254   3.694  15.467 -0.5513 -0.1612 -1.5504
 7264SOL    HW233426   2.255   3.819  15.544  1.8193 -1.9590 -0.8943
 7265SOL     OW33427   1.621   2.203   5.633 -0.2784 -0.3295 -0.1556
 7265SOL    HW133428   1.564   2.280   5.625 -1.9251 -1.5345 -0.1676
 7265SOL    HW233429   1.595   2.150   5.708  0.1235  0.2336  0.3720
 7266SOL     OW33430   4.069   0.286   0.054 -0.1456  0.0270 -0.2306
 7266SOL    HW133431   4.056   0.334  17.720 -4.4269 -0.0761  0.4256
 7266SOL    HW233432   4.160   0.260   0.038 -0.3580  0.1864 -1.7109
 7267SOL     OW33433   3.833   3.923   2.229  0.0473  0.1848 -0.1744
 7267SOL    HW133434   3.746   3.960   2.215  0.0978  0.7435  1.0362
 7267SOL    HW233435   3.809   3.832   2.247 -0.0046 -0.1770 -2.0291
 7268SOL     OW33436   3.499   2.256   9.760 -0.1379 -0.8222 -0.0961
 7268SOL    HW133437   3.469   2.230   9.672  0.9975 -2.7087  0.1006
 7268SOL    HW233438   3.414   2.242   9.801  0.7905  0.6852  2.3223
 7269SOL     OW33439   1.039   1.593  15.000  0.3365 -0.2279  0.1088
 7269SOL    HW133440   1.097   1.520  14.983  1.6181  0.2476  2.3956
 7269SOL    HW233441   1.049   1.648  14.923  0.2188  0.8760  0.8738
 7270SOL     OW33442   4.403   2.596   9.742 -0.3251  0.0211 -0.2579
 7270SOL    HW133443   4.374   2.533   9.675  0.2314 -1.4829  0.9315
 7270SOL    HW233444   4.372   2.680   9.708 -0.7683 -0.2197 -0.4553
 7271SOL     OW33445   1.817   4.117  12.076 -0.8883 -0.1771 -0.9084
 7271SOL    HW133446   1.897   4.065  12.072 -0.2255  0.7310  0.6853
 7271SOL    HW233447   1.836   4.185  12.011 -0.9537 -0.3937 -1.1548
 7272SOL     OW33448   1.207   4.307   7.139  0.0088  0.1522  0.1978
 7272SOL    HW133449   1.263   4.310   7.217  0.3796 -0.0344 -0.0621
 7272SOL    HW233450   1.246   4.365   7.074  0.8361 -0.0662  0.4880
 7273SOL     OW33451   4.440   1.517   6.595 -0.0161 -0.7124  0.0490
 7273SOL    HW133452   4.526   1.559   6.594 -1.1831  1.6490  0.8863
 7273SOL    HW233453   4.437   1.497   6.689  0.1483 -0.2803  0.1456
 7274SOL     OW33454   0.034   1.978   5.574 -0.5714  0.7785 -0.3431
 7274SOL    HW133455   0.015   1.974   5.667 -0.6911  1.3736 -0.3392
 7274SOL    HW233456   0.084   1.901   5.550  1.1956  1.5361  0.9460
 7275SOL     OW33457   3.953   4.165   7.981 -0.7453 -0.1479 -0.8096
 7275SOL    HW133458   3.989   4.156   7.893  0.0723 -1.5151 -0.3321
 7275SOL    HW233459   3.863   4.192   7.960 -1.6428 -0.4343  2.6318
 7276SOL     OW33460   3.377   1.915   1.694 -0.3341  0.2132  0.1957
 7276SOL    HW133461   3.293   1.881   1.662 -0.5954  2.4376 -1.4837
 7276SOL    HW233462   3.385   2.001   1.653  0.4334 -0.0018 -0.0938
 7277SOL     OW33463   1.847   2.055  15.490 -0.5639  0.3337  0.8315
 7277SOL    HW133464   1.905   1.986  15.457 -0.2088  0.7341  0.6121
 7277SOL    HW233465   1.852   2.107  15.410 -0.9687 -1.9315 -0.6774
 7278SOL     OW33466   4.515   1.302   7.527 -0.0920  0.2817 -0.2095
 7278SOL    HW133467   4.447   1.237   7.545 -2.0463  2.2409 -0.6217
 7278SOL    HW233468   4.475   1.377   7.570  1.0283  0.3277  0.7572
 7279SOL     OW33469   0.779   1.175  17.402 -0.2493 -0.3872  0.0872
 7279SOL    HW133470   0.762   1.099  17.345  1.8533 -0.7586 -0.0156
 7279SOL    HW233471   0.857   1.156  17.453 -1.0444  2.2653  2.3103
 7280SOL     OW33472   2.256   0.813   3.015 -0.0336  0.1376 -0.0163
 7280SOL    HW133473   2.162   0.823   3.003  0.1445  0.4889 -1.0854
 7280SOL    HW233474   2.283   0.879   3.079 -0.8339  1.8977 -1.5002
 7281SOL     OW33475   2.302   0.406   6.631  0.1920  0.4312  0.0330
 7281SOL    HW133476   2.260   0.453   6.559  0.8205  1.0355  0.0671
 7281SOL    HW233477   2.330   0.477   6.689 -1.7281 -1.4512  3.3190
 7282SOL     OW33478   3.387   3.885   4.698 -0.2253  0.5188  0.0845
 7282SOL    HW133479   3.350   3.854   4.781  0.6908  0.6253  0.5341
 7282SOL    HW233480   3.306   3.909   4.654  0.2037  0.5624 -0.6685
 7283SOL     OW33481   0.358   3.847  12.572  0.3699 -0.4611 -0.1824
 7283SOL    HW133482   0.363   3.796  12.653  2.9286 -0.6391 -0.4473
 7283SOL    HW233483   0.384   3.781  12.507  1.9124 -1.3160  1.2848
 7284SOL     OW33484   2.209   3.712   8.322  0.2283 -0.1425 -0.4201
 7284SOL    HW133485   2.125   3.740   8.359 -0.0285 -1.8894  0.3211
 7284SOL    HW233486   2.225   3.773   8.250  0.0746  0.4464  0.0377
 7285SOL     OW33487   2.891   2.407  17.234  0.4697 -0.1244  0.4093
 7285SOL    HW133488   2.896   2.344  17.162  1.2917  0.0117  0.3430
 7285SOL    HW233489   2.965   2.374  17.286 -0.2532 -2.2770  0.0944
 7286SOL     OW33490   3.497   2.771  14.655 -0.7894  0.1636 -0.5576
 7286SOL    HW133491   3.571   2.710  14.661 -0.6522  0.0928 -2.8395
 7286SOL    HW233492   3.481   2.764  14.561  0.1752 -0.2353 -0.6991
 7287SOL     OW33493   2.910   2.656  17.358  0.3251  1.0544 -0.2810
 7287SOL    HW133494   2.920   2.589  17.291  0.6199 -1.4757  2.2710
 7287SOL    HW233495   2.824   2.689  17.335 -1.0874 -1.5160  1.2792
 7288SOL     OW33496   1.398   0.740  15.474 -0.0333 -0.4483  0.2115
 7288SOL    HW133497   1.448   0.819  15.495 -2.3375  1.0433  0.0383
 7288SOL    HW233498   1.349   0.753  15.393 -0.0570 -3.1197 -0.1843
 7289SOL     OW33499   1.866   3.916   5.223 -0.3784 -0.0125  0.0221
 7289SOL    HW133500   1.891   3.904   5.132 -1.2691  1.1319 -0.3649
 7289SOL    HW233501   1.942   3.870   5.261 -0.0320 -0.7984 -1.6522
 7290SOL     OW33502   3.021   0.965  13.227 -0.2238  0.3081 -0.2536
 7290SOL    HW133503   2.942   1.007  13.262 -0.8656 -1.5837  0.5727
 7290SOL    HW233504   3.016   0.877  13.263  2.1768  0.0149 -0.6673
 7291SOL     OW33505   2.530   3.385   9.130  0.2208 -0.1077 -0.1223
 7291SOL    HW133506   2.504   3.369   9.220  1.2132  0.9820  0.3577
 7291SOL    HW233507   2.458   3.440   9.100 -0.9052 -1.4069  0.1888
 7292SOL     OW33508   0.043   1.340   7.571  0.2884 -0.3099  0.5324
 7292SOL    HW133509   4.693   1.304   7.557  0.6723 -0.0570 -2.5333
 7292SOL    HW233510   0.042   1.343   7.667 -1.2341  0.0940  0.5068
 7293SOL     OW33511   4.019   3.774   6.048  0.5986  0.2288  0.3988
 7293SOL    HW133512   4.036   3.867   6.059  0.6257  0.0570  1.8563
 7293SOL    HW233513   3.946   3.790   5.989  1.5773  1.5734 -0.4496
 7294SOL     OW33514   2.360   3.828  13.363  0.1895 -0.1827 -0.3546
 7294SOL    HW133515   2.438   3.834  13.308  0.9101  0.5137  0.7187
 7294SOL    HW233516   2.402   3.848  13.447 -0.4874  2.0135 -0.5343
 7295SOL     OW33517   0.662   3.441   3.087 -0.2274 -0.1911  0.6444
 7295SOL    HW133518   0.571   3.468   3.079  0.7682  3.2786  1.1035
 7295SOL    HW233519   0.710   3.498   3.026 -1.7465  0.3754 -0.0351
 7296SOL     OW33520   2.064   2.881   5.658 -0.2977 -0.1445 -0.4750
 7296SOL    HW133521   2.124   2.920   5.722 -0.8282  0.7989 -0.5415
 7296SOL    HW233522   2.058   2.945   5.586  0.9830 -0.8207 -1.1925
 7297SOL     OW33523   0.727   3.716   5.551  0.9536  0.2167  0.0583
 7297SOL    HW133524   0.779   3.750   5.624  1.5580 -3.1860  1.2422
 7297SOL    HW233525   0.650   3.772   5.556  1.0622  0.5710 -2.0980
 7298SOL     OW33526   0.971   2.726  15.059  0.1120  0.0433  0.2161
 7298SOL    HW133527   0.971   2.719  15.154  2.7148 -1.5674  0.0740
 7298SOL    HW233528   1.065   2.721  15.042 -0.0866  0.1602 -0.9358
 7299SOL     OW33529   2.621   0.368   1.792  0.1622  1.0266  0.0855
 7299SOL    HW133530   2.624   0.463   1.777 -1.0400  1.3276  1.7700
 7299SOL    HW233531   2.593   0.336   1.706  0.8882 -0.9109  0.5711
 7300SOL     OW33532   0.986   1.515   7.114  0.1830  0.2332 -0.5518
 7300SOL    HW133533   1.002   1.439   7.057 -0.2764 -2.1955  2.5444
 7300SOL    HW233534   1.073   1.542   7.141  0.2218  1.7053 -2.1221
 7301SOL     OW33535   3.736   2.917   4.317  1.2717 -0.5403  0.4277
 7301SOL    HW133536   3.695   2.978   4.378 -2.4908  0.4303 -3.0090
 7301SOL    HW233537   3.700   2.936   4.230  0.4686  0.3814  0.9704
 7302SOL     OW33538   0.950   4.378   4.835  0.2470  0.0244 -0.2255
 7302SOL    HW133539   1.035   4.335   4.846  0.4485  0.2596 -0.8960
 7302SOL    HW233540   0.928   4.375   4.929  2.9745  0.4288  0.4297
 7303SOL     OW33541   3.577   2.774  17.051  0.4279 -0.2303  0.3431
 7303SOL    HW133542   3.645   2.839  17.035  0.3013 -0.6729 -1.9939
 7303SOL    HW233543   3.597   2.711  16.981  2.2045  1.6654 -0.8670
 7304SOL     OW33544   1.249   1.407  15.230  0.0960  0.0138 -0.1456
 7304SOL    HW133545   1.270   1.337  15.168 -0.8723 -1.9701  1.7850
 7304SOL    HW233546   1.306   1.465  15.179  0.2143  0.2648  0.2766
 7305SOL     OW33547   1.888   2.986  14.996  0.1303  0.4254 -0.3949
 7305SOL    HW133548   1.876   3.061  14.938  1.5090 -0.2263 -1.5218
 7305SOL    HW233549   1.832   2.920  14.953  0.9965 -0.6769  0.1762
 7306SOL     OW33550   1.074   0.805   0.257 -0.1436 -0.3014  0.0622
 7306SOL    HW133551   1.014   0.880   0.253  0.2000 -0.0248  0.0285
 7306SOL    HW233552   1.155   0.854   0.270 -0.3720  0.1137 -0.0365
 7307SOL     OW33553   0.708   1.502  14.418 -0.4360  0.0732  0.1074
 7307SOL    HW133554   0.641   1.472  14.356 -0.2371  0.4627 -0.2907
 7307SOL    HW233555   0.709   1.415  14.457  2.3032 -0.2303 -0.6626
 7308SOL     OW33556   2.269   4.588   9.134 -0.3320 -0.2543 -0.1080
 7308SOL    HW133557   2.331   4.516   9.146  1.6805  1.5570  0.2923
 7308SOL    HW233558   2.330   4.659   9.151  1.3191 -1.9620  1.1162
 7309SOL     OW33559   2.727   0.858  13.251 -0.7607 -0.1608 -0.3251
 7309SOL    HW133560   2.669   0.933  13.253  0.3355  0.6084  1.8776
 7309SOL    HW233561   2.749   0.862  13.157  1.1024 -1.2472  0.0633
 7310SOL     OW33562   0.305   0.694   4.121 -0.0184 -0.2040  0.1043
 7310SOL    HW133563   0.226   0.663   4.077  0.1925  0.0122 -0.4288
 7310SOL    HW233564   0.271   0.738   4.200 -0.3226 -2.0894  1.0309
 7311SOL     OW33565   4.062   1.867  11.109  0.1403 -0.1596  0.1054
 7311SOL    HW133566   4.092   1.797  11.051 -1.4103 -0.3241 -0.5138
 7311SOL    HW233567   3.993   1.908  11.058  0.7888 -0.7940 -1.2701
 7312SOL     OW33568   4.228   4.477  15.451  0.2783 -0.7426  0.2112
 7312SOL    HW133569   4.300   4.423  15.483  2.8965  1.7737 -1.4281
 7312SOL    HW233570   4.158   4.413  15.438  0.3285 -0.2292 -2.4742
 7313SOL     OW33571   0.095   1.996   6.593 -0.2479 -0.1111  0.5729
 7313SOL    HW133572   0.124   1.913   6.554 -2.8129 -1.4072  1.4619
 7313SOL    HW233573   0.094   2.050   6.514  2.6377 -1.2434 -0.2616
 7314SOL     OW33574   2.614   3.890   8.398  0.1928  0.7277 -0.0218
 7314SOL    HW133575   2.574   3.928   8.476  2.5753  1.2937  0.9356
 7314SOL    HW233576   2.695   3.942   8.398  0.6338  0.0500 -0.9855
 7315SOL     OW33577   1.963   0.388  10.937  0.0085  0.1726  0.2701
 7315SOL    HW133578   1.980   0.367  10.846 -1.1784  1.6834 -0.3186
 7315SOL    HW233579   1.996   0.478  10.945 -0.2040  0.3875 -1.2033
 7316SOL     OW33580   3.466   3.121   9.887  0.3476 -0.6232 -0.0411
 7316SOL    HW133581   3.510   3.037   9.871 -1.1079 -1.5757  0.9568
 7316SOL    HW233582   3.378   3.088   9.868  1.1194 -2.5025 -0.3876
 7317SOL     OW33583   0.081   0.651   8.153 -0.0691  0.3269  0.3759
 7317SOL    HW133584   4.732   0.651   8.112  1.0302  1.8631 -1.9703
 7317SOL    HW233585   0.125   0.574   8.116 -0.5090  0.5339 -0.5751
 7318SOL     OW33586   3.065   2.815   3.042 -0.2943 -0.7273  0.7787
 7318SOL    HW133587   2.992   2.777   3.090 -0.2843 -0.2556  1.1707
 7318SOL    HW233588   3.072   2.757   2.966  1.0492  1.2656 -0.6515
 7319SOL     OW33589   2.800   2.840  15.428 -0.0016  0.4493 -0.2382
 7319SOL    HW133590   2.840   2.774  15.484 -3.4400  1.7373  3.7639
 7319SOL    HW233591   2.882   2.883  15.405  0.9948 -1.7937 -0.8601
 7320SOL     OW33592   4.600   3.492  15.004  0.1488  0.0386 -0.1990
 7320SOL    HW133593   4.517   3.536  15.022 -0.7227 -1.9129  0.5841
 7320SOL    HW233594   4.638   3.554  14.943 -0.6185  0.1442 -0.5688
 7321SOL     OW33595   3.982   0.476   2.577 -0.4941 -0.6769 -0.4603
 7321SOL    HW133596   3.951   0.555   2.532 -1.4239  0.0816  1.5117
 7321SOL    HW233597   4.073   0.484   2.548 -0.6649  0.1766 -0.7515
 7322SOL     OW33598   0.452   0.427   4.276  0.6079 -0.0024  0.2337
 7322SOL    HW133599   0.381   0.444   4.214  0.0295 -0.3274  0.8052
 7322SOL    HW233600   0.420   0.348   4.319  0.0028 -0.3718 -0.8978
 7323SOL     OW33601   2.815   0.234  10.010 -0.4721  0.0585 -0.2935
 7323SOL    HW133602   2.841   0.282  10.089 -1.3728  0.2149 -0.0900
 7323SOL    HW233603   2.879   0.163  10.016  0.1320  0.6818  0.5754
 7324SOL     OW33604   1.310   3.206   7.406 -0.4362  0.0628  0.1041
 7324SOL    HW133605   1.283   3.209   7.498  1.1710 -1.9076  0.6424
 7324SOL    HW233606   1.275   3.290   7.376 -0.6595  0.2442  0.8723
 7325SOL     OW33607   3.323   4.151  16.112 -0.2954 -0.8678  0.2049
 7325SOL    HW133608   3.278   4.124  16.032  3.2244 -0.7490 -1.7987
 7325SOL    HW233609   3.391   4.214  16.085 -0.7285  0.5194  2.3657
 7326SOL     OW33610   3.771   2.737  17.742 -0.0559  0.1379  0.5689
 7326SOL    HW133611   3.784   2.821  17.698 -1.3953  0.1413  0.1840
 7326SOL    HW233612   3.809   2.676  17.679  0.3310  0.6114  0.3469
 7327SOL     OW33613   3.319   4.524   4.201  0.3676  0.6902  0.8101
 7327SOL    HW133614   3.270   4.545   4.122  2.0721  1.2167 -0.1211
 7327SOL    HW233615   3.263   4.460   4.244  1.0364  0.5838  1.5125
 7328SOL     OW33616   0.301   1.492   3.823 -0.1934  0.0288  0.1307
 7328SOL    HW133617   0.272   1.579   3.851 -0.7461  0.4145 -1.6455
 7328SOL    HW233618   0.362   1.511   3.751 -2.5918  0.8078 -1.7144
 7329SOL     OW33619   2.480   1.767  16.669 -0.1167  0.5814  0.2967
 7329SOL    HW133620   2.444   1.699  16.726  1.8947 -0.7409  0.0022
 7329SOL    HW233621   2.512   1.727  16.588  0.4748 -0.8320  1.2310
 7330SOL     OW33622   0.520   1.833   1.861  0.3946  0.1374  0.4505
 7330SOL    HW133623   0.578   1.850   1.787  0.3065  0.7579  0.5228
 7330SOL    HW233624   0.535   1.740   1.876 -1.3529 -0.1846  0.2280
 7331SOL     OW33625   1.159   1.136  10.114 -0.0747 -0.1775 -0.2880
 7331SOL    HW133626   1.150   1.159  10.022  2.0636  3.9779  0.5535
 7331SOL    HW233627   1.101   1.199  10.156 -3.5821 -2.2417 -2.0321
 7332SOL     OW33628   2.407   3.335  17.579  0.0474 -0.2732 -0.0662
 7332SOL    HW133629   2.324   3.292  17.559 -0.1700  0.7524 -1.3371
 7332SOL    HW233630   2.381   3.410  17.631  2.2419  0.6076 -0.2287
 7333SOL     OW33631   0.326   3.953   7.676 -0.5957 -0.2192  0.0267
 7333SOL    HW133632   0.407   3.920   7.716 -0.2327  0.3751 -0.2172
 7333SOL    HW233633   0.333   4.042   7.711 -0.1636 -0.6950  1.1818
 7334SOL     OW33634   2.178   2.944   4.268 -0.1915  0.6006  0.4347
 7334SOL    HW133635   2.254   2.996   4.240 -1.1431  0.2000 -2.8392
 7334SOL    HW233636   2.176   2.970   4.360  0.5505  0.3831  0.5075
 7335SOL     OW33637   4.146   2.916   8.232 -0.1084  0.0663 -0.0270
 7335SOL    HW133638   4.124   2.950   8.145  0.5140 -1.9743 -0.9731
 7335SOL    HW233639   4.091   2.966   8.292 -0.0979  0.7751 -0.6002
 7336SOL     OW33640   4.548   2.618   3.508  0.5315  0.0182  0.2388
 7336SOL    HW133641   4.571   2.558   3.436  0.0265  0.5498 -0.3675
 7336SOL    HW233642   4.528   2.696   3.456  1.4487  0.7233  0.9537
 7337SOL     OW33643   2.184   3.279   4.384  0.0777 -0.0731  0.0035
 7337SOL    HW133644   2.092   3.301   4.399 -0.5253 -1.7102 -1.3658
 7337SOL    HW233645   2.189   3.184   4.384 -0.0370 -0.0799  0.7376
 7338SOL     OW33646   3.676   2.773   7.573  0.0276  0.6281 -0.2774
 7338SOL    HW133647   3.606   2.760   7.509  1.0056  2.4006 -1.7060
 7338SOL    HW233648   3.641   2.750   7.659  1.8792  1.0202  0.5758
 7339SOL     OW33649   0.263   2.027   2.144  0.1483 -0.3844 -0.3616
 7339SOL    HW133650   0.332   2.092   2.155 -1.4539  1.2983 -0.3426
 7339SOL    HW233651   0.316   1.948   2.137 -0.0502 -0.6559  1.1010
 7340SOL     OW33652   4.533   2.141  16.964  0.5208 -0.3472 -0.3970
 7340SOL    HW133653   4.598   2.195  17.008  1.5176 -0.9221 -1.1814
 7340SOL    HW233654   4.553   2.157  16.872  0.2394 -0.4705 -0.4808
 7341SOL     OW33655   4.235   2.390   4.154 -0.0434 -0.2738  0.0765
 7341SOL    HW133656   4.309   2.423   4.205  0.0307  1.0509 -0.8934
 7341SOL    HW233657   4.282   2.346   4.083 -1.4103 -3.1148  0.9352
 7342SOL     OW33658   4.726   1.407   2.763  0.0522  0.3411 -0.2345
 7342SOL    HW133659   0.073   1.438   2.797  0.6939 -0.3554 -1.1917
 7342SOL    HW233660   0.011   1.315   2.746  1.4385  0.6723 -0.1721
 7343SOL     OW33661   1.796   2.916   4.728  0.1213  0.0902  0.3288
 7343SOL    HW133662   1.750   2.899   4.811 -0.3088  1.5364  0.3971
 7343SOL    HW233663   1.723   2.893   4.671 -0.4215 -0.1239  1.1029
 7344SOL     OW33664   1.146   3.319  15.637  0.1808  0.1968 -0.6047
 7344SOL    HW133665   1.228   3.321  15.686 -0.4023 -0.8377  0.3969
 7344SOL    HW233666   1.093   3.382  15.685 -0.1430 -1.0159  0.5965
 7345SOL     OW33667   0.468   0.671   7.692 -0.0915 -0.0987  0.4700
 7345SOL    HW133668   0.388   0.682   7.743 -0.5233  1.0913 -0.4615
 7345SOL    HW233669   0.515   0.752   7.714 -0.2990  0.6321 -1.7870
 7346SOL     OW33670   3.707   2.927   8.620  0.1117  0.2260  0.1256
 7346SOL    HW133671   3.655   2.984   8.563 -0.7600 -0.5188  0.1732
 7346SOL    HW233672   3.798   2.957   8.621  0.7833 -1.8487  1.5470
 7347SOL     OW33673   4.543   1.924   7.443 -0.2933 -0.4841  0.5837
 7347SOL    HW133674   4.562   1.833   7.465  3.6614  0.4195  0.7883
 7347SOL    HW233675   4.540   1.973   7.525 -0.5295  0.5772 -0.0549
 7348SOL     OW33676   3.085   2.774  11.845  0.6572  0.3584 -0.2180
 7348SOL    HW133677   2.991   2.756  11.838  0.7394 -0.4008  0.6253
 7348SOL    HW233678   3.104   2.723  11.924 -0.0435  0.0830 -0.2233
 7349SOL     OW33679   2.247   4.001  15.963  0.1544 -0.0430  0.0373
 7349SOL    HW133680   2.288   4.059  15.899  2.1941 -1.7855 -0.2438
 7349SOL    HW233681   2.310   3.995  16.035 -0.1310 -0.0248  0.2867
 7350SOL     OW33682   1.624   2.774   3.002  0.1865 -0.1207  0.0412
 7350SOL    HW133683   1.585   2.857   2.973 -0.9946 -0.9822 -0.8108
 7350SOL    HW233684   1.624   2.795   3.096 -0.4692  1.1248 -0.2386
 7351SOL     OW33685   2.952   2.141   8.291  0.3680  0.1380  0.5478
 7351SOL    HW133686   3.008   2.110   8.219 -0.1636  0.6570 -0.0914
 7351SOL    HW233687   2.895   2.064   8.297  0.3197 -0.0181 -1.7669
 7352SOL     OW33688   2.733   2.096  15.902  0.5292  0.3704 -0.5653
 7352SOL    HW133689   2.739   2.012  15.856  1.3992  0.3329 -0.3856
 7352SOL    HW233690   2.740   2.155  15.827  0.2499 -1.2104 -1.8509
 7353SOL     OW33691   1.169   3.821   9.941  0.6782  0.0450 -0.7389
 7353SOL    HW133692   1.240   3.757   9.927 -0.1907 -1.3800  1.4252
 7353SOL    HW233693   1.206   3.909   9.938  0.5561  0.1153  0.0384
 7354SOL     OW33694   4.094   1.421   5.666 -0.9524 -0.5348  0.0961
 7354SOL    HW133695   4.071   1.355   5.600  2.0324 -0.8727 -0.6476
 7354SOL    HW233696   4.060   1.500   5.625  0.8126 -0.5599 -1.4333
 7355SOL     OW33697   4.025   1.917   9.120 -0.3545  0.4035 -0.5668
 7355SOL    HW133698   3.955   1.865   9.159 -0.7406  0.5000 -1.1302
 7355SOL    HW233699   4.096   1.881   9.174 -0.0660 -1.7866 -2.4084
 7356SOL     OW33700   4.291   4.597  17.354  0.4924  0.4712 -0.3552
 7356SOL    HW133701   4.330   4.683  17.373 -0.1332  0.4011  1.2743
 7356SOL    HW233702   4.204   4.631  17.336  0.1961  0.8692  1.8410
 7357SOL     OW33703   0.016   4.405   0.011 -0.0017  0.3431 -0.1246
 7357SOL    HW133704   4.724   4.451  17.681 -0.2126  0.8820  0.2687
 7357SOL    HW233705   0.111   4.404  17.747  0.1711 -1.4296  1.4016
 7358SOL     OW33706   1.259   1.003   3.130  0.6051  0.3945 -0.2373
 7358SOL    HW133707   1.187   0.948   3.161 -0.9937  1.6941 -1.7047
 7358SOL    HW233708   1.305   1.015   3.214 -1.4700 -2.1189  1.2587
 7359SOL     OW33709   0.506   2.086  11.699  0.2510  0.1832 -0.0108
 7359SOL    HW133710   0.563   2.041  11.761 -0.7933  1.0960  1.6151
 7359SOL    HW233711   0.484   2.013  11.641 -2.6394  0.1739  1.1070
 7360SOL     OW33712   4.597   3.769   2.386  0.3687  0.0951 -0.2328
 7360SOL    HW133713   4.572   3.821   2.462  4.6412  1.6776  0.1321
 7360SOL    HW233714   4.687   3.800   2.370  1.2316 -1.9856  0.5829
 7361SOL     OW33715   1.288   2.931   5.408 -0.4762  0.6034 -0.2265
 7361SOL    HW133716   1.251   2.999   5.352 -2.0180 -1.0108 -1.1739
 7361SOL    HW233717   1.383   2.937   5.414 -0.5290  0.3950  0.8899
 7362SOL     OW33718   3.710   3.283   6.587 -0.4332  0.2873  0.6361
 7362SOL    HW133719   3.646   3.345   6.623 -2.5955 -0.3246 -2.0981
 7362SOL    HW233720   3.761   3.340   6.529 -1.3878  1.0577  0.5483
 7363SOL     OW33721   2.281   4.681   8.862 -0.0762 -0.4862  0.7606
 7363SOL    HW133722   2.265   4.620   8.933 -0.3367 -0.6700  0.5411
 7363SOL    HW233723   2.258   4.622   8.790  1.0021 -2.5564  2.1131
 7364SOL     OW33724   0.404   1.780  17.518 -0.2131 -0.2417 -0.3422
 7364SOL    HW133725   0.487   1.804  17.560 -1.1953  0.2281  1.2902
 7364SOL    HW233726   0.429   1.791  17.426 -0.1559 -0.8255 -0.3986
 7365SOL     OW33727   3.309   2.682   7.772 -0.4567  0.3455  0.1374
 7365SOL    HW133728   3.215   2.670   7.787 -0.2734  0.8235  1.6722
 7365SOL    HW233729   3.325   2.760   7.719  0.0113  0.2129  0.0793
 7366SOL     OW33730   4.613   3.952  15.823 -0.1271 -0.4420 -0.3427
 7366SOL    HW133731   4.595   3.897  15.746 -0.1235 -1.0664  0.1044
 7366SOL    HW233732   4.530   4.001  15.821  0.4295  0.5710  1.0560
 7367SOL     OW33733   4.226   2.794  16.289  0.5756  0.3185 -0.0915
 7367SOL    HW133734   4.182   2.877  16.271 -0.2668 -0.1395 -0.1483
 7367SOL    HW233735   4.291   2.831  16.349  0.6908 -0.6150  0.3560
 7368SOL     OW33736   4.391   3.271   7.485  0.0809 -0.1434 -0.1652
 7368SOL    HW133737   4.301   3.248   7.507 -0.5334  1.1645 -1.3552
 7368SOL    HW233738   4.432   3.277   7.571  2.1838 -1.2611 -1.0813
 7369SOL     OW33739   1.678   4.416   5.020  0.6260 -0.1048  0.0773
 7369SOL    HW133740   1.737   4.403   5.094  0.9038  1.8936  0.2028
 7369SOL    HW233741   1.677   4.511   5.013 -4.2776 -0.3352 -2.4395
 7370SOL     OW33742   4.413   0.949   9.914 -0.3078  0.6167  0.4020
 7370SOL    HW133743   4.329   0.976   9.878 -0.2092  0.6527  0.2009
 7370SOL    HW233744   4.468   0.984   9.844 -0.0158 -0.1688  0.2402
 7371SOL     OW33745   2.324   3.433  11.896  0.1086  0.4621  0.2106
 7371SOL    HW133746   2.417   3.446  11.877  0.7116 -2.3825  1.1536
 7371SOL    HW233747   2.290   3.522  11.895  1.1118  0.8542  1.0591
 7372SOL     OW33748   4.199   0.741   5.867 -0.1619 -0.0879 -0.0602
 7372SOL    HW133749   4.154   0.821   5.893 -1.0490 -0.5569 -0.1785
 7372SOL    HW233750   4.120   0.699   5.833  0.3490 -2.2039  1.3141
 7373SOL     OW33751   1.299   3.726   5.066  0.1725 -0.7042  0.1236
 7373SOL    HW133752   1.306   3.656   5.001  0.1415  1.2581 -1.9835
 7373SOL    HW233753   1.222   3.776   5.037  0.1582 -1.2228 -0.7458
 7374SOL     OW33754   3.042   2.343   9.383 -0.0932 -0.0269 -0.3363
 7374SOL    HW133755   3.074   2.276   9.322 -0.5136 -0.2260 -0.3409
 7374SOL    HW233756   3.016   2.412   9.323  1.0362  0.3074 -0.4466
 7375SOL     OW33757   4.149   2.303   8.552 -0.1960 -0.8276 -0.1676
 7375SOL    HW133758   4.092   2.351   8.491  0.2658  0.3178  0.3216
 7375SOL    HW233759   4.231   2.350   8.545 -1.1495  0.5174 -2.2328
 7376SOL     OW33760   2.697   2.789  10.154 -0.1472 -0.2641  0.1363
 7376SOL    HW133761   2.777   2.797  10.206  0.8132 -1.2473 -1.2050
 7376SOL    HW233762   2.633   2.747  10.212  1.1528 -2.5243 -0.0390
 7377SOL     OW33763   0.995   2.773  12.789 -0.1418  0.3214 -0.1783
 7377SOL    HW133764   1.009   2.724  12.708 -2.7957  1.8867 -1.5741
 7377SOL    HW233765   0.901   2.759  12.797 -0.4137  2.2323  0.0837
 7378SOL     OW33766   1.685   0.923   2.685 -0.1853 -0.4081  0.2960
 7378SOL    HW133767   1.723   0.956   2.766  2.6980  1.5771 -1.8772
 7378SOL    HW233768   1.593   0.948   2.689  0.5395  1.8624  2.6353
 7379SOL     OW33769   4.072   2.489   5.299  0.2885  0.4381  0.1285
 7379SOL    HW133770   4.142   2.477   5.363 -1.5159  1.5427  2.3294
 7379SOL    HW233771   4.043   2.398   5.287 -1.2708  0.8006  1.1493
 7380SOL     OW33772   0.094   0.648   3.969  0.4380 -0.0151 -0.2629
 7380SOL    HW133773   0.065   0.727   3.925 -1.4596  1.9549  4.4577
 7380SOL    HW233774   0.059   0.586   3.905  0.6662 -0.1871 -0.2251
 7381SOL     OW33775   0.478   1.832   4.488 -0.3470  0.3988 -0.1028
 7381SOL    HW133776   0.444   1.895   4.550  3.4800  2.4119 -0.0497
 7381SOL    HW233777   0.435   1.860   4.407 -1.1353  0.4181  0.3369
 7382SOL     OW33778   2.059   3.056   9.497 -0.0572  0.5943 -0.0563
 7382SOL    HW133779   2.078   2.982   9.554  1.8389  1.7175  0.7887
 7382SOL    HW233780   2.113   3.039   9.420 -0.5563  1.9384 -0.6915
 7383SOL     OW33781   1.268   2.162   4.108  0.6028  0.7364 -0.2244
 7383SOL    HW133782   1.214   2.241   4.108 -0.1931  0.1986 -2.7566
 7383SOL    HW233783   1.257   2.128   4.197  2.0709 -1.1599 -0.7623
 7384SOL     OW33784   2.234   4.372   5.013  0.6172 -0.1055 -0.5069
 7384SOL    HW133785   2.224   4.365   5.108 -0.6983  0.0057 -0.6305
 7384SOL    HW233786   2.178   4.449   5.004  1.3402  0.4362 -0.3634
 7385SOL     OW33787   0.612   2.773   1.475  0.8717  0.2909  0.1264
 7385SOL    HW133788   0.559   2.753   1.398  0.9295  0.5951  0.0070
 7385SOL    HW233789   0.586   2.863   1.494 -3.3624 -0.9566  0.2329
 7386SOL     OW33790   3.532   2.381   2.822  0.0862 -0.4839  0.3084
 7386SOL    HW133791   3.483   2.375   2.904  1.8533  2.2269  1.5791
 7386SOL    HW233792   3.612   2.428   2.847  1.7184 -1.8430 -2.2931
 7387SOL     OW33793   0.896   2.771   8.499  0.1947  0.4281  0.3615
 7387SOL    HW133794   0.846   2.847   8.467 -1.3822 -1.0406 -0.6456
 7387SOL    HW233795   0.979   2.818   8.492  0.1727 -0.0440 -2.9586
 7388SOL     OW33796   0.903   2.849   3.454 -0.4047 -0.1322  0.0131
 7388SOL    HW133797   0.973   2.823   3.394  0.1079 -0.5857  0.7986
 7388SOL    HW233798   0.842   2.895   3.397 -0.9106 -2.9870 -1.7369
 7389SOL     OW33799   4.333   2.552   1.523  0.1915  0.7840 -0.7994
 7389SOL    HW133800   4.338   2.462   1.555  0.2794  0.3745 -1.9704
 7389SOL    HW233801   4.335   2.540   1.428 -0.2745 -1.3757 -0.5466
 7390SOL     OW33802   4.512   2.746   3.824  0.1448  0.1255  0.6300
 7390SOL    HW133803   4.453   2.754   3.898 -1.3614  0.0228 -0.5544
 7390SOL    HW233804   4.578   2.686   3.860  0.9802  0.1535 -0.8397
 7391SOL     OW33805   0.741   0.504   9.104  0.4011  0.0633 -0.1600
 7391SOL    HW133806   0.825   0.537   9.070  0.7801 -1.9345 -1.1331
 7391SOL    HW233807   0.697   0.484   9.021 -0.9150 -1.1803  0.8516
 7392SOL     OW33808   2.609   2.170   2.048  0.4373  0.6172 -0.3919
 7392SOL    HW133809   2.682   2.192   2.105  1.0281  0.3018 -1.0174
 7392SOL    HW233810   2.660   2.143   1.972 -1.2472  0.4220 -1.4617
 7393SOL     OW33811   1.993   2.724  15.112  0.3941 -0.0297  0.1150
 7393SOL    HW133812   2.032   2.725  15.199 -1.7795 -1.0032  1.0941
 7393SOL    HW233813   1.951   2.809  15.105  0.5152  0.1128  1.1428
 7394SOL     OW33814   2.881   4.529   4.865  0.2138  0.5010  0.3981
 7394SOL    HW133815   2.976   4.519   4.869  0.4851  2.9961  0.3425
 7394SOL    HW233816   2.855   4.534   4.957 -1.1807 -1.1990  0.0969
 7395SOL     OW33817   2.405   3.146  17.311  0.5341  0.2949 -0.6333
 7395SOL    HW133818   2.322   3.163  17.356 -0.2602  1.1266 -2.4202
 7395SOL    HW233819   2.443   3.233  17.296  0.0842  0.6419  0.2148
 7396SOL     OW33820   3.927   3.778   7.435 -0.3550 -0.5743  0.0254
 7396SOL    HW133821   3.853   3.827   7.471 -1.6784 -2.6662  0.1297
 7396SOL    HW233822   3.885   3.747   7.354  1.3448  1.3517 -1.5900
 7397SOL     OW33823   2.646   1.580  13.502 -0.0536 -0.0967  0.1762
 7397SOL    HW133824   2.737   1.560  13.526  0.1736 -0.9447 -1.3685
 7397SOL    HW233825   2.657   1.608  13.411  0.4187  0.3250  0.3674
 7398SOL     OW33826   4.723   1.998   4.616  0.1462 -0.1839 -0.0598
 7398SOL    HW133827   0.012   1.983   4.707 -1.4094 -1.2969  0.1972
 7398SOL    HW233828   4.669   1.920   4.604 -0.0047 -0.5154  2.7926
 7399SOL     OW33829   2.404   1.123  15.083 -0.0770 -0.3409 -0.1608
 7399SOL    HW133830   2.478   1.142  15.140  0.0452 -3.6371  0.7643
 7399SOL    HW233831   2.332   1.098  15.141  0.8301 -0.4504  0.9030
 7400SOL     OW33832   0.267   4.545  12.129 -0.0399  0.5382 -0.4576
 7400SOL    HW133833   0.240   4.554  12.220 -0.7131 -0.0244 -0.5988
 7400SOL    HW233834   0.361   4.531  12.136 -0.2075 -0.6202 -0.5058
 7401SOL     OW33835   1.711   0.913   9.435  0.2107  0.1713 -0.4028
 7401SOL    HW133836   1.764   0.941   9.510  0.0888  0.1078 -0.2931
 7401SOL    HW233837   1.777   0.868   9.383  1.0478  0.7207  0.1615
 7402SOL     OW33838   4.534   0.670   9.788 -0.7334  0.1226  0.2705
 7402SOL    HW133839   4.599   0.738   9.808 -0.5118 -0.8722  2.9236
 7402SOL    HW233840   4.471   0.692   9.857 -1.3737 -0.6933 -0.0479
 7403SOL     OW33841   0.442   2.454   2.633  0.3198 -0.7364 -0.3139
 7403SOL    HW133842   0.501   2.379   2.646 -0.7512 -1.2793  1.4956
 7403SOL    HW233843   0.507   2.515   2.598  2.0064 -2.8475 -0.8607
 7404SOL     OW33844   2.066   2.472   7.139  0.6010 -0.3874 -0.0778
 7404SOL    HW133845   2.105   2.461   7.226  0.9497 -0.7328 -0.2781
 7404SOL    HW233846   1.993   2.411   7.148  1.1860 -0.9389  0.9318
 7405SOL     OW33847   0.028   3.591   8.836  0.1328 -0.0995 -0.1910
 7405SOL    HW133848   0.099   3.532   8.811  1.2518  1.4690 -0.6949
 7405SOL    HW233849   4.704   3.538   8.888 -0.7949 -0.5594 -1.7652
 7406SOL     OW33850   0.208   2.077   8.652  0.2495  0.3797 -0.4149
 7406SOL    HW133851   0.144   2.024   8.699 -0.7236  1.5214 -0.4612
 7406SOL    HW233852   0.284   2.060   8.708  1.7661 -1.2315 -2.9515
 7407SOL     OW33853   4.691   0.775   1.760 -0.4624 -0.8447 -0.8688
 7407SOL    HW133854   4.719   0.697   1.807 -2.7724 -0.8007  0.5410
 7407SOL    HW233855   0.013   0.839   1.798  0.3206 -1.1241 -1.6104
 7408SOL     OW33856   2.914   1.085   5.529  0.1811  0.6184 -0.8158
 7408SOL    HW133857   2.968   1.091   5.607 -2.0505  1.8858  0.6328
 7408SOL    HW233858   2.903   1.177   5.505  0.4410  0.8978  0.1325
 7409SOL     OW33859   1.402   0.468  15.514 -0.1451  0.2375 -0.2173
 7409SOL    HW133860   1.453   0.474  15.594  0.4897 -0.4947 -0.5725
 7409SOL    HW233861   1.403   0.563  15.501  2.5379 -0.0510 -1.9922
 7410SOL     OW33862   4.128   1.887   5.833  0.3097  0.1186  0.1728
 7410SOL    HW133863   4.114   1.967   5.885  2.2903 -1.1740  2.6685
 7410SOL    HW233864   4.123   1.923   5.744  2.3393 -2.0306 -0.8083
 7411SOL     OW33865   4.578   1.076  11.886  1.0291  0.2869 -0.1026
 7411SOL    HW133866   4.657   1.047  11.930  1.2358  0.5092 -0.3216
 7411SOL    HW233867   4.505   1.026  11.922  0.6546  0.4054 -0.6926
 7412SOL     OW33868   0.385   1.836   2.581 -0.3508  0.4095 -0.2584
 7412SOL    HW133869   0.409   1.904   2.644 -0.8342 -0.4413  0.8508
 7412SOL    HW233870   0.467   1.842   2.532  0.1844 -1.1314  0.4400
 7413SOL     OW33871   3.077   0.894   9.536  0.6205 -0.5267  0.3012
 7413SOL    HW133872   3.144   0.891   9.469  3.0354 -0.7902  2.7282
 7413SOL    HW233873   3.121   0.865   9.616  0.6568  0.5232  0.6733
 7414SOL     OW33874   2.909   0.515   6.864  0.2104  0.1525 -0.0076
 7414SOL    HW133875   2.963   0.589   6.893 -0.2997 -0.3538  2.1654
 7414SOL    HW233876   2.971   0.447   6.837 -0.8838 -0.7168 -0.3335
 7415SOL     OW33877   0.137   2.704   3.517 -0.4418 -0.2962  0.3945
 7415SOL    HW133878   0.129   2.626   3.462 -1.7775  0.8583 -1.0272
 7415SOL    HW233879   0.076   2.682   3.588  1.1291 -2.4846  1.0801
 7416SOL     OW33880   2.134   0.488   8.901 -0.1900  0.3663 -0.0938
 7416SOL    HW133881   2.063   0.513   8.841 -0.3929 -1.7108 -0.7254
 7416SOL    HW233882   2.200   0.459   8.838  0.0185 -1.0656  0.7832
 7417SOL     OW33883   4.475   3.133  12.655  0.0243 -0.4690 -0.1505
 7417SOL    HW133884   4.467   3.133  12.559  0.8970  1.8054 -0.2230
 7417SOL    HW233885   4.508   3.045  12.672  0.3322  0.0928  2.1750
 7418SOL     OW33886   2.141   3.584   6.303  0.2625 -0.8229  0.0849
 7418SOL    HW133887   2.222   3.601   6.351 -0.0019  1.6123 -0.3718
 7418SOL    HW233888   2.106   3.509   6.352 -0.9578  0.0414  0.5502
 7419SOL     OW33889   0.759   2.216  13.815  0.3865 -0.4650  0.3020
 7419SOL    HW133890   0.708   2.155  13.869 -2.6318  2.6170  0.9047
 7419SOL    HW233891   0.710   2.294  13.839 -1.4427 -2.2248  2.3979
 7420SOL     OW33892   4.071   3.563  13.626 -0.6025  0.2198  0.2461
 7420SOL    HW133893   4.112   3.635  13.674 -0.3942  0.3974 -0.1958
 7420SOL    HW233894   4.020   3.521  13.696 -0.4097 -2.1798 -1.0648
 7421SOL     OW33895   2.125   4.448   6.294 -0.0254 -0.0006 -0.3403
 7421SOL    HW133896   2.174   4.370   6.319  2.0163  1.2922 -0.3591
 7421SOL    HW233897   2.068   4.409   6.227  0.2499 -1.1019  0.0817
 7422SOL     OW33898   3.837   0.315   3.823  0.0444 -0.5493  0.1137
 7422SOL    HW133899   3.788   0.336   3.743  0.5656 -0.1749 -0.1073
 7422SOL    HW233900   3.768   0.262   3.864 -0.8026  1.0763  0.8029
 7423SOL     OW33901   1.703   3.262   6.601  0.3378  0.1836 -0.4312
 7423SOL    HW133902   1.763   3.255   6.675  0.1679  1.3251 -0.1975
 7423SOL    HW233903   1.757   3.228   6.529  0.5623  0.0990 -0.2227
 7424SOL     OW33904   3.461   0.439   7.812  0.0271  0.4522 -0.4127
 7424SOL    HW133905   3.548   0.466   7.783  0.6976  0.3396  1.5166
 7424SOL    HW233906   3.414   0.523   7.815  0.5444  0.6756  1.5006
 7425SOL     OW33907   0.338   4.335   6.660  0.5986  0.1675  0.2495
 7425SOL    HW133908   0.428   4.359   6.680  0.5139 -0.1395  1.0106
 7425SOL    HW233909   0.353   4.283   6.580  1.5896  1.9881 -0.7524
 7426SOL     OW33910   0.361   2.447   5.286  0.4595 -0.1601 -0.6970
 7426SOL    HW133911   0.450   2.465   5.318  0.1952  0.8366 -0.5197
 7426SOL    HW233912   0.397   2.419   5.201 -0.5780 -1.6269 -0.6502
 7427SOL     OW33913   0.379   3.381   3.907  0.0722 -0.2946 -0.2514
 7427SOL    HW133914   0.297   3.332   3.920 -1.0194  1.3322 -0.9042
 7427SOL    HW233915   0.416   3.382   3.995  1.5387  2.1225 -0.9144
 7428SOL     OW33916   3.420   1.062   9.496 -0.4001  0.1188 -0.7512
 7428SOL    HW133917   3.362   1.013   9.554  2.4052 -0.4390  1.5554
 7428SOL    HW233918   3.354   1.096   9.435  1.4763  2.0561 -1.6743
 7429SOL     OW33919   4.397   0.190   6.801  0.3393 -0.0862  0.3089
 7429SOL    HW133920   4.395   0.101   6.766  1.7934 -0.7428  1.8582
 7429SOL    HW233921   4.401   0.165   6.893  2.7768  1.5306  0.6493
 7430SOL     OW33922   2.254   2.270   5.915  0.1893 -0.0672  0.1769
 7430SOL    HW133923   2.185   2.336   5.918 -1.2261 -1.6565  2.6177
 7430SOL    HW233924   2.211   2.207   5.858  1.0757 -1.7637  1.3603
 7431SOL     OW33925   4.176   2.809   6.821 -0.3205 -0.0592 -0.8954
 7431SOL    HW133926   4.133   2.744   6.765  1.4050 -1.0650 -1.0433
 7431SOL    HW233927   4.101   2.860   6.854  1.7079  2.6074 -0.4554
 7432SOL     OW33928   4.026   3.122   3.807  0.0810  1.0389 -0.8441
 7432SOL    HW133929   4.116   3.095   3.788  0.2858 -0.3992  2.2216
 7432SOL    HW233930   3.975   3.078   3.738 -0.3939  0.7598 -0.3114
 7433SOL     OW33931   0.636   4.261   4.893 -0.4612  0.1534 -0.3715
 7433SOL    HW133932   0.547   4.287   4.872 -0.3647  1.0537  0.3402
 7433SOL    HW233933   0.639   4.177   4.848  0.8417  0.7828 -1.4648
 7434SOL     OW33934   4.477   3.259  14.993 -0.2328  0.2363  0.1302
 7434SOL    HW133935   4.555   3.306  15.022 -0.3586 -0.0717  0.9628
 7434SOL    HW233936   4.458   3.217  15.077 -2.0151 -1.3323 -1.0592
 7435SOL     OW33937   3.572   2.240   2.462 -0.1994  0.3968 -0.4675
 7435SOL    HW133938   3.590   2.333   2.451 -0.8795  0.3647 -1.8838
 7435SOL    HW233939   3.481   2.234   2.489  0.5919 -0.9394  1.9118
 7436SOL     OW33940   1.344   0.650   6.731  0.1352  0.3489  0.3285
 7436SOL    HW133941   1.260   0.651   6.684 -0.6745  1.6801  1.7599
 7436SOL    HW233942   1.386   0.588   6.673 -0.8194  2.7181 -2.9030
 7437SOL     OW33943   0.110   0.924  15.651 -0.5665 -0.6024 -0.1973
 7437SOL    HW133944   0.097   0.991  15.584 -0.1403 -1.3232 -1.0060
 7437SOL    HW233945   0.130   0.983  15.724  0.7620 -1.6367  0.2843
 7438SOL     OW33946   4.336   4.244   5.628 -0.0402 -0.6865  0.3589
 7438SOL    HW133947   4.317   4.150   5.627  2.1019 -1.1214 -1.3720
 7438SOL    HW233948   4.287   4.275   5.552 -0.3808 -1.2319  0.3537
 7439SOL     OW33949   2.005   0.741   7.710 -0.3277  0.2978 -0.6860
 7439SOL    HW133950   2.005   0.707   7.620  2.7917  2.1121 -1.3363
 7439SOL    HW233951   2.081   0.688   7.734  0.7673  2.8885  1.4382
 7440SOL     OW33952   3.770   2.016   8.113  0.4409  0.0963  0.3490
 7440SOL    HW133953   3.859   2.048   8.104  0.3980  0.6709  1.9661
 7440SOL    HW233954   3.746   2.038   8.204  1.3503  2.3057  0.0588
 7441SOL     OW33955   1.572   2.505   5.748  0.1020  0.9452  0.7847
 7441SOL    HW133956   1.596   2.567   5.817  1.6246  1.4019 -0.1668
 7441SOL    HW233957   1.563   2.559   5.669  0.8149 -0.0119  0.0555
 7442SOL     OW33958   2.014   1.987  15.758  0.0050 -0.6363 -0.3769
 7442SOL    HW133959   1.978   2.018  15.675  0.5924  0.2286 -0.3183
 7442SOL    HW233960   1.965   1.907  15.776  1.1947 -1.5067 -1.0666
 7443SOL     OW33961   2.408   4.044  16.172 -0.8496  0.1381  0.2118
 7443SOL    HW133962   2.502   4.030  16.182 -0.4928  0.7271 -2.2297
 7443SOL    HW233963   2.388   4.120  16.226  0.6034  1.4583 -1.1161
 7444SOL     OW33964   3.789   2.822  16.527  0.1282  0.1640 -0.6623
 7444SOL    HW133965   3.801   2.894  16.464 -1.7510  0.1953 -1.0073
 7444SOL    HW233966   3.695   2.834  16.544  0.3104 -0.9634  1.1559
 7445SOL     OW33967   0.596   2.967   9.943 -0.2758 -0.1290 -0.0362
 7445SOL    HW133968   0.646   2.940   9.866  0.4950 -0.2359  0.4967
 7445SOL    HW233969   0.565   3.049   9.905 -0.3509 -0.3554 -0.4647
 7446SOL     OW33970   4.179   2.092   1.891  0.3323  0.0045 -0.1310
 7446SOL    HW133971   4.260   2.064   1.848 -0.1664  0.1854 -1.1747
 7446SOL    HW233972   4.206   2.103   1.982 -0.5002  0.5668  0.0515
 7447SOL     OW33973   0.538   2.380  13.571 -0.3992 -0.1859 -0.0060
 7447SOL    HW133974   0.541   2.365  13.666 -3.8534 -1.2166 -0.0711
 7447SOL    HW233975   0.581   2.465  13.563  2.3727 -1.6791 -0.7325
 7448SOL     OW33976   0.172   2.477   9.252 -0.0959  0.5211 -0.6436
 7448SOL    HW133977   0.235   2.458   9.321 -1.0242  0.8109  0.2973
 7448SOL    HW233978   0.230   2.455   9.179  1.4082  0.7966  0.4760
 7449SOL     OW33979   0.757   2.916   5.863  0.1058  0.5137 -0.1935
 7449SOL    HW133980   0.731   2.944   5.951 -1.1599 -1.6663  0.1125
 7449SOL    HW233981   0.852   2.927   5.868  0.1406 -0.2119  0.7791
 7450SOL     OW33982   0.604   1.746   9.211  0.0068 -0.2826  0.2112
 7450SOL    HW133983   0.658   1.740   9.290  0.1507  0.3869  0.1572
 7450SOL    HW233984   0.527   1.788   9.249  0.2886  0.2174  0.2290
 7451SOL     OW33985   1.580   2.929   0.671 -0.5709  0.4438 -0.1403
 7451SOL    HW133986   1.549   2.938   0.581  0.2659 -2.2501 -0.7089
 7451SOL    HW233987   1.523   2.865   0.714  0.8893 -0.2973  0.6792
 7452SOL     OW33988   3.733   4.613   8.948  0.1499 -0.5854  0.1848
 7452SOL    HW133989   3.682   4.668   9.007 -1.8255 -2.3247  0.1293
 7452SOL    HW233990   3.821   4.645   8.968  0.1895 -0.4722 -0.1835
 7453SOL     OW33991   4.245   3.969   8.536  0.1522  0.1212 -0.0899
 7453SOL    HW133992   4.193   3.889   8.528  0.6363 -0.2072  0.0133
 7453SOL    HW233993   4.287   3.960   8.451 -0.3441 -1.8673 -0.1290
 7454SOL     OW33994   0.031   1.698  12.507 -0.3573  0.2871  0.0833
 7454SOL    HW133995   4.688   1.718  12.459 -0.9281  0.4407  1.1150
 7454SOL    HW233996   0.095   1.691  12.435 -0.0754 -0.6369  0.4279
 7455SOL     OW33997   3.457   1.919   4.741 -0.2308 -0.0319  0.2284
 7455SOL    HW133998   3.372   1.876   4.735 -0.4804  0.2189  2.0590
 7455SOL    HW233999   3.517   1.847   4.757 -1.4632 -1.1797 -0.3736
 7456SOL     OW34000   1.408   2.821   4.073 -0.1791  0.1152 -0.0109
 7456SOL    HW134001   1.482   2.831   4.014  0.3008 -2.0937  0.2164
 7456SOL    HW234002   1.344   2.881   4.034 -0.2475 -0.6330 -1.0369
 7457SOL     OW34003   2.230   1.816   8.924  0.2601 -0.3627  0.2491
 7457SOL    HW134004   2.183   1.814   9.008 -1.2086  1.1613 -0.5287
 7457SOL    HW234005   2.178   1.756   8.871  1.8082 -2.6138  1.2688
 7458SOL     OW34006   2.266   1.615   9.511 -0.4099  0.6789  0.0572
 7458SOL    HW134007   2.240   1.706   9.496  0.3278  0.8650 -0.0520
 7458SOL    HW234008   2.326   1.602   9.437 -1.4976  0.3539 -0.7827
 7459SOL     OW34009   0.696   0.333   1.164 -0.3899 -0.0703  0.3632
 7459SOL    HW134010   0.601   0.343   1.156 -0.1165  1.5915 -0.6130
 7459SOL    HW234011   0.703   0.248   1.208  1.2304  0.7318  1.6542
 7460SOL     OW34012   2.683   2.594  12.933  0.0470  0.2309  0.3969
 7460SOL    HW134013   2.712   2.662  12.872 -0.8324 -0.5075 -0.8597
 7460SOL    HW234014   2.748   2.530  12.905 -0.9711 -1.5674  2.1597
 7461SOL     OW34015   0.276   3.797  10.640  0.1000  0.2294  0.2359
 7461SOL    HW134016   0.351   3.811  10.583  1.3849 -1.0907  1.5912
 7461SOL    HW234017   0.322   3.822  10.720 -0.1809 -0.6205  0.6601
 7462SOL     OW34018   2.287   0.332   1.876  0.7977  0.1022 -0.0287
 7462SOL    HW134019   2.281   0.343   1.781  0.1902  2.8986  0.3166
 7462SOL    HW234020   2.313   0.240   1.877 -0.3553 -0.2350 -1.7789
 7463SOL     OW34021   2.313   3.947   4.654 -0.8675  0.7999  0.2566
 7463SOL    HW134022   2.261   3.965   4.731  1.1638  3.6222  0.9603
 7463SOL    HW234023   2.240   3.895   4.620  0.5480 -0.4594 -0.9067
 7464SOL     OW34024   3.872   2.992   9.146  0.6831  0.0574 -0.0821
 7464SOL    HW134025   3.946   3.045   9.176 -0.4320 -0.2680  3.2062
 7464SOL    HW234026   3.856   3.028   9.059  2.5022 -1.7807 -1.1880
 7465SOL     OW34027   1.383   3.906   8.619  0.0416  0.0983 -0.5688
 7465SOL    HW134028   1.427   3.857   8.550  3.3088  0.2467  1.3724
 7465SOL    HW234029   1.426   3.991   8.615 -2.6950  1.3943 -1.9274
 7466SOL     OW34030   2.749   2.484   2.106 -0.4941 -0.4404 -0.7669
 7466SOL    HW134031   2.811   2.495   2.034 -0.9821  0.4626 -1.0587
 7466SOL    HW234032   2.772   2.400   2.145  1.8178  1.9040  2.8881
 7467SOL     OW34033   1.610   1.395   7.874 -0.0215 -0.0138 -0.0329
 7467SOL    HW134034   1.567   1.478   7.855  2.7525  1.5808  0.5433
 7467SOL    HW234035   1.581   1.317   7.827  2.7465 -1.9995  1.4971
 7468SOL     OW34036   2.371   2.288  11.524 -0.1545  0.0575 -0.6403
 7468SOL    HW134037   2.320   2.207  11.533  0.9975 -0.4470  1.5440
 7468SOL    HW234038   2.433   2.273  11.596  0.2594 -1.5503 -1.3329
 7469SOL     OW34039   3.259   3.143   1.002  0.2716 -0.2775  0.7560
 7469SOL    HW134040   3.208   3.217   0.967  2.7573  0.0361 -2.1688
 7469SOL    HW234041   3.222   3.073   0.947  2.9861 -0.3600 -0.9805
 7470SOL     OW34042   0.389   3.737  14.606 -0.2323  0.4269  0.1867
 7470SOL    HW134043   0.387   3.648  14.570  1.6139  0.9301 -1.1726
 7470SOL    HW234044   0.485   3.742  14.608 -0.2301 -0.3060  1.7675
 7471SOL     OW34045   2.203   0.193   9.042 -0.2850 -0.2587  0.5221
 7471SOL    HW134046   2.180   0.137   8.968 -3.2532 -0.2242  1.4290
 7471SOL    HW234047   2.291   0.210   9.008 -1.6192  1.1523 -2.2435
 7472SOL     OW34048   1.395   2.737   6.771  0.2252 -0.3096 -0.1895
 7472SOL    HW134049   1.403   2.793   6.848  0.1735  0.3485 -0.6562
 7472SOL    HW234050   1.480   2.694   6.759 -0.2090 -0.4867 -2.6094
 7473SOL     OW34051   0.172   2.775  10.352 -0.6151 -0.7260  0.2372
 7473SOL    HW134052   0.195   2.805  10.264  0.2080 -0.9865  0.3630
 7473SOL    HW234053   0.255   2.742  10.384  0.9652  0.8582 -2.1620
 7474SOL     OW34054   3.453   1.280  15.537  0.3621 -0.3059 -0.2757
 7474SOL    HW134055   3.541   1.316  15.538  0.5514 -0.8950  3.7117
 7474SOL    HW234056   3.424   1.312  15.622  0.2124  1.2486 -0.9042
 7475SOL     OW34057   0.324   2.484   1.903  0.5706 -0.2171  0.1218
 7475SOL    HW134058   0.324   2.529   1.987 -1.0762  0.7209 -0.3785
 7475SOL    HW234059   0.286   2.545   1.840 -0.2755  0.2262  1.0702
 7476SOL     OW34060   4.428   2.281   5.537  0.3742 -0.5517 -0.1431
 7476SOL    HW134061   4.427   2.262   5.443 -1.0256 -0.0023 -0.2406
 7476SOL    HW234062   4.384   2.366   5.540  3.2145  0.8743  1.4812
 7477SOL     OW34063   2.370   4.482  15.586  0.4544  0.1839  0.4599
 7477SOL    HW134064   2.344   4.538  15.513  0.6275 -2.6423 -1.7770
 7477SOL    HW234065   2.459   4.468  15.556  0.5044 -0.2750  0.8078
 7478SOL     OW34066   0.687   4.132   6.798  0.6543 -0.3063  0.3014
 7478SOL    HW134067   0.694   4.227   6.808 -0.1678 -0.0393 -1.7318
 7478SOL    HW234068   0.601   4.108   6.833 -0.1053 -0.0084 -1.3675
 7479SOL     OW34069   0.474   4.701   0.992  0.2664 -0.1183 -0.2061
 7479SOL    HW134070   0.522   4.625   0.959 -1.5863 -0.2747 -2.5337
 7479SOL    HW234071   0.540   0.029   1.012 -1.1815  0.3408  3.0872
 7480SOL     OW34072   0.908   1.765   3.528 -0.0899  0.2488 -0.5018
 7480SOL    HW134073   0.931   1.795   3.440 -2.0052  2.5617 -0.2142
 7480SOL    HW234074   0.972   1.814   3.580 -1.5760  0.4700  1.0919
 7481SOL     OW34075   0.084   1.016   1.137  0.0078  0.3160 -0.0102
 7481SOL    HW134076   0.137   0.980   1.208  0.5227  1.7452  0.3447
 7481SOL    HW234077   0.015   1.058   1.188 -1.8392 -1.7800 -0.7813
 7482SOL     OW34078   4.489   3.305   7.953  0.0712  0.7718  0.0652
 7482SOL    HW134079   4.444   3.355   8.021 -2.6954  0.2909 -1.3923
 7482SOL    HW234080   4.562   3.265   8.001 -0.1579  1.4790  0.9987
 7483SOL     OW34081   2.651   2.751  12.700  0.3019 -0.0792  0.2615
 7483SOL    HW134082   2.697   2.672  12.669  0.0406 -0.0846 -0.1126
 7483SOL    HW234083   2.570   2.730  12.654  1.3250 -2.0131 -0.6851
 7484SOL     OW34084   3.624   3.083   7.803 -0.1755  0.3189  0.3843
 7484SOL    HW134085   3.585   3.094   7.890  1.4049  2.2412  0.8472
 7484SOL    HW234086   3.706   3.052   7.840 -0.6104 -0.7348  0.4470
 7485SOL     OW34087   2.457   2.055   3.928 -0.2392 -0.3299 -0.4647
 7485SOL    HW134088   2.548   2.083   3.915 -0.1951 -0.0961  0.3380
 7485SOL    HW234089   2.455   1.986   3.861  0.5629 -1.7380  0.9365
 7486SOL     OW34090   1.570   1.282   2.479  0.1093 -0.5690  0.2226
 7486SOL    HW134091   1.655   1.246   2.456  1.2383  1.9918  0.4811
 7486SOL    HW234092   1.594   1.355   2.536 -0.6327 -0.9482  1.0358
 7487SOL     OW34093   2.769   1.130   1.783  0.3914 -0.0339 -0.0224
 7487SOL    HW134094   2.782   1.165   1.871 -0.8643 -0.9412  0.5115
 7487SOL    HW234095   2.790   1.201   1.722  0.4027 -0.2286 -0.2423
 7488SOL     OW34096   0.864   0.727   8.944  0.0927 -0.2212 -0.6433
 7488SOL    HW134097   0.904   0.699   8.862 -1.7502 -1.3903 -1.1486
 7488SOL    HW234098   0.778   0.690   8.922 -0.2557 -0.4407  1.0504
 7489SOL     OW34099   4.301   2.153   8.079  0.1643 -0.1316 -0.0514
 7489SOL    HW134100   4.377   2.147   8.021 -0.6849  1.2042 -1.3009
 7489SOL    HW234101   4.304   2.070   8.126  0.8910 -0.9153 -1.4765
 7490SOL     OW34102   3.043   4.535   1.740 -0.2473  0.0372  0.3293
 7490SOL    HW134103   3.133   4.558   1.761 -0.6912  0.3926  1.8944
 7490SOL    HW234104   3.019   4.469   1.806  0.3647 -1.1350 -0.6330
 7491SOL     OW34105   0.892   3.999  17.613 -0.6401 -0.6547 -0.1363
 7491SOL    HW134106   0.958   3.955  17.666  0.3835  1.7478  0.5429
 7491SOL    HW234107   0.819   3.960  17.662 -1.7740 -0.0088 -1.3015
 7492SOL     OW34108   0.635   3.846   1.192 -0.0802 -0.2185 -0.8678
 7492SOL    HW134109   0.698   3.787   1.232 -1.6695 -1.3579 -0.0166
 7492SOL    HW234110   0.600   3.799   1.117 -0.5928 -1.3421  0.0789
 7493SOL     OW34111   4.136   4.389   9.608  0.4403 -0.4135 -0.0196
 7493SOL    HW134112   4.153   4.435   9.691 -1.9214  1.7384 -0.7415
 7493SOL    HW234113   4.148   4.460   9.545  2.8947 -0.5864  0.2323
 7494SOL     OW34114   2.886   2.745   6.704 -0.0523  0.3049  0.2038
 7494SOL    HW134115   2.902   2.672   6.644 -1.5416  0.4543 -0.3789
 7494SOL    HW234116   2.945   2.812   6.668  1.5810 -1.2581 -0.0022
 7495SOL     OW34117   4.560   3.214   0.196  0.0932 -0.4894 -0.2224
 7495SOL    HW134118   4.650   3.187   0.180  0.0840 -0.5332 -0.1990
 7495SOL    HW234119   4.564   3.262   0.279  0.9501 -0.1381 -0.4677
 7496SOL     OW34120   0.109   3.581   5.651 -0.4784 -0.0474 -0.2822
 7496SOL    HW134121   0.081   3.502   5.603 -0.3358 -0.0839 -0.3053
 7496SOL    HW234122   0.192   3.545   5.683 -0.2967  0.6203 -0.0237
 7497SOL     OW34123   4.018   2.610  13.179 -0.2944 -0.4125 -0.0438
 7497SOL    HW134124   3.934   2.618  13.134  1.0786  0.1091 -2.5076
 7497SOL    HW234125   4.076   2.600  13.103  1.0151  0.2247  0.8731
 7498SOL     OW34126   1.371   0.231   7.756 -0.4066 -0.1561 -0.3333
 7498SOL    HW134127   1.379   0.311   7.809 -0.4905 -0.1272 -0.3630
 7498SOL    HW234128   1.388   0.166   7.823  1.2065 -1.5021 -2.0423
 7499SOL     OW34129   1.040   2.646  13.937 -0.0449  0.2401 -0.1315
 7499SOL    HW134130   0.959   2.696  13.949  2.2059  3.4003  1.6631
 7499SOL    HW234131   1.001   2.560  13.952 -0.8109  0.3143 -1.6552
 7500SOL     OW34132   0.005   2.588  10.253  0.2938  0.1080 -0.4480
 7500SOL    HW134133   0.031   2.517  10.311 -2.3641  0.1193  0.7704
 7500SOL    HW234134   0.046   2.667  10.289 -0.1025  0.5672 -0.9972
 7501SOL     OW34135   1.460   3.266   8.045  0.0460  0.5987 -0.0681
 7501SOL    HW134136   1.482   3.210   8.119  1.3537  2.1323  0.6901
 7501SOL    HW234137   1.422   3.338   8.095  0.0724  0.6212 -0.0804
 7502SOL     OW34138   1.152   3.113   2.661  0.0643 -0.0099 -0.0203
 7502SOL    HW134139   1.218   3.096   2.594  1.1904  1.6858  0.6471
 7502SOL    HW234140   1.076   3.138   2.608 -0.0018 -0.6864 -0.2388
 7503SOL     OW34141   3.125   2.364   7.302 -0.6851  0.4030 -0.2678
 7503SOL    HW134142   3.058   2.430   7.291  0.6956  1.7496 -0.5889
 7503SOL    HW234143   3.071   2.290   7.328  1.2032 -0.2291  1.8869
 7504SOL     OW34144   3.110   0.465  10.068  0.4789 -0.2002  0.5834
 7504SOL    HW134145   3.205   0.468  10.071  0.6329 -3.2533 -1.5963
 7504SOL    HW234146   3.099   0.384  10.019 -0.2644 -0.0986  0.5784
 7505SOL     OW34147   3.614   4.028  13.304 -0.5822 -0.0022  0.3803
 7505SOL    HW134148   3.519   4.020  13.297 -0.5282 -0.2415 -0.1068
 7505SOL    HW234149   3.639   4.075  13.224 -1.1559  1.8588  1.2958
 7506SOL     OW34150   2.910   2.312   1.639 -0.6220  0.2724 -0.5360
 7506SOL    HW134151   2.911   2.401   1.603 -0.1958 -0.0035 -1.2024
 7506SOL    HW234152   2.856   2.261   1.579 -1.9469  0.3707  0.5843
 7507SOL     OW34153   2.152   3.275   0.000  0.4101 -0.1875  0.4585
 7507SOL    HW134154   2.090   3.202   0.000 -0.0930  0.2287 -3.3233
 7507SOL    HW234155   2.138   3.312  17.661 -0.9509 -1.3104  0.2043
 7508SOL     OW34156   2.873   0.585   4.105 -0.0842  0.3643 -0.5045
 7508SOL    HW134157   2.906   0.588   4.015 -0.7568  1.0482 -0.7312
 7508SOL    HW234158   2.797   0.643   4.095 -0.2620  0.3226  0.6942
 7509SOL     OW34159   4.483   3.261   1.884  0.1093 -0.6371  0.1336
 7509SOL    HW134160   4.521   3.339   1.843 -0.8986 -1.2416 -1.9038
 7509SOL    HW234161   4.447   3.217   1.808 -0.3706 -0.2671  0.1456
 7510SOL     OW34162   3.546   2.737  15.423 -0.1718 -0.3367 -0.0212
 7510SOL    HW134163   3.541   2.702  15.512 -0.8890 -1.3140 -0.4386
 7510SOL    HW234164   3.627   2.786  15.430 -0.5990  0.2789  0.6887
 7511SOL     OW34165   1.455   2.799   5.119  0.4819  0.2289 -0.0328
 7511SOL    HW134166   1.505   2.754   5.187  1.3605 -1.1468 -1.6172
 7511SOL    HW234167   1.368   2.778   5.154  1.1533  0.0672  1.5765
 7512SOL     OW34168   0.341   4.438   6.196  0.3791 -0.1297 -0.1525
 7512SOL    HW134169   0.286   4.509   6.229 -1.6940 -1.3301 -1.0146
 7512SOL    HW234170   0.271   4.377   6.173 -0.3361  0.8717 -0.6786
 7513SOL     OW34171   0.851   4.064   1.160 -0.1179 -0.6881 -0.2337
 7513SOL    HW134172   0.808   4.131   1.212 -1.0241 -0.3927 -1.3706
 7513SOL    HW234173   0.794   3.992   1.188  0.5819 -0.8022  0.9229
 7514SOL     OW34174   4.320   4.078   9.140 -0.0088  0.3044 -0.2141
 7514SOL    HW134175   4.396   4.131   9.117 -2.0480  3.0133 -0.6470
 7514SOL    HW234176   4.330   4.086   9.235  1.3774 -3.4279 -0.0287
 7515SOL     OW34177   1.030   2.493  10.566 -0.4834  0.3815  0.4870
 7515SOL    HW134178   1.064   2.417  10.519 -2.5989 -0.3212  0.0884
 7515SOL    HW234179   1.101   2.510  10.627  1.1452  0.6219 -1.4549
 7516SOL     OW34180   0.816   1.089  10.227  0.1063 -0.0227 -0.3036
 7516SOL    HW134181   0.855   1.175  10.213  0.1430 -0.0250 -0.2169
 7516SOL    HW234182   0.856   1.070  10.312  0.5407 -1.0420 -0.7251
 7517SOL     OW34183   0.401   0.810   0.610  0.3462 -0.3407  0.2098
 7517SOL    HW134184   0.399   0.789   0.704  0.6000  0.2715  0.3530
 7517SOL    HW234185   0.466   0.880   0.603 -1.3894  1.3787  1.2435
 7518SOL     OW34186   1.724   4.554   3.973  0.1749  0.7502  0.2814
 7518SOL    HW134187   1.667   4.478   3.964  3.1462 -1.8591  3.8503
 7518SOL    HW234188   1.793   4.522   4.031 -0.1262 -0.8038 -0.2379
 7519SOL     OW34189   4.625   2.540  16.704  0.4260 -0.0169 -0.2381
 7519SOL    HW134190   4.661   2.575  16.785 -1.6670  0.6227  0.4043
 7519SOL    HW234191   4.546   2.496  16.735  0.1877  1.1576  0.8025
 7520SOL     OW34192   1.232   3.003  13.002  0.2521 -0.4372 -0.5333
 7520SOL    HW134193   1.203   3.094  13.007  2.6874  0.1928  2.3681
 7520SOL    HW234194   1.152   2.951  13.004 -0.1860  0.2759  0.2398
 7521SOL     OW34195   2.528   2.407   8.353 -0.4293  0.1742  0.7516
 7521SOL    HW134196   2.573   2.359   8.284  1.1589  1.9805  0.5459
 7521SOL    HW234197   2.484   2.474   8.299  1.5802  1.4083  0.6453
 7522SOL     OW34198   0.610   2.307   9.286 -0.3558  0.2581  0.2119
 7522SOL    HW134199   0.701   2.310   9.313  0.6620  1.2848 -3.3553
 7522SOL    HW234200   0.593   2.219   9.320 -0.2802 -0.6595 -2.0642
 7523SOL     OW34201   0.043   3.656   6.504 -0.2651  0.3633  0.0604
 7523SOL    HW134202   0.068   3.614   6.587  0.8613 -0.1826 -0.5493
 7523SOL    HW234203   4.692   3.622   6.495 -0.6496  1.4474 -0.3015
 7524SOL     OW34204   3.997   1.496  10.546 -0.7029 -0.1685  0.3407
 7524SOL    HW134205   4.004   1.402  10.562 -0.0355 -0.1912 -0.1117
 7524SOL    HW234206   4.064   1.513  10.612 -1.7686  0.0679  1.3767
 7525SOL     OW34207   0.637   2.523   9.014 -0.0712  0.1605  0.2657
 7525SOL    HW134208   0.731   2.544   9.015  0.1819 -0.9700  1.0640
 7525SOL    HW234209   0.606   2.601   9.059  0.5620 -0.4003  1.7014
 7526SOL     OW34210   1.531   1.845   1.125 -0.0311 -0.0923  0.0248
 7526SOL    HW134211   1.561   1.855   1.035 -0.1854  3.0048  0.3060
 7526SOL    HW234212   1.505   1.753   1.133 -0.2383 -0.1533 -1.4877
 7527SOL     OW34213   0.765   1.830   6.562  0.1948 -0.0316  0.1587
 7527SOL    HW134214   0.790   1.744   6.597  0.4105 -0.6641 -1.5885
 7527SOL    HW234215   0.848   1.875   6.545 -0.4175  0.8975 -0.3209
 7528SOL     OW34216   2.570   3.509   0.428 -0.2885  0.2714 -0.1533
 7528SOL    HW134217   2.601   3.580   0.484  0.9187 -0.9185  0.6637
 7528SOL    HW234218   2.589   3.428   0.474  1.1280 -0.6024 -2.2609
 7529SOL     OW34219   0.299   2.460   7.727  0.0109 -0.0654 -0.4919
 7529SOL    HW134220   0.387   2.494   7.714  0.2543 -0.2544  0.5876
 7529SOL    HW234221   0.308   2.365   7.739  0.6167 -0.0247 -0.6452
 7530SOL     OW34222   3.752   0.993   1.190  0.1077  0.2789  0.2794
 7530SOL    HW134223   3.743   0.998   1.285 -0.5161  1.3074  0.1684
 7530SOL    HW234224   3.775   0.901   1.175  1.6621  0.4316  1.7463
 7531SOL     OW34225   4.627   1.808  13.071 -0.2780  0.2824 -0.0212
 7531SOL    HW134226   4.698   1.856  13.028 -1.2734  0.6384 -1.2910
 7531SOL    HW234227   4.555   1.871  13.068  0.2885  0.9418  0.3672
 7532SOL     OW34228   1.759   3.263   3.649  0.5368 -0.0617 -0.1075
 7532SOL    HW134229   1.760   3.352   3.613 -0.7839 -0.2856 -0.6999
 7532SOL    HW234230   1.844   3.269   3.692  1.4888 -0.2989 -1.9408
 7533SOL     OW34231   4.375   0.425   6.046  0.3252  0.1613 -0.0258
 7533SOL    HW134232   4.435   0.352   6.029  0.2344  0.5500 -2.0748
 7533SOL    HW234233   4.357   0.454   5.956  0.0951  0.6494  0.1832
 7534SOL     OW34234   1.823   0.074   8.214 -0.1933 -0.4651 -0.5949
 7534SOL    HW134235   1.903   0.065   8.162 -0.4022  1.0859 -1.1928
 7534SOL    HW234236   1.748   0.059   8.156 -1.0444  1.7547 -0.0839
 7535SOL     OW34237   3.440   0.912   5.680 -0.3023 -0.7336 -0.1893
 7535SOL    HW134238   3.414   0.889   5.590 -1.7960  0.0750  0.0379
 7535SOL    HW234239   3.395   0.832   5.708  0.1456 -1.1058 -0.5306
 7536SOL     OW34240   3.108   4.576  16.179  0.3202  0.1378  0.1843
 7536SOL    HW134241   3.111   4.482  16.195  2.0896  0.1872  0.1131
 7536SOL    HW234242   3.166   4.608  16.248  1.1312 -2.7403  0.8521
 7537SOL     OW34243   4.503   1.830   0.861 -0.4786  0.6634 -0.0793
 7537SOL    HW134244   4.468   1.754   0.907  0.2235 -0.5390 -1.5623
 7537SOL    HW234245   4.574   1.857   0.919 -0.3964 -1.0475  0.6204
 7538SOL     OW34246   0.560   0.622   4.000 -0.3998  0.0907  0.2230
 7538SOL    HW134247   0.521   0.579   3.925  0.4465 -0.7474  0.2603
 7538SOL    HW234248   0.477   0.631   4.046 -0.4341  0.1348  0.1502
 7539SOL     OW34249   1.522   0.656  11.245 -0.2156 -0.1544  0.3395
 7539SOL    HW134250   1.484   0.743  11.259  0.1316  0.3445 -1.8591
 7539SOL    HW234251   1.563   0.670  11.160  1.9236 -2.0800  1.0278
 7540SOL     OW34252   1.413   1.773   7.388  0.1950 -0.5696  0.3861
 7540SOL    HW134253   1.319   1.792   7.384  0.5732  1.7218  2.3399
 7540SOL    HW234254   1.414   1.680   7.412  0.7922 -0.5669  0.3658
 7541SOL     OW34255   0.712   4.103   7.638  0.4552 -0.4661 -0.0153
 7541SOL    HW134256   0.787   4.045   7.623  1.6755  0.8387  1.0046
 7541SOL    HW234257   0.733   4.183   7.590 -1.2043 -0.4670 -0.7663
 7542SOL     OW34258   2.511   3.686   5.595 -0.1145  0.1675 -0.6827
 7542SOL    HW134259   2.563   3.670   5.516 -1.6393 -0.4127 -1.5753
 7542SOL    HW234260   2.586   3.707   5.650  0.2768 -1.4291 -0.6206
 7543SOL     OW34261   0.879   2.449   6.087  0.5487 -0.3158 -0.1638
 7543SOL    HW134262   0.798   2.453   6.037 -0.8511 -0.9274  2.0317
 7543SOL    HW234263   0.959   2.471   6.040  0.9366  1.4337  1.3460
 7544SOL     OW34264   3.442   4.092   1.384  0.1688 -0.0317 -0.0385
 7544SOL    HW134265   3.464   4.153   1.453  0.1103  0.3835 -0.3862
 7544SOL    HW234266   3.525   4.063   1.346  0.4912  0.7643  0.0593
 7545SOL     OW34267   3.556   2.603   3.178 -0.4953 -0.1782  0.7740
 7545SOL    HW134268   3.524   2.575   3.092  3.0232  0.9060 -0.8589
 7545SOL    HW234269   3.506   2.681   3.203 -1.3325 -0.2276 -0.7431
 7546SOL     OW34270   1.029   0.499  13.303 -0.2899  0.6082  0.0565
 7546SOL    HW134271   1.065   0.575  13.349  1.3503  0.1287 -0.4437
 7546SOL    HW234272   1.092   0.429  13.318  0.8817  1.2352 -1.8968
 7547SOL     OW34273   0.130   1.342   5.331 -0.5757 -0.1224  0.1038
 7547SOL    HW134274   0.177   1.424   5.342  1.1642 -1.4370  2.5493
 7547SOL    HW234275   0.054   1.358   5.275  0.4229  1.2845 -0.8518
 7548SOL     OW34276   0.619   3.171   8.827 -0.3043  0.4678 -0.0881
 7548SOL    HW134277   0.665   3.248   8.859 -0.6845  1.2196 -1.3409
 7548SOL    HW234278   0.560   3.218   8.768 -1.3138 -0.5769  0.0746
 7549SOL     OW34279   2.686   2.104   8.757 -0.7285  0.3297 -0.0905
 7549SOL    HW134280   2.756   2.045   8.785 -0.1998  1.5849  1.2031
 7549SOL    HW234281   2.643   2.121   8.841 -2.1748  0.6005 -0.8766
 7550SOL     OW34282   3.371   0.620   8.563  0.2719  0.3261 -0.2568
 7550SOL    HW134283   3.442   0.680   8.540  2.0256 -1.7933 -0.3616
 7550SOL    HW234284   3.426   0.548   8.593  2.9928  1.5719 -2.2145
 7551SOL     OW34285   2.859   1.246   4.589  0.3708 -0.2104  0.2697
 7551SOL    HW134286   2.818   1.231   4.504 -1.2893 -1.9062  1.3904
 7551SOL    HW234287   2.946   1.277   4.562 -0.7770  0.9481 -2.1468
 7552SOL     OW34288   0.446   0.651   7.032  0.2374  0.4752  0.5690
 7552SOL    HW134289   0.369   0.643   7.088 -0.5505 -1.4730 -0.8210
 7552SOL    HW234290   0.406   0.732   7.000  0.5009  0.5033  0.3142
 7553SOL     OW34291   2.134   3.889   2.169  0.1836 -0.5878  0.2019
 7553SOL    HW134292   2.191   3.956   2.206 -0.2331 -0.4075  0.5253
 7553SOL    HW234293   2.171   3.803   2.190  1.0742 -0.2454  0.0258
 7554SOL     OW34294   4.006   3.440  11.189 -0.2132 -0.8159  0.0458
 7554SOL    HW134295   3.938   3.377  11.164  0.5682 -1.2091 -1.1010
 7554SOL    HW234296   4.069   3.388  11.238  0.8468 -1.0579 -1.5809
 7555SOL     OW34297   1.345   4.081   6.306  0.0904  0.0835  0.0310
 7555SOL    HW134298   1.260   4.037   6.302 -0.2884  1.1115 -2.9988
 7555SOL    HW234299   1.334   4.122   6.392  1.1939 -1.8175  1.0715
 7556SOL     OW34300   3.277   3.920   6.350 -0.3841  0.8318  0.0795
 7556SOL    HW134301   3.299   3.865   6.275  0.1450 -1.4362  1.9066
 7556SOL    HW234302   3.270   3.853   6.418  0.7869  0.4048 -0.2214
 7557SOL     OW34303   1.418   2.570   8.940 -0.4288  0.1863  0.6258
 7557SOL    HW134304   1.432   2.503   8.873  0.1605  0.1602  0.7814
 7557SOL    HW234305   1.474   2.641   8.910 -0.5005 -0.6901 -1.6373
 7558SOL     OW34306   0.405   3.704  13.268 -0.2381 -0.5726  0.8454
 7558SOL    HW134307   0.498   3.682  13.268  0.1084  0.8965  0.9553
 7558SOL    HW234308   0.363   3.636  13.321  0.8985 -1.2737  0.8351
 7559SOL     OW34309   4.237   0.047   5.483  0.0648  0.3254  0.0984
 7559SOL    HW134310   4.293   0.017   5.412 -0.3540 -1.3800  0.4942
 7559SOL    HW234311   4.183   4.707   5.496  0.2099  0.3042  0.6144
 7560SOL     OW34312   1.391   1.766   5.163  0.2157 -0.0222  0.4843
 7560SOL    HW134313   1.401   1.754   5.068 -0.0732  3.5165 -0.0149
 7560SOL    HW234314   1.343   1.848   5.153  0.4011 -0.0223 -0.4682
 7561SOL     OW34315   3.049   2.055   4.736  0.1506  0.0466 -0.3152
 7561SOL    HW134316   3.127   2.097   4.773  0.4440 -0.4558 -0.3704
 7561SOL    HW234317   2.999   2.030   4.813 -0.3596  0.0873 -0.6346
 7562SOL     OW34318   0.922   1.363   8.764 -0.5088  0.2710 -0.2124
 7562SOL    HW134319   0.934   1.445   8.812  0.8470  0.9357 -1.6995
 7562SOL    HW234320   0.962   1.294   8.818  0.8254  1.3605  0.1814
 7563SOL     OW34321   0.836   1.420   8.017  1.0224 -0.2617  0.0621
 7563SOL    HW134322   0.904   1.444   8.080  1.2323  0.6794 -0.5174
 7563SOL    HW234323   0.799   1.503   7.985  2.4154  0.1302 -0.5587
 7564SOL     OW34324   4.675   3.478   9.921 -0.1551 -0.2656  0.1451
 7564SOL    HW134325   4.700   3.413   9.986  0.0669  0.6380  0.9493
 7564SOL    HW234326   4.638   3.541   9.982  0.3526 -1.0783  1.2883
 7565SOL     OW34327   0.126   3.072   8.761 -0.0519 -0.4314 -0.2026
 7565SOL    HW134328   0.101   3.119   8.682  0.4560  0.9463  0.4540
 7565SOL    HW234329   0.206   3.023   8.742 -0.0262 -0.0365 -1.0803
 7566SOL     OW34330   2.290   1.235   4.839 -0.5035 -0.1886 -0.0632
 7566SOL    HW134331   2.268   1.154   4.885 -0.8446 -0.3541 -0.5279
 7566SOL    HW234332   2.241   1.228   4.757 -1.4152  1.7655  0.3319
 7567SOL     OW34333   0.680   4.225   9.188  0.4388  0.1357 -0.3139
 7567SOL    HW134334   0.601   4.224   9.133 -0.2617  1.0363  0.6708
 7567SOL    HW234335   0.688   4.320   9.178  0.1444  0.2190  0.2005
 7568SOL     OW34336   3.859   3.887  10.924  0.1130  0.3374 -0.1637
 7568SOL    HW134337   3.895   3.837  10.998  0.4338 -0.3001 -0.7527
 7568SOL    HW234338   3.935   3.932  10.889  1.3721 -0.8221  1.0740
 7569SOL     OW34339   1.591   0.700   6.471  0.0133 -0.3433 -0.5009
 7569SOL    HW134340   1.579   0.606   6.480 -1.3152  0.0107  1.4416
 7569SOL    HW234341   1.501   0.725   6.449 -0.3480 -1.2910 -0.0898
 7570SOL     OW34342   4.224   1.611   4.257 -0.4579  0.0962 -0.0741
 7570SOL    HW134343   4.313   1.580   4.275 -0.1306  0.7541 -0.5142
 7570SOL    HW234344   4.236   1.661   4.175  0.2855 -0.7897 -0.4988
 7571SOL     OW34345   1.703   1.896   9.174 -0.1404  0.3063  0.1334
 7571SOL    HW134346   1.766   1.863   9.110 -1.4231 -0.6600 -0.6040
 7571SOL    HW234347   1.637   1.931   9.115 -0.4991 -2.5454 -1.1400
 7572SOL     OW34348   2.802   2.787   4.494  0.1261 -0.3716 -0.4183
 7572SOL    HW134349   2.790   2.717   4.430  2.3245  0.1029 -1.3623
 7572SOL    HW234350   2.882   2.752   4.534  0.3594  1.6269  0.8649
 7573SOL     OW34351   0.914   2.655   8.819 -0.5320 -0.0654  0.0634
 7573SOL    HW134352   0.836   2.708   8.834 -1.4424 -1.5383  0.5113
 7573SOL    HW234353   0.979   2.722   8.796 -0.6674 -0.6046 -1.8565
 7574SOL     OW34354   3.263   3.531   4.995 -0.1247  0.2757 -0.0109
 7574SOL    HW134355   3.229   3.565   4.913  2.0354  0.5667 -0.8004
 7574SOL    HW234356   3.188   3.482   5.029  0.4241  0.1990  1.1009
 7575SOL     OW34357   3.059   0.561   5.905 -0.1828  0.3603  0.3651
 7575SOL    HW134358   3.033   0.538   5.816  0.9463  2.1938 -0.4322
 7575SOL    HW234359   2.977   0.559   5.955  0.2216  4.2894  1.1538
 7576SOL     OW34360   3.537   2.034   5.758  0.2112  0.0810 -0.0551
 7576SOL    HW134361   3.457   2.027   5.706 -0.0138 -1.7755  0.5546
 7576SOL    HW234362   3.545   2.126   5.733  0.6090  0.2915  0.8418
 7577SOL     OW34363   4.476   0.720   5.836  0.2976  0.1609  0.7024
 7577SOL    HW134364   4.385   0.707   5.863  0.6650 -1.0509  1.3457
 7577SOL    HW234365   4.494   0.813   5.823  0.8475 -0.0822 -0.2803
 7578SOL     OW34366   4.104   3.142  10.496 -0.3192  0.5191 -0.1045
 7578SOL    HW134367   4.072   3.152  10.585  0.6426  0.9812  0.1898
 7578SOL    HW234368   4.025   3.124  10.446 -1.3945  1.6607  1.1909
 7579SOL     OW34369   0.621   3.356   3.761  0.1610 -0.0206 -0.1708
 7579SOL    HW134370   0.598   3.377   3.671 -0.0954  0.1021 -0.0750
 7579SOL    HW234371   0.534   3.358   3.800 -0.1959  2.7173 -1.1138
 7580SOL     OW34372   2.452   3.119   4.932  0.9739 -0.5045 -0.0599
 7580SOL    HW134373   2.526   3.119   4.871  0.8332  1.6071 -0.2151
 7580SOL    HW234374   2.502   3.114   5.013  0.3906 -1.2237  0.2597
 7581SOL     OW34375   2.281   0.292   5.588 -0.5459 -0.1448  0.3451
 7581SOL    HW134376   2.247   0.364   5.640  0.7543 -0.5429  1.7142
 7581SOL    HW234377   2.239   0.309   5.503 -0.2437 -0.4688  0.1297
 7582SOL     OW34378   1.525   1.357  15.616  0.8217  0.1886 -0.9050
 7582SOL    HW134379   1.596   1.299  15.589  0.1863 -1.2770  0.5627
 7582SOL    HW234380   1.570   1.433  15.653  0.4288 -0.9635  1.9199
 7583SOL     OW34381   3.453   0.166   8.720  0.0673  0.6890  0.1660
 7583SOL    HW134382   3.363   0.136   8.730  0.9878 -1.3511  2.5497
 7583SOL    HW234383   3.458   0.190   8.813  2.6075  0.0957  0.1930
 7584SOL     OW34384   0.569   3.706   6.688 -0.0594 -0.1421  0.1319
 7584SOL    HW134385   0.605   3.642   6.750 -1.0950 -0.3962  0.4623
 7584SOL    HW234386   0.633   3.777   6.679 -0.5044 -0.1631 -3.0162
 7585SOL     OW34387   3.086   2.928  15.704 -0.0791 -0.3721  0.5265
 7585SOL    HW134388   3.159   2.886  15.659  0.0596  0.8220 -0.3700
 7585SOL    HW234389   3.024   2.948  15.634  1.4546  0.7810 -0.5023
 7586SOL     OW34390   4.441   0.367   7.998 -0.2451 -0.4359 -0.0477
 7586SOL    HW134391   4.391   0.330   7.925 -1.9842  2.9841 -0.5506
 7586SOL    HW234392   4.477   0.289   8.042 -1.6513 -0.4322  1.1352
 7587SOL     OW34393   4.216   3.028   9.431 -0.2458  0.2311  0.3922
 7587SOL    HW134394   4.167   3.073   9.362  1.9645  0.2845 -1.1282
 7587SOL    HW234395   4.166   3.053   9.508  0.5220  0.8013  0.6958
 7588SOL     OW34396   1.051   1.339   9.638 -0.1451  0.2621 -0.0125
 7588SOL    HW134397   0.970   1.287   9.637 -0.4323  0.6857  3.9754
 7588SOL    HW234398   1.125   1.299   9.592 -0.6038  1.0229 -1.4243
 7589SOL     OW34399   4.263   3.354  11.284 -0.1678  1.1012 -0.6877
 7589SOL    HW134400   4.318   3.432  11.282 -0.0322  1.0817  2.2577
 7589SOL    HW234401   4.324   3.298  11.237  0.7231  2.9947 -1.7609
 7590SOL     OW34402   0.912   2.823   7.953 -0.2411 -0.0843  0.0426
 7590SOL    HW134403   0.860   2.903   7.950 -0.1034  0.1207  2.7862
 7590SOL    HW234404   0.856   2.772   7.895 -1.0688 -1.4106  2.0029
 7591SOL     OW34405   1.841   1.810  15.844  0.0774  0.1657 -0.3372
 7591SOL    HW134406   1.753   1.841  15.824 -0.4294 -0.3642  1.0711
 7591SOL    HW234407   1.817   1.771  15.928 -0.0526  0.0934 -0.4078
 7592SOL     OW34408   1.757   4.551   5.382  0.1880  0.5379  0.4973
 7592SOL    HW134409   1.663   4.545   5.394  0.3476 -2.8904  0.1170
 7592SOL    HW234410   1.767   4.603   5.302 -1.8586 -0.2959 -0.2714
 7593SOL     OW34411   4.330   3.509   9.405  0.0749 -0.2350 -0.6135
 7593SOL    HW134412   4.380   3.548   9.334  1.2638 -0.1050  0.3037
 7593SOL    HW234413   4.381   3.431   9.425 -1.9793 -1.3730  0.2898
 7594SOL     OW34414   1.434   1.031  15.047 -0.0392 -0.5259  0.0161
 7594SOL    HW134415   1.424   0.962  14.982  2.4654 -0.4506 -0.4460
 7594SOL    HW234416   1.522   1.063  15.027  0.3205 -1.7052 -0.2881
 7595SOL     OW34417   0.144   0.630   7.175 -0.7650 -0.8075 -0.3303
 7595SOL    HW134418   0.121   0.668   7.260 -0.4397  2.9145 -1.9116
 7595SOL    HW234419   0.166   0.539   7.193 -1.8076 -0.9690  0.1470
 7596SOL     OW34420   2.777   3.422   8.368  0.6614  0.2177 -0.0239
 7596SOL    HW134421   2.777   3.328   8.386 -1.2237 -0.0425 -1.3461
 7596SOL    HW234422   2.827   3.429   8.287 -1.3003 -0.2241 -1.2782
 7597SOL     OW34423   1.891   1.075   2.852  0.0645 -0.2135  0.3856
 7597SOL    HW134424   1.804   1.116   2.859  1.2312  2.5557 -1.0609
 7597SOL    HW234425   1.943   1.153   2.832  0.5822 -0.8757 -0.8075
 7598SOL     OW34426   4.056   1.331   5.018  0.0288  0.1032  0.2760
 7598SOL    HW134427   3.980   1.295   4.972  1.1620  0.7331 -2.1083
 7598SOL    HW234428   4.123   1.305   4.954  0.9864  1.1381  0.8578
 7599SOL     OW34429   3.154   2.591  10.770  0.4246  0.2004 -0.8887
 7599SOL    HW134430   3.125   2.549  10.851 -1.1051  0.9470 -1.0555
 7599SOL    HW234431   3.178   2.513  10.720  1.8286 -0.5272  0.9542
 7600SOL     OW34432   2.339   2.186   3.252  0.1182  0.2038  0.0774
 7600SOL    HW134433   2.281   2.186   3.328  1.3311 -0.6359  1.0216
 7600SOL    HW234434   2.401   2.121   3.286  0.1053  0.2991  0.2805
 7601SOL     OW34435   1.844   1.185   9.373  0.3012 -0.6012  0.3603
 7601SOL    HW134436   1.862   1.121   9.441 -1.6544  1.3133  2.6728
 7601SOL    HW234437   1.776   1.141   9.321  2.9204  0.8370 -4.2667
 7602SOL     OW34438   1.191   4.600  13.810  0.1656  0.8392  0.5230
 7602SOL    HW134439   1.206   4.574  13.900  0.3898  1.8738  0.7872
 7602SOL    HW234440   1.171   4.694  13.812 -1.6774  0.5023 -1.0671
 7603SOL     OW34441   2.753   4.480   6.324  0.0478  0.2349 -0.2415
 7603SOL    HW134442   2.814   4.438   6.384 -1.7483  0.5601  1.7887
 7603SOL    HW234443   2.789   4.569   6.325  1.5073 -0.3367 -0.9185
 7604SOL     OW34444   1.381   0.827  15.810 -0.1432  0.8060  0.1721
 7604SOL    HW134445   1.420   0.912  15.790 -0.3599  1.1823  1.4061
 7604SOL    HW234446   1.459   0.774  15.827  0.2610  2.0236  2.0344
 7605SOL     OW34447   0.639   1.119   4.612  0.3697  0.0247  0.2285
 7605SOL    HW134448   0.631   1.196   4.555  1.9307  0.3875  0.4795
 7605SOL    HW234449   0.594   1.155   4.689 -1.3987 -0.4644 -0.5998
 7606SOL     OW34450   0.444   4.052   0.259  0.2268 -0.4801 -0.0260
 7606SOL    HW134451   0.421   4.013   0.175 -2.6425 -0.1687  0.6268
 7606SOL    HW234452   0.499   4.123   0.225  1.6735 -1.3029  0.5685
 7607SOL     OW34453   2.693   2.786   0.706  0.0773  0.0772 -0.3502
 7607SOL    HW134454   2.691   2.858   0.768 -0.9705  0.3651 -0.7208
 7607SOL    HW234455   2.702   2.708   0.760 -0.4806  0.5515  0.4175
 7608SOL     OW34456   1.994   0.124   6.840  0.5478 -0.4498  0.5216
 7608SOL    HW134457   2.044   0.073   6.776 -3.1023 -0.7401 -2.0803
 7608SOL    HW234458   2.040   0.207   6.846 -1.1184  0.4340  0.9354
 7609SOL     OW34459   1.774   3.820   2.427  0.1749 -0.2284  0.1044
 7609SOL    HW134460   1.762   3.739   2.378  1.1605  0.1107 -0.7036
 7609SOL    HW234461   1.693   3.866   2.406  1.2615  2.4034  1.6752
 7610SOL     OW34462   3.916   2.160  14.099  0.6357  0.3377 -0.0142
 7610SOL    HW134463   3.838   2.144  14.152  2.2109 -1.7275  1.6628
 7610SOL    HW234464   3.939   2.245  14.136  1.8493  0.6796 -1.5534
 7611SOL     OW34465   0.200   1.217   3.640 -0.2106  0.1533 -0.6756
 7611SOL    HW134466   0.248   1.297   3.662  1.6082 -1.0907 -0.0466
 7611SOL    HW234467   0.259   1.158   3.594 -1.3691 -0.3494 -1.4993
 7612SOL     OW34468   3.473   4.726   3.974 -0.1982 -0.3137 -0.5714
 7612SOL    HW134469   3.540   0.034   3.923  2.1032  0.0080  2.7120
 7612SOL    HW234470   3.398   0.036   3.938  0.5609  0.7799 -0.7121
 7613SOL     OW34471   3.607   3.198   1.113  0.4012  0.1382  0.0186
 7613SOL    HW134472   3.639   3.288   1.105  3.1390 -0.8773 -0.5346
 7613SOL    HW234473   3.636   3.154   1.033  1.1744  0.4732  0.1129
 7614SOL     OW34474   2.487   2.190   2.655  0.7543  0.5908  0.3047
 7614SOL    HW134475   2.474   2.224   2.744 -1.8261  1.8986 -0.5838
 7614SOL    HW234476   2.546   2.118   2.678 -0.2009  0.1995  1.5329
 7615SOL     OW34477   3.470   0.226   8.184  0.5274 -0.1047  0.1367
 7615SOL    HW134478   3.466   0.244   8.278  0.9361  1.1440 -0.0796
 7615SOL    HW234479   3.564   0.242   8.170  1.0172 -1.1155  2.1851
 7616SOL     OW34480   1.861   1.513   3.807 -0.1077  0.2249 -0.1541
 7616SOL    HW134481   1.884   1.605   3.792  0.8992  0.1845  1.1587
 7616SOL    HW234482   1.767   1.519   3.826  0.0965 -0.9176  1.1567
 7617SOL     OW34483   0.183   3.822   7.859 -0.0988 -0.1498 -0.5857
 7617SOL    HW134484   0.225   3.859   7.782  0.2595  0.7921  0.0609
 7617SOL    HW234485   0.253   3.809   7.923  0.5126  0.4707 -1.1374
 7618SOL     OW34486   1.837   3.792   5.926 -0.3603 -0.1104  0.4879
 7618SOL    HW134487   1.825   3.867   5.867 -2.0301 -0.0270  0.9570
 7618SOL    HW234488   1.921   3.758   5.892 -0.0735  1.2764 -0.1870
 7619SOL     OW34489   0.983   0.946   7.733 -0.1864  0.7358  0.2887
 7619SOL    HW134490   0.931   0.884   7.682  1.2383 -0.5431  0.3871
 7619SOL    HW234491   0.912   0.990   7.780  0.9878  1.5219  1.3250
 7620SOL     OW34492   3.588   0.777   8.548  0.3002  0.0309  0.6615
 7620SOL    HW134493   3.610   0.861   8.509  1.2842 -0.6576 -0.2421
 7620SOL    HW234494   3.670   0.738   8.578  1.3108 -0.2262 -2.5026
 7621SOL     OW34495   4.034   4.404  13.686  0.1924 -0.1873  0.2456
 7621SOL    HW134496   3.987   4.352  13.751  0.9008 -2.3380 -0.9868
 7621SOL    HW234497   3.984   4.486  13.692  1.5819  0.6109  1.2488
 7622SOL     OW34498   2.653   2.324   1.777  0.8870 -0.2988 -0.7128
 7622SOL    HW134499   2.743   2.307   1.806  0.6369  1.7331  1.2589
 7622SOL    HW234500   2.620   2.236   1.760 -0.5872 -0.4272  2.8549
 7623SOL     OW34501   3.414   0.297   6.540  0.1929  0.9207  0.2057
 7623SOL    HW134502   3.504   0.270   6.555 -0.1156  0.3580  1.0726
 7623SOL    HW234503   3.415   0.303   6.445 -1.0391 -0.4531  0.1171
 7624SOL     OW34504   1.719   1.513   7.463  0.4247  0.6275 -0.1022
 7624SOL    HW134505   1.754   1.441   7.515 -0.7922 -0.2491 -0.5145
 7624SOL    HW234506   1.792   1.508   7.400  0.4537  3.0238 -0.2783
 7625SOL     OW34507   1.611   4.139  16.627 -0.0000  0.5151 -0.2654
 7625SOL    HW134508   1.660   4.098  16.699 -2.0628 -0.5162  0.5454
 7625SOL    HW234509   1.609   4.067  16.564  1.6342 -1.4676  1.9385
 7626SOL     OW34510   1.434   0.115   2.194 -0.1424  0.1319  0.2607
 7626SOL    HW134511   1.413   0.176   2.123 -1.3705 -0.6751 -0.0626
 7626SOL    HW234512   1.353   0.125   2.244 -1.0526  1.1821 -1.4346
 7627SOL     OW34513   3.537   3.232   2.594 -0.0341  0.6228  0.5307
 7627SOL    HW134514   3.562   3.316   2.556  1.1549 -0.6540 -1.5393
 7627SOL    HW234515   3.444   3.251   2.580  0.2908  0.9150 -1.1423
 7628SOL     OW34516   0.774   4.081   5.857 -0.1809  0.7322  0.2501
 7628SOL    HW134517   0.849   4.050   5.908  0.1560  0.7610 -0.2261
 7628SOL    HW234518   0.748   3.997   5.819 -2.2046  0.7573  1.6090
 7629SOL     OW34519   2.091   2.398   4.402  0.0568 -0.1218 -0.0498
 7629SOL    HW134520   2.061   2.341   4.331 -1.8113  1.5543 -0.6248
 7629SOL    HW234521   2.013   2.407   4.457 -0.3165  0.9442 -0.7340
 7630SOL     OW34522   2.261   2.301   9.495 -0.1738 -0.1955 -0.1629
 7630SOL    HW134523   2.332   2.354   9.458 -0.0405  0.5005  1.0928
 7630SOL    HW234524   2.267   2.325   9.588  0.6854  1.8140 -0.7158
 7631SOL     OW34525   0.361   0.849  13.932 -0.2343  0.5013 -0.3218
 7631SOL    HW134526   0.371   0.944  13.921  0.2575  0.6461  1.4121
 7631SOL    HW234527   0.267   0.839  13.914 -1.2789  3.0813  3.6674
 7632SOL     OW34528   1.934   0.964   5.791  0.4340 -0.2047 -0.0368
 7632SOL    HW134529   1.865   0.954   5.858  1.4730 -1.9283  0.7712
 7632SOL    HW234530   2.005   1.011   5.835  1.0382 -2.0141  0.8865
 7633SOL     OW34531   0.896   0.995   7.178  0.3276 -0.3749 -0.1776
 7633SOL    HW134532   0.801   1.005   7.170  0.4907  0.6356 -0.8178
 7633SOL    HW234533   0.912   0.970   7.087  0.0049 -1.4393  0.0567
 7634SOL     OW34534   0.518   4.195   1.613 -0.1119 -0.0890 -0.0048
 7634SOL    HW134535   0.582   4.241   1.668  0.6045 -2.9910  1.6100
 7634SOL    HW234536   0.440   4.249   1.622 -0.1195  0.3455 -2.7433
 7635SOL     OW34537   3.932   3.153  17.538  0.3693 -0.4773 -0.0054
 7635SOL    HW134538   3.975   3.159  17.623 -0.7486 -0.3040  0.5344
 7635SOL    HW234539   3.875   3.077  17.548 -0.4884  0.2185  0.4104
 7636SOL     OW34540   2.745   2.485  12.607 -0.1551 -0.1706  0.5932
 7636SOL    HW134541   2.803   2.454  12.677 -0.6217 -0.0649  1.0249
 7636SOL    HW234542   2.748   2.406  12.553 -2.1783  1.7755 -2.3252
 7637SOL     OW34543   3.251   3.864  13.529  0.0783  0.2027  0.0324
 7637SOL    HW134544   3.190   3.938  13.519 -1.3580 -1.0890 -0.7336
 7637SOL    HW234545   3.308   3.885  13.456 -0.5021  0.0391 -0.4691
 7638SOL     OW34546   2.047   4.584   3.103 -0.5494  0.3623  0.4267
 7638SOL    HW134547   2.103   4.600   3.027 -0.6728  1.0658  0.4818
 7638SOL    HW234548   1.964   4.581   3.056 -0.9922  0.1180  1.2309
 7639SOL     OW34549   1.912   2.872  13.862  0.1238 -0.5743 -0.3284
 7639SOL    HW134550   1.826   2.835  13.878  0.5801 -1.1763  0.7794
 7639SOL    HW234551   1.967   2.827  13.927  1.0000 -1.0370 -1.4007
 7640SOL     OW34552   0.591   2.324   7.421 -0.6275  0.0629 -0.7868
 7640SOL    HW134553   0.597   2.414   7.390  0.4531  0.5143  0.7400
 7640SOL    HW234554   0.499   2.301   7.407 -1.1959  0.7561  1.9389
 7641SOL     OW34555   1.094   0.285   3.245 -0.2249  0.1257 -0.2661
 7641SOL    HW134556   1.187   0.282   3.268 -0.5549 -0.4925  0.9618
 7641SOL    HW234557   1.093   0.357   3.182  0.9411  2.0027  1.9103
 7642SOL     OW34558   2.575   2.932   0.031 -0.1019  0.2648 -0.3189
 7642SOL    HW134559   2.649   2.977  17.740  0.7695  0.1227  1.1695
 7642SOL    HW234560   2.501   2.977  17.738 -0.9786  0.9518  1.9787
 7643SOL     OW34561   3.417   4.080  15.793 -0.3152  0.3978  0.3105
 7643SOL    HW134562   3.476   4.147  15.757 -0.7593  1.4224  1.5330
 7643SOL    HW234563   3.355   4.076  15.720 -1.0507  1.1930  0.9027
 7644SOL     OW34564   2.294   3.442   7.154 -0.8330 -0.3571 -0.3989
 7644SOL    HW134565   2.379   3.430   7.198 -0.8490  1.6442  0.2196
 7644SOL    HW234566   2.294   3.536   7.135  0.6625 -0.5163 -1.1839
 7645SOL     OW34567   3.419   3.258  13.498 -0.4947  0.1643 -0.6869
 7645SOL    HW134568   3.438   3.239  13.590 -1.3843  0.1831 -0.4989
 7645SOL    HW234569   3.416   3.353  13.495 -0.9679  0.0990 -2.4016
 7646SOL     OW34570   4.244   1.505   2.733  0.1675  0.6609 -0.0878
 7646SOL    HW134571   4.199   1.447   2.673 -1.5408  1.4165  0.4506
 7646SOL    HW234572   4.337   1.485   2.722  0.2728  0.3950  1.2620
 7647SOL     OW34573   1.979   0.568   8.689  0.2126  0.0296  0.1170
 7647SOL    HW134574   1.902   0.562   8.632  0.2734 -1.3844  0.1803
 7647SOL    HW234575   2.030   0.494   8.656 -1.0615 -0.3268 -1.0611
 7648SOL     OW34576   0.967   0.817   6.194  0.3890 -0.2573  0.2407
 7648SOL    HW134577   0.931   0.905   6.182 -2.7489 -1.7590 -1.2587
 7648SOL    HW234578   0.947   0.815   6.287  0.8837  0.7767  0.3751
 7649SOL     OW34579   1.405   3.116   6.120  0.1548 -0.5273 -0.2890
 7649SOL    HW134580   1.444   3.114   6.207  0.5172  0.7996 -0.4136
 7649SOL    HW234581   1.454   3.181   6.068  1.0467 -1.3844 -0.5218
 7650SOL     OW34582   3.210   3.261  11.420 -0.2833  0.2582 -0.2149
 7650SOL    HW134583   3.281   3.200  11.402 -0.7104 -0.6168  1.0049
 7650SOL    HW234584   3.228   3.318  11.346  1.9073  1.2958  1.1442
 7651SOL     OW34585   3.118   4.300   3.753  0.5858  0.0692 -0.1556
 7651SOL    HW134586   3.144   4.283   3.843  1.4880 -0.1946 -0.4694
 7651SOL    HW234587   3.140   4.215   3.716 -1.3052 -0.5841  0.2103
 7652SOL     OW34588   3.201   1.818   9.194  0.0018  0.2801  0.2539
 7652SOL    HW134589   3.277   1.877   9.199  0.5013 -0.2753 -0.6910
 7652SOL    HW234590   3.236   1.737   9.232  0.1765  0.1166 -0.2508
 7653SOL     OW34591   2.852   2.783   3.227 -0.1427 -0.2325  0.3964
 7653SOL    HW134592   2.825   2.698   3.262  1.5776 -0.6095  0.7603
 7653SOL    HW234593   2.854   2.847   3.298 -1.5649  0.2721 -0.0096
 7654SOL     OW34594   4.298   0.925   3.175 -0.0129 -0.5180 -0.1762
 7654SOL    HW134595   4.353   0.881   3.111  0.1169 -0.3353 -0.1904
 7654SOL    HW234596   4.206   0.905   3.155  0.1194 -0.7184 -0.5763
 7655SOL     OW34597   4.494   0.386  13.906  0.3117  0.4450 -0.0213
 7655SOL    HW134598   4.464   0.298  13.930  2.3914  0.0898  1.3405
 7655SOL    HW234599   4.445   0.394  13.825 -1.0248 -3.1315  0.4240
 7656SOL     OW34600   3.604   0.437   1.565 -0.5734  0.3310  0.4847
 7656SOL    HW134601   3.681   0.423   1.510 -2.3021  0.8659 -2.0151
 7656SOL    HW234602   3.556   0.494   1.506  0.5037 -0.3395 -1.0300
 7657SOL     OW34603   0.779   3.945   4.074 -0.0813  0.0546  0.1686
 7657SOL    HW134604   0.744   3.955   4.162  0.1337 -1.5146  0.4296
 7657SOL    HW234605   0.698   3.919   4.030  0.6789 -1.3739 -0.3992
 7658SOL     OW34606   0.052   1.154   3.032  0.0153  0.4552 -0.0562
 7658SOL    HW134607   0.085   1.146   3.122  0.6034  1.3917 -0.1867
 7658SOL    HW234608   4.696   1.137   3.043  0.0179  1.5401  1.7379
 7659SOL     OW34609   1.108   3.485  11.942 -0.0395 -0.0795  0.0061
 7659SOL    HW134610   1.195   3.486  11.981  0.3791 -0.8829 -0.9264
 7659SOL    HW234611   1.106   3.404  11.892  3.0447  0.4366 -0.9419
 7660SOL     OW34612   2.375   2.093  15.770 -0.4034 -0.0149  0.0134
 7660SOL    HW134613   2.387   2.060  15.859  1.7599 -0.3287 -0.4016
 7660SOL    HW234614   2.458   2.132  15.745 -1.1437  1.5776  0.0121
 7661SOL     OW34615   0.698   2.842   7.256 -0.7578 -0.1848 -0.0734
 7661SOL    HW134616   0.777   2.856   7.203  0.4320  0.6920  1.9047
 7661SOL    HW234617   0.628   2.854   7.192 -1.3008  1.6583  0.8705
 7662SOL     OW34618   0.557   1.084   8.846 -0.2395 -0.2213 -0.4329
 7662SOL    HW134619   0.516   1.090   8.932 -0.6663  0.2012 -0.6643
 7662SOL    HW234620   0.643   1.074   8.887 -0.8944 -1.3719  0.6433
 7663SOL     OW34621   3.143   3.331   5.772 -0.2629 -0.0234 -0.4613
 7663SOL    HW134622   3.113   3.240   5.769 -1.5535  0.3652  0.3780
 7663SOL    HW234623   3.205   3.328   5.845 -0.1995 -0.3080 -0.5285
 7664SOL     OW34624   1.011   1.333   2.352 -0.4160  1.0137  0.4038
 7664SOL    HW134625   1.059   1.304   2.275 -0.3120  4.3056 -0.7763
 7664SOL    HW234626   0.961   1.408   2.319  1.6195  1.4890 -1.5604
 7665SOL     OW34627   1.138   2.846   8.743 -0.1082  0.1344  0.3685
 7665SOL    HW134628   1.220   2.829   8.696 -0.2820 -1.5035  0.6519
 7665SOL    HW234629   1.131   2.941   8.751 -0.6459 -0.1242  2.9731
 7666SOL     OW34630   2.801   0.825   2.092 -0.0896  0.7429 -0.4464
 7666SOL    HW134631   2.705   0.824   2.089 -0.1254  1.6958  0.1220
 7666SOL    HW234632   2.810   0.884   2.016  0.2883  0.9043 -0.2744
 7667SOL     OW34633   1.935   1.296  17.540  0.0893  0.2234  1.2596
 7667SOL    HW134634   1.888   1.226  17.494 -1.3970  2.4811 -0.6783
 7667SOL    HW234635   1.973   1.345  17.468 -1.5153 -0.2064  0.1017
 7668SOL     OW34636   0.124   0.318   7.566  0.0300 -0.2761  0.3670
 7668SOL    HW134637   0.219   0.329   7.573 -0.2389  2.8507 -0.9169
 7668SOL    HW234638   0.105   0.302   7.474  0.9346 -0.0416  0.1398
 7669SOL     OW34639   4.234   3.123  12.207  0.5994  0.2607  0.6676
 7669SOL    HW134640   4.162   3.186  12.208  0.5832  0.2625 -0.4485
 7669SOL    HW234641   4.185   3.045  12.180 -0.3688  1.0065  0.2760
 7670SOL     OW34642   3.976   0.246   1.890 -0.1476 -0.5728 -0.3962
 7670SOL    HW134643   3.936   0.222   1.806 -0.5068  2.2107 -1.0329
 7670SOL    HW234644   4.069   0.237   1.869  0.7150  0.3317  3.1184
 7671SOL     OW34645   2.621   0.397   7.776 -0.1520 -0.3002  0.5623
 7671SOL    HW134646   2.685   0.362   7.715 -0.1615 -1.8101  1.4103
 7671SOL    HW234647   2.547   0.355   7.732 -0.5573 -1.5831  2.4731
 7672SOL     OW34648   2.352   1.280   0.555  0.5101  0.0862 -0.4378
 7672SOL    HW134649   2.300   1.206   0.587  0.7200  0.8024  1.5717
 7672SOL    HW234650   2.401   1.315   0.629 -2.4144 -0.7990  1.9197
 7673SOL     OW34651   1.072   1.333  16.068  0.1038  0.5203  0.9553
 7673SOL    HW134652   1.062   1.380  16.151 -0.4230  3.1631 -0.6049
 7673SOL    HW234653   1.132   1.266  16.101  0.9032  1.3655  1.2217
 7674SOL     OW34654   2.273   3.555  14.390  0.1471 -0.1018  0.4044
 7674SOL    HW134655   2.313   3.641  14.373 -0.4701 -0.1677 -1.3876
 7674SOL    HW234656   2.182   3.587  14.386 -0.2969 -1.1056  2.4702
 7675SOL     OW34657   4.564   0.393   1.180  0.3964 -0.4089  0.3046
 7675SOL    HW134658   4.477   0.354   1.170 -0.0906  0.7581  0.0038
 7675SOL    HW234659   4.612   0.333   1.124  0.2882  0.8473 -1.1271
 7676SOL     OW34660   4.552   1.090   0.162  0.2038 -0.3630  0.2428
 7676SOL    HW134661   4.610   1.142   0.106 -0.9101  1.7231  1.0211
 7676SOL    HW234662   4.477   1.150   0.161  2.3020  2.2519 -0.9693
 7677SOL     OW34663   0.992   3.818   7.956  0.7517 -0.6807  0.3336
 7677SOL    HW134664   0.994   3.907   7.921 -2.0063 -0.6387  0.2287
 7677SOL    HW234665   1.086   3.807   7.967  0.2285 -3.8909  1.8094
 7678SOL     OW34666   3.163   1.575   5.268  0.2038 -0.0397 -0.6160
 7678SOL    HW134667   3.104   1.620   5.328  1.0632  0.4627 -0.1416
 7678SOL    HW234668   3.110   1.546   5.194 -0.3814  1.0596 -0.6371
 7679SOL     OW34669   0.929   1.349  10.878 -0.2196  0.1426  0.0158
 7679SOL    HW134670   0.865   1.288  10.841  1.1565 -0.6307 -1.1094
 7679SOL    HW234671   0.999   1.294  10.912 -1.0226 -0.4615  0.6939
 7680SOL     OW34672   1.859   3.158   0.624  0.6522 -0.0789 -0.2723
 7680SOL    HW134673   1.864   3.064   0.606 -1.7507 -0.6995  2.2808
 7680SOL    HW234674   1.808   3.148   0.705 -0.0185  1.2767 -0.5154
 7681SOL     OW34675   2.671   4.194   4.780 -0.2773  0.6140 -0.5592
 7681SOL    HW134676   2.674   4.235   4.867  1.3282  0.9876 -0.7973
 7681SOL    HW234677   2.578   4.190   4.758 -0.4110 -0.1378  0.1243
 7682SOL     OW34678   3.038   0.678   2.113 -0.2930  0.1538 -0.6575
 7682SOL    HW134679   3.057   0.669   2.019 -0.5131 -0.4070 -0.6489
 7682SOL    HW234680   2.943   0.688   2.109 -0.1009  2.0323 -0.3143
 7683SOL     OW34681   2.037   3.563   5.047  0.2536  0.0295 -0.6131
 7683SOL    HW134682   2.043   3.499   4.977 -3.3775  2.0143 -2.7255
 7683SOL    HW234683   2.055   3.509   5.124 -1.2515 -0.3002 -0.4926
 7684SOL     OW34684   0.558   4.247  10.399  0.2176  0.3040  0.4316
 7684SOL    HW134685   0.652   4.261  10.385  0.2287 -0.7423 -0.5037
 7684SOL    HW234686   0.519   4.331  10.376 -0.0743  0.5803  1.9513
 7685SOL     OW34687   4.220   3.732   3.951  0.0372 -0.5538 -0.2484
 7685SOL    HW134688   4.191   3.820   3.974 -0.3043 -0.9430  0.7854
 7685SOL    HW234689   4.225   3.742   3.856 -2.4580 -3.0041 -0.6287
 7686SOL     OW34690   0.932   3.498   4.774 -0.1844  0.0782  0.0154
 7686SOL    HW134691   0.908   3.408   4.752  1.0378 -0.1678 -0.2787
 7686SOL    HW234692   0.896   3.554   4.705  0.2169 -0.6571 -0.7916
 7687SOL     OW34693   1.883   1.363   7.916 -0.2379 -0.5230  0.2413
 7687SOL    HW134694   1.888   1.434   7.980  1.1241  2.0978 -2.7728
 7687SOL    HW234695   1.788   1.349   7.919 -0.4395  0.5332 -0.9164
 7688SOL     OW34696   1.817   4.176   4.906  0.1933  0.1268  0.1139
 7688SOL    HW134697   1.888   4.182   4.970 -1.7177  1.3201  2.1100
 7688SOL    HW234698   1.799   4.270   4.912 -0.0567  0.2200 -2.1194
 7689SOL     OW34699   1.571   1.348  14.908 -0.0192  0.8814  0.1686
 7689SOL    HW134700   1.596   1.257  14.894 -0.5753  0.9155 -1.0746
 7689SOL    HW234701   1.485   1.347  14.951 -0.1277  1.4745 -0.0304
 7690SOL     OW34702   3.397   1.386   4.167 -0.0426  0.8982  0.6562
 7690SOL    HW134703   3.412   1.338   4.248  1.1359  2.8318  1.5901
 7690SOL    HW234704   3.322   1.334   4.137  1.5150  0.7961 -3.0952
 7691SOL     OW34705   2.066   0.481   9.213  0.2319 -0.4564 -1.0132
 7691SOL    HW134706   2.066   0.474   9.118 -1.6486  2.2380 -1.2039
 7691SOL    HW234707   2.153   0.447   9.234  0.5446  0.1902 -1.2551
 7692SOL     OW34708   3.066   1.612   3.527 -0.0347 -0.1209 -0.3427
 7692SOL    HW134709   3.089   1.522   3.548  1.7166 -0.0790 -2.2321
 7692SOL    HW234710   3.108   1.659   3.599  0.4350  0.6321 -1.1121
 7693SOL     OW34711   3.740   3.676   4.306  0.5217  0.2803  0.1909
 7693SOL    HW134712   3.673   3.617   4.340 -0.9527  0.5478 -2.2049
 7693SOL    HW234713   3.821   3.650   4.350 -0.0090  0.3311  1.1784
 7694SOL     OW34714   0.242   2.162   4.541  0.2361  0.5037 -0.3813
 7694SOL    HW134715   0.169   2.184   4.484 -0.8120 -0.5850  0.5421
 7694SOL    HW234716   0.196   2.087   4.579 -0.3791  0.9584 -0.2264
 7695SOL     OW34717   0.943   1.461   1.708  0.0269 -0.2800 -0.7086
 7695SOL    HW134718   1.030   1.425   1.729  0.1106 -0.1512 -0.8372
 7695SOL    HW234719   0.900   1.378   1.688  0.1063 -1.2648  3.1198
 7696SOL     OW34720   0.263   4.243   3.751 -0.0440 -0.5218  0.4080
 7696SOL    HW134721   0.248   4.297   3.828 -0.5508 -0.2367  0.1135
 7696SOL    HW234722   0.348   4.219   3.786 -0.6312 -2.4792  0.4731
 7697SOL     OW34723   4.268   4.070   4.579  0.2727 -0.0914 -0.3289
 7697SOL    HW134724   4.286   3.977   4.592  0.0053  0.0869  1.4278
 7697SOL    HW234725   4.177   4.082   4.605 -0.1345 -0.3560 -1.6345
 7698SOL     OW34726   0.060   0.869   3.814 -0.0407 -0.0445 -0.2057
 7698SOL    HW134727   0.013   0.866   3.731  0.7523  2.5011 -0.7575
 7698SOL    HW234728   0.147   0.897   3.787  0.6376 -2.3334 -0.3371
 7699SOL     OW34729   1.960   0.496  14.197 -0.3311 -0.2674 -0.3699
 7699SOL    HW134730   2.042   0.501  14.247  0.2210  0.4077 -1.3521
 7699SOL    HW234731   2.002   0.477  14.113 -0.8947 -2.1371 -0.2236
 7700SOL     OW34732   4.625   2.140   7.281 -0.6699  0.2911 -0.3382
 7700SOL    HW134733   4.584   2.208   7.334 -1.4216 -1.0752  0.8442
 7700SOL    HW234734   4.612   2.062   7.336 -0.1966  0.8121  0.5132
 7701SOL     OW34735   1.842   3.312   5.605 -0.4307 -0.1508  0.1764
 7701SOL    HW134736   1.781   3.329   5.678 -2.4110  2.0527 -2.0022
 7701SOL    HW234737   1.781   3.280   5.539 -0.5814  0.2601  0.1184
 7702SOL     OW34738   4.554   2.704   6.121 -0.0387  0.5474  0.8762
 7702SOL    HW134739   4.642   2.740   6.125  0.1678  0.2172 -0.8093
 7702SOL    HW234740   4.552   2.685   6.027  2.7501 -0.6979  1.0730
 7703SOL     OW34741   3.692   2.009   1.778  0.2405  0.5437  0.0972
 7703SOL    HW134742   3.657   1.955   1.707  1.2010 -0.1280  0.1442
 7703SOL    HW234743   3.771   1.960   1.800 -0.7879 -1.0370  0.2882
 7704SOL     OW34744   2.571   0.747   4.663  0.0924  0.2575 -0.1355
 7704SOL    HW134745   2.530   0.699   4.591 -2.2707  2.5053 -0.3151
 7704SOL    HW234746   2.562   0.692   4.741 -0.8975  0.1662 -0.3132
 7705SOL     OW34747   0.939   3.667  12.008 -0.1619 -0.0591  0.0457
 7705SOL    HW134748   1.014   3.718  12.039 -1.4036  0.3689  2.3531
 7705SOL    HW234749   0.988   3.584  12.006 -2.0356 -1.1565  0.0235
 7706SOL     OW34750   1.155   3.586   8.140 -0.0892  0.2375  0.0519
 7706SOL    HW134751   1.184   3.675   8.158 -0.3538  0.0003  1.6406
 7706SOL    HW234752   1.149   3.536   8.222  1.1435  0.2522  0.1523
 7707SOL     OW34753   0.710   1.944   2.863 -0.3639 -0.0969 -0.1201
 7707SOL    HW134754   0.704   1.945   2.767 -2.2409  2.0190  0.0189
 7707SOL    HW234755   0.668   1.859   2.880  0.4097 -0.6094 -0.7673
 7708SOL     OW34756   3.707   3.159   1.970  0.0016 -0.0486 -0.0803
 7708SOL    HW134757   3.679   3.170   1.879 -1.5368 -1.4323  0.2068
 7708SOL    HW234758   3.727   3.249   1.992  0.6991 -0.0211 -0.8436
 7709SOL     OW34759   2.764   1.429  10.090  0.6349 -0.7707  0.1311
 7709SOL    HW134760   2.813   1.352  10.120  0.7647 -1.0136 -0.7262
 7709SOL    HW234761   2.833   1.472  10.039 -0.8559 -0.3045 -1.4696
 7710SOL     OW34762   3.361   3.102   1.257 -0.0202  0.3657  0.7351
 7710SOL    HW134763   3.427   3.155   1.211 -0.2400  0.9050  1.0402
 7710SOL    HW234764   3.305   3.073   1.185  0.2184 -0.4132  0.8608
 7711SOL     OW34765   3.057   3.430   2.500  0.2433 -0.4612 -0.4045
 7711SOL    HW134766   3.066   3.443   2.405 -0.0583  0.4331 -0.3151
 7711SOL    HW234767   2.962   3.429   2.498  0.2419 -0.4020 -0.3836
 7712SOL     OW34768   1.233   1.034   6.466 -0.0893 -0.0124  0.1246
 7712SOL    HW134769   1.303   0.987   6.421 -1.2420  1.0419 -2.8252
 7712SOL    HW234770   1.275   1.061   6.547 -0.4701 -0.9946  0.6603
 7713SOL     OW34771   2.205   0.638   4.372 -0.3451 -0.1894  0.2018
 7713SOL    HW134772   2.188   0.548   4.402  1.7158 -1.0578 -1.2241
 7713SOL    HW234773   2.212   0.617   4.279  0.5870 -1.5409  0.5784
 7714SOL     OW34774   1.780   1.719   6.568 -0.1633  0.3631  0.3473
 7714SOL    HW134775   1.699   1.671   6.585  0.8577 -1.1232  1.0452
 7714SOL    HW234776   1.761   1.806   6.602 -2.5309  1.1697 -2.9960
 7715SOL     OW34777   0.397   3.614  16.282 -0.0850 -0.2364  0.5744
 7715SOL    HW134778   0.374   3.686  16.340 -0.9581 -0.2557  0.2616
 7715SOL    HW234779   0.327   3.630  16.218 -0.8629  0.2259  1.5332
 7716SOL     OW34780   2.612   2.721   8.118 -0.6856 -0.1229  0.2345
 7716SOL    HW134781   2.534   2.670   8.139 -1.5686  1.0407 -0.2196
 7716SOL    HW234782   2.590   2.750   8.029 -0.8403 -4.1580 -1.0095
 7717SOL     OW34783   2.585   1.689  14.261  0.2061  0.6515 -0.0012
 7717SOL    HW134784   2.577   1.782  14.241 -3.4699  0.8838  2.4008
 7717SOL    HW234785   2.628   1.662  14.180 -0.1610  0.6667 -0.2000
 7718SOL     OW34786   1.232   0.679  17.037  0.1206 -0.0226 -0.0913
 7718SOL    HW134787   1.316   0.634  17.027 -0.6631 -1.8283  1.5478
 7718SOL    HW234788   1.170   0.608  17.027 -0.2520  0.1992  0.6617
 7719SOL     OW34789   2.431   4.674  16.864 -0.1850  0.2227 -0.1715
 7719SOL    HW134790   2.404   0.024  16.893  3.2418  0.9325  0.8786
 7719SOL    HW234791   2.512   4.669  16.914  0.4635  0.6406 -1.1731
 7720SOL     OW34792   2.821   4.041  16.628  0.5443  0.8064  0.0325
 7720SOL    HW134793   2.828   3.968  16.690 -2.3989 -0.1873 -0.8228
 7720SOL    HW234794   2.825   4.003  16.540 -1.3511  2.3679 -0.7229
 7721SOL     OW34795   0.682   2.642   8.623 -0.5253  0.2276  0.1289
 7721SOL    HW134796   0.760   2.687   8.590  0.3237  0.1700  2.0586
 7721SOL    HW234797   0.723   2.558   8.644  2.4933  1.7725  0.4072
 7722SOL     OW34798   1.424   3.209  11.019 -0.2927 -0.8359  0.4001
 7722SOL    HW134799   1.514   3.223  10.991 -0.8208  2.4857  0.4471
 7722SOL    HW234800   1.417   3.260  11.100 -2.4421 -1.0424  0.3375
 7723SOL     OW34801   3.992   0.936  14.974  0.5020 -0.5207 -0.0436
 7723SOL    HW134802   4.087   0.932  14.986  0.6869 -0.6335 -1.4642
 7723SOL    HW234803   3.989   1.031  14.980  2.3461 -0.4084 -0.8042
 7724SOL     OW34804   2.174   0.288   4.089  0.6944 -0.7629  0.2754
 7724SOL    HW134805   2.225   0.369   4.079  0.7683 -0.7433  0.8314
 7724SOL    HW234806   2.112   0.288   4.017  1.2190  0.7904 -0.1825
 7725SOL     OW34807   1.031   3.316   6.194 -0.7968  0.3444  0.1750
 7725SOL    HW134808   1.057   3.237   6.147  0.2591  0.4465  0.5986
 7725SOL    HW234809   1.118   3.348   6.216  0.1285 -1.6092 -0.5878
 7726SOL     OW34810   3.705   3.277   1.360 -0.5481  0.2722 -0.2034
 7726SOL    HW134811   3.797   3.266   1.335 -0.1101 -1.9882  2.4612
 7726SOL    HW234812   3.665   3.237   1.283 -1.6242  0.7087  0.1260
 7727SOL     OW34813   0.856   4.640   2.384  0.0668  0.0237 -0.3775
 7727SOL    HW134814   0.802   4.704   2.430  0.7142  0.3635 -0.0995
 7727SOL    HW234815   0.938   4.655   2.430  1.7095 -2.8983 -2.3259
 7728SOL     OW34816   0.629   2.441   4.715 -0.1519 -0.2136 -0.0069
 7728SOL    HW134817   0.660   2.440   4.806  0.4616 -0.7174 -0.2237
 7728SOL    HW234818   0.580   2.359   4.722  0.6469 -0.7939 -1.3442
 7729SOL     OW34819   2.280   1.610  17.216 -0.0762 -0.0393  0.1802
 7729SOL    HW134820   2.299   1.699  17.247 -0.2647  0.0467  0.0529
 7729SOL    HW234821   2.342   1.572  17.278 -0.6480 -0.7656  0.2967
 7730SOL     OW34822   4.506   3.166   3.075 -0.6220 -0.7961 -0.4101
 7730SOL    HW134823   4.417   3.132   3.064 -0.8710 -0.2340 -0.1372
 7730SOL    HW234824   4.546   3.133   2.995  1.1589 -2.9064  1.3696
 7731SOL     OW34825   0.716   0.168  15.766 -0.6494  0.1117 -0.0161
 7731SOL    HW134826   0.773   0.232  15.810 -1.3391  0.1652  0.7896
 7731SOL    HW234827   0.766   0.134  15.691 -0.4285  1.0464 -0.2929
 7732SOL     OW34828   4.303   4.063   6.212  0.3903  0.7440 -0.1459
 7732SOL    HW134829   4.292   4.133   6.276  0.4620  0.9797 -0.3906
 7732SOL    HW234830   4.398   4.067   6.201  0.1697 -1.2539 -2.6750
 7733SOL     OW34831   4.096   2.708   8.564  0.2056  0.6641 -0.3234
 7733SOL    HW134832   4.133   2.678   8.647  2.8022  2.7880 -0.7284
 7733SOL    HW234833   4.005   2.689   8.587  0.3274  0.8206  0.2996
 7734SOL     OW34834   0.884   4.338   3.966 -0.5304  0.6037  0.1707
 7734SOL    HW134835   0.933   4.398   3.910  0.3511  1.9796  2.4389
 7734SOL    HW234836   0.904   4.253   3.926  0.8201  0.1576  1.7882
 7735SOL     OW34837   0.117   1.707   8.867  0.1482  0.1795 -0.1299
 7735SOL    HW134838   0.070   1.650   8.806  0.3779 -0.3918  0.2267
 7735SOL    HW234839   0.100   1.658   8.948  0.2992  1.2653  0.5588
 7736SOL     OW34840   3.881   1.362   5.880 -0.1171  0.5941 -0.6714
 7736SOL    HW134841   3.935   1.366   5.959  0.5324 -1.2935 -1.0068
 7736SOL    HW234842   3.938   1.409   5.819  0.7841  0.3545 -0.0192
 7737SOL     OW34843   0.912   2.600   3.090  0.5200  0.2214 -0.3907
 7737SOL    HW134844   0.983   2.566   3.037  1.4031  0.5784  0.5546
 7737SOL    HW234845   0.972   2.626   3.160 -0.0987 -0.5043  0.4218
 7738SOL     OW34846   1.734   2.769  14.838  0.6739  0.2728 -0.2643
 7738SOL    HW134847   1.748   2.819  14.758 -0.5037  0.2617 -0.4798
 7738SOL    HW234848   1.737   2.685  14.791 -1.0968 -0.2851  0.6041
 7739SOL     OW34849   3.952   3.541   9.825 -0.5279  0.7723 -0.0724
 7739SOL    HW134850   3.922   3.490   9.901 -0.1239 -2.1077 -1.8479
 7739SOL    HW234851   4.027   3.485   9.805 -2.7953 -1.5024 -2.1680
 7740SOL     OW34852   0.696   4.106  16.540 -0.2085 -0.1230  0.4080
 7740SOL    HW134853   0.693   4.118  16.445  1.7955  1.8229  0.5929
 7740SOL    HW234854   0.773   4.159  16.562  0.4612 -0.9233  0.0067
 7741SOL     OW34855   3.116   4.353  10.995 -0.2518 -0.4078  0.7314
 7741SOL    HW134856   3.030   4.362  10.954  0.7700  0.9896 -1.1150
 7741SOL    HW234857   3.136   4.261  10.979 -0.9917 -0.6242  1.0443
 7742SOL     OW34858   3.450   0.023   7.409  0.0539 -0.7144  0.2173
 7742SOL    HW134859   3.443   0.060   7.321  2.7823  3.3043  1.7107
 7742SOL    HW234860   3.420   0.095   7.464  0.9879 -0.2276  0.0847
 7743SOL     OW34861   2.621   1.476   2.786 -0.3219  0.0840 -0.1554
 7743SOL    HW134862   2.670   1.465   2.868 -0.4854  2.6639  0.2899
 7743SOL    HW234863   2.611   1.384   2.760  0.6535 -0.3788  1.0805
 7744SOL     OW34864   4.695   0.362   1.661  0.0382 -0.7440  0.5802
 7744SOL    HW134865   4.605   0.393   1.671 -0.3399 -0.2096 -4.3605
 7744SOL    HW234866   4.707   0.375   1.567 -1.6022  1.7362  0.7301
 7745SOL     OW34867   1.992   0.030   1.069 -0.3938 -0.0649 -0.4707
 7745SOL    HW134868   1.999   0.040   1.164 -0.7982  0.5024 -0.5020
 7745SOL    HW234869   1.927   4.697   1.068 -1.4287  0.8901  0.1330
 7746SOL     OW34870   2.316   0.586   5.444 -0.2044  0.0117 -0.6525
 7746SOL    HW134871   2.404   0.548   5.443  0.9598  2.6832 -0.8158
 7746SOL    HW234872   2.323   0.673   5.403 -3.4037  0.2706 -0.5977
 7747SOL     OW34873   3.915   0.622   1.608 -0.4909  0.7506  0.5626
 7747SOL    HW134874   3.905   0.596   1.516 -1.9498 -2.5262  1.6578
 7747SOL    HW234875   3.995   0.575   1.631  0.8723  1.6881 -2.1918
 7748SOL     OW34876   4.413   0.442   7.553 -0.5336 -0.2281 -0.0919
 7748SOL    HW134877   4.428   0.352   7.525 -1.6157 -0.0639 -1.2146
 7748SOL    HW234878   4.420   0.490   7.471 -2.4350 -1.8920 -1.2202
 7749SOL     OW34879   2.638   4.730   5.254  0.5171  1.1359 -0.4511
 7749SOL    HW134880   2.602   0.022   5.170  1.1186 -1.9422 -1.8027
 7749SOL    HW234881   2.571   0.035   5.307 -1.4244 -3.6987  0.9435
 7750SOL     OW34882   1.381   1.555   2.580 -0.1244  0.7265 -0.5995
 7750SOL    HW134883   1.333   1.473   2.584 -0.1732  0.7622 -0.4452
 7750SOL    HW234884   1.441   1.548   2.505 -0.7188 -1.0944 -0.8800
 7751SOL     OW34885   3.458   2.144  16.808  0.3278  0.2798  0.2596
 7751SOL    HW134886   3.485   2.057  16.837  0.3062 -0.1222 -0.9146
 7751SOL    HW234887   3.408   2.132  16.727  1.1638  1.3908 -0.4255
 7752SOL     OW34888   1.825   2.331   7.983  0.3586  0.3010  0.1847
 7752SOL    HW134889   1.748   2.387   7.976  0.6075  0.8779  1.9719
 7752SOL    HW234890   1.894   2.359   7.923  0.0969  0.8280  0.1316
 7753SOL     OW34891   0.654   0.038   4.221  0.3705  0.2185 -0.0833
 7753SOL    HW134892   0.706   4.714   4.169 -1.0816 -0.6845 -0.4615
 7753SOL    HW234893   0.673   0.019   4.313 -1.5976  1.5934  0.6064
 7754SOL     OW34894   2.033   0.588   1.847  0.2344  0.5874  0.1467
 7754SOL    HW134895   2.039   0.505   1.895  0.6951  1.0306  0.8479
 7754SOL    HW234896   2.029   0.660   1.909 -1.2205  0.3970  0.2767
 7755SOL     OW34897   0.589   2.073   2.180  0.2655  0.5012 -0.1093
 7755SOL    HW134898   0.542   1.992   2.161 -0.6175  1.4521 -2.0089
 7755SOL    HW234899   0.678   2.050   2.206 -0.6510 -1.6821  1.0806
 7756SOL     OW34900   1.193   1.560  17.381  0.1856  0.5044 -0.1683
 7756SOL    HW134901   1.269   1.533  17.433 -1.4970 -2.4493  0.7333
 7756SOL    HW234902   1.123   1.560  17.446 -0.2691  1.2744 -0.6652
 7757SOL     OW34903   3.258   4.025   7.860  0.1345 -0.1436 -0.5248
 7757SOL    HW134904   3.185   3.978   7.900  0.1069 -0.5509 -1.0655
 7757SOL    HW234905   3.289   3.961   7.796 -2.6242  0.1953 -2.2113
 7758SOL     OW34906   0.167   2.904   7.037  0.1722  0.1261 -0.0063
 7758SOL    HW134907   0.169   2.809   7.027  0.7437  0.5461 -3.7036
 7758SOL    HW234908   0.117   2.921   6.957 -0.6325  0.3435  0.5356
 7759SOL     OW34909   1.980   0.723  17.315 -0.3594 -0.2208  0.0528
 7759SOL    HW134910   2.025   0.639  17.307  0.5151  0.1866  0.6433
 7759SOL    HW234911   2.044   0.770  17.263 -0.6495 -0.5199 -0.5722
 7760SOL     OW34912   4.345   1.885   2.694  0.1327  0.0222 -0.0595
 7760SOL    HW134913   4.254   1.857   2.685 -0.2259  1.1477  0.1334
 7760SOL    HW234914   4.374   1.810   2.642  0.8830  0.2295  0.0529
 7761SOL     OW34915   1.620   2.291   9.186  0.0248  0.5027  0.2862
 7761SOL    HW134916   1.655   2.241   9.260  0.2652  1.4254  0.7823
 7761SOL    HW234917   1.701   2.315   9.141  1.5022 -3.5674  0.7521
 7762SOL     OW34918   2.521   0.708  14.497 -0.4110  0.4473  0.6116
 7762SOL    HW134919   2.483   0.620  14.509 -2.9021  1.4113 -0.2180
 7762SOL    HW234920   2.568   0.694  14.415 -0.9374  0.0360  0.3798
 7763SOL     OW34921   2.909   0.057   4.223 -0.0185 -0.0714  0.3015
 7763SOL    HW134922   2.972   0.075   4.153 -1.1089 -0.3670 -0.7669
 7763SOL    HW234923   2.948   0.066   4.310  0.4100  0.0987  0.0885
 7764SOL     OW34924   0.196   0.034   1.008 -0.1639  0.1063  0.4113
 7764SOL    HW134925   0.286   0.002   1.013 -0.7754 -1.3823  1.9370
 7764SOL    HW234926   0.157   4.735   1.088 -1.3713 -0.3029 -0.3639
 7765SOL     OW34927   4.448   0.214   3.092  0.1827 -0.6291 -0.4401
 7765SOL    HW134928   4.450   0.276   3.019 -0.8843  2.5586  2.2509
 7765SOL    HW234929   4.384   0.256   3.149 -0.6592 -0.3460 -1.5833
 7766SOL     OW34930   2.699   3.979  16.172  0.4971 -0.2908 -0.1312
 7766SOL    HW134931   2.728   3.972  16.263  2.1007  0.3477 -0.6019
 7766SOL    HW234932   2.768   3.928  16.129  1.2810  0.2347  0.4905
 7767SOL     OW34933   4.537   3.776   3.331 -0.3970  0.4148  0.1258
 7767SOL    HW134934   4.605   3.719   3.297  0.1153  0.7143  0.6348
 7767SOL    HW234935   4.551   3.853   3.275  0.0438 -0.3146 -0.7583
 7768SOL     OW34936   0.559   0.374   6.271  0.5175 -0.2118 -0.2781
 7768SOL    HW134937   0.494   0.326   6.323 -1.5376  2.0143 -0.7729
 7768SOL    HW234938   0.609   0.422   6.337  0.3381 -0.1223 -0.2077
 7769SOL     OW34939   3.196   1.936  17.007  0.8789  0.2722  0.0942
 7769SOL    HW134940   3.145   2.015  17.024  1.7086  0.4924  1.5602
 7769SOL    HW234941   3.185   1.922  16.913  1.6169  1.0047 -0.1014
 7770SOL     OW34942   3.746   1.345   4.432  0.3371 -0.2961 -0.3517
 7770SOL    HW134943   3.734   1.432   4.392  1.3553 -0.5478 -1.2082
 7770SOL    HW234944   3.705   1.354   4.518 -1.6637  2.9372 -1.6001
 7771SOL     OW34945   1.492   3.525   0.889  0.2557  0.2094 -0.1592
 7771SOL    HW134946   1.563   3.485   0.939  1.8615  0.2012 -2.4754
 7771SOL    HW234947   1.412   3.502   0.936  1.0061  0.3603  1.1771
 7772SOL     OW34948   1.710   2.212   4.050 -0.0886 -0.3060  0.4082
 7772SOL    HW134949   1.696   2.306   4.063  1.0860 -0.0344 -0.2750
 7772SOL    HW234950   1.686   2.195   3.959  1.9187  1.6256 -0.4821
 7773SOL     OW34951   3.913   3.967  13.680  0.1061 -0.3652  0.4946
 7773SOL    HW134952   3.841   4.019  13.645  1.6597  0.8373 -0.9142
 7773SOL    HW234953   3.868   3.883  13.676  0.0744 -0.2689 -1.4586
 7774SOL     OW34954   2.097   1.626   4.610  0.0821 -0.5464  0.3038
 7774SOL    HW134955   2.145   1.582   4.540  1.5616  1.3058  0.1727
 7774SOL    HW234956   2.091   1.553   4.672  2.2459  0.9775  2.2949
 7775SOL     OW34957   0.781   4.230   0.607 -0.1982 -0.2334  0.1587
 7775SOL    HW134958   0.862   4.184   0.627 -0.9274 -1.6164 -0.0290
 7775SOL    HW234959   0.803   4.313   0.565 -0.7825 -0.3810 -0.4374
 7776SOL     OW34960   2.835   4.689   5.711  0.1491 -0.2499 -0.3164
 7776SOL    HW134961   2.902   4.650   5.767 -1.5846 -1.2556  1.0558
 7776SOL    HW234962   2.879   0.036   5.704 -0.4034  0.0075 -0.7024
 7777SOL     OW34963   0.877   3.417   1.733 -0.8786  0.3422 -0.1937
 7777SOL    HW134964   0.869   3.326   1.704 -3.0056  0.4891 -0.0657
 7777SOL    HW234965   0.969   3.439   1.714 -0.9258 -0.9407 -1.8941
 7778SOL     OW34966   2.480   0.932   5.928 -0.6094 -0.2431 -0.4627
 7778SOL    HW134967   2.406   0.910   5.984 -0.9149 -0.8946 -1.1316
 7778SOL    HW234968   2.526   0.849   5.924  1.4969  0.9323 -0.9422
 7779SOL     OW34969   4.349   1.171   4.895 -0.2153 -0.2925  0.3024
 7779SOL    HW134970   4.414   1.102   4.883  1.3319  0.5573  3.6182
 7779SOL    HW234971   4.400   1.245   4.928  1.1734 -0.1136 -2.2998
 7780SOL     OW34972   4.060   1.728   1.947  0.2352  0.1765 -0.4745
 7780SOL    HW134973   4.133   1.733   2.009 -0.6699 -1.2378  0.6952
 7780SOL    HW234974   4.008   1.652   1.972 -1.5551  1.4784 -0.2533
 7781SOL     OW34975   2.088   4.121   9.439 -0.2620 -0.1228 -0.3943
 7781SOL    HW134976   2.120   4.136   9.350  0.3453 -0.1694 -0.1815
 7781SOL    HW234977   2.119   4.204   9.476  0.4110 -0.3088 -0.5370
 7782SOL     OW34978   0.842   1.638  10.717  0.6162 -0.0580 -0.7442
 7782SOL    HW134979   0.764   1.664  10.765  2.3503  1.0414  1.5244
 7782SOL    HW234980   0.902   1.613  10.788 -2.9758 -0.3733  2.1717
 7783SOL     OW34981   1.091   3.836  11.439 -0.4508  0.0548 -0.6674
 7783SOL    HW134982   1.056   3.919  11.406  1.6143  0.1664 -2.5142
 7783SOL    HW234983   1.063   3.843  11.531  1.4349 -0.2501 -0.0796
 7784SOL     OW34984   1.697   3.018   6.862  0.2588  0.4414  0.1361
 7784SOL    HW134985   1.712   3.093   6.919  0.4987  1.2100 -0.9500
 7784SOL    HW234986   1.733   2.945   6.913  0.8725  1.5680  1.2875
 7785SOL     OW34987   1.160   4.026   8.701 -0.4249 -0.7662  0.5088
 7785SOL    HW134988   1.241   3.975   8.709  0.1592 -0.0849 -1.1779
 7785SOL    HW234989   1.137   4.013   8.610  2.3664 -1.8663 -0.0438
 7786SOL     OW34990   3.211   3.227   8.665 -0.3439  0.0147  0.8208
 7786SOL    HW134991   3.153   3.151   8.665 -0.7340  0.3127  2.6415
 7786SOL    HW234992   3.144   3.286   8.630  0.6059 -0.1149 -1.1984
 7787SOL     OW34993   3.565   4.026   0.624  0.1171 -0.2216  0.1717
 7787SOL    HW134994   3.585   4.118   0.606  2.0318 -1.1142 -2.3311
 7787SOL    HW234995   3.479   4.028   0.666 -0.4446  0.3143 -1.0136
 7788SOL     OW34996   1.746   1.182   2.066  0.4892 -0.1055  0.0245
 7788SOL    HW134997   1.674   1.120   2.081  1.3966 -0.7269  1.8668
 7788SOL    HW234998   1.725   1.203   1.975 -1.5013 -0.3206  0.4325
 7789SOL     OW34999   1.211   4.670  17.672 -0.2796 -0.0107  0.0302
 7789SOL    HW135000   1.126   4.690  17.631  1.0160  1.4898 -1.8856
 7789SOL    HW235001   1.203   4.736  17.741 -3.6969 -0.3184 -0.0359
 7790SOL     OW35002   4.049   4.574   9.082  0.1436 -0.0411  0.0064
 7790SOL    HW135003   4.145   4.573   9.082  0.1818  2.9149  0.6714
 7790SOL    HW235004   4.028   4.483   9.065 -0.9016  0.5718 -1.9352
 7791SOL     OW35005   0.044   3.785   9.218 -0.1240  0.1135  0.2261
 7791SOL    HW135006   4.729   3.803   9.141  1.3852  1.7502 -0.4073
 7791SOL    HW235007   0.010   3.860   9.267 -1.5492 -0.4308  0.0732
 7792SOL     OW35008   2.351   4.545   2.526 -0.1350 -0.4312 -0.2867
 7792SOL    HW135009   2.331   4.584   2.611 -0.9935  1.7557 -1.4816
 7792SOL    HW235010   2.381   4.622   2.478 -1.0459 -1.3045 -2.2720
 7793SOL     OW35011   2.103   0.608   5.289 -0.3344 -0.3290 -0.3280
 7793SOL    HW135012   2.130   0.699   5.287  0.1013 -0.4532  0.1216
 7793SOL    HW235013   2.172   0.564   5.338 -0.1732  0.8425  0.4874
 7794SOL     OW35014   3.948   2.592   6.328  0.2125  0.5337 -0.1014
 7794SOL    HW135015   3.860   2.561   6.349 -0.0193  2.5265  1.8766
 7794SOL    HW235016   4.002   2.529   6.376  0.7360  1.9108  1.1322
 7795SOL     OW35017   2.906   0.804  14.315 -0.3411 -0.6743 -0.7772
 7795SOL    HW135018   2.939   0.760  14.394 -0.0752 -0.9447 -1.0402
 7795SOL    HW235019   2.876   0.885  14.358  2.8233  1.1424 -1.9487
 7796SOL     OW35020   2.071   4.124   6.421  0.3134  0.0552  0.2876
 7796SOL    HW135021   2.157   4.132   6.380  0.5573 -0.9086  0.6104
 7796SOL    HW235022   2.101   4.114   6.511 -1.1951 -0.2243  0.7522
 7797SOL     OW35023   0.094   0.655   3.229  0.1474  0.3945  0.1760
 7797SOL    HW135024   0.052   0.627   3.148  0.3068  0.5021  0.0546
 7797SOL    HW235025   0.050   0.739   3.244 -1.4335 -0.2106 -1.0047
 7798SOL     OW35026   1.181   3.721   0.229 -0.0308  0.2748  0.6029
 7798SOL    HW135027   1.154   3.735   0.320 -1.0787  2.8507 -0.0993
 7798SOL    HW235028   1.118   3.655   0.198 -0.5611  0.8676  0.4275
 7799SOL     OW35029   4.466   0.729   0.133  1.0568 -0.2676 -0.2811
 7799SOL    HW135030   4.463   0.807   0.078  1.1355  0.5479  0.8660
 7799SOL    HW235031   4.544   0.685   0.099  0.2730 -1.3651 -0.6634
 7800SOL     OW35032   0.793   2.966   8.897  0.4012  0.2152  0.1510
 7800SOL    HW135033   0.750   3.046   8.867 -1.0133  0.1324  1.9385
 7800SOL    HW235034   0.869   3.011   8.935  1.8033 -1.3395 -0.7909
 7801SOL     OW35035   0.297   0.011   6.158 -0.1129  0.3747 -0.1596
 7801SOL    HW135036   0.387   0.045   6.164  0.9775 -2.2506 -1.7278
 7801SOL    HW235037   0.289   4.730   6.251 -1.2587  0.0940 -0.3197
 7802SOL     OW35038   4.737   3.086   9.186  0.0035 -0.1695 -0.1136
 7802SOL    HW135039   0.055   3.131   9.251 -0.9541  1.5603 -0.4838
 7802SOL    HW235040   0.041   3.001   9.175 -0.4989 -0.3102 -0.8872
 7803SOL     OW35041   3.672   3.925   1.300  0.0316  0.0823  0.0730
 7803SOL    HW135042   3.679   3.841   1.256  1.3269  0.0387  0.3559
 7803SOL    HW235043   3.762   3.957   1.292  0.0836 -0.0327  0.1904
 7804SOL     OW35044   3.183   4.312   4.271  0.3495 -0.1592  0.3147
 7804SOL    HW135045   3.147   4.231   4.234 -1.1057  0.0368  1.2706
 7804SOL    HW235046   3.111   4.356   4.316  1.3567  1.1784  0.6141
 7805SOL     OW35047   2.979   3.131   2.125 -0.2350  0.1232 -0.0044
 7805SOL    HW135048   3.000   3.045   2.088 -2.6888  0.1812 -1.5432
 7805SOL    HW235049   2.979   3.185   2.047  2.4848 -0.5122 -0.4248
 7806SOL     OW35050   4.559   3.029   5.450  0.2533 -0.7612 -0.5063
 7806SOL    HW135051   4.640   3.037   5.501 -0.1605 -1.4609  0.2648
 7806SOL    HW235052   4.582   2.966   5.382  2.0972  0.0726 -0.6465
 7807SOL     OW35053   1.161   0.126   8.383  0.5967  0.6228 -0.6095
 7807SOL    HW135054   1.129   0.205   8.427 -0.8532 -0.4608  0.3004
 7807SOL    HW235055   1.082   0.106   8.332 -0.4694 -0.9800  1.6919
 7808SOL     OW35056   1.148   0.656  12.239 -0.6417  0.3033 -0.3830
 7808SOL    HW135057   1.140   0.622  12.328  2.1170 -0.2059 -0.3549
 7808SOL    HW235058   1.067   0.708  12.233 -0.8700  0.1874  1.6847
 7809SOL     OW35059   3.251   3.612  16.446 -0.6015  0.0148  0.1074
 7809SOL    HW135060   3.228   3.520  16.435  1.3217 -0.8125  3.0850
 7809SOL    HW235061   3.336   3.601  16.488 -0.4013  2.0917  0.2739
 7810SOL     OW35062   3.368   1.777   2.893  0.8496  0.0905 -0.1555
 7810SOL    HW135063   3.303   1.785   2.823 -0.9794  0.7752  1.6221
 7810SOL    HW235064   3.343   1.842   2.958  0.5012  0.9178 -1.1211
 7811SOL     OW35065   1.957   3.316   8.049  0.0799 -0.0136 -0.1129
 7811SOL    HW135066   1.873   3.358   8.066 -0.0145 -0.4113  0.4094
 7811SOL    HW235067   2.010   3.389   8.017  1.5778  0.0479  2.4798
 7812SOL     OW35068   1.121   1.880  14.501 -0.5927  0.0259 -0.5564
 7812SOL    HW135069   1.138   1.789  14.478 -0.9323 -0.0474 -0.5056
 7812SOL    HW235070   1.164   1.924  14.427  0.0099  0.2727 -0.0599
 7813SOL     OW35071   0.071   3.168   9.831  0.0788  0.3453  0.1400
 7813SOL    HW135072   0.097   3.241   9.774 -0.2375  0.9976  0.8429
 7813SOL    HW235073   0.046   3.102   9.767  1.0955  0.6030 -0.5230
 7814SOL     OW35074   1.502   2.598   7.344 -0.2073  0.4280 -0.1890
 7814SOL    HW135075   1.445   2.522   7.352  0.1413  0.3137  1.2089
 7814SOL    HW235076   1.573   2.575   7.404  0.5652 -0.4919 -1.4608
 7815SOL     OW35077   2.817   3.537   5.491 -0.4906  0.3027 -0.3043
 7815SOL    HW135078   2.857   3.565   5.573  1.8724 -0.0811 -1.3374
 7815SOL    HW235079   2.781   3.452   5.516  2.5162 -1.3907 -1.7079
 7816SOL     OW35080   1.449   3.293   9.086 -0.5582 -0.1851  0.6195
 7816SOL    HW135081   1.425   3.382   9.112 -0.6505  0.8270 -2.9464
 7816SOL    HW235082   1.542   3.304   9.065 -1.1037  0.7644 -1.2817
 7817SOL     OW35083   2.066   4.028   2.939  0.2580 -0.0177  0.4314
 7817SOL    HW135084   2.086   3.942   2.978 -1.5457 -0.0183  1.3667
 7817SOL    HW235085   2.107   4.017   2.853 -0.6356  1.0349 -0.1279
 7818SOL     OW35086   3.334   0.956   4.013  0.0773 -0.0185  0.6084
 7818SOL    HW135087   3.388   0.892   3.966  2.1331  1.3172  1.1606
 7818SOL    HW235088   3.262   0.894   4.027 -0.0204  0.2792  1.4384
 7819SOL     OW35089   3.098   1.379   1.000 -0.5599 -0.5849 -0.2924
 7819SOL    HW135090   3.019   1.432   0.996 -0.6646 -0.7355 -0.2235
 7819SOL    HW235091   3.076   1.303   0.945 -0.4709 -0.5306 -0.4030
 7820SOL     OW35092   2.196   3.714   4.889 -0.1139  0.2732 -0.1876
 7820SOL    HW135093   2.170   3.662   4.813  0.8433  1.1177 -1.0781
 7820SOL    HW235094   2.166   3.661   4.963  1.5007  0.1652  0.3984
 7821SOL     OW35095   0.962   1.425  15.295  0.0504  0.4642  0.3136
 7821SOL    HW135096   1.042   1.407  15.245 -0.5875 -0.5990 -0.3338
 7821SOL    HW235097   0.989   1.395  15.382 -2.5207 -0.0608  0.9205
 7822SOL     OW35098   3.648   3.574   8.994 -0.2647 -1.1156  0.2176
 7822SOL    HW135099   3.564   3.535   9.018 -0.5514  0.7995  2.3863
 7822SOL    HW235100   3.699   3.503   8.956  1.1528 -0.0371  0.1067
 7823SOL     OW35101   0.690   3.037  14.028 -0.4220  0.4260 -0.0491
 7823SOL    HW135102   0.742   3.045  14.108 -0.6462 -0.4273  0.1787
 7823SOL    HW235103   0.662   2.946  14.034 -1.1948  0.8067  1.9660
 7824SOL     OW35104   0.119   3.503  16.381 -0.2282 -0.0628  0.0967
 7824SOL    HW135105   0.180   3.436  16.412 -1.8901 -1.2648  0.7725
 7824SOL    HW235106   0.082   3.532  16.464 -2.4662  1.4839 -1.4222
 7825SOL     OW35107   3.358   3.529  14.114 -0.4494  0.5083  0.2653
 7825SOL    HW135108   3.264   3.521  14.132 -0.5345 -0.7730 -0.7216
 7825SOL    HW235109   3.368   3.623  14.127 -2.7310  1.2362 -3.0444
 7826SOL     OW35110   0.429   0.798   3.363  0.0946 -0.0848  0.3043
 7826SOL    HW135111   0.435   0.738   3.289 -3.7124  0.1296 -0.1773
 7826SOL    HW235112   0.507   0.778   3.415  1.4615  0.6860 -1.4447
 7827SOL     OW35113   3.428   2.689   2.933 -0.5891  1.0322  0.9405
 7827SOL    HW135114   3.369   2.618   2.959  0.2145  0.9121  2.3940
 7827SOL    HW235115   3.388   2.726   2.854 -0.7409  1.3247  1.1526
 7828SOL     OW35116   3.995   1.473   8.600 -0.3544 -0.0062  0.2864
 7828SOL    HW135117   3.963   1.524   8.675  1.3995  0.6850  0.5588
 7828SOL    HW235118   3.970   1.531   8.528  1.6055  0.3441 -0.1017
 7829SOL     OW35119   4.558   1.179   2.383  1.0364 -0.1198 -0.5430
 7829SOL    HW135120   4.479   1.189   2.330  1.3995  1.0477 -0.8734
 7829SOL    HW235121   4.606   1.257   2.355  1.5553 -0.1507  0.2457
 7830SOL     OW35122   0.407   2.920   9.252  0.2127 -0.2393 -0.0816
 7830SOL    HW135123   0.365   2.909   9.167 -1.4737  0.4247  0.6681
 7830SOL    HW235124   0.494   2.897   9.219  0.3625 -0.4090  0.4256
 7831SOL     OW35125   1.441   4.464   8.326 -0.8615  0.5338  0.3969
 7831SOL    HW135126   1.407   4.380   8.356 -0.2436  0.2335  0.2416
 7831SOL    HW235127   1.501   4.481   8.399 -2.1655  3.7668  0.7349
 7832SOL     OW35128   3.482   2.717   8.842 -0.3497  0.3527  0.4249
 7832SOL    HW135129   3.562   2.745   8.797 -0.0530 -0.1800  0.6124
 7832SOL    HW235130   3.426   2.794   8.830  0.7610  1.1318  0.2223
 7833SOL     OW35131   4.634   0.784   4.356 -0.2069 -0.2889 -0.3604
 7833SOL    HW135132   4.583   0.851   4.308 -1.3413 -1.1944 -0.4198
 7833SOL    HW235133   4.611   0.798   4.447  0.1755 -1.3627 -0.1036
 7834SOL     OW35134   4.329   2.064   0.966  0.0842  0.4131  0.3730
 7834SOL    HW135135   4.402   2.124   0.954  1.6761 -1.5409  0.3468
 7834SOL    HW235136   4.373   1.981   0.981  0.7968  0.5719 -0.9284
 7835SOL     OW35137   0.476   2.992  11.679  0.1053  0.3698  0.1354
 7835SOL    HW135138   0.464   3.081  11.712  0.3497  0.4956 -0.1234
 7835SOL    HW235139   0.508   3.013  11.592  0.0194  0.9017  0.2359
 7836SOL     OW35140   1.882   2.160  13.208  0.7467 -0.3877 -0.2646
 7836SOL    HW135141   1.786   2.151  13.215  0.9011 -0.0847  2.1103
 7836SOL    HW235142   1.910   2.074  13.176 -0.7754 -0.5989 -1.0304
 7837SOL     OW35143   1.572   3.116  16.906 -0.2064  0.3087 -0.0160
 7837SOL    HW135144   1.618   3.085  16.827 -0.2818 -1.1672  0.5119
 7837SOL    HW235145   1.616   3.063  16.973 -1.5092 -0.5230  0.1904
 7838SOL     OW35146   3.154   0.417  14.362  0.6317  0.1546  0.0476
 7838SOL    HW135147   3.151   0.356  14.436 -1.1692 -2.6596 -2.3833
 7838SOL    HW235148   3.086   0.484  14.372  0.4355 -0.2150  1.1675
 7839SOL     OW35149   2.068   0.034   8.095 -0.3943  0.4306  0.0891
 7839SOL    HW135150   2.143   0.013   8.151  0.2082  0.7822 -0.5993
 7839SOL    HW235151   2.111   0.035   8.009  0.0340  2.2418  0.3385
 7840SOL     OW35152   4.393   1.737  11.416 -0.3756  0.8020 -0.1042
 7840SOL    HW135153   4.365   1.721  11.505  0.0927 -0.9630 -0.2649
 7840SOL    HW235154   4.316   1.782  11.383 -1.8594 -1.8188 -0.2467
 7841SOL     OW35155   1.567   4.274   3.569 -0.2805 -0.2231  0.1619
 7841SOL    HW135156   1.641   4.289   3.628  0.7315  1.2582 -1.5018
 7841SOL    HW235157   1.548   4.361   3.536  1.3214 -1.0137 -2.8226
 7842SOL     OW35158   1.777   3.433   6.166  0.7047  0.3781  0.2114
 7842SOL    HW135159   1.777   3.522   6.203  2.8829  1.0402 -1.3109
 7842SOL    HW235160   1.870   3.408   6.164  0.2655 -1.1200 -1.1240
 7843SOL     OW35161   4.407   4.389   4.458  0.2142 -0.1588  0.4490
 7843SOL    HW135162   4.415   4.449   4.383 -0.9185 -0.3910  0.1381
 7843SOL    HW235163   4.410   4.308   4.408  1.5020  0.4692 -0.5095
 7844SOL     OW35164   0.933   3.905  14.749  0.1103  0.1601  0.1322
 7844SOL    HW135165   0.913   3.999  14.744  1.2931  0.2582 -2.6712
 7844SOL    HW235166   1.027   3.900  14.734  0.0953 -1.6935  0.6366
 7845SOL     OW35167   1.474   2.964   7.682  0.3893 -0.3753  0.5430
 7845SOL    HW135168   1.489   3.032   7.747  0.2157  0.2642 -0.0903
 7845SOL    HW235169   1.383   2.979   7.659  0.8148  0.6364 -0.4557
 7846SOL     OW35170   3.334   4.092   6.947 -0.1671 -0.1903  0.3924
 7846SOL    HW135171   3.254   4.105   6.896 -0.2130 -2.6385 -0.1674
 7846SOL    HW235172   3.379   4.027   6.894  1.6009  1.6433 -0.3610
 7847SOL     OW35173   1.096   1.333  15.550  0.0020  0.1347 -0.0955
 7847SOL    HW135174   1.112   1.350  15.643  3.0703 -0.6524 -0.5033
 7847SOL    HW235175   1.174   1.373  15.511  0.3849  0.7257  1.2585
 7848SOL     OW35176   2.837   4.041   8.408 -0.4267 -0.3297  0.1799
 7848SOL    HW135177   2.856   4.033   8.501  1.4615  1.3340 -0.0743
 7848SOL    HW235178   2.821   4.135   8.408 -0.5723 -0.3516 -0.7547
 7849SOL     OW35179   4.271   0.343   4.643  0.0592 -0.5779 -0.9894
 7849SOL    HW135180   4.255   0.423   4.593 -0.0738 -0.7150 -1.1671
 7849SOL    HW235181   4.188   0.327   4.689  0.6089 -1.0032 -0.1538
 7850SOL     OW35182   4.483   2.550  13.850  0.1799 -0.3929 -0.5006
 7850SOL    HW135183   4.397   2.542  13.891  1.0283  0.9355  1.5599
 7850SOL    HW235184   4.450   2.542  13.760  0.8570  1.2037 -0.8961
 7851SOL     OW35185   0.748   1.200   6.945  0.2940  0.5746 -0.2543
 7851SOL    HW135186   0.824   1.142   6.950 -0.5735 -0.3390  2.3206
 7851SOL    HW235187   0.689   1.144   6.996  1.1315 -0.6144 -0.5908
 7852SOL     OW35188   2.555   3.253  14.280  0.6620  0.2598  0.2003
 7852SOL    HW135189   2.525   3.231  14.368 -1.9960 -0.9819 -1.0221
 7852SOL    HW235190   2.596   3.174  14.243 -2.0599 -0.0510 -2.1214
 7853SOL     OW35191   2.117   3.500  17.597 -0.1425  0.1233  0.8538
 7853SOL    HW135192   2.165   3.554  17.659  0.3325  1.0704 -0.3473
 7853SOL    HW235193   2.023   3.513  17.609 -0.6662 -1.4681 -1.4998
 7854SOL     OW35194   2.188   0.703   4.631 -0.2339  0.0342 -0.1031
 7854SOL    HW135195   2.140   0.786   4.634  0.0820  0.2466 -1.0233
 7854SOL    HW235196   2.199   0.692   4.536  0.1603  0.5340 -0.1109
 7855SOL     OW35197   2.423   3.968   2.132 -0.1934  0.7513 -0.0117
 7855SOL    HW135198   2.453   3.941   2.219  1.7146  2.2618 -0.2097
 7855SOL    HW235199   2.492   3.947   2.069 -0.2909 -1.4473  0.5944
 7856SOL     OW35200   3.542   3.042  14.590 -0.2710 -0.0584  0.1121
 7856SOL    HW135201   3.593   3.026  14.511  1.0638  0.6050  0.8413
 7856SOL    HW235202   3.516   2.951  14.608 -1.3979  0.1088 -0.6832
 7857SOL     OW35203   1.626   3.577  14.461  0.0199  0.0354 -0.2855
 7857SOL    HW135204   1.615   3.656  14.409 -1.0722 -0.3254 -0.5902
 7857SOL    HW235205   1.721   3.585  14.452  0.0419  0.0471 -0.0309
 7858SOL     OW35206   1.173   0.671   9.041  0.2434  0.4253 -0.1177
 7858SOL    HW135207   1.181   0.666   9.136 -0.3441 -0.5353 -0.1143
 7858SOL    HW235208   1.110   0.743   9.032  1.0846  1.1953  0.2188
 7859SOL     OW35209   2.503   0.987  14.754 -0.4371 -0.1467 -0.4532
 7859SOL    HW135210   2.543   1.032  14.828 -0.7253  1.1931 -1.1130
 7859SOL    HW235211   2.582   0.939  14.727  0.9455  2.1844 -0.5609
 7860SOL     OW35212   2.447   0.774  16.568  0.5376  0.0394 -0.0216
 7860SOL    HW135213   2.460   0.731  16.484  0.9117 -0.0661  0.0898
 7860SOL    HW235214   2.354   0.795  16.557  0.5629 -0.7267 -1.7333
 7861SOL     OW35215   0.153   2.797   9.749 -0.7098  0.6729  0.1006
 7861SOL    HW135216   0.101   2.731   9.795  2.5512 -2.5599 -0.8122
 7861SOL    HW235217   0.090   2.822   9.682 -1.2008 -0.2144  0.2292
 7862SOL     OW35218   3.122   2.003  12.967 -0.1700  0.0892  0.3740
 7862SOL    HW135219   3.077   1.973  13.047 -0.1041 -1.6283 -0.2251
 7862SOL    HW235220   3.143   1.916  12.934  0.9660  0.2593  0.6449
 7863SOL     OW35221   1.190   1.750   9.010  0.1767 -0.3773 -0.0920
 7863SOL    HW135222   1.172   1.803   9.088 -0.5595  1.9696 -1.8709
 7863SOL    HW235223   1.229   1.813   8.950 -1.0306 -0.4619 -0.9562
 7864SOL     OW35224   3.629   0.684   2.753  0.1699 -0.3519 -0.7340
 7864SOL    HW135225   3.572   0.758   2.774  0.1123 -0.4488 -0.5504
 7864SOL    HW235226   3.563   0.615   2.764  0.6734 -0.4564  1.7524
 7865SOL     OW35227   1.174   1.750   6.549  0.7676  0.1486 -0.2253
 7865SOL    HW135228   1.128   1.736   6.632  0.1229 -1.7367 -0.8979
 7865SOL    HW235229   1.258   1.778   6.585 -0.1789 -0.9981  2.8123
 7866SOL     OW35230   2.935   0.427   7.856 -0.8999  0.3663  0.0922
 7866SOL    HW135231   2.934   0.331   7.852 -0.9284  0.3434  0.7010
 7866SOL    HW235232   2.991   0.434   7.933 -0.3149  1.2512 -0.4126
 7867SOL     OW35233   2.889   2.937  16.563  0.2393 -0.1592 -0.5527
 7867SOL    HW135234   2.802   2.935  16.524  0.1004  1.7784 -0.3305
 7867SOL    HW235235   2.886   3.026  16.598  0.9684 -0.3253 -0.0578
 7868SOL     OW35236   4.657   0.614   2.117 -0.7491 -0.0215 -0.1864
 7868SOL    HW135237   4.686   0.690   2.166 -5.5554  3.7301 -3.1301
 7868SOL    HW235238   4.702   0.613   2.032 -1.7472 -3.0715 -0.7084
 7869SOL     OW35239   2.038   3.849   4.582 -0.5214 -0.1822 -0.2466
 7869SOL    HW135240   2.032   3.793   4.505 -0.2951 -0.7682  0.1615
 7869SOL    HW235241   1.951   3.833   4.618  0.0573 -1.0652  0.7673
 7870SOL     OW35242   0.977   2.501   3.542 -0.1512 -0.5011 -0.0746
 7870SOL    HW135243   0.983   2.417   3.587  2.1199 -0.1655  0.2119
 7870SOL    HW235244   1.068   2.521   3.523 -0.4901  0.7106 -0.4220
 7871SOL     OW35245   2.507   2.105   6.589 -0.3053 -0.4608 -0.7549
 7871SOL    HW135246   2.516   2.021   6.634  2.1849  0.1033 -0.2241
 7871SOL    HW235247   2.425   2.136   6.628  0.4161 -0.1995  0.5741
 7872SOL     OW35248   4.027   2.203   8.778  0.2479  0.3803  0.4417
 7872SOL    HW135249   4.061   2.278   8.828  2.6225 -0.0235 -0.5933
 7872SOL    HW235250   4.053   2.212   8.686 -1.6802  0.5223 -0.0855
 7873SOL     OW35251   3.554   1.677   8.551  0.0033  0.3976  0.0102
 7873SOL    HW135252   3.555   1.735   8.627 -2.3649 -0.5066  0.7485
 7873SOL    HW235253   3.477   1.712   8.506 -0.6264 -0.8838  0.0979
 7874SOL     OW35254   1.374   1.468  16.706  0.6619  0.4210  0.4430
 7874SOL    HW135255   1.465   1.494  16.693  1.3261 -1.3617  1.4617
 7874SOL    HW235256   1.371   1.379  16.671 -1.7365  1.1094 -1.0919
 7875SOL     OW35257   2.743   0.630   4.407 -0.2923 -0.5287 -0.5685
 7875SOL    HW135258   2.744   0.720   4.375 -1.6002 -0.4362 -0.3431
 7875SOL    HW235259   2.655   0.621   4.442 -0.1804 -0.1414 -0.1834
 7876SOL     OW35260   3.587   1.248  12.828 -0.0204  0.2399  0.3721
 7876SOL    HW135261   3.590   1.159  12.862 -0.9045  0.2925  0.5897
 7876SOL    HW235262   3.496   1.263  12.855 -0.2152 -3.2987  1.6153
 7877SOL     OW35263   1.395   0.064   4.891  0.8812  0.4223  0.2237
 7877SOL    HW135264   1.452   4.725   4.881  3.0366  2.0790 -0.1558
 7877SOL    HW235265   1.452   0.125   4.938  2.1483  0.4039 -1.2972
 7878SOL     OW35266   1.026   2.465   4.561 -0.0423  0.2216 -0.3142
 7878SOL    HW135267   0.987   2.380   4.542 -0.3682  0.5172 -0.9464
 7878SOL    HW235268   1.093   2.474   4.493  1.9972  2.0612  1.9212
 7879SOL     OW35269   1.279   0.902  13.717  0.0853 -0.2156  0.1413
 7879SOL    HW135270   1.274   0.819  13.764 -1.2634 -0.6042 -0.6666
 7879SOL    HW235271   1.276   0.963  13.791  1.2330 -1.6437  1.3545
 7880SOL     OW35272   2.646   0.192   1.984 -0.1576  0.1328 -0.0706
 7880SOL    HW135273   2.652   0.266   1.923  2.0561 -1.0850 -1.3311
 7880SOL    HW235274   2.555   0.165   1.972 -0.3053  1.1736 -1.3915
 7881SOL     OW35275   4.193   2.961   2.127  0.3379 -0.4514 -0.3081
 7881SOL    HW135276   4.140   2.893   2.168  0.6874 -0.3443  0.3209
 7881SOL    HW235277   4.164   2.948   2.037 -1.1572 -2.1607  0.4219
 7882SOL     OW35278   4.276   3.486   5.156 -0.0361  0.1278 -0.3122
 7882SOL    HW135279   4.217   3.486   5.080 -1.0316 -4.5336  0.4197
 7882SOL    HW235280   4.306   3.395   5.166  1.7150  0.8948  1.3316
 7883SOL     OW35281   2.366   3.084   7.235  0.0136 -0.0321  0.3651
 7883SOL    HW135282   2.315   3.094   7.155 -2.7005 -1.1437  1.9445
 7883SOL    HW235283   2.296   3.040   7.283 -1.5651  1.9310 -0.1899
 7884SOL     OW35284   4.377   0.754  14.793  0.0802 -0.1474 -0.4263
 7884SOL    HW135285   4.326   0.763  14.874 -1.7799  2.8281 -1.9190
 7884SOL    HW235286   4.356   0.666  14.762  1.2290 -0.2852 -0.7929
 7885SOL     OW35287   0.494   3.268  15.256  0.3274 -0.0327  0.0379
 7885SOL    HW135288   0.534   3.225  15.331 -2.4216 -0.8499  1.0353
 7885SOL    HW235289   0.517   3.358  15.283 -1.2507 -0.1382  1.7059
 7886SOL     OW35290   2.089   1.801  11.513 -0.3035  0.3038 -0.0732
 7886SOL    HW135291   2.013   1.751  11.544  0.1015  1.7229  3.1804
 7886SOL    HW235292   2.089   1.783  11.419  0.7012 -0.0349 -0.0087
 7887SOL     OW35293   0.884   0.719  16.615  0.2153 -0.8368 -0.4284
 7887SOL    HW135294   0.872   0.720  16.710  2.0700 -0.0586 -0.1819
 7887SOL    HW235295   0.799   0.693  16.580  0.1256 -0.6881 -0.3231
 7888SOL     OW35296   3.089   3.853   7.975  0.1393 -0.2581  0.4253
 7888SOL    HW135297   2.995   3.856   7.957 -0.0901 -0.9678  1.4540
 7888SOL    HW235298   3.095   3.887   8.064 -1.0896  0.0217  0.3992
 7889SOL     OW35299   3.352   1.244   6.906  0.4372  0.5136 -0.1117
 7889SOL    HW135300   3.313   1.255   6.819  0.6853  0.9693 -0.1651
 7889SOL    HW235301   3.276   1.211   6.954  2.5461 -1.7927  1.5980
 7890SOL     OW35302   3.909   1.573   2.622  0.1822  0.3114 -0.0519
 7890SOL    HW135303   3.923   1.478   2.624 -0.8559  0.1320 -0.9711
 7890SOL    HW235304   3.962   1.592   2.544 -0.7249  0.9066 -0.5210
 7891SOL     OW35305   3.619   4.558   1.542  0.4078 -0.2536  0.4713
 7891SOL    HW135306   3.525   4.574   1.537 -0.2907 -4.6084 -1.0881
 7891SOL    HW235307   3.618   4.512   1.626 -0.4416 -2.2156 -0.5941
 7892SOL     OW35308   3.871   3.431   6.442 -0.3782  0.2740 -0.3933
 7892SOL    HW135309   3.960   3.396   6.446 -1.4677 -2.4795  0.0843
 7892SOL    HW235310   3.883   3.508   6.387  2.4217  1.0520  1.3459
 7893SOL     OW35311   3.352   0.041  15.894  0.3171 -0.5847 -0.3825
 7893SOL    HW135312   3.261   0.012  15.885  0.0237  0.5431 -1.1458
 7893SOL    HW235313   3.347   0.136  15.880  4.0723 -0.5185 -1.0932
 7894SOL     OW35314   4.118   4.701  15.525  0.3324 -0.2600 -0.0806
 7894SOL    HW135315   4.027   4.688  15.501  0.3375  1.6689 -1.1594
 7894SOL    HW235316   4.163   4.618  15.509 -0.4589 -0.4717 -1.1644
 7895SOL     OW35317   3.538   4.356   8.694 -0.5085 -0.8758 -0.3668
 7895SOL    HW135318   3.623   4.383   8.729  0.3688 -1.3729 -2.1290
 7895SOL    HW235319   3.495   4.440   8.672  0.3777 -0.5335 -0.7905
 7896SOL     OW35320   4.062   1.545   4.709  0.3171 -0.3984  0.0666
 7896SOL    HW135321   4.054   1.557   4.614 -1.5532 -0.8079  0.1689
 7896SOL    HW235322   3.972   1.524   4.736  0.3739  0.9733  1.2870
 7897SOL     OW35323   4.088   3.040  16.257  0.0856  0.6335 -0.6195
 7897SOL    HW135324   4.038   3.119  16.235 -0.3002  1.0699  1.8155
 7897SOL    HW235325   4.028   3.006  16.323  3.1126 -1.1804  1.1577
 7898SOL     OW35326   3.814   3.413   2.025 -0.5281 -0.4394  0.3981
 7898SOL    HW135327   3.896   3.440   1.985 -2.0230  2.5984 -0.5411
 7898SOL    HW235328   3.842   3.376   2.109  0.9420  2.3355  1.1338
 7899SOL     OW35329   0.303   0.912   3.722  0.5636  0.0780 -0.2010
 7899SOL    HW135330   0.323   0.964   3.644  0.5901 -0.9772 -0.9021
 7899SOL    HW235331   0.386   0.899   3.767 -0.4534 -2.0996  1.0779
 7900SOL     OW35332   3.285   1.637   9.384 -0.5468 -0.2270  0.2803
 7900SOL    HW135333   3.265   1.560   9.437  2.1777 -0.4294  1.0066
 7900SOL    HW235334   3.340   1.694   9.438 -2.0919  0.4106  1.1991
 7901SOL     OW35335   1.785   0.789  12.767 -0.4646  0.7661 -0.6970
 7901SOL    HW135336   1.701   0.829  12.788 -0.5020  1.3258 -1.9119
 7901SOL    HW235337   1.840   0.867  12.758  2.2624 -1.0427  0.3355
 7902SOL     OW35338   3.323   0.270   4.621  0.1032 -0.4884 -0.3400
 7902SOL    HW135339   3.274   0.275   4.703  0.6327 -1.4868  0.0352
 7902SOL    HW235340   3.403   0.223   4.645  0.7697 -0.1332 -1.9055
 7903SOL     OW35341   4.333   2.245   3.581 -0.0016 -0.1605  0.0559
 7903SOL    HW135342   4.302   2.285   3.499 -1.4403 -1.9511 -0.2653
 7903SOL    HW235343   4.376   2.317   3.627 -0.1310  0.8999 -1.4676
 7904SOL     OW35344   2.102   4.176   8.598 -0.3136 -0.6355 -0.0920
 7904SOL    HW135345   2.038   4.244   8.620  0.2161 -0.3825  0.6504
 7904SOL    HW235346   2.082   4.111   8.665 -0.5414  0.4383  0.8865
 7905SOL     OW35347   4.677   3.559  11.011  0.1179  0.3398 -0.6055
 7905SOL    HW135348   4.589   3.593  10.998  0.1832  0.4840 -0.6724
 7905SOL    HW235349   4.674   3.485  10.950 -0.3717 -0.2258  0.1090
 7906SOL     OW35350   0.988   0.721   2.550 -0.4562  0.0004 -0.1158
 7906SOL    HW135351   1.005   0.688   2.462  0.4309  0.0486  0.0341
 7906SOL    HW235352   0.900   0.757   2.554  0.1589  1.6259 -1.5013
 7907SOL     OW35353   4.516   0.344   6.620  0.6539 -0.5636 -0.7435
 7907SOL    HW135354   4.563   0.280   6.567  3.2947 -1.7512  2.9799
 7907SOL    HW235355   4.458   0.296   6.679 -0.3730  1.6332  0.0511
 7908SOL     OW35356   1.006   4.415   2.703 -0.3844  0.5531  0.5818
 7908SOL    HW135357   1.078   4.470   2.731  1.3841 -0.2005 -2.4724
 7908SOL    HW235358   0.937   4.477   2.727 -1.3314 -0.1713 -0.2722
 7909SOL     OW35359   4.134   3.298   8.409  0.4989 -0.0373 -0.5640
 7909SOL    HW135360   4.169   3.275   8.495 -2.3190 -0.8111  0.3797
 7909SOL    HW235361   4.078   3.223   8.388  0.6986 -0.0054 -1.2103
 7910SOL     OW35362   4.548   0.871  14.556  0.6476  0.1379  0.7710
 7910SOL    HW135363   4.508   0.844  14.638  0.6017 -1.1062  0.3288
 7910SOL    HW235364   4.594   0.793  14.525 -0.4279 -0.5200  0.8439
 7911SOL     OW35365   4.557   1.498   7.306  0.2777  0.0240 -0.3688
 7911SOL    HW135366   4.629   1.543   7.350 -2.6963  1.6159  2.9036
 7911SOL    HW235367   4.524   1.437   7.372  1.3809  0.2220  0.3531
 7912SOL     OW35368   1.567   3.436   4.729 -0.2463 -0.0586 -0.1773
 7912SOL    HW135369   1.659   3.429   4.703  0.4090  1.8101  1.6447
 7912SOL    HW235370   1.530   3.358   4.688 -0.5206 -0.3950  0.7168
 7913SOL     OW35371   3.991   1.945   8.852  0.1774 -0.4132 -0.3009
 7913SOL    HW135372   3.992   1.953   8.947  0.9234  0.8009 -0.4070
 7913SOL    HW235373   4.020   2.036   8.839  1.5797 -0.9454 -0.8372
 7914SOL     OW35374   4.199   3.173   4.869 -0.2265 -0.0394  0.6108
 7914SOL    HW135375   4.127   3.189   4.931 -0.2299 -1.2369  0.9133
 7914SOL    HW235376   4.263   3.241   4.893  1.6559 -1.3084 -0.8849
 7915SOL     OW35377   3.652   1.920   3.809 -0.5490  0.8537 -0.9549
 7915SOL    HW135378   3.743   1.936   3.832 -0.9280  2.2118 -0.4087
 7915SOL    HW235379   3.652   1.826   3.790  0.9449  0.7432 -0.3627
 7916SOL     OW35380   0.696   4.699   6.844  0.2720 -0.1994  0.3830
 7916SOL    HW135381   0.747   0.007   6.911  0.2836 -1.0907  0.9951
 7916SOL    HW235382   0.730   4.735   6.763 -2.4248  0.8475 -0.2821
 7917SOL     OW35383   1.799   2.987   9.317 -0.1989 -0.0603  0.5305
 7917SOL    HW135384   1.827   2.913   9.370 -1.4375 -0.6977  0.2945
 7917SOL    HW235385   1.738   2.940   9.259 -0.4123  0.5826  0.2249
 7918SOL     OW35386   0.804   4.181  15.955  0.6964 -0.6101  0.3657
 7918SOL    HW135387   0.848   4.265  15.947  1.2666 -0.9390  0.1179
 7918SOL    HW235388   0.740   4.181  15.883  0.1646  0.8574  0.8336
 7919SOL     OW35389   0.689   1.227  10.486 -0.1354  0.1190  0.2205
 7919SOL    HW135390   0.765   1.195  10.438  1.1173  1.4938  1.2729
 7919SOL    HW235391   0.675   1.315  10.449  1.2731 -0.6280 -2.0400
 7920SOL     OW35392   0.779   4.619   3.637 -0.6481 -0.1954 -0.7103
 7920SOL    HW135393   0.808   4.676   3.708 -2.1209  0.7219 -0.8403
 7920SOL    HW235394   0.698   4.586   3.677  0.6401 -2.8940 -0.3191
 7921SOL     OW35395   4.046   2.547   6.691  0.4282 -0.1297  0.8598
 7921SOL    HW135396   3.978   2.584   6.747 -0.7015  1.3717 -1.4746
 7921SOL    HW235397   3.999   2.470   6.661  0.1686  0.8984 -1.3668
 7922SOL     OW35398   2.981   3.053   1.163  0.2342 -0.0962  0.1806
 7922SOL    HW135399   2.968   3.007   1.080 -2.1192  0.5967  0.1557
 7922SOL    HW235400   3.049   3.005   1.210 -0.4319 -1.0309  0.1850
 7923SOL     OW35401   3.006   4.553   7.925  0.1193 -0.1708 -0.1493
 7923SOL    HW135402   3.068   4.517   7.988  0.1576  2.1591  1.1280
 7923SOL    HW235403   3.063   4.571   7.850  1.1760  0.4039  0.7961
 7924SOL     OW35404   0.558   3.961   9.026 -0.0925  0.2155  0.3655
 7924SOL    HW135405   0.541   3.963   9.120  1.7847 -0.6003  0.7238
 7924SOL    HW235406   0.502   4.033   8.997 -0.0819  0.1824  0.2633
 7925SOL     OW35407   4.040   4.048   5.801 -1.2553 -0.3271 -0.5452
 7925SOL    HW135408   4.035   4.097   5.883  0.3121 -0.2132 -0.5309
 7925SOL    HW235409   4.113   3.990   5.822  0.4134  2.1739  0.4895
 7926SOL     OW35410   2.350   1.358   9.161 -0.1059  0.1791 -0.8581
 7926SOL    HW135411   2.288   1.302   9.208  0.6512  1.3657  1.5057
 7926SOL    HW235412   2.343   1.443   9.202 -3.4023 -0.5353  0.0005
 7927SOL     OW35413   3.192   2.651   0.722  0.2154  0.0869 -0.2050
 7927SOL    HW135414   3.165   2.734   0.761 -0.5482 -0.6048  0.7374
 7927SOL    HW235415   3.144   2.647   0.639  0.6093 -2.9853 -0.2771
 7928SOL     OW35416   3.887   0.941   5.026 -0.4469  0.1296 -0.3455
 7928SOL    HW135417   3.916   0.861   5.070  1.0424 -0.2740 -2.0586
 7928SOL    HW235418   3.969   0.983   5.000 -0.5692 -0.4077 -1.6116
 7929SOL     OW35419   3.206   4.690   3.433 -0.2669 -0.0186 -0.0857
 7929SOL    HW135420   3.281   4.732   3.476  0.6216 -1.0075 -0.6795
 7929SOL    HW235421   3.185   0.025   3.373  1.7784  0.8428  0.2477
 7930SOL     OW35422   1.713   3.378  14.813  0.2722 -0.3965 -0.2733
 7930SOL    HW135423   1.624   3.362  14.844  0.1976  0.8073  0.1067
 7930SOL    HW235424   1.724   3.471  14.831 -0.3829 -0.7563  2.0389
 7931SOL     OW35425   3.066   2.106  14.833  0.3014 -0.0505  0.2365
 7931SOL    HW135426   3.000   2.173  14.850  0.3148 -0.1170  0.5694
 7931SOL    HW235427   3.019   2.023  14.828  0.6840 -0.1567 -1.5069
 7932SOL     OW35428   3.361   1.314  12.591  0.1803  0.1125 -0.0446
 7932SOL    HW135429   3.411   1.346  12.516 -0.7646  0.8600 -0.3616
 7932SOL    HW235430   3.412   1.233  12.592 -1.2221 -0.7822 -0.5556
 7933SOL     OW35431   4.136   4.687   7.807 -0.2461  0.4903 -0.5869
 7933SOL    HW135432   4.163   4.661   7.895  0.2281  2.5559 -0.1415
 7933SOL    HW235433   4.223   4.684   7.767 -0.6422 -0.7817 -1.3883
 7934SOL     OW35434   1.440   1.886  10.255 -0.2304  0.0413  0.3558
 7934SOL    HW135435   1.416   1.908  10.344 -0.1641  0.3273  0.3012
 7934SOL    HW235436   1.475   1.800  10.281 -1.5822 -0.5493  0.2538
 7935SOL     OW35437   3.445   3.633   5.201  0.1360 -0.2536  0.0929
 7935SOL    HW135438   3.360   3.612   5.162  0.3647  0.6518 -0.8894
 7935SOL    HW235439   3.425   3.723   5.225  1.2569  0.3024 -1.1162
 7936SOL     OW35440   4.658   3.631   9.622 -0.8727 -0.3279 -1.0138
 7936SOL    HW135441   4.710   3.596   9.549 -1.7128  1.1864 -2.3461
 7936SOL    HW235442   4.721   3.692   9.660 -1.1921  0.4132 -1.6691
 7937SOL     OW35443   3.191   0.397   3.869  0.0058 -0.4282  0.0325
 7937SOL    HW135444   3.193   0.374   3.962 -1.9077  1.9846  0.6537
 7937SOL    HW235445   3.275   0.442   3.857 -1.8612  2.9902 -0.2614
 7938SOL     OW35446   3.382   0.290   4.355 -0.2738  0.1439  0.0142
 7938SOL    HW135447   3.370   0.281   4.449  0.6692  0.9223  0.2112
 7938SOL    HW235448   3.365   0.204   4.318  0.3653  0.8084 -1.8394
 7939SOL     OW35449   3.839   4.577   4.667  0.0064  0.5860 -0.6969
 7939SOL    HW135450   3.762   4.571   4.611 -0.5719 -1.2343  0.2840
 7939SOL    HW235451   3.837   4.671   4.686 -1.0060 -0.2202  3.1192
 7940SOL     OW35452   1.664   3.810  11.025  0.0976  0.1857  0.4269
 7940SOL    HW135453   1.734   3.874  11.008  0.3860 -0.0144  0.8600
 7940SOL    HW235454   1.702   3.747  11.086  1.4137  1.8264  1.2968
 7941SOL     OW35455   0.623   0.433   5.582 -0.4377  0.3222  0.1272
 7941SOL    HW135456   0.707   0.473   5.604  0.6416 -1.1019 -1.3730
 7941SOL    HW235457   0.584   0.495   5.520 -0.2873  1.7742  1.4909
 7942SOL     OW35458   4.179   2.922   8.804  0.1762 -0.5809 -0.2751
 7942SOL    HW135459   4.176   2.826   8.795  1.0444 -0.4637 -1.9325
 7942SOL    HW235460   4.234   2.930   8.882 -3.0931 -0.1675  1.9872
 7943SOL     OW35461   1.209   3.900   9.602 -0.5741  0.1404 -0.6784
 7943SOL    HW135462   1.130   3.851   9.575 -1.1205  1.6052 -1.7570
 7943SOL    HW235463   1.184   3.930   9.689 -1.0513 -2.5028  0.1146
 7944SOL     OW35464   0.781   1.621   6.992  0.1773 -0.1202 -0.2628
 7944SOL    HW135465   0.855   1.602   7.049 -0.4480 -1.8318 -0.0208
 7944SOL    HW235466   0.823   1.666   6.919  0.5239 -1.7069 -1.0443
 7945SOL     OW35467   4.355   0.090  16.663 -0.2008  0.0590  0.7503
 7945SOL    HW135468   4.385   0.157  16.601  1.6256  1.1863  2.8523
 7945SOL    HW235469   4.312   0.025  16.607  0.1116 -0.6931  1.3964
 7946SOL     OW35470   3.630   0.056   1.267 -1.0381  0.3544 -0.3567
 7946SOL    HW135471   3.557   0.056   1.329 -1.2715 -1.6808 -0.6079
 7946SOL    HW235472   3.701   0.042   1.330 -0.1626 -2.0104 -1.8368
 7947SOL     OW35473   0.633   1.654  15.555  0.2619 -0.5879 -0.0633
 7947SOL    HW135474   0.709   1.624  15.605  2.1570  1.1166 -1.8983
 7947SOL    HW235475   0.670   1.638  15.468  2.9446 -1.1915  1.2026
 7948SOL     OW35476   4.460   0.610   3.588 -0.2705 -0.3094  0.3476
 7948SOL    HW135477   4.452   0.699   3.553  1.4089  0.0458  0.8226
 7948SOL    HW235478   4.412   0.618   3.670 -0.8698  1.7680 -0.2000
 7949SOL     OW35479   3.965   2.016  13.875  0.6422  0.2281  0.1192
 7949SOL    HW135480   3.964   2.027  13.970 -0.3925  0.1660  0.1136
 7949SOL    HW235481   3.940   2.106  13.854 -0.8894 -0.4027 -0.7545
 7950SOL     OW35482   4.017   4.678   1.638 -0.1896  0.4888 -0.1164
 7950SOL    HW135483   3.979   4.700   1.723 -1.8326  0.7832 -0.9319
 7950SOL    HW235484   3.940   4.667   1.583  0.4494 -1.2671 -0.6721
 7951SOL     OW35485   2.003   1.517  14.437 -0.7215 -0.0301  0.1292
 7951SOL    HW135486   1.942   1.590  14.450 -1.1845  0.0150 -2.3536
 7951SOL    HW235487   2.015   1.493  14.529  2.1031 -2.3010 -0.8373
 7952SOL     OW35488   3.811   0.520   0.369  0.6143 -0.1129  0.5244
 7952SOL    HW135489   3.867   0.444   0.351 -0.6089 -0.5985 -1.2543
 7952SOL    HW235490   3.778   0.510   0.459 -1.8186  0.1924 -0.3323
 7953SOL     OW35491   2.331   1.464   8.593 -0.3207 -0.5316 -0.7384
 7953SOL    HW135492   2.397   1.401   8.564  0.1489  0.3970 -1.6469
 7953SOL    HW235493   2.312   1.425   8.679 -1.1427 -0.7254 -1.0153
 7954SOL     OW35494   1.683   4.037   2.956 -0.5251  0.2673 -0.2440
 7954SOL    HW135495   1.769   3.999   2.939 -1.2010 -1.1209 -0.5061
 7954SOL    HW235496   1.637   3.958   2.982 -0.3419 -0.5174 -2.3108
 7955SOL     OW35497   4.493   0.491   7.067 -0.5867  0.0303 -0.1006
 7955SOL    HW135498   4.576   0.443   7.070 -0.8918 -0.3907  2.1022
 7955SOL    HW235499   4.446   0.436   7.004 -0.3046  0.1963 -0.4552
 7956SOL     OW35500   2.487   1.472   5.664 -0.5189  0.0196  0.1600
 7956SOL    HW135501   2.581   1.490   5.658 -0.8895  1.5930 -1.0248
 7956SOL    HW235502   2.440   1.554   5.649 -0.8984 -0.0837  0.7657
 7957SOL     OW35503   1.594   0.443  16.758 -0.0463 -0.5288  0.4252
 7957SOL    HW135504   1.579   0.408  16.671 -0.8138  2.7004 -0.7286
 7957SOL    HW235505   1.588   0.361  16.808 -2.1016  0.0590  1.1267
 7958SOL     OW35506   3.770   1.299  14.989  0.8435  0.2451  0.2537
 7958SOL    HW135507   3.721   1.325  14.911  0.7372  0.6815  0.4671
 7958SOL    HW235508   3.707   1.236  15.024  0.6718 -0.0931 -0.6693
 7959SOL     OW35509   4.054   1.598   5.929 -0.2158  0.2420 -0.6359
 7959SOL    HW135510   4.082   1.672   5.874  0.5504 -0.5417 -1.3007
 7959SOL    HW235511   4.135   1.564   5.966 -0.7227  0.9742  1.1863
 7960SOL     OW35512   3.088   0.333  10.437  0.0094 -0.5813 -0.4266
 7960SOL    HW135513   3.027   0.368  10.502 -0.0551  0.8399 -1.2466
 7960SOL    HW235514   3.140   0.409  10.409  0.4015 -0.9037 -0.5645
 7961SOL     OW35515   1.209   2.746   1.514 -0.2420 -0.5949 -0.2670
 7961SOL    HW135516   1.158   2.700   1.580 -2.5587 -0.0099 -1.6483
 7961SOL    HW235517   1.272   2.782   1.577  1.8398 -0.9278 -2.1575
 7962SOL     OW35518   4.314   0.798   1.247 -0.2349  0.2429 -0.4134
 7962SOL    HW135519   4.386   0.748   1.285 -0.7587  0.9058  1.4492
 7962SOL    HW235520   4.251   0.731   1.220  0.3042 -0.6175  0.4724
 7963SOL     OW35521   2.848   2.622  10.698  0.0944  0.0138 -0.0052
 7963SOL    HW135522   2.791   2.591  10.769 -1.2312 -3.1428 -2.4641
 7963SOL    HW235523   2.891   2.539  10.677  1.8140  0.6631  0.9741
 7964SOL     OW35524   3.304   0.737   6.446 -0.2562 -0.0844  0.1308
 7964SOL    HW135525   3.363   0.666   6.420 -1.0220 -0.7022  0.0979
 7964SOL    HW235526   3.242   0.736   6.373 -0.9755 -0.5096  0.7521
 7965SOL     OW35527   4.443   3.163   0.663  0.2182 -0.5493 -0.0558
 7965SOL    HW135528   4.372   3.202   0.716  1.6773  2.2389 -0.1260
 7965SOL    HW235529   4.504   3.145   0.734  0.2171  2.0025  0.5930
 7966SOL     OW35530   1.952   0.989   6.527  0.5327  0.1110  0.4155
 7966SOL    HW135531   1.955   1.039   6.608 -0.2012  0.0321  0.4883
 7966SOL    HW235532   1.866   0.949   6.538  1.6948 -2.0875  1.3401
 7967SOL     OW35533   1.337   2.946   4.404 -0.0820 -0.1729 -0.1429
 7967SOL    HW135534   1.323   3.023   4.460  0.1822 -0.2827  0.0773
 7967SOL    HW235535   1.427   2.936   4.436 -0.2082  1.4860  0.7455
 7968SOL     OW35536   3.355   1.430   3.548 -0.0433 -0.4736  0.6709
 7968SOL    HW135537   3.442   1.404   3.578  0.7141 -1.2004 -2.2409
 7968SOL    HW235538   3.349   1.505   3.607 -0.1020  0.0907 -0.0623
 7969SOL     OW35539   0.476   3.309   2.271  0.0878 -0.2952  0.5173
 7969SOL    HW135540   0.386   3.339   2.284  0.4277 -0.4757  3.1382
 7969SOL    HW235541   0.530   3.364   2.327  1.1487  0.7740 -1.5470
 7970SOL     OW35542   3.241   2.321  14.001  0.5380  0.1056 -0.2590
 7970SOL    HW135543   3.159   2.368  13.987 -0.2981 -0.6281  2.3017
 7970SOL    HW235544   3.279   2.329  13.913 -0.5389 -2.2278 -0.9697
 7971SOL     OW35545   4.603   3.674   3.954 -0.4395 -0.1692  0.4016
 7971SOL    HW135546   4.591   3.676   4.049  2.1759 -3.0093  0.7749
 7971SOL    HW235547   4.559   3.594   3.928  0.0089 -0.6555  1.1453
 7972SOL     OW35548   4.072   2.895   1.892 -0.5561  0.4646  0.1741
 7972SOL    HW135549   4.055   2.852   1.809  2.2352 -2.2456  0.9933
 7972SOL    HW235550   4.009   2.857   1.953  1.4919 -0.8978  1.4339
 7973SOL     OW35551   3.600   4.129   5.287  0.1217  0.0087  0.0894
 7973SOL    HW135552   3.649   4.151   5.366 -0.5049  1.0597  0.1976
 7973SOL    HW235553   3.643   4.045   5.271  2.3020  1.3928 -1.3612
 7974SOL     OW35554   3.280   3.714   8.441 -0.3302  0.4499 -0.0434
 7974SOL    HW135555   3.334   3.718   8.520  2.9948  0.6574 -2.2991
 7974SOL    HW235556   3.341   3.692   8.370 -1.1937 -2.2389  0.0666
 7975SOL     OW35557   4.223   1.865  15.726  0.5584 -0.1485 -0.0944
 7975SOL    HW135558   4.273   1.867  15.644  0.2839 -1.7882 -0.3118
 7975SOL    HW235559   4.242   1.948  15.769 -2.5976  1.7774 -2.4646
 7976SOL     OW35560   0.576   2.310   8.833  0.0787 -0.3705  0.2637
 7976SOL    HW135561   0.577   2.377   8.901 -0.9407 -1.6179  1.5181
 7976SOL    HW235562   0.641   2.350   8.775 -1.7279  2.3303  0.1112
 7977SOL     OW35563   4.482   3.272   5.461 -0.2026 -0.3774  0.5311
 7977SOL    HW135564   4.490   3.177   5.470  1.1566 -0.2166  0.9765
 7977SOL    HW235565   4.473   3.286   5.366  2.0437 -1.3445  0.1802
 7978SOL     OW35566   2.540   0.381   8.617 -0.7461  0.2917 -0.0921
 7978SOL    HW135567   2.514   0.289   8.618  2.7956 -0.6763  1.6464
 7978SOL    HW235568   2.526   0.412   8.527  2.4856  1.0622 -0.3273
 7979SOL     OW35569   4.539   0.688   1.514  0.0039 -0.6449 -0.5360
 7979SOL    HW135570   4.461   0.744   1.519  1.4029  1.0616  1.6729
 7979SOL    HW235571   4.577   0.713   1.597 -1.0867  0.3775 -0.3491
 7980SOL     OW35572   3.173   2.936   5.111  0.1258 -0.6712  0.2421
 7980SOL    HW135573   3.239   2.974   5.168 -0.6954  0.5691  0.3653
 7980SOL    HW235574   3.159   2.850   5.151 -1.1426 -1.0221 -0.9412
 7981SOL     OW35575   0.996   2.208   4.871  0.2949  0.4066  0.1572
 7981SOL    HW135576   1.061   2.244   4.811 -0.4915  0.4393 -0.6596
 7981SOL    HW235577   0.986   2.277   4.937  0.9173  0.7856 -0.1460
 7982SOL     OW35578   1.265   1.055   3.503 -0.1100  0.1029 -0.5882
 7982SOL    HW135579   1.313   1.085   3.580 -3.0491  1.1094  0.8516
 7982SOL    HW235580   1.333   1.033   3.440  0.7543  0.6960  0.1394
 7983SOL     OW35581   4.601   3.867   4.603 -0.3914 -0.2460  0.7198
 7983SOL    HW135582   4.618   3.846   4.695  3.4242 -0.7302 -0.0921
 7983SOL    HW235583   4.659   3.941   4.589 -2.2980  1.0245 -0.4973
 7984SOL     OW35584   3.740   2.409   7.883 -0.2946  1.0448  0.6684
 7984SOL    HW135585   3.652   2.378   7.860 -0.0081 -1.5050  3.0796
 7984SOL    HW235586   3.782   2.388   7.799 -0.2382 -1.4821  1.3270
 7985SOL     OW35587   1.887   3.417   4.684 -0.1951  0.0792  0.3106
 7985SOL    HW135588   1.951   3.464   4.737 -0.5905  0.6864  0.2458
 7985SOL    HW235589   1.914   3.444   4.596 -1.3935  1.3871  0.3474
 7986SOL     OW35590   2.578   3.235   0.199 -0.0504 -0.0869  0.3708
 7986SOL    HW135591   2.586   3.290   0.121  1.3097 -1.3721 -0.3792
 7986SOL    HW235592   2.508   3.179   0.166  0.7533 -0.1368 -1.2204
 7987SOL     OW35593   0.411   2.981   7.572 -0.4310  0.8839 -0.1119
 7987SOL    HW135594   0.374   2.955   7.488  1.2140 -0.9079 -0.2775
 7987SOL    HW235595   0.503   2.987   7.546 -0.1329 -0.1661  0.6690
 7988SOL     OW35596   2.465   3.701   6.999 -0.2598 -0.6566 -0.4808
 7988SOL    HW135597   2.526   3.733   7.065  0.7376 -3.3693 -0.0914
 7988SOL    HW235598   2.385   3.707   7.050 -0.7539  1.3034 -1.4973
 7989SOL     OW35599   0.911   1.392   6.460  0.2421  0.1341  0.0172
 7989SOL    HW135600   0.823   1.397   6.424  0.8522 -1.5296 -1.7113
 7989SOL    HW235601   0.968   1.424   6.391  0.2092  0.0070 -0.0688
 7990SOL     OW35602   4.452   0.930  14.285  0.5828  0.0182  0.3807
 7990SOL    HW135603   4.431   0.838  14.267  0.8901  0.0305 -0.0578
 7990SOL    HW235604   4.475   0.931  14.378 -0.4267 -2.8809  0.6556
 7991SOL     OW35605   4.108   4.308   5.966 -0.5622 -0.1482  0.4071
 7991SOL    HW135606   4.153   4.283   6.047  0.0883  0.2227  0.1636
 7991SOL    HW235607   4.175   4.368   5.932 -1.3693  0.7497  0.4047
 7992SOL     OW35608   2.084   1.176   5.066  0.1595 -0.3228 -0.4359
 7992SOL    HW135609   2.056   1.178   5.157 -0.3305  0.6505 -0.6073
 7992SOL    HW235610   2.178   1.160   5.074  0.4862  0.3176 -2.8002
 7993SOL     OW35611   4.242   0.712  15.108 -0.5036  0.3096 -0.2356
 7993SOL    HW135612   4.146   0.713  15.108 -0.5195 -1.7080  1.3346
 7993SOL    HW235613   4.256   0.781  15.173  0.4210 -1.1706  1.1196
 7994SOL     OW35614   1.017   2.880  10.657 -0.0950  0.0567 -0.5784
 7994SOL    HW135615   1.009   2.863  10.751  1.2083  0.4443 -0.3945
 7994SOL    HW235616   0.992   2.972  10.657 -1.6171 -0.3659 -0.9992
 7995SOL     OW35617   2.855   1.393   9.003  0.3133  0.1417  0.6714
 7995SOL    HW135618   2.892   1.452   8.938 -2.9035  0.7035 -0.6631
 7995SOL    HW235619   2.857   1.449   9.080  1.4691  0.5790  0.3166
 7996SOL     OW35620   4.212   4.037   1.850 -0.7168 -0.1748 -0.4788
 7996SOL    HW135621   4.173   3.959   1.889  0.4540 -0.8264 -0.6129
 7996SOL    HW235622   4.136   4.095   1.845 -0.5043  0.2982  1.6905
 7997SOL     OW35623   1.364   3.275  11.685 -0.0848  1.1437  0.0530
 7997SOL    HW135624   1.444   3.294  11.636 -0.3659  2.2129 -0.0003
 7997SOL    HW235625   1.354   3.352  11.741 -1.8297  1.1672 -0.2627
 7998SOL     OW35626   0.711   2.644  13.907 -0.3684 -0.0176 -0.0469
 7998SOL    HW135627   0.708   2.687  13.821 -1.1234 -0.0326 -0.0309
 7998SOL    HW235628   0.678   2.712  13.965  1.9919  0.2306  0.9897
 7999SOL     OW35629   0.652   0.910  17.513 -0.7562  0.2957 -0.5465
 7999SOL    HW135630   0.713   0.903  17.440  0.0427  3.1041 -0.1481
 7999SOL    HW235631   0.632   0.817  17.521 -3.4445  1.0033  1.0167
 8000SOL     OW35632   0.777   0.472   2.128 -0.1999 -0.3625  0.4079
 8000SOL    HW135633   0.762   0.394   2.182  0.2070  0.5352  1.8359
 8000SOL    HW235634   0.717   0.453   2.056  0.6570 -0.5256 -0.2568
 8001SOL     OW35635   4.014   1.454   7.176 -1.0135  0.5013  0.0690
 8001SOL    HW135636   4.095   1.407   7.158 -1.0612 -0.5963  2.5813
 8001SOL    HW235637   3.951   1.382   7.185  1.3638 -1.6150 -0.3529
 8002SOL     OW35638   3.481   1.432   3.199  0.0760  0.1802  0.2803
 8002SOL    HW135639   3.439   1.493   3.260  1.4654  1.0133  0.4143
 8002SOL    HW235640   3.511   1.498   3.136  0.7588  1.2694  1.7335
 8003SOL     OW35641   0.858   0.725   4.571  0.5014  0.2864  0.1469
 8003SOL    HW135642   0.788   0.762   4.517 -1.1392 -0.1553  1.9685
 8003SOL    HW235643   0.814   0.727   4.656 -1.2715 -0.6299 -0.7455
 8004SOL     OW35644   1.341   1.575  12.856  0.2642 -0.2761 -0.3415
 8004SOL    HW135645   1.316   1.564  12.765  1.3339  0.8120 -0.7656
 8004SOL    HW235646   1.280   1.640  12.890  0.1153 -0.8455  0.5057
 8005SOL     OW35647   2.608   2.086   3.583 -0.3879 -0.3775  0.1468
 8005SOL    HW135648   2.559   2.022   3.531 -1.5098 -0.8486  1.7733
 8005SOL    HW235649   2.653   2.028   3.644 -0.0743 -0.2513  0.0344
 8006SOL     OW35650   1.536   2.675   2.231  0.9523  0.4556 -0.3396
 8006SOL    HW135651   1.608   2.626   2.190  0.1853 -0.2836 -0.8082
 8006SOL    HW235652   1.465   2.613   2.246  1.2483 -0.0320 -0.9396
 8007SOL     OW35653   0.442   0.632   2.060 -0.2389  0.1023 -0.1457
 8007SOL    HW135654   0.505   0.667   1.997 -0.7870 -0.3376 -0.9286
 8007SOL    HW235655   0.386   0.592   1.994  0.0820  0.6384 -0.7418
 8008SOL     OW35656   4.668   4.491   9.080  0.0285 -0.7144 -0.0312
 8008SOL    HW135657   4.724   4.528   9.147 -0.6494 -0.4629  0.3976
 8008SOL    HW235658   4.673   4.559   9.013 -0.5692 -2.2441 -1.6574
 8009SOL     OW35659   1.210   2.399   2.150 -0.2741 -0.4328  0.3052
 8009SOL    HW135660   1.246   2.446   2.225 -0.3279  0.1348 -0.0251
 8009SOL    HW235661   1.253   2.447   2.080  0.1612 -1.1038  0.1166
 8010SOL     OW35662   2.384   2.272  13.507  0.5636  0.1177 -0.5144
 8010SOL    HW135663   2.381   2.299  13.415  0.4022  0.2759 -0.4624
 8010SOL    HW235664   2.352   2.353  13.545 -0.8169 -0.8815  0.4221
 8011SOL     OW35665   3.434   1.102   8.474  0.0758 -0.5444  0.3999
 8011SOL    HW135666   3.514   1.050   8.483  0.9386  0.6622 -0.2685
 8011SOL    HW235667   3.378   1.054   8.414 -0.4354  2.4947 -1.5965
 8012SOL     OW35668   0.417   3.222   5.601 -0.2371  0.8658  0.0050
 8012SOL    HW135669   0.350   3.272   5.646  0.2025 -0.1827  1.8382
 8012SOL    HW235670   0.446   3.162   5.670  1.2077 -1.7134 -2.8556
 8013SOL     OW35671   3.293   2.531   5.963 -0.4216 -0.0248 -0.0547
 8013SOL    HW135672   3.201   2.507   5.957 -0.5343  0.3382  0.2546
 8013SOL    HW235673   3.322   2.483   6.041 -0.8983 -1.7100 -0.8983
 8014SOL     OW35674   4.646   3.551   5.064  1.0275 -0.0803 -0.2731
 8014SOL    HW135675   4.723   3.547   5.008  1.7005 -1.5001  0.7844
 8014SOL    HW235676   4.652   3.636   5.107 -0.5555  0.4037 -0.9850
 8015SOL     OW35677   3.780   3.662   7.190  0.1738 -0.0174 -0.0674
 8015SOL    HW135678   3.826   3.703   7.118  1.8878  0.6246  1.3873
 8015SOL    HW235679   3.726   3.599   7.142  0.6842  0.0012 -0.6608
 8016SOL     OW35680   1.750   0.613   1.332 -0.7113 -0.0428  0.4456
 8016SOL    HW135681   1.689   0.681   1.304 -0.9223 -0.5092 -0.2339
 8016SOL    HW235682   1.753   0.555   1.256  0.6460  0.5640  0.0374
 8017SOL     OW35683   3.210   4.341   5.739  0.0059 -0.2118 -0.2580
 8017SOL    HW135684   3.304   4.337   5.757 -0.0660 -0.5167  0.0548
 8017SOL    HW235685   3.217   4.417   5.681 -2.8305  0.7748  0.6921
 8018SOL     OW35686   3.143   0.171   3.276  0.4943  0.3267  0.3192
 8018SOL    HW135687   3.134   0.233   3.204  0.6722 -1.8807 -1.5779
 8018SOL    HW235688   3.064   0.194   3.324 -0.5473  2.1264 -2.2276
 8019SOL     OW35689   2.814   0.908   6.998  0.3800  0.2029 -0.1996
 8019SOL    HW135690   2.766   0.835   7.037  0.3790  0.0848 -0.4232
 8019SOL    HW235691   2.797   0.891   6.905 -0.2465 -0.8587  0.1088
 8020SOL     OW35692   0.290   0.859   2.638  0.3705 -0.5858  0.2716
 8020SOL    HW135693   0.280   0.870   2.733  0.8742  0.2486  0.2167
 8020SOL    HW235694   0.338   0.776   2.640  0.2367 -0.6903 -1.1634
 8021SOL     OW35695   1.507   3.372   2.489  0.1795 -0.6349 -0.0632
 8021SOL    HW135696   1.459   3.293   2.513  0.0682 -0.3014  0.7970
 8021SOL    HW235697   1.524   3.408   2.576  0.1997 -0.1885 -0.2497
 8022SOL     OW35698   3.413   2.197   9.517 -0.6897  0.2790  0.2914
 8022SOL    HW135699   3.369   2.268   9.469 -1.4752  0.4470  1.2520
 8022SOL    HW235700   3.488   2.173   9.463 -1.0031 -0.8485  0.3769
 8023SOL     OW35701   0.097   1.315  13.749  0.3278 -0.1498  0.2382
 8023SOL    HW135702   0.021   1.366  13.722 -1.1294 -2.3599  0.1609
 8023SOL    HW235703   0.054   1.230  13.746  0.3886 -0.0833 -2.0485
 8024SOL     OW35704   1.072   2.796   7.386  0.4664 -0.2237  0.1660
 8024SOL    HW135705   1.128   2.730   7.345 -0.2446  1.0101 -2.7545
 8024SOL    HW235706   1.023   2.823   7.308 -0.2028  1.5171  1.1756
 8025SOL     OW35707   3.510   4.735  16.538  0.0855 -1.2226 -0.0290
 8025SOL    HW135708   3.497   4.705  16.627 -0.1314 -1.1208 -0.0255
 8025SOL    HW235709   3.502   0.093  16.549 -0.0108 -1.1767 -0.4904
 8026SOL     OW35710   0.639   2.106  16.562  0.4734 -0.4677 -0.4402
 8026SOL    HW135711   0.720   2.088  16.610  1.3040  1.7500 -1.0273
 8026SOL    HW235712   0.672   2.163  16.493 -0.5663  0.4201 -0.2181
 8027SOL     OW35713   3.233   0.584  10.426 -0.6423 -0.4394 -0.4804
 8027SOL    HW135714   3.324   0.554  10.427 -0.7343 -0.7113 -0.4417
 8027SOL    HW235715   3.242   0.668  10.380 -1.7889 -0.8056 -1.3699
 8028SOL     OW35716   1.438   0.338  12.462  0.6289  0.1455 -0.2873
 8028SOL    HW135717   1.512   0.282  12.487 -0.2647 -0.1714  1.6135
 8028SOL    HW235718   1.446   0.336  12.366  0.0031 -0.8637 -0.3100
 8029SOL     OW35719   1.442   1.451   7.370  0.1024  0.0317  0.0001
 8029SOL    HW135720   1.408   1.415   7.452 -1.0919  2.7331  0.6732
 8029SOL    HW235721   1.535   1.457   7.391  0.0380 -1.9365  0.8478
 8030SOL     OW35722   1.524   2.019   7.000 -0.4054  0.4164  0.2612
 8030SOL    HW135723   1.464   1.945   6.989  0.4702  0.0084 -1.9230
 8030SOL    HW235724   1.552   2.001   7.089 -1.0144 -3.4417 -0.3238
 8031SOL     OW35725   4.133   3.796   1.101  0.3467 -0.0303 -0.2556
 8031SOL    HW135726   4.164   3.887   1.093 -0.3625  0.1559 -0.9040
 8031SOL    HW235727   4.217   3.751   1.088 -1.5739 -3.6359 -0.0625
 8032SOL     OW35728   0.888   3.475   7.299 -0.3159 -0.1118 -1.4098
 8032SOL    HW135729   0.884   3.529   7.219  2.2950  0.8254 -0.9063
 8032SOL    HW235730   0.826   3.404   7.281 -1.8524  1.7903 -3.7893
 8033SOL     OW35731   4.459   1.284  16.882  0.0790  0.2800  0.3780
 8033SOL    HW135732   4.417   1.286  16.968  0.4641  1.2231  0.5486
 8033SOL    HW235733   4.385   1.261  16.827 -0.1224  1.0714  0.3148
 8034SOL     OW35734   0.811   2.243   1.933 -0.3108 -0.2357 -0.4945
 8034SOL    HW135735   0.787   2.297   1.858 -2.0508 -1.5505 -0.8678
 8034SOL    HW235736   0.836   2.161   1.890 -0.6218 -1.5831  1.8811
 8035SOL     OW35737   2.639   0.905   8.766 -0.2284 -0.1174 -0.1377
 8035SOL    HW135738   2.594   0.959   8.830 -1.0878 -0.4742 -0.4267
 8035SOL    HW235739   2.567   0.914   8.703  1.4946  0.7266 -1.9965
 8036SOL     OW35740   1.784   3.299   7.806 -0.0014 -0.0255  0.2337
 8036SOL    HW135741   1.869   3.255   7.800 -0.3702 -0.4075 -2.2950
 8036SOL    HW235742   1.800   3.388   7.776 -0.8523  0.7794  2.1849
 8037SOL     OW35743   0.630   0.168   5.488 -0.4171  0.2281 -0.0130
 8037SOL    HW135744   0.688   0.147   5.415  1.4428  0.9836  1.2395
 8037SOL    HW235745   0.651   0.260   5.508  2.4651  0.3339 -3.5275
 8038SOL     OW35746   2.571   4.168   2.330 -0.0680 -0.1601  0.8519
 8038SOL    HW135747   2.546   4.221   2.254 -0.9876 -1.5037  0.2139
 8038SOL    HW235748   2.502   4.102   2.332  0.1122 -0.3588  0.5068
 8039SOL     OW35749   0.549   1.271   7.774  0.3594  0.4240 -0.2189
 8039SOL    HW135750   0.506   1.355   7.790  1.7994  0.7296  2.1473
 8039SOL    HW235751   0.483   1.202   7.777 -0.7023  1.4673  0.6615
 8040SOL     OW35752   1.675   3.736   2.917  0.1489 -0.2077 -0.0132
 8040SOL    HW135753   1.637   3.656   2.954  1.1887 -0.8534 -0.3320
 8040SOL    HW235754   1.738   3.757   2.985  1.5662 -3.3326 -0.3357
 8041SOL     OW35755   0.515   2.075   9.131  0.1857 -0.0062  0.3900
 8041SOL    HW135756   0.493   2.037   9.046  0.7011 -2.5307  1.3895
 8041SOL    HW235757   0.444   2.137   9.144 -0.3311 -0.7304  1.0523
 8042SOL     OW35758   0.040   0.848   5.577  0.8886  0.4073 -1.2094
 8042SOL    HW135759   0.005   0.936   5.569 -0.5833 -0.0587  0.0287
 8042SOL    HW235760   4.699   0.794   5.590  0.1449  1.6772 -0.4508
 8043SOL     OW35761   0.966   1.869   6.187 -0.1963  0.0036 -0.0354
 8043SOL    HW135762   1.040   1.809   6.189 -0.4576 -0.3469 -1.3550
 8043SOL    HW235763   1.010   1.948   6.156  0.3854 -0.1519  0.4075
 8044SOL     OW35764   3.923   1.921   2.589  0.5961 -0.0008  0.1738
 8044SOL    HW135765   3.996   1.869   2.623 -2.1516 -3.5707  0.5728
 8044SOL    HW235766   3.852   1.893   2.646 -0.4073 -1.0306 -1.5970
 8045SOL     OW35767   0.377   2.810   6.613  0.0851 -0.2405 -0.1769
 8045SOL    HW135768   0.438   2.752   6.658 -0.8927 -1.3134 -0.2242
 8045SOL    HW235769   0.381   2.769   6.527  3.0737 -1.4759  0.5800
 8046SOL     OW35770   1.642   1.463   8.257  0.4325 -0.2933  0.9995
 8046SOL    HW135771   1.704   1.389   8.256 -0.4643 -1.0003 -1.5444
 8046SOL    HW235772   1.566   1.422   8.215  1.1846 -2.5221  1.8235
 8047SOL     OW35773   2.572   0.993   4.196 -0.0756  0.0047  0.6482
 8047SOL    HW135774   2.659   0.972   4.163 -1.1729 -2.1739 -0.8800
 8047SOL    HW235775   2.525   1.014   4.115  0.8563  1.7804  0.5619
 8048SOL     OW35776   1.887   2.955  13.601  0.2128 -0.0895 -0.0776
 8048SOL    HW135777   1.865   2.902  13.678  1.0029 -1.0994 -0.5479
 8048SOL    HW235778   1.914   2.891  13.535  0.6656  0.5023 -0.4567
 8049SOL     OW35779   4.322   2.010  13.159  0.2921 -0.3016  0.0590
 8049SOL    HW135780   4.348   1.971  13.242  1.2109  0.5410  0.1694
 8049SOL    HW235781   4.241   1.967  13.133  0.2491  0.2884 -0.7768
 8050SOL     OW35782   3.830   4.396   3.449  0.2781 -0.4103 -0.0556
 8050SOL    HW135783   3.764   4.337   3.485 -0.0432  0.0081  0.0477
 8050SOL    HW235784   3.771   4.455   3.402  1.7871  1.0036 -0.1726
 8051SOL     OW35785   1.878   1.897   5.194  0.2432 -0.0825  0.4754
 8051SOL    HW135786   1.912   1.815   5.231 -1.1294 -1.9428 -2.4196
 8051SOL    HW235787   1.786   1.900   5.219  0.5017 -0.2738  1.4564
 8052SOL     OW35788   2.559   2.788   9.065 -0.0172 -0.2836 -0.3127
 8052SOL    HW135789   2.470   2.775   9.099  0.9932 -2.9350  1.3357
 8052SOL    HW235790   2.576   2.867   9.117 -1.6267  0.8634 -1.5360
 8053SOL     OW35791   3.593   0.816  13.308 -0.0527 -0.5669  0.4480
 8053SOL    HW135792   3.602   0.891  13.366 -0.6942 -1.9726  2.3430
 8053SOL    HW235793   3.502   0.828  13.281  0.0562 -2.7456 -0.9458
 8054SOL     OW35794   1.022   3.461   3.812  0.1934  0.7247 -0.3880
 8054SOL    HW135795   0.966   3.399   3.858 -1.0036  1.6310 -0.6303
 8054SOL    HW235796   1.096   3.485   3.868  0.3903 -1.3842  0.2385
 8055SOL     OW35797   2.635   2.093   4.592  0.1651  0.4568  0.2397
 8055SOL    HW135798   2.620   2.003   4.562  1.3734  0.5334 -0.5879
 8055SOL    HW235799   2.561   2.100   4.652 -0.5064  0.7075 -0.6223
 8056SOL     OW35800   2.045   3.660   9.054  0.1939  0.3041 -0.2701
 8056SOL    HW135801   2.008   3.721   8.990  1.2203  0.3576 -0.8118
 8056SOL    HW235802   2.125   3.706   9.081 -0.3005  1.7947 -1.3178
 8057SOL     OW35803   2.427   1.493   1.965 -0.1729 -0.0318  0.2744
 8057SOL    HW135804   2.342   1.468   2.001  0.6710 -1.0297  1.6107
 8057SOL    HW235805   2.477   1.415   1.992 -1.3435 -0.8485  0.0788
 8058SOL     OW35806   2.222   3.326   9.147 -0.2305 -0.4961 -0.0331
 8058SOL    HW135807   2.270   3.289   9.221 -2.1078  1.6483  2.2427
 8058SOL    HW235808   2.177   3.393   9.198  0.6707  0.5794 -0.6492
 8059SOL     OW35809   1.161   3.818   1.167  0.2833  0.3245 -0.3046
 8059SOL    HW135810   1.182   3.740   1.218 -1.2101 -0.3287 -0.7004
 8059SOL    HW235811   1.231   3.882   1.184 -1.0677  0.9471  2.8713
 8060SOL     OW35812   3.542   2.539   0.042  0.3395  0.3854 -0.6106
 8060SOL    HW135813   3.603   2.523  17.717 -0.8772 -1.3952 -1.2319
 8060SOL    HW235814   3.460   2.547  17.742 -1.1273  0.0697  1.8612
 8061SOL     OW35815   4.085   0.900   3.820  0.1637 -0.1004  0.0889
 8061SOL    HW135816   4.080   0.940   3.906 -2.8264  0.5951 -0.4023
 8061SOL    HW235817   4.158   0.841   3.839  0.1571 -0.2072 -0.2141
 8062SOL     OW35818   0.821   1.554   3.165  0.3310 -0.2297  0.2818
 8062SOL    HW135819   0.815   1.490   3.094 -0.0223 -1.2578  1.2527
 8062SOL    HW235820   0.891   1.616   3.143  0.6876 -0.3898  0.9566
 8063SOL     OW35821   4.151   3.565  17.183  0.2556  0.7067  0.0664
 8063SOL    HW135822   4.102   3.630  17.233  2.4088  1.2614  1.4337
 8063SOL    HW235823   4.236   3.608  17.189  1.1799 -1.0836 -0.2848
 8064SOL     OW35824   4.705   1.981   5.295  0.3429  0.3812  0.0283
 8064SOL    HW135825   4.623   2.029   5.289 -0.4193 -1.0059 -0.7291
 8064SOL    HW235826   4.711   1.984   5.390 -0.3538 -0.7877  0.1163
 8065SOL     OW35827   2.293   1.163   8.087 -0.2520 -0.0547  0.3810
 8065SOL    HW135828   2.306   1.089   8.028  2.7082 -0.4500  1.5253
 8065SOL    HW235829   2.202   1.177   8.064  0.1921  0.8002 -0.8231
 8066SOL     OW35830   1.365   3.354   7.653 -0.5874 -0.2522  0.4208
 8066SOL    HW135831   1.423   3.304   7.711  0.9548  2.0043  0.8310
 8066SOL    HW235832   1.277   3.337   7.687 -0.4490 -1.3529  0.2421
 8067SOL     OW35833   1.528   3.748  14.259 -0.4016 -0.5396  0.5335
 8067SOL    HW135834   1.466   3.818  14.279  2.2281  1.7668  0.5731
 8067SOL    HW235835   1.561   3.778  14.175 -1.8587  0.6739  0.3849
 8068SOL     OW35836   1.269   4.721   6.210  0.8341 -0.0958  0.0105
 8068SOL    HW135837   1.359   4.691   6.223  0.5000  0.4736  3.9109
 8068SOL    HW235838   1.229   4.637   6.190  1.4987 -0.5113  0.4330
 8069SOL     OW35839   0.989   1.873   5.317  0.2376 -0.1267  0.3883
 8069SOL    HW135840   0.996   1.945   5.255 -0.3036 -0.0901  0.3711
 8069SOL    HW235841   1.071   1.881   5.367 -1.1811  1.5321  2.4397
 8070SOL     OW35842   2.523   0.669   8.334 -0.2242 -0.1468  0.4101
 8070SOL    HW135843   2.515   0.758   8.298 -1.2205  0.1418  1.3304
 8070SOL    HW235844   2.603   0.640   8.290  0.7404  1.9775  0.7380
 8071SOL     OW35845   3.785   4.204  15.848  1.0785  0.3966  0.0421
 8071SOL    HW135846   3.824   4.266  15.786 -0.4959 -0.4922 -1.8715
 8071SOL    HW235847   3.801   4.253  15.928 -0.9840  0.6350  0.3181
 8072SOL     OW35848   1.779   4.498   3.181 -0.1989  0.4297 -0.1238
 8072SOL    HW135849   1.711   4.517   3.115  0.5420 -1.0089 -1.3038
 8072SOL    HW235850   1.766   4.404   3.182 -0.0636  0.3924 -1.4054
 8073SOL     OW35851   2.850   0.863   9.105 -0.4210 -0.3867 -0.1338
 8073SOL    HW135852   2.945   0.865   9.092 -0.4413  1.9982  0.0899
 8073SOL    HW235853   2.835   0.950   9.140  0.1151 -0.2301 -0.2940
 8074SOL     OW35854   3.257   0.799  15.865 -0.6348  0.4068  0.0453
 8074SOL    HW135855   3.347   0.811  15.836 -0.9665 -0.1495 -1.2271
 8074SOL    HW235856   3.249   0.879  15.918  1.7608  0.3514  0.4952
 8075SOL     OW35857   3.238   2.969   6.495 -0.1681 -0.0059 -0.0926
 8075SOL    HW135858   3.214   2.891   6.444  0.6213 -1.3913  1.6644
 8075SOL    HW235859   3.221   3.033   6.425 -0.7116 -1.8497 -1.6602
 8076SOL     OW35860   3.699   2.091   8.375 -0.2320 -0.4528 -0.7159
 8076SOL    HW135861   3.609   2.057   8.377  0.3891 -1.9409  2.2126
 8076SOL    HW235862   3.739   2.031   8.438  0.2482  0.8618  0.2276
 8077SOL     OW35863   1.926   2.464   3.925 -0.8368 -0.0881 -0.1875
 8077SOL    HW135864   1.938   2.541   3.980  1.3772  0.3867 -1.3353
 8077SOL    HW235865   2.006   2.418   3.951  0.2964  1.4921 -0.8740
 8078SOL     OW35866   4.634   2.928   8.478 -0.0631  0.0264 -0.8471
 8078SOL    HW135867   4.663   2.857   8.535 -0.4995 -0.7451 -1.5809
 8078SOL    HW235868   4.652   2.887   8.393  1.1825 -2.5626  0.6679
 8079SOL     OW35869   3.991   1.002   2.822 -0.2786 -0.1168 -0.0569
 8079SOL    HW135870   4.054   0.931   2.835 -0.0458  0.3579  1.3995
 8079SOL    HW235871   3.963   0.997   2.913 -0.8252 -0.0521 -0.2187
 8080SOL     OW35872   1.885   1.779   8.673  0.4703  0.2918  0.3137
 8080SOL    HW135873   1.925   1.714   8.615 -0.3657  0.0506  0.0101
 8080SOL    HW235874   1.917   1.861   8.636  0.3551 -0.9402 -2.5086
 8081SOL     OW35875   3.614   1.495   9.175  0.2633 -0.2087  0.5518
 8081SOL    HW135876   3.532   1.532   9.142 -0.0665 -1.0727  0.4115
 8081SOL    HW235877   3.591   1.438   9.248 -0.8483 -0.2427  0.1833
 8082SOL     OW35878   3.274   2.752   6.303  0.7880 -0.1460 -0.1625
 8082SOL    HW135879   3.243   2.807   6.231  0.5336 -0.6421 -0.4260
 8082SOL    HW235880   3.310   2.675   6.259  0.3727  1.1903 -2.8285
 8083SOL     OW35881   1.764   3.243   7.494  0.5569  0.0417 -0.1496
 8083SOL    HW135882   1.730   3.200   7.572  0.2332 -1.9765 -1.4021
 8083SOL    HW235883   1.776   3.176   7.427 -1.2704 -0.3743 -0.0495
 8084SOL     OW35884   2.851   2.327  10.414 -0.4708 -0.0293  0.1561
 8084SOL    HW135885   2.757   2.333  10.397 -0.6256 -1.2518  0.5839
 8084SOL    HW235886   2.860   2.232  10.413 -1.8579 -0.1702  0.7078
 8085SOL     OW35887   3.747   4.663   1.032 -0.6338 -0.3407 -0.0205
 8085SOL    HW135888   3.672   4.660   0.972 -0.6108 -1.6099  0.0193
 8085SOL    HW235889   3.706   4.705   1.107 -0.1030  0.4324 -0.1525
 8086SOL     OW35890   3.707   2.463   7.256  0.2518  0.2933 -0.3569
 8086SOL    HW135891   3.667   2.408   7.323  0.0887 -0.5105 -1.1165
 8086SOL    HW235892   3.792   2.422   7.274 -0.7002 -1.8397 -0.8208
 8087SOL     OW35893   3.274   1.025   5.166 -0.4727 -0.1655 -0.5972
 8087SOL    HW135894   3.305   1.115   5.166  0.3698 -0.4576  0.5373
 8087SOL    HW235895   3.189   1.031   5.209  0.1739 -0.8958  0.7854
 8088SOL     OW35896   1.350   1.815   6.984  0.0333  0.5205 -0.1538
 8088SOL    HW135897   1.267   1.824   7.031 -0.7556 -1.7956 -1.1438
 8088SOL    HW235898   1.378   1.737   7.032 -0.8553  0.2752 -0.0331
 8089SOL     OW35899   3.040   0.190   5.135 -0.8516 -0.2834  0.0859
 8089SOL    HW135900   2.944   0.189   5.145 -0.7181 -0.3253  1.3518
 8089SOL    HW235901   3.059   0.282   5.155  1.6450 -0.5124 -1.3239
 8090SOL     OW35902   2.545   0.336   3.514  0.1078  0.3409 -0.0776
 8090SOL    HW135903   2.503   0.422   3.527  0.5298  0.0442  3.3610
 8090SOL    HW235904   2.613   0.351   3.449 -0.8867  2.6571 -0.5855
 8091SOL     OW35905   4.259   2.830   1.558  0.3066  0.0432 -0.1532
 8091SOL    HW135906   4.332   2.851   1.616 -0.0846  0.5660  0.1540
 8091SOL    HW235907   4.291   2.745   1.527 -1.1681 -1.1400  1.5241
 8092SOL     OW35908   0.036   0.731   2.965 -0.3221  0.0811  0.2730
 8092SOL    HW135909   0.025   0.680   2.885  1.0766  0.7928 -0.3652
 8092SOL    HW235910   0.046   0.821   2.934  2.0887  0.4893  2.2301
 8093SOL     OW35911   4.105   1.131   2.056 -0.5835  0.4409  0.4333
 8093SOL    HW135912   4.032   1.109   1.998  0.5244 -1.7607 -0.1055
 8093SOL    HW235913   4.107   1.227   2.052 -1.5061  0.5010  1.4271
 8094SOL     OW35914   3.386   1.955  15.014  0.4111 -0.8548 -0.0008
 8094SOL    HW135915   3.379   2.049  14.995  2.7877 -0.9550 -1.3262
 8094SOL    HW235916   3.327   1.941  15.088  2.3597 -0.7648  1.5495
 8095SOL     OW35917   0.312   4.211   9.369  0.5510  0.1773 -0.3203
 8095SOL    HW135918   0.335   4.292   9.323  0.3219  0.2260 -0.3534
 8095SOL    HW235919   0.249   4.179   9.304  1.2396 -0.1938 -0.7966
 8096SOL     OW35920   0.850   2.709   3.683 -0.3256  0.3461  0.0768
 8096SOL    HW135921   0.898   2.639   3.639 -0.9872 -0.1327  0.1294
 8096SOL    HW235922   0.865   2.782   3.622 -1.5395 -0.0820 -0.7379
 8097SOL     OW35923   0.043   3.405   2.552  0.9170  0.4773  0.0254
 8097SOL    HW135924   4.691   3.394   2.519  0.9899  2.0506 -0.6975
 8097SOL    HW235925   0.041   3.489   2.598 -0.9929 -0.8762  2.4409
 8098SOL     OW35926   2.501   3.724  13.119 -0.1647 -0.3157  0.5152
 8098SOL    HW135927   2.493   3.819  13.109  1.4826 -0.3514 -1.0864
 8098SOL    HW235928   2.452   3.698  13.041  0.3872  0.6141 -0.1300
 8099SOL     OW35929   1.032   4.230   6.750  0.3666 -0.0296  0.0570
 8099SOL    HW135930   1.053   4.323   6.759 -0.8988  0.4400 -1.8463
 8099SOL    HW235931   0.939   4.225   6.775  0.6986  0.1381  1.3277
 8100SOL     OW35932   2.394   0.069   3.794  0.2520  0.0542 -0.3542
 8100SOL    HW135933   2.449   0.014   3.849  3.1947  3.9529  0.6530
 8100SOL    HW235934   2.311   0.023   3.781 -0.1361  0.4959  0.6112
 8101SOL     OW35935   4.652   1.756  13.388  0.2534 -0.4324 -0.0074
 8101SOL    HW135936   4.700   1.792  13.313  0.8730 -3.2409 -0.9515
 8101SOL    HW235937   4.680   1.665  13.379 -0.4015 -0.4531 -1.9600
 8102SOL     OW35938   4.600   3.643   6.196 -0.5906  0.1010 -0.4310
 8102SOL    HW135939   4.566   3.669   6.282 -1.5610  0.0423 -0.8021
 8102SOL    HW235940   4.591   3.548   6.202 -0.2869  0.1460  0.8425
 8103SOL     OW35941   0.878   3.668   4.581 -0.5490 -0.2824 -0.3737
 8103SOL    HW135942   0.950   3.729   4.598 -0.0044 -1.3943  1.3530
 8103SOL    HW235943   0.906   3.632   4.497  0.6601  1.2899 -0.6316
 8104SOL     OW35944   3.431   4.161  17.223 -0.2505  0.4479  0.0419
 8104SOL    HW135945   3.336   4.150  17.222 -0.4944  2.7989 -2.4848
 8104SOL    HW235946   3.447   4.249  17.189  2.6522  0.0296  0.3181
 8105SOL     OW35947   0.016   0.851   0.045 -0.4983 -1.1112 -0.2446
 8105SOL    HW135948   0.023   0.869   0.138  1.2125 -0.7611 -0.4398
 8105SOL    HW235949   0.101   0.885   0.018 -0.5064 -1.1383 -0.3057
 8106SOL     OW35950   1.940   4.716   2.078  0.3624 -0.4668  0.0087
 8106SOL    HW135951   1.922   0.035   2.153  3.4815  0.9879 -0.3073
 8106SOL    HW235952   1.872   4.650   2.085 -0.5636  0.2474 -2.2341
 8107SOL     OW35953   2.179   1.503   6.505 -0.7302 -0.2925 -0.2383
 8107SOL    HW135954   2.198   1.548   6.422  0.6573  1.0689  0.7985
 8107SOL    HW235955   2.089   1.471   6.501 -0.8629 -0.2121  2.0203
 8108SOL     OW35956   0.459   1.241  13.469  0.0401  0.3733 -0.1562
 8108SOL    HW135957   0.518   1.197  13.408  0.9702  0.2239  0.8381
 8108SOL    HW235958   0.419   1.160  13.502 -0.6838 -0.4825 -3.1389
 8109SOL     OW35959   0.055   2.392  10.453  0.1854 -0.2760  0.0118
 8109SOL    HW135960   0.040   2.321  10.516 -0.3880 -0.6479 -0.5455
 8109SOL    HW235961   0.068   2.457  10.522 -0.8457 -0.4598  0.3854
 8110SOL     OW35962   3.936   4.030   0.173  0.8170 -0.5736  0.4466
 8110SOL    HW135963   3.925   4.123   0.152  2.6613 -0.4602  0.0371
 8110SOL    HW235964   3.991   4.029   0.251  0.5629 -0.9080  0.6233
 8111SOL     OW35965   3.824   0.746   0.183  0.3828 -0.3268  0.0128
 8111SOL    HW135966   3.907   0.780   0.216  0.5353  0.7715 -1.4918
 8111SOL    HW235967   3.824   0.659   0.222  1.0223  0.5726  1.9988
 8112SOL     OW35968   3.459   3.900   5.553 -0.2195  0.2490 -0.1402
 8112SOL    HW135969   3.434   3.949   5.476 -0.0735 -1.6502 -1.3963
 8112SOL    HW235970   3.552   3.917   5.561  0.0637 -1.3529 -0.0621
 8113SOL     OW35971   1.209   4.148  11.911 -0.7625  0.2492  0.5354
 8113SOL    HW135972   1.297   4.170  11.880 -0.2557 -0.5530  1.4130
 8113SOL    HW235973   1.175   4.071  11.865 -1.2325  0.1553  1.0473
 8114SOL     OW35974   1.855   2.426  15.899  0.3318 -0.7032 -0.0814
 8114SOL    HW135975   1.903   2.484  15.840  1.6404 -1.8062 -0.0877
 8114SOL    HW235976   1.831   2.487  15.969 -1.0227 -2.0736  0.6589
 8115SOL     OW35977   3.439   4.584   7.763 -0.7711  0.3931 -0.1827
 8115SOL    HW135978   3.473   4.564   7.676 -0.4885 -2.4872  0.5582
 8115SOL    HW235979   3.399   4.503   7.795  1.6916 -1.4790 -1.8641
 8116SOL     OW35980   3.654   3.463  17.467 -0.2169  0.1901  0.0616
 8116SOL    HW135981   3.602   3.538  17.437  2.2790  0.4490 -3.6503
 8116SOL    HW235982   3.744   3.489  17.446  0.9734 -2.3386  2.0623
 8117SOL     OW35983   3.602   1.430   6.640  0.0364 -0.1383 -0.0448
 8117SOL    HW135984   3.687   1.437   6.596 -1.0150  0.1980 -2.0080
 8117SOL    HW235985   3.624   1.363   6.705  0.2549 -0.5953 -0.5862
 8118SOL     OW35986   2.393   3.384   2.895  0.1238 -0.4945  0.4358
 8118SOL    HW135987   2.446   3.463   2.883  1.8161 -2.3236 -3.9894
 8118SOL    HW235988   2.461   3.340   2.947  0.0963 -0.1054  0.7980
 8119SOL     OW35989   1.938   1.583   8.502  0.0606 -0.1875  0.0089
 8119SOL    HW135990   1.928   1.650   8.435  2.6711 -0.7774 -0.9531
 8119SOL    HW235991   1.993   1.516   8.462 -0.4618 -1.8465  2.0328
 8120SOL     OW35992   1.704   4.341  11.783 -0.7778  0.3735 -0.4055
 8120SOL    HW135993   1.766   4.353  11.854 -0.3287  2.2019 -1.1234
 8120SOL    HW235994   1.738   4.416  11.735 -2.0322  0.8591 -0.5284
 8121SOL     OW35995   4.413   3.388   2.210 -0.3021 -0.0193  0.2408
 8121SOL    HW135996   4.407   3.474   2.169  1.9527  0.1306  0.1953
 8121SOL    HW235997   4.487   3.391   2.271  0.0621 -0.2923 -0.1854
 8122SOL     OW35998   3.589   4.204   4.122  0.5546  0.3640  0.0688
 8122SOL    HW135999   3.630   4.131   4.076 -0.5055 -0.0459 -0.2389
 8122SOL    HW236000   3.600   4.285   4.072  1.1849 -0.5037 -1.1906
 8123SOL     OW36001   3.755   3.401   8.274  0.3322 -0.1632  0.2919
 8123SOL    HW136002   3.783   3.318   8.312 -4.4386 -0.5046  3.0683
 8123SOL    HW236003   3.709   3.435   8.350  1.5252  2.1964 -0.0475
 8124SOL     OW36004   3.168   2.250  15.060  0.3609 -0.0972  0.0201
 8124SOL    HW136005   3.129   2.179  15.009 -1.6026 -0.0913  1.5577
 8124SOL    HW236006   3.259   2.251  15.030  1.0767 -1.2792  2.1395
 8125SOL     OW36007   4.000   1.992   8.358  0.3629  0.3788  0.3949
 8125SOL    HW136008   3.961   2.010   8.443  1.2278  1.1333  0.6344
 8125SOL    HW236009   4.092   1.972   8.377  0.4609 -0.0410 -0.5013
 8126SOL     OW36010   2.992   2.673   7.076 -0.2554 -0.2620  0.7211
 8126SOL    HW136011   2.914   2.677   7.021 -0.0131 -1.0435  0.3128
 8126SOL    HW236012   3.068   2.670   7.019 -0.2316 -0.3851  0.7578
 8127SOL     OW36013   1.064   2.289   2.746 -0.4816 -0.2510 -0.3122
 8127SOL    HW136014   1.039   2.211   2.697  2.5746 -1.0091 -0.6473
 8127SOL    HW236015   0.972   2.317   2.750 -0.6040 -0.2803 -2.9085
 8128SOL     OW36016   2.509   1.727   2.762 -0.5886  0.1221  0.1790
 8128SOL    HW136017   2.544   1.640   2.778  0.3656  0.9599  2.5212
 8128SOL    HW236018   2.565   1.782   2.816  0.4841 -1.0167  0.2249
 8129SOL     OW36019   3.799   1.791   2.095  0.1707 -0.6394  0.1609
 8129SOL    HW136020   3.887   1.798   2.057 -1.0203 -2.5771 -2.9959
 8129SOL    HW236021   3.817   1.828   2.181 -3.1177  0.1943  0.4918
 8130SOL     OW36022   2.445   2.119   4.310 -0.0572  0.3304  0.1850
 8130SOL    HW136023   2.405   2.131   4.397 -1.2795 -0.5830 -0.2503
 8130SOL    HW236024   2.472   2.207   4.285 -0.5154  0.8525  1.5125
 8131SOL     OW36025   1.124   0.492   3.063  0.2851 -0.0294  0.1939
 8131SOL    HW136026   1.099   0.584   3.060  0.8852  0.0979 -1.1506
 8131SOL    HW236027   1.214   0.501   3.096  1.1980  2.0635 -2.7763
 8132SOL     OW36028   2.342   3.924  15.686  0.0874 -0.1390  0.1062
 8132SOL    HW136029   2.430   3.919  15.722  0.6596  0.7971 -1.1694
 8132SOL    HW236030   2.323   4.017  15.675 -0.2815 -0.5936 -3.1753
 8133SOL     OW36031   2.885   1.963  15.364 -0.3252  0.6634  0.1359
 8133SOL    HW136032   2.943   1.889  15.381 -1.8552 -0.4414  0.5224
 8133SOL    HW236033   2.846   1.935  15.281  0.5764 -3.4127  1.0774
 8134SOL     OW36034   0.019   2.724   6.372 -0.2139 -0.5648 -0.6633
 8134SOL    HW136035   0.032   2.740   6.465  2.5545 -1.0776 -0.9527
 8134SOL    HW236036   4.704   2.645   6.364  0.3400 -1.0933  1.0362
 8135SOL     OW36037   1.354   0.714   6.992  0.6305  0.3120 -0.8319
 8135SOL    HW136038   1.360   0.630   7.038  1.0556  0.7677 -0.0565
 8135SOL    HW236039   1.332   0.689   6.903 -0.9951 -4.0391  0.7943
 8136SOL     OW36040   1.743   0.262   3.341 -0.3542 -0.4265  0.0818
 8136SOL    HW136041   1.786   0.177   3.334  1.6029  0.5078  0.4568
 8136SOL    HW236042   1.804   0.310   3.399  0.7370 -0.1493 -1.2973
 8137SOL     OW36043   1.260   3.714   1.610 -0.5055 -0.0616  0.3491
 8137SOL    HW136044   1.328   3.745   1.670 -2.0180  3.3380  0.3264
 8137SOL    HW236045   1.226   3.798   1.579 -0.4279  0.4398  1.6205
 8138SOL     OW36046   3.722   4.291   6.046 -0.9106 -0.1420  0.2606
 8138SOL    HW136047   3.639   4.308   6.089 -1.4006 -1.1361 -0.2985
 8138SOL    HW236048   3.776   4.330   6.115  1.6593 -3.4025  0.0598
 8139SOL     OW36049   4.546   4.100   7.094 -0.1290 -0.5390 -0.1198
 8139SOL    HW136050   4.560   4.012   7.060 -1.4731 -0.6422 -0.4068
 8139SOL    HW236051   4.593   4.108   7.177  0.9862  1.0296 -0.9053
 8140SOL     OW36052   0.544   0.782  15.629 -0.4712  0.4024  0.4684
 8140SOL    HW136053   0.451   0.764  15.640  0.3902 -1.4067  4.4842
 8140SOL    HW236054   0.564   0.863  15.675  3.1136  0.4924 -1.2441
 8141SOL     OW36055   4.100   3.610   9.185 -0.0065 -0.4140  0.5147
 8141SOL    HW136056   4.006   3.607   9.169 -0.2335  1.3525  1.5463
 8141SOL    HW236057   4.116   3.686   9.131 -2.1503 -0.6517 -0.4584
 8142SOL     OW36058   1.038   0.007  15.795 -0.0318 -0.4139 -0.2677
 8142SOL    HW136059   0.978   4.712  15.862  0.2460  0.2674  0.3139
 8142SOL    HW236060   0.993   0.091  15.785 -0.2526 -0.4420  0.5252
 8143SOL     OW36061   1.983   1.947   5.940  0.0891  0.6630  0.0817
 8143SOL    HW136062   2.065   1.912   5.974  1.2498  1.0752 -2.2604
 8143SOL    HW236063   2.015   2.010   5.876 -0.0678  0.8883  0.2271
 8144SOL     OW36064   0.064   3.834  13.927  0.1425 -0.0838 -0.1680
 8144SOL    HW136065   0.141   3.786  13.957  0.2545 -0.0098 -0.3386
 8144SOL    HW236066   0.045   3.899  13.995 -1.4772  0.1486 -0.8401
 8145SOL     OW36067   0.250   2.233   6.150 -0.6401 -0.3286  0.1185
 8145SOL    HW136068   0.249   2.328   6.165 -2.6094  0.0663 -2.4708
 8145SOL    HW236069   0.337   2.228   6.109 -0.3677  0.0706  0.6422
 8146SOL     OW36070   1.570   4.519   8.569  0.5260  0.1510 -0.0722
 8146SOL    HW136071   1.498   4.504   8.630  0.9465 -2.1848 -0.1552
 8146SOL    HW236072   1.597   4.609   8.585  1.8799 -0.0579 -1.1853
 8147SOL     OW36073   0.358   2.959   9.670 -0.3111 -0.2811 -0.0378
 8147SOL    HW136074   0.375   3.026   9.736  0.9248  0.7413 -1.3977
 8147SOL    HW236075   0.288   2.913   9.716 -1.5668  0.7905 -0.8673
 8148SOL     OW36076   4.140   2.765   5.938  0.0925 -0.4756  0.2769
 8148SOL    HW136077   4.046   2.770   5.921  0.2796  2.2675  0.0030
 8148SOL    HW236078   4.169   2.856   5.937 -1.0502 -0.0992  1.0365
 8149SOL     OW36079   4.121   1.293   9.695  0.0828 -0.2055 -0.0515
 8149SOL    HW136080   4.052   1.250   9.644  0.9231 -1.4027 -0.1846
 8149SOL    HW236081   4.164   1.357   9.639  0.9445 -1.6384 -1.0347
 8150SOL     OW36082   0.285   2.137   5.820 -0.3760  0.8857 -0.5730
 8150SOL    HW136083   0.326   2.220   5.846  0.3169 -0.3497  2.2387
 8150SOL    HW236084   0.322   2.119   5.734  1.1458 -1.5945  0.6179
 8151SOL     OW36085   3.131   2.298   2.292  0.1041 -0.1382  0.1320
 8151SOL    HW136086   3.105   2.223   2.238 -1.7386  1.0941 -0.6808
 8151SOL    HW236087   3.044   2.319   2.324 -0.2342 -0.4514 -0.5656
 8152SOL     OW36088   0.194   3.178   6.973 -0.4658  0.2863 -0.0795
 8152SOL    HW136089   0.170   3.103   7.028  2.4807  0.6605  1.7317
 8152SOL    HW236090   0.134   3.176   6.898  1.6749 -0.5158 -1.7516
 8153SOL     OW36091   3.496   3.301   6.344 -0.1028  0.6786 -0.4156
 8153SOL    HW136092   3.522   3.377   6.293 -0.6022 -0.2067 -2.0005
 8153SOL    HW236093   3.490   3.343   6.429 -2.4859  0.3558 -0.4138
 8154SOL     OW36094   2.493   2.396   5.872 -0.1248 -0.2782 -0.7858
 8154SOL    HW136095   2.409   2.355   5.894 -1.1664  2.7183  0.8299
 8154SOL    HW236096   2.554   2.334   5.912 -2.3496 -1.7492  0.3282
 8155SOL     OW36097   0.461   3.239   2.950  0.1761  0.1282  0.1584
 8155SOL    HW136098   0.472   3.332   2.969  1.3178  0.0748 -0.2740
 8155SOL    HW236099   0.388   3.218   3.009 -0.5839 -1.4681 -1.3611
 8156SOL     OW36100   1.201   2.120  11.425 -0.0625 -0.1553 -0.1218
 8156SOL    HW136101   1.144   2.083  11.358  1.4641 -0.1351 -1.4420
 8156SOL    HW236102   1.276   2.141  11.369  0.9167 -0.8230  0.9565
 8157SOL     OW36103   3.350   3.051   5.288  0.3244  0.2229 -0.5514
 8157SOL    HW136104   3.341   3.085   5.377  4.1885 -0.2564  0.0394
 8157SOL    HW236105   3.441   3.022   5.287 -0.0972 -1.1865  1.9159
 8158SOL     OW36106   4.300   2.933   7.561  0.9665  0.0517 -0.1355
 8158SOL    HW136107   4.347   2.887   7.631 -2.0404 -1.9519  0.5804
 8158SOL    HW236108   4.210   2.908   7.584  0.8289 -0.8241 -1.6522
 8159SOL     OW36109   2.513   2.401   4.532  0.1015  0.3103  0.0569
 8159SOL    HW136110   2.529   2.311   4.560 -0.0223  0.5448  0.8605
 8159SOL    HW236111   2.421   2.411   4.555  0.3553  1.2242  0.7119
 8160SOL     OW36112   0.505   1.572   7.732 -0.0945  0.0923  0.3621
 8160SOL    HW136113   0.448   1.576   7.809  0.9272 -3.3241  1.3290
 8160SOL    HW236114   0.551   1.654   7.750  1.7139 -0.7250 -0.4551
 8161SOL     OW36115   2.967   4.040   4.430 -0.1367 -0.0968  0.0290
 8161SOL    HW136116   3.001   4.111   4.484  1.0048  0.3916 -1.3183
 8161SOL    HW236117   2.966   4.078   4.342 -0.4468  1.4061  0.6716
 8162SOL     OW36118   0.947   0.496   4.227  0.3457  0.1405 -0.3057
 8162SOL    HW136119   0.923   0.411   4.190 -1.2505  0.3220  0.3153
 8162SOL    HW236120   0.861   0.537   4.238 -0.7278 -1.5032 -2.6781
 8163SOL     OW36121   1.618   2.689   1.830 -0.2426  0.3427 -0.1054
 8163SOL    HW136122   1.630   2.655   1.919  0.9474  0.9605 -0.0325
 8163SOL    HW236123   1.704   2.676   1.791 -1.0971 -0.6942 -1.6843
 8164SOL     OW36124   1.203   1.462   4.706 -0.2350 -0.5578 -0.3443
 8164SOL    HW136125   1.197   1.441   4.799  1.0569  1.4402  0.1791
 8164SOL    HW236126   1.123   1.513   4.694 -0.9373 -1.8799 -1.3252
 8165SOL     OW36127   1.159   0.240   8.705 -0.2891 -0.1733  0.0530
 8165SOL    HW136128   1.132   0.316   8.653  1.6715  0.8379  0.5430
 8165SOL    HW236129   1.191   0.285   8.782 -0.4923  0.4678 -0.2423
 8166SOL     OW36130   2.224   0.326   5.314 -0.0073  0.0589  0.3975
 8166SOL    HW136131   2.269   0.246   5.287 -0.0947 -0.3402  1.4448
 8166SOL    HW236132   2.237   0.383   5.238  0.5655 -0.4183  0.1348
 8167SOL     OW36133   2.610   0.419  14.447  0.0352 -0.0756 -0.1765
 8167SOL    HW136134   2.670   0.346  14.431 -0.0034  0.3172 -2.1055
 8167SOL    HW236135   2.638   0.468  14.369 -1.0284 -1.6199 -1.5316
 8168SOL     OW36136   1.624   2.879  14.197 -0.0949 -0.2415  0.3664
 8168SOL    HW136137   1.712   2.914  14.211 -0.4496  1.0776 -0.6957
 8168SOL    HW236138   1.581   2.914  14.276 -0.7293  2.4021 -1.1614
 8169SOL     OW36139   0.247   1.649   7.894  0.6028  0.4146  0.0416
 8169SOL    HW136140   0.234   1.560   7.926  0.0473  0.5350  0.1577
 8169SOL    HW236141   0.210   1.650   7.806 -0.0697  1.8513  0.3393
 8170SOL     OW36142   0.206   2.947   2.647  0.1919  0.1641 -0.1427
 8170SOL    HW136143   0.202   3.017   2.581 -0.8995 -0.0234 -0.2896
 8170SOL    HW236144   0.294   2.961   2.680  0.5148 -1.3358 -0.3633
 8171SOL     OW36145   3.863   4.037   0.771 -0.2493 -0.1985 -0.2751
 8171SOL    HW136146   3.881   3.969   0.835  0.7428 -2.9655 -3.4883
 8171SOL    HW236147   3.811   3.983   0.712 -0.1696  1.1587 -1.5930
 8172SOL     OW36148   2.983   3.989   5.673  0.5281  0.9972 -0.1143
 8172SOL    HW136149   2.970   3.924   5.742 -0.8084  2.4303  0.9671
 8172SOL    HW236150   2.963   4.075   5.709 -0.8047  0.8079 -0.4210
 8173SOL     OW36151   1.154   3.905  11.821 -0.0139 -0.3977  0.5323
 8173SOL    HW136152   1.105   3.838  11.869 -0.5816 -0.6316 -0.3825
 8173SOL    HW236153   1.098   3.933  11.748 -0.7082  2.3980  2.1144
 8174SOL     OW36154   2.392   1.054   3.761 -0.3017 -0.3071 -0.3954
 8174SOL    HW136155   2.342   1.131   3.735  4.1002  2.3812 -0.9118
 8174SOL    HW236156   2.359   1.047   3.850 -0.3517  1.5705 -0.2592
 8175SOL     OW36157   3.374   2.113   7.571  0.3493  0.4069 -0.0940
 8175SOL    HW136158   3.363   2.081   7.481 -1.4817 -0.0868  0.2961
 8175SOL    HW236159   3.309   2.182   7.584 -0.3060 -0.6900  2.3433
 8176SOL     OW36160   3.475   4.327   7.042 -0.2684 -0.4132 -0.4508
 8176SOL    HW136161   3.453   4.241   7.006 -3.4815  0.5249 -0.7884
 8176SOL    HW236162   3.404   4.356   7.100 -0.0836  0.6387 -0.7564
 8177SOL     OW36163   0.109   2.128   3.270  0.0179 -0.1982  0.3642
 8177SOL    HW136164   0.199   2.160   3.281  0.3664 -0.8590 -0.6039
 8177SOL    HW236165   0.078   2.202   3.218 -2.0984 -1.0540  0.4288
 8178SOL     OW36166   3.795   3.221   6.195 -0.1081  0.1756 -0.1580
 8178SOL    HW136167   3.860   3.186   6.254 -0.4426 -0.5174 -0.2081
 8178SOL    HW236168   3.747   3.284   6.249 -0.1572  0.4241 -0.4852
 8179SOL     OW36169   4.373   4.070  15.815  0.0319  0.3451  0.4963
 8179SOL    HW136170   4.360   4.084  15.909 -0.9464 -1.6285  0.6499
 8179SOL    HW236171   4.307   4.129  15.779  0.5984  0.5143 -0.2684
 8180SOL     OW36172   1.743   0.441  12.365  0.0936 -0.5242  0.3657
 8180SOL    HW136173   1.811   0.487  12.316 -2.1137  0.7825 -1.4612
 8180SOL    HW236174   1.714   0.382  12.297  1.0820 -1.4807  0.7828
 8181SOL     OW36175   4.083   0.629   1.222 -0.1580 -0.1155  0.0904
 8181SOL    HW136176   4.055   0.554   1.169  0.1073 -0.0547 -0.1401
 8181SOL    HW236177   4.002   0.676   1.243 -0.4298 -0.6777  0.2806
 8182SOL     OW36178   1.932   3.879   9.886 -0.2597 -0.3276 -0.0027
 8182SOL    HW136179   1.856   3.935   9.875  2.2068  2.6401 -2.3200
 8182SOL    HW236180   1.982   3.921   9.816 -1.2963 -3.1973 -2.4914
 8183SOL     OW36181   4.192   2.966   4.538  0.1123  0.0179  0.1148
 8183SOL    HW136182   4.248   3.018   4.597  0.3108  1.3161 -1.2195
 8183SOL    HW236183   4.246   2.888   4.529 -0.6131 -0.3549 -0.9160
 8184SOL     OW36184   3.612   1.796   7.117  0.0368 -0.1319  0.0276
 8184SOL    HW136185   3.639   1.711   7.081  0.3017 -1.1066  2.5110
 8184SOL    HW236186   3.517   1.797   7.117  0.0363 -0.3965 -0.8544
 8185SOL     OW36187   1.887   0.575   4.289 -0.3245 -0.5664  0.0194
 8185SOL    HW136188   1.873   0.503   4.227  1.7041  2.0716 -3.5318
 8185SOL    HW236189   1.929   0.527   4.361  2.0271 -2.2169 -2.4498
 8186SOL     OW36190   2.639   4.231  16.100  0.1712 -0.4245 -0.0253
 8186SOL    HW136191   2.716   4.277  16.133 -0.2009 -0.1685  0.4733
 8186SOL    HW236192   2.675   4.143  16.112  2.5236  0.5331 -0.0980
 8187SOL     OW36193   1.163   2.789  16.141 -0.1917 -0.1991  0.3668
 8187SOL    HW136194   1.130   2.701  16.123  1.2124 -0.8864  1.0692
 8187SOL    HW236195   1.102   2.804  16.213  0.5659  2.9995  0.3398
 8188SOL     OW36196   0.913   2.014  14.945 -0.3874 -0.8531 -0.3161
 8188SOL    HW136197   1.007   2.019  14.957 -0.1196 -0.3838 -2.4990
 8188SOL    HW236198   0.912   2.028  14.850  0.9466 -0.2689 -0.2451
 8189SOL     OW36199   3.957   2.554   7.034  0.4056 -0.2007 -0.4174
 8189SOL    HW136200   3.982   2.539   7.125 -0.0553 -2.4485 -0.6733
 8189SOL    HW236201   3.966   2.469   6.991 -3.1447 -1.1407  0.6893
 8190SOL     OW36202   3.689   2.720  17.418 -0.2090  0.6287 -0.7721
 8190SOL    HW136203   3.598   2.749  17.412 -0.6937 -0.3416  1.8220
 8190SOL    HW236204   3.692   2.626  17.406 -1.1594  0.4142  0.7145
 8191SOL     OW36205   3.468   0.366   7.348 -0.3660  0.3195  0.7026
 8191SOL    HW136206   3.498   0.450   7.383  0.5201 -0.1764  1.1336
 8191SOL    HW236207   3.415   0.333   7.420  3.1207 -1.7828  2.2703
 8192SOL     OW36208   3.025   1.088   5.796  0.1951  0.4798  0.5922
 8192SOL    HW136209   2.934   1.078   5.825  0.4872 -0.2403  1.2301
 8192SOL    HW236210   3.023   1.183   5.787  1.4015  0.3631 -0.9604
 8193SOL     OW36211   2.925   1.432   6.710  0.0554 -0.5175 -0.1965
 8193SOL    HW136212   2.911   1.442   6.804  0.3017  1.2966 -0.3593
 8193SOL    HW236213   2.955   1.520   6.688 -0.6147 -0.3549 -0.4907
 8194SOL     OW36214   3.163   2.038   4.392 -0.5337  0.3617 -0.9636
 8194SOL    HW136215   3.153   2.064   4.301  2.0050  5.5129  0.2127
 8194SOL    HW236216   3.217   1.961   4.375  0.7651  0.8428  0.9793
 8195SOL     OW36217   4.065   4.580   5.512  0.1716  0.6161 -0.3823
 8195SOL    HW136218   3.976   4.548   5.500 -0.1107  1.1899  0.1909
 8195SOL    HW236219   4.122   4.503   5.519 -1.3963 -0.9009 -4.3744
 8196SOL     OW36220   3.116   3.779   3.494  0.1096 -0.2740 -0.2929
 8196SOL    HW136221   3.111   3.722   3.571 -2.6179  1.8013  1.0528
 8196SOL    HW236222   3.210   3.792   3.480  0.7758 -2.0716  2.4197
 8197SOL     OW36223   0.008   1.997  10.229 -0.5486  0.4620 -0.3920
 8197SOL    HW136224   4.667   1.943  10.225 -0.1824 -0.2112  1.3066
 8197SOL    HW236225   4.735   2.021  10.321  1.4874  0.2129 -0.1068
 8198SOL     OW36226   3.689   0.245   6.738  0.0497 -0.3462  0.0600
 8198SOL    HW136227   3.650   0.322   6.779  1.4205  0.5762 -0.3395
 8198SOL    HW236228   3.774   0.285   6.719  1.8614 -3.8937  0.9081
 8199SOL     OW36229   4.552   3.032   3.392  0.3930 -0.1226  0.3216
 8199SOL    HW136230   4.560   3.001   3.482  1.0735  1.2250  0.7309
 8199SOL    HW236231   4.497   2.963   3.356  0.8939 -0.1177 -0.4659
 8200SOL     OW36232   2.532   2.612   3.166 -0.4141 -1.0722 -0.2566
 8200SOL    HW136233   2.621   2.586   3.187 -0.0440 -0.2524 -0.8278
 8200SOL    HW236234   2.490   2.556   3.232 -3.0805  2.9970  1.4961
 8201SOL     OW36235   0.352   0.253   6.380 -0.0609  0.2588 -0.4122
 8201SOL    HW136236   0.300   0.196   6.437  2.9066  1.7130  3.7522
 8201SOL    HW236237   0.289   0.320   6.354 -2.3820 -1.9795 -0.5102
 8202SOL     OW36238   4.086   2.883  13.833 -0.0247  0.8153  0.3599
 8202SOL    HW136239   4.109   2.812  13.773 -0.0635 -0.3666  1.7474
 8202SOL    HW236240   3.991   2.881  13.836 -0.0069  0.7125  0.7907
 8203SOL     OW36241   0.079   4.246   2.311 -0.4992 -0.0049  0.4003
 8203SOL    HW136242   0.141   4.278   2.376 -0.3104  3.3369 -1.4423
 8203SOL    HW236243   0.106   4.154   2.304  1.6460  0.9044 -3.5958
 8204SOL     OW36244   2.247   2.016   2.509  0.8517  0.1989  0.5706
 8204SOL    HW136245   2.198   2.058   2.580 -2.0657  1.2656 -2.0926
 8204SOL    HW236246   2.273   1.940   2.561 -4.9334 -1.3746  1.0928
 8205SOL     OW36247   1.755   3.939  12.926  0.1560 -0.3640  0.2871
 8205SOL    HW136248   1.687   3.916  12.990 -0.1580 -0.3073 -0.0262
 8205SOL    HW236249   1.736   3.873  12.859 -2.3110  0.1508  0.4975
 8206SOL     OW36250   1.083   2.995   8.340 -0.2036  1.0209 -0.7131
 8206SOL    HW136251   1.085   2.906   8.303  0.7833  0.4072  0.7862
 8206SOL    HW236252   0.990   3.000   8.359 -0.0950 -2.3571  0.7592
 8207SOL     OW36253   1.650   4.417   8.166  0.4986  0.3530 -0.1133
 8207SOL    HW136254   1.559   4.432   8.191  0.1161  0.6590 -1.6587
 8207SOL    HW236255   1.646   4.434   8.072  0.0300  0.3852 -0.0885
 8208SOL     OW36256   0.686   4.112   6.356 -0.5849  0.7154 -0.0933
 8208SOL    HW136257   0.765   4.132   6.406  0.0168 -3.3291  0.5718
 8208SOL    HW236258   0.725   4.110   6.269  0.4901  0.1740  0.4034
 8209SOL     OW36259   2.305   3.712   5.289 -0.1946 -0.2529  0.1055
 8209SOL    HW136260   2.369   3.743   5.353 -0.4357 -0.2266  0.3343
 8209SOL    HW236261   2.355   3.644   5.244  1.1802  0.5186  0.4950
 8210SOL     OW36262   0.840   3.220  10.305  0.2179  0.3319  0.8799
 8210SOL    HW136263   0.847   3.135  10.348  1.9902  1.0121  1.9301
 8210SOL    HW236264   0.775   3.213  10.235  1.6281  1.9631 -0.6032
 8211SOL     OW36265   3.247   3.802   5.869 -0.2161 -0.2983 -0.8024
 8211SOL    HW136266   3.297   3.762   5.797  0.8814 -0.6353  0.1613
 8211SOL    HW236267   3.256   3.891   5.834  0.2579 -0.5645 -1.3585
 8212SOL     OW36268   4.082   4.057  14.622 -0.4635  0.4777 -0.2416
 8212SOL    HW136269   4.071   3.981  14.565 -0.1094 -0.2483  0.6521
 8212SOL    HW236270   4.022   4.113  14.572  0.3734  1.8000  0.2340
 8213SOL     OW36271   3.223   1.162   7.591  0.8299  1.0270 -0.3607
 8213SOL    HW136272   3.152   1.194   7.535  0.3087  1.4817  0.5604
 8213SOL    HW236273   3.279   1.239   7.586 -0.1068  1.6537 -1.2407
 8214SOL     OW36274   1.709   3.794  13.566 -0.2008  0.1294  0.2496
 8214SOL    HW136275   1.787   3.831  13.525 -0.1045  0.7350  0.9979
 8214SOL    HW236276   1.678   3.866  13.619 -0.9582  0.1492 -0.2183
 8215SOL     OW36277   0.648   3.699  10.898  0.0813  0.3450  0.1779
 8215SOL    HW136278   0.607   3.682  10.983  0.7842 -0.4534  0.3546
 8215SOL    HW236279   0.608   3.634  10.841  2.3091 -0.7611 -0.1407
 8216SOL     OW36280   3.912   4.300   3.938 -0.6144  0.0733  0.2882
 8216SOL    HW136281   3.866   4.350   3.871  0.1104 -1.7899 -1.5942
 8216SOL    HW236282   3.918   4.361   4.012  3.6332 -2.1027  1.7582
 8217SOL     OW36283   4.281   3.942   5.896  0.0436 -0.0134 -0.1273
 8217SOL    HW136284   4.317   3.962   5.983 -0.2999 -0.4472  0.1154
 8217SOL    HW236285   4.357   3.895   5.861  0.6749 -0.6801  2.1556
 8218SOL     OW36286   0.414   2.389   6.563 -0.3328 -0.4457  0.2192
 8218SOL    HW136287   0.334   2.339   6.580 -0.3294 -0.9835 -1.3754
 8218SOL    HW236288   0.367   2.439   6.497 -1.6731 -1.0808  0.6903
 8219SOL     OW36289   2.136   1.111   8.409  0.3534 -0.0065 -0.0521
 8219SOL    HW136290   2.158   1.027   8.369 -0.4809 -0.4764  0.4579
 8219SOL    HW236291   2.219   1.157   8.398 -0.2921  0.8219 -1.4753
 8220SOL     OW36292   4.424   2.927  16.467  0.1709  0.2720 -0.3540
 8220SOL    HW136293   4.466   2.975  16.395  0.8607  1.2101  0.6660
 8220SOL    HW236294   4.493   2.884  16.516  0.3044 -0.9299 -1.6062
 8221SOL     OW36295   0.793   0.695   1.200  0.5597 -0.4863 -0.1311
 8221SOL    HW136296   0.735   0.667   1.130 -0.5503  2.2231 -0.3055
 8221SOL    HW236297   0.765   0.785   1.216  1.3201 -0.3869  0.6353
 8222SOL     OW36298   3.568   2.758   6.310 -0.0382 -0.3924  0.5596
 8222SOL    HW136299   3.613   2.842   6.301  0.7173 -0.8612 -0.0310
 8222SOL    HW236300   3.487   2.790   6.349 -0.4020  2.3071 -2.4602
 8223SOL     OW36301   4.097   1.587   0.852 -0.2013  0.3342  0.2596
 8223SOL    HW136302   4.001   1.581   0.850 -0.2232  0.4009  0.9926
 8223SOL    HW236303   4.127   1.497   0.840  1.4597  0.7161  1.5919
 8224SOL     OW36304   4.061   1.120   6.587  0.8200 -0.0902 -0.3496
 8224SOL    HW136305   4.037   1.063   6.659 -3.7507  1.3170 -0.7608
 8224SOL    HW236306   4.069   1.058   6.514  0.9104 -1.6211  0.9676
 8225SOL     OW36307   2.638   3.202  17.658  0.5794 -0.5635  0.2107
 8225SOL    HW136308   2.694   3.188  17.582 -1.5174  0.8742 -1.6197
 8225SOL    HW236309   2.582   3.269  17.618 -0.4536 -0.9628  1.0012
 8226SOL     OW36310   2.662   1.461   7.522 -0.5154 -0.1684 -0.0513
 8226SOL    HW136311   2.596   1.398   7.551 -1.6984  0.0004 -2.3648
 8226SOL    HW236312   2.690   1.492   7.608  1.5586  0.6727 -1.0250
 8227SOL     OW36313   0.652   1.331   2.523 -0.2207  0.3238 -0.5958
 8227SOL    HW136314   0.688   1.414   2.556 -1.5496  0.9470 -0.7160
 8227SOL    HW236315   0.577   1.313   2.579  0.3587  1.4226  0.5192
 8228SOL     OW36316   2.956   2.620   0.499  0.3910 -0.6775  0.0116
 8228SOL    HW136317   3.006   2.655   0.426  1.2145  0.9298  1.3311
 8228SOL    HW236318   2.880   2.677   0.512  1.0585 -0.0461  1.1504
 8229SOL     OW36319   4.031   2.275   2.044 -0.1220 -0.2633  0.2003
 8229SOL    HW136320   3.969   2.329   1.994  1.3490  1.9750  0.7548
 8229SOL    HW236321   4.055   2.214   1.975 -0.4985 -1.3155  1.0122
 8230SOL     OW36322   3.860   4.392  12.310  0.3556  0.8335  0.7301
 8230SOL    HW136323   3.954   4.391  12.327  0.6805  2.1081 -0.9803
 8230SOL    HW236324   3.872   4.465  12.250 -0.7699 -0.2141 -0.7839
 8231SOL     OW36325   0.306   2.727   1.686  0.5784  0.8841  0.6559
 8231SOL    HW136326   0.303   2.785   1.610  0.7882  1.0737  0.7912
 8231SOL    HW236327   0.234   2.762   1.740 -1.6704 -2.6223 -0.1309
 8232SOL     OW36328   3.590   0.351  10.829 -0.1909  0.1513 -0.2028
 8232SOL    HW136329   3.611   0.287  10.761 -2.3225  0.2077 -0.9214
 8232SOL    HW236330   3.501   0.322  10.849  0.0586 -0.5846 -0.1543
 8233SOL     OW36331   1.139   0.824   8.445  0.1394  0.2303  0.2520
 8233SOL    HW136332   1.082   0.824   8.368 -0.6330  1.8911  0.8157
 8233SOL    HW236333   1.163   0.917   8.450  1.5431 -0.2807  3.0609
 8234SOL     OW36334   1.807   3.880   2.694  0.3397 -0.2863  0.2534
 8234SOL    HW136335   1.812   3.791   2.729 -2.1165 -1.2740 -1.8473
 8234SOL    HW236336   1.805   3.855   2.601  1.5102 -0.0400  0.1710
 8235SOL     OW36337   1.905   3.113   7.258 -0.1440  0.1137 -0.4728
 8235SOL    HW136338   1.939   3.141   7.343  1.1678 -2.1141 -0.2836
 8235SOL    HW236339   1.908   3.018   7.258 -0.8481  0.0869 -0.8172
 8236SOL     OW36340   1.159   2.841   7.865  0.2101 -0.6099  0.5977
 8236SOL    HW136341   1.068   2.836   7.893 -0.7251  0.4959 -2.2099
 8236SOL    HW236342   1.191   2.751   7.857  2.2618  0.3709 -2.2936
 8237SOL     OW36343   4.512   4.417  15.081 -0.2818 -0.0640 -0.5054
 8237SOL    HW136344   4.516   4.414  14.985  1.4612  0.6071 -0.4614
 8237SOL    HW236345   4.508   4.508  15.112  1.0755 -0.5877  1.2337
 8238SOL     OW36346   3.702   2.343   3.609  0.5501 -0.1560  0.4024
 8238SOL    HW136347   3.744   2.398   3.675 -1.7004 -0.0757  1.7892
 8238SOL    HW236348   3.694   2.403   3.535 -2.8255 -0.0498  0.8600
 8239SOL     OW36349   2.885   4.487  12.611  0.3519  0.0673 -0.3840
 8239SOL    HW136350   2.828   4.558  12.580  2.6254  1.0602 -2.2425
 8239SOL    HW236351   2.820   4.429  12.650 -0.1085  0.2835 -0.8243
 8240SOL     OW36352   0.589   3.903   7.777  0.6024  0.3022  0.7663
 8240SOL    HW136353   0.625   3.966   7.714  1.7600 -1.3031 -0.1611
 8240SOL    HW236354   0.611   3.820   7.736  1.7870  0.8945  0.2052
 8241SOL     OW36355   2.498   0.997   9.147  0.6477  0.3820  0.4457
 8241SOL    HW136356   2.538   1.054   9.213 -1.8779  1.7262  0.7904
 8241SOL    HW236357   2.404   1.005   9.162  0.5833  0.0810  0.2199
 8242SOL     OW36358   1.666   4.013   2.121  0.2163  0.5606  0.4025
 8242SOL    HW136359   1.591   3.954   2.117 -0.3231  1.1648  1.7220
 8242SOL    HW236360   1.741   3.954   2.119 -0.4720 -0.3831  2.1843
 8243SOL     OW36361   0.248   3.400   8.825 -0.0710 -0.2275 -0.4513
 8243SOL    HW136362   0.216   3.323   8.872 -0.6972  0.8585  0.8912
 8243SOL    HW236363   0.313   3.436   8.885 -2.0826  1.3193  0.7898
 8244SOL     OW36364   3.143   0.171  17.224 -0.0352  0.0230 -0.3801
 8244SOL    HW136365   3.048   0.182  17.230 -0.0831 -0.5737 -0.0576
 8244SOL    HW236366   3.175   0.257  17.253  1.4933 -0.5947 -0.2625
 8245SOL     OW36367   2.199   3.495   3.200  0.6648  0.1293  0.4287
 8245SOL    HW136368   2.286   3.533   3.185  0.2782  1.3991  1.3970
 8245SOL    HW236369   2.212   3.410   3.159 -0.3169  0.6352 -0.9059
 8246SOL     OW36370   2.241   0.919   6.630 -0.2420  0.5508 -0.2360
 8246SOL    HW136371   2.166   0.975   6.612 -1.2157 -0.3622  1.0391
 8246SOL    HW236372   2.242   0.859   6.556  0.9861 -0.3871  0.5458
 8247SOL     OW36373   3.007   1.940   9.746 -0.4071 -0.4167 -0.1852
 8247SOL    HW136374   3.083   1.951   9.689  0.3911 -1.6826  0.6483
 8247SOL    HW236375   2.988   1.846   9.741  0.3554 -0.6661  1.6529
 8248SOL     OW36376   1.220   0.414   1.984  0.7623  0.2232  0.1134
 8248SOL    HW136377   1.167   0.335   1.981  0.0811  0.6975 -0.3594
 8248SOL    HW236378   1.309   0.382   1.970  2.1938  2.8890  3.2046
 8249SOL     OW36379   1.573   4.705   4.452  0.3644  0.0721  0.5125
 8249SOL    HW136380   1.499   4.660   4.493  0.0659  1.2564  1.2758
 8249SOL    HW236381   1.643   4.663   4.503 -0.1548 -1.3118  0.0694
 8250SOL     OW36382   1.809   3.823   1.827  0.8898  0.4410  0.4795
 8250SOL    HW136383   1.840   3.842   1.916  0.1585  2.2724  0.3402
 8250SOL    HW236384   1.739   3.888   1.822  0.1203 -0.4551 -0.3252
 8251SOL     OW36385   1.679   3.316   3.294  0.3543  0.3842 -0.0051
 8251SOL    HW136386   1.716   3.359   3.371  0.2473 -0.2512  0.4097
 8251SOL    HW236387   1.753   3.307   3.233 -0.2862 -1.2050 -0.5542
 8252SOL     OW36388   1.108   3.079   6.552 -0.5350 -0.7133  0.0103
 8252SOL    HW136389   1.150   3.129   6.483  0.1914  0.2086  1.1131
 8252SOL    HW236390   1.187   3.055   6.601 -0.5222  1.7211  1.2201
 8253SOL     OW36391   1.028   0.027   2.774  0.0659  0.1310 -0.2297
 8253SOL    HW136392   1.068   0.007   2.690 -0.3924 -1.0638 -0.1547
 8253SOL    HW236393   0.938   4.735   2.764 -1.3725  3.4840  2.9884
 8254SOL     OW36394   3.128   4.283  11.279 -0.1635 -0.4274 -0.1617
 8254SOL    HW136395   3.215   4.279  11.317 -0.2510 -1.2958 -0.0560
 8254SOL    HW236396   3.147   4.329  11.197 -0.2456 -1.5041 -0.7862
 8255SOL     OW36397   3.336   3.885   7.375  0.5956 -0.6373  0.0533
 8255SOL    HW136398   3.415   3.902   7.323 -0.3493  1.8596 -0.5587
 8255SOL    HW236399   3.281   3.955   7.339 -0.9041 -2.0986 -0.4579
 8256SOL     OW36400   3.648   3.913   1.592 -0.1291  0.5391  0.1962
 8256SOL    HW136401   3.574   3.852   1.594  0.7904 -0.5636  0.0684
 8256SOL    HW236402   3.665   3.904   1.498  1.2951 -0.8732  0.5941
 8257SOL     OW36403   1.134   2.541   8.996  0.0305  0.1427  0.4202
 8257SOL    HW136404   1.096   2.543   8.909 -1.6947 -1.5481  1.1444
 8257SOL    HW236405   1.228   2.541   8.976 -0.5001 -2.2516 -2.0228
 8258SOL     OW36406   1.861   3.697  16.567  0.1760 -0.3712 -0.3034
 8258SOL    HW136407   1.937   3.639  16.560 -1.5347 -2.9646  2.8040
 8258SOL    HW236408   1.788   3.635  16.569 -0.4429  0.4221  1.7863
 8259SOL     OW36409   0.198   4.204   1.294 -0.0904 -0.6433 -0.5217
 8259SOL    HW136410   0.256   4.170   1.227  0.3824 -0.0713 -0.4043
 8259SOL    HW236411   0.252   4.278   1.321  0.0917 -1.2668  0.8494
 8260SOL     OW36412   3.876   2.377   5.834 -0.5651  0.1456 -0.4776
 8260SOL    HW136413   3.892   2.466   5.803  0.2345  0.1767  0.0307
 8260SOL    HW236414   3.804   2.382   5.897  1.8559 -1.5166  2.3951
 8261SOL     OW36415   0.578   0.307   2.624  0.2977  0.2186  0.2880
 8261SOL    HW136416   0.496   0.325   2.576  0.5126  1.1990  0.2855
 8261SOL    HW236417   0.546   0.267   2.705  0.2450 -3.1808 -1.4082
 8262SOL     OW36418   3.950   2.811   6.485  0.7668 -1.1493  0.1682
 8262SOL    HW136419   3.963   2.747   6.415 -0.9391 -3.4230  1.9504
 8262SOL    HW236420   3.906   2.758   6.552 -0.7404 -1.1947 -0.8489
 8263SOL     OW36421   1.514   1.149   9.014  0.1367 -0.6443  0.4554
 8263SOL    HW136422   1.521   1.115   9.103 -1.2125 -0.9388  0.4458
 8263SOL    HW236423   1.548   1.238   9.017 -1.1253 -0.1078 -0.9006
 8264SOL     OW36424   4.621   3.383   4.633 -0.1977  0.5723  0.7337
 8264SOL    HW136425   4.656   3.294   4.627 -0.2723  0.4478  2.0389
 8264SOL    HW236426   4.588   3.397   4.722 -1.7767  0.7664  0.1319
 8265SOL     OW36427   2.644   1.015   5.521  0.5153  0.9847 -1.1905
 8265SOL    HW136428   2.737   1.033   5.535  0.9096 -1.1918 -1.0048
 8265SOL    HW236429   2.607   1.102   5.534 -0.1791  0.5860 -0.5269
 8266SOL     OW36430   0.904   1.480   8.290 -0.3468  0.0771 -0.3347
 8266SOL    HW136431   0.852   1.532   8.351  1.3126  0.8708  0.3988
 8266SOL    HW236432   0.984   1.462   8.339  0.0970 -1.3447 -1.5692
 8267SOL     OW36433   4.588   4.071   6.124  0.1830 -0.1353  0.2141
 8267SOL    HW136434   4.570   3.992   6.074 -0.1831  0.1640 -0.1371
 8267SOL    HW236435   4.655   4.110   6.069 -0.0358  0.0525  0.0778
 8268SOL     OW36436   2.552   3.482   3.742 -0.8260 -0.4516  0.0955
 8268SOL    HW136437   2.490   3.416   3.773  0.1577 -1.6411 -0.4889
 8268SOL    HW236438   2.498   3.560   3.755 -0.4066 -0.3103  1.0120
 8269SOL     OW36439   4.504   2.694   4.846  0.1572  0.6293  0.1138
 8269SOL    HW136440   4.589   2.650   4.838 -0.9410 -1.5112  0.1976
 8269SOL    HW236441   4.509   2.700   4.942  1.8206  1.0665 -0.0022
 8270SOL     OW36442   1.633   3.184  16.037 -0.2428 -0.4150 -0.1117
 8270SOL    HW136443   1.639   3.243  16.112  1.5084 -0.0421 -0.5440
 8270SOL    HW236444   1.643   3.098  16.079 -0.2578  0.3221  1.3846
 8271SOL     OW36445   3.317   2.382  11.006  0.9925 -0.7606 -0.4430
 8271SOL    HW136446   3.323   2.359  10.914 -0.1098  1.7098 -1.1209
 8271SOL    HW236447   3.300   2.292  11.036 -3.6218  0.4777  0.6129
 8272SOL     OW36448   3.645   4.382   2.120 -0.1943  0.0099 -0.4813
 8272SOL    HW136449   3.633   4.418   2.208  0.7618 -0.6055 -0.0911
 8272SOL    HW236450   3.568   4.416   2.076 -1.9157  0.1545  2.6574
 8273SOL     OW36451   2.242   0.565  12.042  0.2133  0.5944  0.1902
 8273SOL    HW136452   2.271   0.482  12.002  2.2736  0.5385  1.8019
 8273SOL    HW236453   2.256   0.631  11.974  0.3629 -0.4461 -0.7949
 8274SOL     OW36454   1.803   1.366   8.632 -0.3929  0.6214  0.0001
 8274SOL    HW136455   1.843   1.439   8.584 -1.0898  1.5427  0.8316
 8274SOL    HW236456   1.717   1.359   8.591  0.3124  0.4620 -1.4604
 8275SOL     OW36457   3.986   4.228   2.646  0.0692  0.4597 -0.1513
 8275SOL    HW136458   3.930   4.227   2.568 -0.2631  0.7985  0.0830
 8275SOL    HW236459   3.923   4.224   2.718 -0.0383  1.0996 -0.2102
 8276SOL     OW36460   1.971   3.326  15.562  0.3999  0.5253 -0.2095
 8276SOL    HW136461   2.000   3.378  15.637 -0.5900  0.1479  0.4281
 8276SOL    HW236462   1.999   3.365  15.479 -0.6156  1.4416 -0.1133
 8277SOL     OW36463   3.577   1.257   9.356  0.5577 -0.0600 -0.2723
 8277SOL    HW136464   3.541   1.210   9.431  0.1161  0.4866 -0.1420
 8277SOL    HW236465   3.581   1.182   9.296 -0.3441  0.0649 -0.4999
 8278SOL     OW36466   3.449   1.486  12.411 -0.0261  0.2262  0.5280
 8278SOL    HW136467   3.483   1.521  12.328 -2.5890 -0.5202 -0.8325
 8278SOL    HW236468   3.378   1.548  12.425 -1.3669 -0.9278 -1.1122
 8279SOL     OW36469   1.002   0.491   4.505 -0.4013 -0.7099 -0.0694
 8279SOL    HW136470   0.976   0.580   4.526 -2.7447 -1.5822  0.7283
 8279SOL    HW236471   0.996   0.498   4.410  0.5905  0.5186 -0.0430
 8280SOL     OW36472   2.974   4.601  10.798 -0.4493 -0.0952  0.2085
 8280SOL    HW136473   3.060   4.564  10.782  0.3546  2.1180 -0.5991
 8280SOL    HW236474   2.973   4.669  10.731  0.3392  0.3524  0.6533
 8281SOL     OW36475   0.449   3.017   1.251  0.5373 -0.3639 -0.0644
 8281SOL    HW136476   0.513   2.969   1.198  0.7228 -1.4475  1.1325
 8281SOL    HW236477   0.418   2.945   1.306 -0.5077  1.3049  1.5402
 8282SOL     OW36478   1.869   0.347   8.289 -0.2874 -0.5652  0.6645
 8282SOL    HW136479   1.871   0.367   8.196 -2.2704  0.5147  0.8633
 8282SOL    HW236480   1.839   0.257   8.282  1.2126 -1.3560  4.0995
 8283SOL     OW36481   2.172   0.515   5.659  0.3537 -0.2945 -0.3635
 8283SOL    HW136482   2.230   0.560   5.597 -1.0591  4.4268  1.7229
 8283SOL    HW236483   2.085   0.551   5.644  0.5354  0.0526 -0.5737
 8284SOL     OW36484   0.302   4.407   7.261 -0.3720  0.1142  0.1822
 8284SOL    HW136485   0.259   4.490   7.284  0.7438  0.4489  1.0827
 8284SOL    HW236486   0.258   4.348   7.323 -1.3952 -0.4118 -1.0532
 8285SOL     OW36487   4.695   2.606   9.796 -0.7339  0.1026  0.3378
 8285SOL    HW136488   4.651   2.552   9.862 -0.0161 -0.9789 -0.0715
 8285SOL    HW236489   4.622   2.628   9.738 -2.0272 -0.0805  1.8892
 8286SOL     OW36490   3.800   3.948   5.237 -0.4686  0.0278  0.1124
 8286SOL    HW136491   3.767   3.941   5.148 -0.4223  1.1984  0.0006
 8286SOL    HW236492   3.852   3.870   5.258  2.0466  1.8168  0.6030
 8287SOL     OW36493   4.136   1.486   6.832 -0.5022 -0.0277 -0.4204
 8287SOL    HW136494   4.228   1.464   6.822 -0.5371 -0.1783 -0.4020
 8287SOL    HW236495   4.094   1.403   6.854  0.5062 -0.6084 -0.7032
 8288SOL     OW36496   2.853   2.004   0.128 -0.1620 -0.1505  0.6247
 8288SOL    HW136497   2.819   2.069   0.067  0.2950 -0.5934 -0.0909
 8288SOL    HW236498   2.777   1.964   0.170  0.3153 -3.0067 -1.2439
 8289SOL     OW36499   4.518   3.201   6.683 -0.0748  0.1827 -0.4176
 8289SOL    HW136500   4.450   3.268   6.676  0.4038  0.5612 -1.3401
 8289SOL    HW236501   4.468   3.121   6.701 -0.5583  0.1698 -1.8174
 8290SOL     OW36502   4.610   1.173   8.381 -0.3891  0.0970 -0.6605
 8290SOL    HW136503   4.647   1.260   8.390  1.0701 -0.6402  0.4757
 8290SOL    HW236504   4.681   1.115   8.408 -1.0638 -1.2754 -1.7820
 8291SOL     OW36505   1.057   4.734   0.731 -0.0657 -0.2870 -0.6544
 8291SOL    HW136506   0.975   0.010   0.779 -1.1842  2.8332 -3.3534
 8291SOL    HW236507   1.076   4.649   0.769 -0.0706 -0.1953 -0.4454
 8292SOL     OW36508   0.019   3.466   4.069  0.0046  0.0648  0.0931
 8292SOL    HW136509   4.736   3.465   3.975  1.7332  0.7629 -0.2880
 8292SOL    HW236510   0.071   3.386   4.079 -1.7458 -1.4130 -2.7531
 8293SOL     OW36511   2.765   2.677   6.938 -0.6603 -0.0394  0.1286
 8293SOL    HW136512   2.789   2.684   6.846 -2.4783  2.0215 -0.1995
 8293SOL    HW236513   2.670   2.690   6.931 -0.7073 -0.5713 -0.2564
 8294SOL     OW36514   1.895   0.995   7.768  0.0845 -0.1297  0.2917
 8294SOL    HW136515   1.842   1.019   7.692  0.8105  0.9980  0.1333
 8294SOL    HW236516   1.948   0.926   7.727  0.2433  0.0073  0.2646
 8295SOL     OW36517   1.664   0.677   8.434  0.1104 -0.0884 -0.3770
 8295SOL    HW136518   1.712   0.760   8.438 -1.5479  0.6746  3.1548
 8295SOL    HW236519   1.571   0.700   8.437  0.3893  0.8726  0.9922
 8296SOL     OW36520   0.503   4.332   1.318 -0.7697  0.0593 -0.3388
 8296SOL    HW136521   0.517   4.242   1.290  1.0553 -0.0862  0.9758
 8296SOL    HW236522   0.589   4.369   1.297 -0.6915 -0.2543 -0.5681
 8297SOL     OW36523   1.490   0.322   1.965 -0.0935  0.1680  0.3087
 8297SOL    HW136524   1.583   0.313   1.986  0.1968  1.1475 -0.5541
 8297SOL    HW236525   1.491   0.336   1.870  2.9075 -2.1628 -0.0024
 8298SOL     OW36526   4.350   2.665  13.448  0.3373  0.5280  0.1517
 8298SOL    HW136527   4.388   2.650  13.361  3.1396 -1.5274  1.7384
 8298SOL    HW236528   4.412   2.617  13.502  0.3437  0.0125 -0.3217
 8299SOL     OW36529   4.588   3.351   0.422  0.3817 -0.0236 -0.3547
 8299SOL    HW136530   4.654   3.417   0.447  0.4756  0.3157 -1.5049
 8299SOL    HW236531   4.545   3.351   0.508  0.3202  1.1065 -0.3840
 8300SOL     OW36532   4.203   0.340   3.188  0.8522  0.3506 -0.2731
 8300SOL    HW136533   4.126   0.393   3.170 -0.2561 -1.1631  0.0013
 8300SOL    HW236534   4.254   0.399   3.244  2.0317 -1.0930  0.1795
 8301SOL     OW36535   0.327   0.003   1.364 -0.0320 -0.1348  0.1242
 8301SOL    HW136536   0.292   0.069   1.304 -0.2537 -1.1549 -0.8753
 8301SOL    HW236537   0.262   0.010   1.434 -0.0124  0.0222  0.1266
 8302SOL     OW36538   2.494   0.628  16.293  0.6319 -0.4972 -0.3638
 8302SOL    HW136539   2.557   0.556  16.295 -0.3871 -1.3649  0.0458
 8302SOL    HW236540   2.412   0.586  16.268  0.8917 -1.4682  0.4128
 8303SOL     OW36541   4.297   4.324  11.352 -0.0543  0.3572  0.0784
 8303SOL    HW136542   4.299   4.333  11.257 -0.9980 -0.5772 -0.0303
 8303SOL    HW236543   4.306   4.418  11.367 -0.4762  0.0403  2.4149
 8304SOL     OW36544   1.679   4.699  16.240 -0.4377  0.2775  0.0668
 8304SOL    HW136545   1.651   4.608  16.229 -1.7125  0.7877 -0.9845
 8304SOL    HW236546   1.729   4.693  16.322  0.4885 -1.5271 -0.6369
 8305SOL     OW36547   4.572   0.956   7.128 -0.0574 -0.0610  0.2069
 8305SOL    HW136548   4.630   0.979   7.056 -0.3469 -0.6588 -0.2218
 8305SOL    HW236549   4.490   0.959   7.079  1.1884  0.1610 -1.8574
 8306SOL     OW36550   0.544   1.255   3.810 -0.6059 -0.0953  0.1280
 8306SOL    HW136551   0.562   1.165   3.785 -0.3762  0.1691 -0.6614
 8306SOL    HW236552   0.631   1.291   3.795  0.1711 -1.2153  2.0015
 8307SOL     OW36553   2.898   2.568   7.327  0.0282  0.5075 -0.1995
 8307SOL    HW136554   2.855   2.650   7.354  0.3571 -0.0517  2.0568
 8307SOL    HW236555   2.933   2.586   7.240  0.8712  0.0119  0.0322
 8308SOL     OW36556   4.213   3.544   7.392 -0.3992 -0.2812 -0.4872
 8308SOL    HW136557   4.208   3.527   7.298  3.3698  0.8854 -0.9149
 8308SOL    HW236558   4.247   3.462   7.428  0.0078  0.3757  0.6400
 8309SOL     OW36559   1.343   2.358   8.347  0.4306 -0.1004 -0.1115
 8309SOL    HW136560   1.319   2.281   8.398 -0.1015  0.6211  0.7370
 8309SOL    HW236561   1.418   2.382   8.401  0.0722  1.5902 -0.3634
 8310SOL     OW36562   4.582   3.963   3.715 -0.1153  0.0201 -0.2083
 8310SOL    HW136563   4.487   3.970   3.702 -0.5035 -1.6938  1.6230
 8310SOL    HW236564   4.600   4.057   3.712 -0.4299  0.0457 -1.4716
 8311SOL     OW36565   3.218   1.438  11.039  0.1895 -0.0945 -0.5058
 8311SOL    HW136566   3.170   1.376  11.093  0.4809  1.1955  1.2447
 8311SOL    HW236567   3.232   1.385  10.961  0.3228  0.5910 -0.9454
 8312SOL     OW36568   1.699   3.451   8.063 -0.6665 -0.6085  0.5303
 8312SOL    HW136569   1.668   3.437   8.153  0.3600 -0.0739  0.9576
 8312SOL    HW236570   1.644   3.388   8.014  0.1141 -0.9322  0.0749
 8313SOL     OW36571   0.056   1.718   0.960 -0.8288  0.6354 -0.4724
 8313SOL    HW136572   0.011   1.784   1.014 -0.4276  0.4305  0.1075
 8313SOL    HW236573   0.016   1.727   0.873  1.2920 -1.1286 -1.6167
 8314SOL     OW36574   1.905   0.887   5.274 -0.1990 -0.3461  0.3666
 8314SOL    HW136575   1.903   0.982   5.261  0.3744 -0.4168 -0.2072
 8314SOL    HW236576   1.909   0.876   5.369 -3.2966  3.6702  0.9737
 8315SOL     OW36577   0.119   4.418  13.870  0.2581  0.0679 -0.1724
 8315SOL    HW136578   0.215   4.425  13.867  0.2777 -0.2733 -0.4109
 8315SOL    HW236579   0.097   4.352  13.804 -0.6624 -0.2236  0.4210
 8316SOL     OW36580   0.922   1.509  13.021 -1.3267  0.1955  0.1935
 8316SOL    HW136581   0.827   1.511  13.009 -1.4002  3.4925  1.0844
 8316SOL    HW236582   0.950   1.463  12.942 -4.0978 -0.9087 -0.1445
 8317SOL     OW36583   3.187   2.472   1.417  0.1967 -0.0901 -0.3801
 8317SOL    HW136584   3.100   2.511   1.408  0.6554  0.5908 -1.7803
 8317SOL    HW236585   3.203   2.511   1.503  0.1393 -0.4161 -0.2209
 8318SOL     OW36586   3.685   1.371  12.510  0.7313 -0.8458 -0.3468
 8318SOL    HW136587   3.604   1.398  12.468  2.1039 -0.3637 -2.6926
 8318SOL    HW236588   3.668   1.294  12.565 -0.7736  0.8444  1.5372
 8319SOL     OW36589   1.883   2.949  10.724  0.3245  0.4856  0.3954
 8319SOL    HW136590   1.929   3.028  10.748  1.1160  0.6434 -1.6188
 8319SOL    HW236591   1.954   2.889  10.749  0.2028 -0.8347 -2.3756
 8320SOL     OW36592   1.309   2.040   5.681  0.2501 -0.1876 -0.3263
 8320SOL    HW136593   1.381   2.046   5.745 -0.4155 -1.7130  0.5836
 8320SOL    HW236594   1.291   1.946   5.683 -1.1117  0.1061  0.9685
 8321SOL     OW36595   1.477   3.251   1.029  0.3226 -0.3402  0.2961
 8321SOL    HW136596   1.395   3.238   1.076  0.6946 -2.1789  0.4334
 8321SOL    HW236597   1.529   3.290   1.099 -1.2168  1.9904  0.1385
 8322SOL     OW36598   3.567   3.967   3.538 -0.0532 -0.5387 -0.2465
 8322SOL    HW136599   3.510   3.894   3.514 -0.3762 -0.5871  0.6350
 8322SOL    HW236600   3.605   3.927   3.617 -0.7219  0.1534  0.4301
 8323SOL     OW36601   0.798   4.388   5.062  0.5233  0.5362 -0.6360
 8323SOL    HW136602   0.814   4.481   5.049  2.0471  0.1010 -1.8851
 8323SOL    HW236603   0.716   4.381   5.012 -1.0338 -1.1678  2.1507
 8324SOL     OW36604   1.930   3.517   3.107 -0.2918  0.6405  0.0580
 8324SOL    HW136605   2.012   3.511   3.157 -1.3527  0.8595  1.7991
 8324SOL    HW236606   1.898   3.429   3.127 -0.5511  0.0582 -2.9635
 8325SOL     OW36607   4.657   2.278   4.770 -0.6046 -0.2431 -0.7454
 8325SOL    HW136608   4.680   2.186   4.759 -0.6564 -0.0775 -2.1675
 8325SOL    HW236609   4.627   2.305   4.683  2.5731  2.4313 -1.0149
 8326SOL     OW36610   2.893   0.861   8.322  0.2481 -0.0823  0.2832
 8326SOL    HW136611   2.902   0.902   8.408  1.2874 -1.6937  0.9325
 8326SOL    HW236612   2.924   0.771   8.334  1.1603  0.1682 -0.2000
 8327SOL     OW36613   1.839   2.360  13.021  0.7213 -0.1262 -0.4100
 8327SOL    HW136614   1.817   2.310  12.942  4.0781 -3.9132  1.0455
 8327SOL    HW236615   1.853   2.292  13.087 -2.1598 -1.1591 -0.8907
 8328SOL     OW36616   1.426   3.981  12.421  0.3519  0.3685 -0.4816
 8328SOL    HW136617   1.453   3.977  12.329  0.8242  0.1120 -0.3310
 8328SOL    HW236618   1.349   3.925  12.414  1.0920 -0.6293 -0.6091
 8329SOL     OW36619   0.648   0.059  10.713 -0.5077  0.4121 -0.3101
 8329SOL    HW136620   0.560   0.095  10.725 -0.6613 -0.6118  1.6319
 8329SOL    HW236621   0.677   0.065  10.804 -0.2400  1.5904 -0.4690
 8330SOL     OW36622   2.974   2.471   4.290 -0.2814  0.2436  0.1527
 8330SOL    HW136623   2.908   2.442   4.353  0.3844  0.5285  0.9740
 8330SOL    HW236624   2.921   2.532   4.239  0.5463  0.1665 -0.7950
 8331SOL     OW36625   2.445   1.863   6.701 -0.3339  0.0283  0.6330
 8331SOL    HW136626   2.430   1.773   6.728  2.5691 -0.0253  2.1384
 8331SOL    HW236627   2.376   1.885   6.639  1.5354 -0.0126 -1.4895
 8332SOL     OW36628   1.168   1.787   8.427  0.5079  0.5498 -0.4505
 8332SOL    HW136629   1.197   1.770   8.517  0.7340  0.7766 -0.4800
 8332SOL    HW236630   1.091   1.731   8.421  1.2666 -0.1354 -3.8409
 8333SOL     OW36631   2.456   2.262   7.658 -0.3391  0.3808 -0.5021
 8333SOL    HW136632   2.539   2.253   7.612  0.2235  1.0976  0.3676
 8333SOL    HW236633   2.458   2.356   7.674  0.5188 -0.0021  1.7624
 8334SOL     OW36634   1.075   4.326   9.297  0.2863 -0.4746 -0.3248
 8334SOL    HW136635   1.126   4.269   9.355  0.0359  0.4120  0.7593
 8334SOL    HW236636   1.114   4.408   9.326 -1.2721  0.6824 -1.4928
 8335SOL     OW36637   2.507   4.260   7.275  0.0265 -0.0081  0.2008
 8335SOL    HW136638   2.534   4.172   7.251 -1.0766 -0.3513  0.2040
 8335SOL    HW236639   2.572   4.282   7.341 -0.4103  0.0875  0.6010
 8336SOL     OW36640   2.913   2.009   6.303  0.4605 -0.1362  0.2363
 8336SOL    HW136641   2.940   2.026   6.393 -1.0431  2.6245  0.1675
 8336SOL    HW236642   2.827   1.967   6.306  1.0946 -1.3833  0.5578
 8337SOL     OW36643   4.684   4.455   8.386 -0.0936  0.3285  0.3458
 8337SOL    HW136644   4.591   4.442   8.404 -0.2513  0.4977 -0.3510
 8337SOL    HW236645   4.725   4.377   8.424 -1.5723  0.0396  1.3331
 8338SOL     OW36646   2.820   4.071   9.342 -0.2138 -0.4886  0.4765
 8338SOL    HW136647   2.826   4.106   9.253 -0.2335  0.8022  0.9806
 8338SOL    HW236648   2.742   4.018   9.328 -0.7234  0.6252 -0.8244
 8339SOL     OW36649   3.774   2.136   9.547 -0.2284  0.1549 -0.1705
 8339SOL    HW136650   3.762   2.224   9.583  0.6556 -0.0616  0.6344
 8339SOL    HW236651   3.847   2.132   9.485  0.9362 -1.4272  1.3050
 8340SOL     OW36652   3.978   4.215  13.867  0.0669  0.3396  0.0625
 8340SOL    HW136653   4.052   4.156  13.856  1.8020  1.8833  3.4161
 8340SOL    HW236654   3.911   4.154  13.899  0.8873  0.0980  1.3206
 8341SOL     OW36655   2.998   2.537   9.212 -0.5416 -0.1022 -0.3066
 8341SOL    HW136656   3.013   2.513   9.120 -0.7590 -0.1141 -0.3397
 8341SOL    HW236657   2.965   2.626   9.201 -0.7079 -0.1829 -0.4655
 8342SOL     OW36658   2.212   4.257   2.996  0.3067 -0.1601  0.6435
 8342SOL    HW136659   2.130   4.207   2.997 -0.6779  1.4619  0.5460
 8342SOL    HW236660   2.265   4.178   3.006 -1.3078 -1.3606 -0.1865
 8343SOL     OW36661   1.024   1.268   4.239  0.3073  0.2519  0.7177
 8343SOL    HW136662   1.074   1.225   4.170 -1.0527  3.5088 -2.2603
 8343SOL    HW236663   0.935   1.238   4.220  0.7547 -0.2559 -0.5205
 8344SOL     OW36664   1.752   0.409   5.053  0.1847  0.0629 -0.6058
 8344SOL    HW136665   1.760   0.442   5.143  0.7964 -1.4924 -0.0902
 8344SOL    HW236666   1.698   0.481   5.019 -0.2189  0.6673  1.2821
 8345SOL     OW36667   1.484   1.250  12.521 -0.1135  0.1153 -0.0307
 8345SOL    HW136668   1.503   1.161  12.491 -0.3052  0.7062 -1.8895
 8345SOL    HW236669   1.398   1.239  12.561 -0.2766 -0.3927 -0.5270
 8346SOL     OW36670   3.965   0.217  13.926 -0.4500  0.2497  0.3081
 8346SOL    HW136671   3.942   0.299  13.883  0.2153  0.9876  1.3680
 8346SOL    HW236672   4.014   0.261  13.996  0.2639 -1.9565  1.2172
 8347SOL     OW36673   0.056   3.663   2.669  0.5214 -0.0926  0.1670
 8347SOL    HW136674   0.052   3.716   2.749  4.2211 -0.0433  0.3030
 8347SOL    HW236675   4.737   3.715   2.612  3.1694  2.1880 -0.3713
 8348SOL     OW36676   2.267   3.840   8.712  0.6838 -0.5079 -0.2329
 8348SOL    HW136677   2.298   3.894   8.639 -1.5362  0.7199 -0.2851
 8348SOL    HW236678   2.174   3.825   8.694  0.6638 -1.7694  0.9511
 8349SOL     OW36679   1.878   0.063   2.431  0.2270  0.0049  0.3501
 8349SOL    HW136680   1.875   4.733   2.500  0.9034  0.3680  0.7371
 8349SOL    HW236681   1.800   0.048   2.379  0.0879 -0.1752  0.6096
 8350SOL     OW36682   0.741   1.743  12.757  0.2545 -0.1788 -0.4016
 8350SOL    HW136683   0.778   1.655  12.767  2.2030  0.1736 -4.6451
 8350SOL    HW236684   0.693   1.736  12.840  0.7567 -0.4407 -0.1379
 8351SOL     OW36685   3.596   4.633   3.098  0.5331  0.2580  0.0555
 8351SOL    HW136686   3.580   4.626   3.004 -0.6708 -1.7136  0.4053
 8351SOL    HW236687   3.547   4.711   3.121  1.2360  0.8372 -0.4140
 8352SOL     OW36688   0.220   0.811   6.562  0.2293 -0.1991 -0.4618
 8352SOL    HW136689   0.299   0.865   6.566 -0.5914  1.0309 -0.6468
 8352SOL    HW236690   0.244   0.749   6.494 -0.6631 -2.3622  1.2036
 8353SOL     OW36691   0.917   0.697   5.196  0.1025  0.1098 -0.1676
 8353SOL    HW136692   0.835   0.703   5.147  0.0842  0.0794 -0.1405
 8353SOL    HW236693   0.933   0.602   5.201 -0.1514  0.0765 -0.0230
 8354SOL     OW36694   0.456   4.114   5.742 -0.1904  0.1666 -0.2152
 8354SOL    HW136695   0.376   4.108   5.795  0.6295  1.2389  1.1294
 8354SOL    HW236696   0.500   4.040   5.784 -1.2956 -1.1056 -1.2883
 8355SOL     OW36697   0.834   1.011   8.902 -0.4484  0.4099 -0.7102
 8355SOL    HW136698   0.855   0.926   8.940 -0.3816  1.1945  0.9971
 8355SOL    HW236699   0.909   1.066   8.925  1.3804 -0.7997 -3.7937
 8356SOL     OW36700   0.526   0.972   3.889 -1.1497 -0.5321 -0.5523
 8356SOL    HW136701   0.612   0.935   3.905 -0.5130  1.7714  1.4921
 8356SOL    HW236702   0.486   0.985   3.975  1.1034 -0.0786  0.4262
 8357SOL     OW36703   4.149   3.790   9.394  0.1185 -0.5724 -0.4924
 8357SOL    HW136704   4.132   3.736   9.316  0.0236 -1.1489 -0.0710
 8357SOL    HW236705   4.082   3.744   9.444 -0.5457  1.0553  0.1004
 8358SOL     OW36706   2.632   1.505   2.410 -0.0017  0.1347 -0.0680
 8358SOL    HW136707   2.600   1.417   2.431 -0.3777  0.2597 -0.1038
 8358SOL    HW236708   2.544   1.542   2.414  0.2820  0.5477  2.1785
 8359SOL     OW36709   0.124   3.475   8.326  0.3733  0.1165  0.0284
 8359SOL    HW136710   0.047   3.524   8.353 -1.2170 -0.5792 -3.2782
 8359SOL    HW236711   0.164   3.447   8.408  1.1061 -1.6250 -0.9148
 8360SOL     OW36712   4.176   4.253   8.576  0.6847 -1.3160  0.3643
 8360SOL    HW136713   4.190   4.161   8.551 -0.1142 -1.4574  0.4132
 8360SOL    HW236714   4.155   4.288   8.490 -1.4192 -0.5342  1.1819
 8361SOL     OW36715   2.575   2.560   3.607 -0.1860  0.3796  0.4514
 8361SOL    HW136716   2.509   2.527   3.546  0.8167  1.1617 -1.0675
 8361SOL    HW236717   2.601   2.476   3.646  0.2688 -0.3109 -1.3506
 8362SOL     OW36718   1.210   4.080   1.766  0.1932 -0.1149 -0.4230
 8362SOL    HW136719   1.213   4.020   1.691  1.9844  0.5473 -0.8834
 8362SOL    HW236720   1.226   4.016   1.835 -1.0182  1.5103  1.3524
 8363SOL     OW36721   4.708   2.896   3.158 -0.3091 -0.6765  0.4149
 8363SOL    HW136722   4.681   2.987   3.173  0.7114  0.0497 -2.1106
 8363SOL    HW236723   0.060   2.910   3.126 -0.2256 -2.7273 -0.2422
 8364SOL     OW36724   4.624   1.491  13.620  0.2016  0.7237  0.1486
 8364SOL    HW136725   4.564   1.460  13.551  0.7787 -1.9248  0.8265
 8364SOL    HW236726   4.549   1.538  13.658  0.2163  1.5517 -0.8467
 8365SOL     OW36727   2.819   1.749   8.620  0.3524  0.0003 -0.5315
 8365SOL    HW136728   2.732   1.710   8.634 -0.0842  0.9934 -0.4495
 8365SOL    HW236729   2.824   1.810   8.694  0.9074 -1.7572  0.8789
 8366SOL     OW36730   3.973   0.404   5.622  0.5089  0.0152 -0.0270
 8366SOL    HW136731   3.985   0.443   5.709 -2.6151  0.1398  0.3347
 8366SOL    HW236732   3.913   0.465   5.579 -0.1505 -3.3725 -3.8131
 8367SOL     OW36733   0.443   4.239   1.941 -0.3472 -0.0421 -0.3514
 8367SOL    HW136734   0.407   4.316   1.986  2.8936  0.7775  0.7854
 8367SOL    HW236735   0.517   4.271   1.890  1.1035 -0.3586  1.5701
 8368SOL     OW36736   1.761   1.331   3.570 -0.0266  0.2624  0.2560
 8368SOL    HW136737   1.758   1.400   3.503  1.2640 -1.2229 -1.3340
 8368SOL    HW236738   1.691   1.365   3.625  1.0350  2.2565  0.4057
 8369SOL     OW36739   0.514   2.763   5.298 -0.2316  0.2335 -0.2887
 8369SOL    HW136740   0.474   2.793   5.380 -2.0522  0.5052 -1.2662
 8369SOL    HW236741   0.605   2.765   5.327 -0.6181  0.5877  0.8928
 8370SOL     OW36742   2.410   2.409   6.171 -0.5503  0.2420 -0.1437
 8370SOL    HW136743   2.397   2.329   6.223  1.3420 -0.6101 -0.9630
 8370SOL    HW236744   2.317   2.431   6.171 -0.7251 -0.5026 -0.0218
 8371SOL     OW36745   3.487   3.365   4.852 -0.0763  0.6322 -0.2219
 8371SOL    HW136746   3.498   3.441   4.795  1.0984 -1.0079 -2.1517
 8371SOL    HW236747   3.432   3.398   4.924  1.8965 -0.7900  1.9104
 8372SOL     OW36748   2.905   2.278   0.399  0.7707  0.1231 -0.0827
 8372SOL    HW136749   2.833   2.217   0.385  0.4109  0.0790  2.0363
 8372SOL    HW236750   2.874   2.354   0.350 -2.1290 -0.0741  1.4310
 8373SOL     OW36751   1.891   2.865   7.344 -0.4036  0.1256  0.1354
 8373SOL    HW136752   1.862   2.898   7.429 -2.1915 -0.5030 -0.2343
 8373SOL    HW236753   1.903   2.774   7.370 -0.3430  0.3295  0.8009
 8374SOL     OW36754   2.516   4.478   4.319  0.4450  0.2295 -0.8403
 8374SOL    HW136755   2.563   4.400   4.291 -0.1670 -1.2204  2.2821
 8374SOL    HW236756   2.430   4.462   4.281  0.7706 -0.5488 -1.2605
 8375SOL     OW36757   2.962   1.152   0.866  0.3243  0.9365 -1.0488
 8375SOL    HW136758   2.977   1.152   0.771 -0.1815 -0.6833 -1.1165
 8375SOL    HW236759   2.882   1.206   0.863 -1.1410 -1.1521  0.3680
 8376SOL     OW36760   4.256   4.421   2.866 -0.0938  0.4143  0.0191
 8376SOL    HW136761   4.262   4.517   2.862 -0.2300  0.4401  0.4545
 8376SOL    HW236762   4.335   4.391   2.911  0.1329 -1.2472 -1.4889
 8377SOL     OW36763   2.954   3.128  15.949 -0.4762  0.3822 -0.2181
 8377SOL    HW136764   3.048   3.144  15.958 -0.6229  1.4582 -0.5369
 8377SOL    HW236765   2.948   3.160  15.859 -0.8865 -0.7182 -0.5809
 8378SOL     OW36766   2.320   2.650   4.914  0.1644 -0.7799  0.2938
 8378SOL    HW136767   2.311   2.673   5.007  1.4632 -0.5943  0.3756
 8378SOL    HW236768   2.335   2.556   4.913 -1.8874 -1.1223  0.7521
 8379SOL     OW36769   2.256   3.106   6.976  0.7381 -0.5413  0.6902
 8379SOL    HW136770   2.247   3.048   6.900 -1.6312 -0.3073  0.8016
 8379SOL    HW236771   2.215   3.187   6.946  2.2654 -0.7250 -1.8549
 8380SOL     OW36772   2.516   1.583   1.700  0.2221 -0.3650 -0.2623
 8380SOL    HW136773   2.485   1.552   1.785 -1.1363  0.4577 -0.4667
 8380SOL    HW236774   2.599   1.630   1.712 -0.6820  1.0751  0.3944
 8381SOL     OW36775   3.580   1.773   6.437  0.4137 -0.6251 -0.5849
 8381SOL    HW136776   3.490   1.777   6.405  0.5024  0.4392 -0.6952
 8381SOL    HW236777   3.622   1.729   6.364  1.5608 -2.0743  0.9597
 8382SOL     OW36778   0.884   1.743   2.364 -0.4277  0.1535  0.3334
 8382SOL    HW136779   0.967   1.727   2.409  1.9935  0.5052 -4.0984
 8382SOL    HW236780   0.876   1.838   2.357 -1.8272 -0.0033 -0.1857
 8383SOL     OW36781   3.438   2.887   5.549 -0.0921 -0.3234 -0.7645
 8383SOL    HW136782   3.432   2.891   5.644  1.4188 -3.6288 -0.5446
 8383SOL    HW236783   3.499   2.818   5.525 -1.2142 -1.9487  1.0454
 8384SOL     OW36784   2.118   2.447   9.203 -0.3216  0.0960  0.0520
 8384SOL    HW136785   2.156   2.380   9.258  1.1000  1.6409  0.9406
 8384SOL    HW236786   2.180   2.449   9.130  2.3917  0.9835  2.3873
 8385SOL     OW36787   1.139   3.490   1.689 -0.1679 -0.0488 -0.2975
 8385SOL    HW136788   1.162   3.580   1.665 -1.7546  0.3038 -0.5325
 8385SOL    HW236789   1.167   3.488   1.780  0.9489 -1.7028 -0.6970
 8386SOL     OW36790   2.459   4.636   4.021 -0.4715 -0.3272 -0.0144
 8386SOL    HW136791   2.545   4.676   4.027 -0.1736 -1.0190  0.3143
 8386SOL    HW236792   2.411   4.696   4.079  1.6668 -0.4563  1.8750
 8387SOL     OW36793   0.658   3.551   9.641  0.3171 -0.3355 -0.1842
 8387SOL    HW136794   0.597   3.562   9.713  1.8221  1.2102  0.8528
 8387SOL    HW236795   0.739   3.520   9.682 -0.3038 -1.0600  0.5072
 8388SOL     OW36796   2.241   2.486   2.090 -0.3795  0.2081 -0.1578
 8388SOL    HW136797   2.274   2.398   2.108  0.6333  0.4438 -0.8552
 8388SOL    HW236798   2.314   2.533   2.128  1.3406 -2.9750  0.4990
 8389SOL     OW36799   3.572   4.620  13.689 -0.0333 -0.1063  0.0760
 8389SOL    HW136800   3.527   4.652  13.610  0.0026  1.8044  0.8241
 8389SOL    HW236801   3.531   4.534  13.695 -1.1993  0.2811 -2.3291
 8390SOL     OW36802   1.732   1.578   5.343 -0.2711  0.0189 -0.3512
 8390SOL    HW136803   1.698   1.525   5.271  1.4857 -0.1229 -1.0949
 8390SOL    HW236804   1.824   1.570   5.318  0.1404  0.3704  1.0295
 8391SOL     OW36805   0.538   1.614   7.135 -0.0535 -0.0099 -0.0929
 8391SOL    HW136806   0.623   1.613   7.091 -0.0310  2.6194 -0.1072
 8391SOL    HW236807   0.493   1.598   7.052 -1.0047 -0.1552  0.4494
 8392SOL     OW36808   1.584   2.865   7.950  0.3070  0.2762 -0.1756
 8392SOL    HW136809   1.496   2.903   7.940 -0.1181 -0.2774  1.4228
 8392SOL    HW236810   1.634   2.944   7.927  0.6334  0.5942  1.6225
 8393SOL     OW36811   3.748   0.216   8.125  0.1533  0.4566  0.5292
 8393SOL    HW136812   3.781   0.246   8.040  0.6755 -2.5434 -0.3512
 8393SOL    HW236813   3.692   0.143   8.097  1.2172  0.0021 -0.4366
 8394SOL     OW36814   2.833   3.747   8.227  0.4435  0.7049  0.1638
 8394SOL    HW136815   2.820   3.702   8.311  0.6714  2.2221  1.0149
 8394SOL    HW236816   2.911   3.799   8.245  0.8180 -0.1062  0.8437
 8395SOL     OW36817   0.886   0.618   1.615 -0.6732 -0.5314 -0.2281
 8395SOL    HW136818   0.830   0.545   1.642 -3.1679  0.8819 -1.5559
 8395SOL    HW236819   0.975   0.585   1.629  0.5049  1.3361 -3.3872
 8396SOL     OW36820   4.415   0.170   3.999 -0.8333 -0.4891 -0.1450
 8396SOL    HW136821   4.408   0.074   3.999 -1.1265 -0.4675  0.6505
 8396SOL    HW236822   4.353   0.212   4.058 -1.7829 -0.1803 -1.3618
 8397SOL     OW36823   3.456   2.809   0.873  0.5423 -0.3618 -0.0658
 8397SOL    HW136824   3.385   2.795   0.936 -0.5606 -1.7144 -1.6034
 8397SOL    HW236825   3.473   2.716   0.862 -0.2134 -0.4407 -0.5619
 8398SOL     OW36826   4.169   2.460   3.143 -0.3765  0.5783  0.2176
 8398SOL    HW136827   4.225   2.402   3.091  0.2178  0.7849  0.6179
 8398SOL    HW236828   4.214   2.543   3.126  0.7159 -0.0330  0.1106
 8399SOL     OW36829   2.127   4.494   6.990  0.1988 -0.4128  0.5108
 8399SOL    HW136830   2.093   4.433   6.925  0.8031  2.0607 -2.1186
 8399SOL    HW236831   2.221   4.486   6.975  0.3427  0.3590  0.9943
 8400SOL     OW36832   1.197   3.228   5.683 -0.4013  0.4164  0.1033
 8400SOL    HW136833   1.183   3.317   5.650  0.2859 -0.1421 -1.7043
 8400SOL    HW236834   1.159   3.173   5.615  1.2354  0.0301 -0.4951
 8401SOL     OW36835   3.087   2.167   2.593  0.1749 -0.5123  0.3384
 8401SOL    HW136836   3.097   2.144   2.686  2.9367 -0.6538  0.0010
 8401SOL    HW236837   3.002   2.211   2.591  0.9106  0.9214  0.9172
 8402SOL     OW36838   1.206   3.170   1.923 -0.2341 -0.4943  0.2591
 8402SOL    HW136839   1.142   3.231   1.887  0.2535 -1.4866 -2.3586
 8402SOL    HW236840   1.183   3.088   1.879 -0.9823 -0.2760  0.2321
 8403SOL     OW36841   0.091   0.967   2.841 -0.0019  0.5315  0.0756
 8403SOL    HW136842   0.087   1.025   2.917  0.5549 -1.4995  1.6638
 8403SOL    HW236843   0.081   1.030   2.769 -0.1252  1.5419  0.9724
 8404SOL     OW36844   1.227   2.243  14.534 -0.1921 -0.0748 -0.0682
 8404SOL    HW136845   1.216   2.175  14.468 -2.3137  0.3033 -0.1357
 8404SOL    HW236846   1.265   2.200  14.610 -0.6061 -1.4091 -0.6207
 8405SOL     OW36847   0.641   3.050   2.528  0.3504 -0.1587  0.1301
 8405SOL    HW136848   0.556   3.086   2.555 -0.0988 -2.2463  1.4926
 8405SOL    HW236849   0.662   2.981   2.591 -0.1994 -1.0105 -0.6189
 8406SOL     OW36850   4.245   0.245   7.868 -0.0456  0.0963 -0.0746
 8406SOL    HW136851   4.173   0.300   7.839  0.7425  0.8303 -0.6408
 8406SOL    HW236852   4.216   0.160   7.835  0.1808 -0.0971  0.2201
 8407SOL     OW36853   2.600   2.920   7.385  0.2928  0.0528  0.3896
 8407SOL    HW136854   2.538   2.867   7.434 -1.5315 -0.2402 -2.2366
 8407SOL    HW236855   2.560   2.931   7.299 -0.5647 -0.1359  0.7655
 8408SOL     OW36856   3.845   0.960   0.525 -0.1908 -0.2587 -0.1994
 8408SOL    HW136857   3.818   0.869   0.537 -0.4340 -0.2311 -0.5222
 8408SOL    HW236858   3.929   0.949   0.480 -1.1720  1.4493 -2.5048
 8409SOL     OW36859   4.445   3.864   4.229  0.5227 -0.3153 -0.1747
 8409SOL    HW136860   4.463   3.776   4.263 -1.6520 -0.7808 -0.2518
 8409SOL    HW236861   4.532   3.885   4.193 -0.0105  3.0964  0.6275
 8410SOL     OW36862   2.798   3.329   4.916  0.2266  0.4554  0.1462
 8410SOL    HW136863   2.865   3.266   4.941  0.7575  0.4153 -1.3823
 8410SOL    HW236864   2.775   3.314   4.825  1.6092 -1.2286  0.0711
 8411SOL     OW36865   1.444   0.703   9.154 -0.3825  0.4896 -0.1339
 8411SOL    HW136866   1.465   0.627   9.101 -0.3248 -0.5121  1.3198
 8411SOL    HW236867   1.487   0.771   9.102  2.5299 -0.6831  0.7307
 8412SOL     OW36868   3.764   2.682   8.571 -0.3696 -0.1244  0.6536
 8412SOL    HW136869   3.750   2.775   8.587  0.2898  0.2112 -0.6691
 8412SOL    HW236870   3.724   2.667   8.485  0.0573  0.2981  0.3760
 8413SOL     OW36871   2.177   3.055  12.479 -0.2004 -0.2280 -0.2461
 8413SOL    HW136872   2.106   2.996  12.505 -0.8760  1.4812  1.8172
 8413SOL    HW236873   2.148   3.068  12.388 -1.6807  1.0136  0.3892
 8414SOL     OW36874   4.551   3.483   2.446 -0.5839 -0.3317 -0.3585
 8414SOL    HW136875   4.488   3.515   2.511  0.5174 -0.4632  0.7773
 8414SOL    HW236876   4.581   3.566   2.409 -0.5977 -0.6528 -1.0836
 8415SOL     OW36877   0.561   1.369  10.199  0.1249 -0.4753 -0.1460
 8415SOL    HW136878   0.500   1.301  10.169 -2.0395  1.3056  0.1977
 8415SOL    HW236879   0.613   1.370  10.119 -2.7896  2.5501 -1.9842
 8416SOL     OW36880   4.021   2.800   7.198 -0.1894 -0.7145  0.1293
 8416SOL    HW136881   4.004   2.753   7.115 -2.0962  1.3348 -0.6324
 8416SOL    HW236882   3.948   2.769   7.251 -1.2671 -0.6464 -1.3177
 8417SOL     OW36883   4.065   2.156   3.152 -0.0939  0.1909  0.0780
 8417SOL    HW136884   4.053   2.074   3.104  3.5964  0.1126 -0.7205
 8417SOL    HW236885   4.161   2.165   3.154 -0.2994  2.5064 -1.7457
 8418SOL     OW36886   4.684   3.375  10.798 -0.0015  0.2530 -0.0391
 8418SOL    HW136887   4.702   3.390  10.705 -0.7946 -1.0378 -0.4085
 8418SOL    HW236888   4.730   3.291  10.806  1.3189  1.0237  0.3972
 8419SOL     OW36889   1.013   3.526   8.953  0.0685 -0.6216 -0.6051
 8419SOL    HW136890   1.059   3.610   8.955  0.4267 -0.8562  2.0519
 8419SOL    HW236891   0.957   3.539   9.030 -0.1119 -0.6840 -0.7248
 8420SOL     OW36892   3.672   0.998   4.321 -0.3576  0.2442  0.0435
 8420SOL    HW136893   3.594   0.946   4.338 -0.3349  0.2488  0.1678
 8420SOL    HW236894   3.646   1.034   4.236  0.0331 -0.8532 -0.5371
 8421SOL     OW36895   3.125   2.237   4.196  0.5509 -0.0309 -0.5887
 8421SOL    HW136896   3.096   2.312   4.249  0.8134 -2.2091  2.6677
 8421SOL    HW236897   3.208   2.278   4.173  0.1070  1.2253 -0.0037
 8422SOL     OW36898   1.621   1.215   5.844 -0.4847  0.1049  0.5944
 8422SOL    HW136899   1.583   1.302   5.854  0.5821  0.5740  0.5898
 8422SOL    HW236900   1.705   1.238   5.804 -2.6377  0.9465 -3.5084
 8423SOL     OW36901   2.372   2.197  16.943 -0.3231  0.4137  0.0027
 8423SOL    HW136902   2.394   2.104  16.936  1.4372  0.8718 -0.4778
 8423SOL    HW236903   2.285   2.205  16.903  0.2618 -0.8329 -1.5408
 8424SOL     OW36904   3.032   0.611   8.133 -0.4215 -0.3683  0.2954
 8424SOL    HW136905   3.070   0.648   8.213 -1.8340 -3.8411  2.6079
 8424SOL    HW236906   3.099   0.543   8.127  0.6384  0.3973  3.2285
 8425SOL     OW36907   2.463   0.259   0.050  0.3792  0.3012 -0.1522
 8425SOL    HW136908   2.381   0.225   0.084  0.6985  1.3919  1.6799
 8425SOL    HW236909   2.456   0.247  17.703  2.0338  1.0499 -0.3782
 8426SOL     OW36910   1.182   3.355   4.789 -0.0378  0.3163  0.2097
 8426SOL    HW136911   1.121   3.288   4.758 -0.7685  0.2539  1.7926
 8426SOL    HW236912   1.136   3.435   4.763  1.0069  0.3861 -1.3894
 8427SOL     OW36913   4.126   0.984   9.913 -0.0687  0.6770 -0.2572
 8427SOL    HW136914   4.107   0.986   9.819  0.0831  1.1804 -0.2761
 8427SOL    HW236915   4.081   0.905   9.944 -0.6693  0.8344 -0.7276
 8428SOL     OW36916   3.669   1.025   2.063  0.3130  0.3563 -0.4372
 8428SOL    HW136917   3.636   0.936   2.049 -1.2092  0.5007  2.3197
 8428SOL    HW236918   3.689   1.026   2.156 -0.6419  0.8332 -0.2363
 8429SOL     OW36919   1.020   3.231  11.816 -0.1541 -0.2061 -0.3402
 8429SOL    HW136920   1.034   3.196  11.729 -2.9826  1.5412 -1.4914
 8429SOL    HW236921   0.925   3.228  11.821 -0.2842  2.5946 -0.7912
 8430SOL     OW36922   3.046   2.850   2.086 -0.5305 -0.9348 -0.0630
 8430SOL    HW136923   3.076   2.805   2.007  1.6148 -0.8041  0.6992
 8430SOL    HW236924   3.063   2.783   2.151  0.3648 -1.7926 -1.1792
 8431SOL     OW36925   3.715   0.405   4.783 -0.2844  0.6016  0.6887
 8431SOL    HW136926   3.707   0.344   4.710 -0.8023 -0.6171  1.7513
 8431SOL    HW236927   3.750   0.485   4.743 -0.8403  1.2729  1.5455
 8432SOL     OW36928   2.099   0.976   6.137  0.3718  0.0643  0.1308
 8432SOL    HW136929   2.006   0.982   6.159  0.6535  1.2572  1.0258
 8432SOL    HW236930   2.109   1.039   6.066  0.7422  1.2260  1.2199
 8433SOL     OW36931   2.766   0.093   8.102  0.1278 -0.3286 -0.4236
 8433SOL    HW136932   2.683   0.067   8.141  0.9418 -1.8921  0.2661
 8433SOL    HW236933   2.744   0.184   8.082 -0.3245 -0.3659 -0.0855
 8434SOL     OW36934   3.684   3.744  13.737  0.3506 -0.3307 -0.4345
 8434SOL    HW136935   3.689   3.793  13.819 -1.1373  0.4912 -0.8424
 8434SOL    HW236936   3.622   3.676  13.760 -0.7337  1.2411  1.2475
 8435SOL     OW36937   2.163   1.639  16.732  0.5826 -0.0590 -0.0324
 8435SOL    HW136938   2.179   1.707  16.797 -0.9082 -0.4199  0.7002
 8435SOL    HW236939   2.233   1.577  16.750  3.0983  2.1171 -2.0842
 8436SOL     OW36940   2.469   0.063   2.416 -0.2409 -0.0602 -0.0947
 8436SOL    HW136941   2.532   0.107   2.358  1.7616 -0.6560  1.6075
 8436SOL    HW236942   2.458   0.133   2.481 -1.7496  1.5958 -2.1453
 8437SOL     OW36943   0.381   4.657   4.448 -0.0608  0.5589 -0.0344
 8437SOL    HW136944   0.371   4.674   4.354  1.1333  0.7390 -0.1236
 8437SOL    HW236945   0.304   4.700   4.485  0.2508  3.8650 -3.2507
 8438SOL     OW36946   4.102   0.861   4.763  0.5915 -0.1428  0.3680
 8438SOL    HW136947   4.021   0.834   4.807 -1.3715  2.2896 -1.7767
 8438SOL    HW236948   4.171   0.837   4.825  1.3409  0.5459 -0.2040
 8439SOL     OW36949   2.046   3.737  12.158 -0.4181 -0.3672 -0.4917
 8439SOL    HW136950   2.054   3.755  12.252  0.2076  0.9552 -0.8126
 8439SOL    HW236951   1.951   3.741  12.147 -0.2170  0.2627 -1.9266
 8440SOL     OW36952   4.172   1.043  17.715 -0.5051  0.1463 -0.5693
 8440SOL    HW136953   4.085   1.010  17.737  0.5202  0.0939  3.4784
 8440SOL    HW236954   4.153   1.136  17.732  1.1184  0.2525  0.6754
 8441SOL     OW36955   1.194   4.561   2.880 -0.1626  0.2428 -0.5148
 8441SOL    HW136956   1.265   4.617   2.912  0.7491  0.8640 -3.6122
 8441SOL    HW236957   1.122   4.624   2.876 -0.0536  0.3596 -0.6496
 8442SOL     OW36958   0.210   1.386   4.334 -0.1626 -0.0100  0.4135
 8442SOL    HW136959   0.211   1.474   4.296  2.4137  0.0360  0.6218
 8442SOL    HW236960   0.122   1.359   4.310  0.4103 -1.2789 -0.2331
 8443SOL     OW36961   3.832   4.558   4.298  0.1716 -0.0318  0.2572
 8443SOL    HW136962   3.863   4.482   4.348  0.3710 -0.2094 -0.1354
 8443SOL    HW236963   3.778   4.504   4.241 -0.0164  1.0620 -0.5943
 8444SOL     OW36964   2.665   3.076   3.702  0.2882  0.2799  0.4411
 8444SOL    HW136965   2.718   3.112   3.630  0.2694 -0.4348  0.0734
 8444SOL    HW236966   2.683   2.982   3.697 -1.9820 -0.0739 -0.9572
 8445SOL     OW36967   2.631   1.524   4.184  0.9374 -0.3788  0.3689
 8445SOL    HW136968   2.620   1.611   4.144  0.5611  0.0325  1.3783
 8445SOL    HW236969   2.726   1.510   4.176  1.1098  0.2089  1.3400
 8446SOL     OW36970   3.620   0.406   4.295  0.1714 -0.6121 -0.3866
 8446SOL    HW136971   3.629   0.474   4.361  1.6350  3.1597 -4.5011
 8446SOL    HW236972   3.529   0.375   4.298 -0.7866  2.4393  1.8404
 8447SOL     OW36973   2.870   2.940   3.445  0.2651 -0.1758 -0.3186
 8447SOL    HW136974   2.952   2.985   3.464 -1.1730  0.9673  3.3264
 8447SOL    HW236975   2.883   2.850   3.477  0.3184  0.0957  0.4174
 8448SOL     OW36976   0.538   0.655   4.695  0.2722  0.1316 -0.2628
 8448SOL    HW136977   0.534   0.682   4.604 -2.7736 -0.7120 -0.3605
 8448SOL    HW236978   0.577   0.733   4.734 -1.0942 -0.4538  2.3371
 8449SOL     OW36979   2.354   1.064   5.079 -0.0677 -0.4740  0.2991
 8449SOL    HW136980   2.387   1.023   5.159  1.7478 -3.1911 -1.8544
 8449SOL    HW236981   2.405   1.018   5.012 -0.3846 -2.5412  1.4858
 8450SOL     OW36982   1.477   3.748   9.587  0.9342 -0.4090  0.0033
 8450SOL    HW136983   1.403   3.805   9.607  2.7103  1.3182  1.5880
 8450SOL    HW236984   1.431   3.684   9.533  2.1418 -1.2086 -0.0952
 8451SOL     OW36985   4.470   4.055   1.930  0.3325 -0.0703 -0.0502
 8451SOL    HW136986   4.382   4.068   1.894  0.5643 -0.3183 -0.6955
 8451SOL    HW236987   4.492   4.148   1.938  1.3045 -0.1241 -2.3199
 8452SOL     OW36988   4.303   0.460   9.894  0.2328 -0.3121 -0.0258
 8452SOL    HW136989   4.392   0.425   9.894  0.7921  1.0800 -0.4203
 8452SOL    HW236990   4.321   0.544   9.937  1.1869 -0.5216 -0.0057
 8453SOL     OW36991   3.181   3.303   1.710 -0.1133  0.0167 -0.1461
 8453SOL    HW136992   3.253   3.364   1.724 -0.5489  0.3921  0.4735
 8453SOL    HW236993   3.176   3.321   1.616  0.0841  2.2635  0.2630
 8454SOL     OW36994   3.868   2.876  14.633  0.0743 -0.1994  0.1775
 8454SOL    HW136995   3.945   2.837  14.592 -0.3605  0.2730 -1.0976
 8454SOL    HW236996   3.848   2.943  14.568 -0.2366  0.4432  0.9342
 8455SOL     OW36997   0.018   0.984   6.915 -0.2360  0.0146  0.3210
 8455SOL    HW136998   0.085   1.049   6.895  1.2842 -1.0249  1.9842
 8455SOL    HW236999   0.057   0.905   6.878  1.2038  1.6583 -1.6008
 8456SOL     OW37000   3.835   3.921  11.515  0.7753 -0.0996  0.1948
 8456SOL    HW137001   3.790   3.925  11.431 -1.9081  1.5316  1.7177
 8456SOL    HW237002   3.885   3.840  11.528 -0.5924 -0.9549  0.0792
 8457SOL     OW37003   1.012   0.660   8.681 -0.1179 -0.1444  0.4432
 8457SOL    HW137004   1.095   0.612   8.679  0.0109  0.2055 -2.6409
 8457SOL    HW237005   1.018   0.727   8.612 -2.1957 -0.8692 -0.4728
 8458SOL     OW37006   1.895   3.280  17.484 -0.0851 -0.2804 -0.6530
 8458SOL    HW137007   1.870   3.363  17.525 -1.9268  0.9223 -4.1437
 8458SOL    HW237008   1.834   3.290  17.410 -0.5630 -0.1835 -0.2442
 8459SOL     OW37009   4.151   2.834   2.960  0.0760  0.1668 -0.0902
 8459SOL    HW137010   4.082   2.808   2.898 -0.3446 -1.3449  1.0177
 8459SOL    HW237011   4.127   2.776   3.032 -1.4527  2.7687  1.4710
 8460SOL     OW37012   2.256   0.472   5.919 -0.1086 -0.6815  0.3575
 8460SOL    HW137013   2.185   0.505   5.975 -0.0269  2.6764 -1.5238
 8460SOL    HW237014   2.215   0.470   5.832 -1.2525  2.2409  0.8381
 8461SOL     OW37015   3.173   1.572  15.539 -0.1240 -0.5588  0.0641
 8461SOL    HW137016   3.248   1.601  15.487  3.0331 -1.5374  4.0438
 8461SOL    HW237017   3.116   1.550  15.465 -0.8913 -3.5013  1.5354
 8462SOL     OW37018   1.628   3.247   5.443 -0.0556  0.1476 -0.3156
 8462SOL    HW137019   1.605   3.340   5.442  0.6006  0.3165  0.1556
 8462SOL    HW237020   1.560   3.228   5.379  0.7629 -2.7370 -0.3656
 8463SOL     OW37021   3.577   0.588  12.605  0.3547  0.3432 -0.2326
 8463SOL    HW137022   3.485   0.607  12.625 -0.0333 -0.4619 -1.2297
 8463SOL    HW237023   3.588   0.592  12.510  2.0222  0.2355 -0.0377
 8464SOL     OW37024   3.849   1.018   6.122  0.1433  0.3243 -0.1293
 8464SOL    HW137025   3.824   1.035   6.213 -1.6187  0.0352 -0.5608
 8464SOL    HW237026   3.807   1.088   6.073 -0.3867  0.1839  0.1236
 8465SOL     OW37027   0.423   0.404   5.766  0.0592 -0.4257  0.1893
 8465SOL    HW137028   0.486   0.417   5.695  0.4662 -0.9487  0.4511
 8465SOL    HW237029   0.441   0.314   5.794 -1.1413 -0.6140  0.3215
 8466SOL     OW37030   0.257   0.930   6.105  0.1040  0.3068 -0.1200
 8466SOL    HW137031   0.198   0.932   6.180 -0.8098 -2.3363 -0.7340
 8466SOL    HW237032   0.267   1.018   6.070 -1.2745  0.1661 -0.8790
 8467SOL     OW37033   1.934   2.430   6.736  0.0115  0.1391  0.0739
 8467SOL    HW137034   2.010   2.401   6.786  2.8394  3.2143 -2.4384
 8467SOL    HW237035   1.952   2.523   6.724  1.1420  0.1396  1.8037
 8468SOL     OW37036   2.719   2.443   5.416  1.0114  0.0471 -0.1381
 8468SOL    HW137037   2.714   2.348   5.424  1.6928 -0.2328 -3.2140
 8468SOL    HW237038   2.751   2.466   5.329  1.6501  2.0724  0.6243
 8469SOL     OW37039   4.246   4.672   4.538 -0.0060  0.3591 -0.0708
 8469SOL    HW137040   4.277   4.602   4.596  0.0380  0.6449  0.2528
 8469SOL    HW237041   4.306   4.648   4.467 -0.9680 -1.9691 -0.0754
 8470SOL     OW37042   3.947   1.298   6.916 -0.2540 -0.1509  0.7733
 8470SOL    HW137043   3.887   1.277   6.988 -5.2521  1.8519 -2.7988
 8470SOL    HW237044   3.887   1.299   6.841  0.2874  1.0540  0.3497
 8471SOL     OW37045   3.438   4.498   0.545 -0.1813 -0.5894  0.8539
 8471SOL    HW137046   3.413   4.434   0.612 -0.9291 -1.4413 -0.2441
 8471SOL    HW237047   3.529   4.515   0.572 -0.3135 -0.1185  1.0063
 8472SOL     OW37048   1.375   4.217   4.328  0.0584 -0.5279  0.3242
 8472SOL    HW137049   1.317   4.165   4.384  1.8335 -0.4798  2.2327
 8472SOL    HW237050   1.457   4.167   4.330  0.2222 -0.3761 -2.9828
 8473SOL     OW37051   4.639   3.026   5.821  0.8933 -0.1815 -0.2679
 8473SOL    HW137052   4.556   3.010   5.776 -0.5335  2.1673  1.5336
 8473SOL    HW237053   4.628   3.001   5.913  0.3662  3.9513  0.7982
 8474SOL     OW37054   3.535   1.519   6.930 -0.0530  0.4146  0.1884
 8474SOL    HW137055   3.519   1.472   6.848 -0.1068  2.0148 -0.7184
 8474SOL    HW237056   3.499   1.466   7.001 -1.3858  0.9929 -0.0459
 8475SOL     OW37057   4.138   2.636   8.304 -0.1564 -0.4409 -0.7513
 8475SOL    HW137058   4.144   2.669   8.394  0.4467  1.2793 -1.4352
 8475SOL    HW237059   4.147   2.717   8.253  0.9684 -0.0655  0.0383
 8476SOL     OW37060   0.704   1.978  13.021  0.0405  0.1663  0.2666
 8476SOL    HW137061   0.671   2.067  13.008 -0.3116  0.2177  1.4810
 8476SOL    HW237062   0.637   1.948  13.083  0.5325 -2.3512 -0.4265
 8477SOL     OW37063   2.506   1.970   3.356  0.1134 -0.1744  0.1974
 8477SOL    HW137064   2.438   1.904   3.372 -1.3765  1.8399  2.1236
 8477SOL    HW237065   2.557   1.904   3.309 -1.0828 -0.8770 -0.1046
 8478SOL     OW37066   3.193   1.042   3.603  0.8118 -0.1563  0.0772
 8478SOL    HW137067   3.132   0.968   3.604 -1.7172  1.9360 -0.5804
 8478SOL    HW237068   3.270   0.993   3.632  0.7855 -0.5969 -0.5818
 8479SOL     OW37069   0.767   4.400   2.444  0.0609  0.4039  0.1636
 8479SOL    HW137070   0.811   4.454   2.378 -0.0035  3.3178  2.5135
 8479SOL    HW237071   0.804   4.444   2.520  1.9378  0.6605 -0.8776
 8480SOL     OW37072   0.627   3.107   4.719 -0.0608 -0.8629  0.2741
 8480SOL    HW137073   0.617   3.200   4.700  0.0089 -0.5248  1.9161
 8480SOL    HW237074   0.699   3.084   4.660 -0.4762 -0.8372 -0.2426
 8481SOL     OW37075   3.465   0.526   8.125  0.1810 -0.3690  0.1598
 8481SOL    HW137076   3.553   0.540   8.092  0.6454  1.1070  2.0506
 8481SOL    HW237077   3.485   0.515   8.217  2.1041  0.2876 -0.1920
 8482SOL     OW37078   3.460   2.942   1.885 -1.0226 -0.7606  0.4497
 8482SOL    HW137079   3.385   2.998   1.905  0.6930  1.7433 -0.1599
 8482SOL    HW237080   3.495   2.927   1.973 -0.1377 -0.8246  0.0842
 8483SOL     OW37081   0.702   0.573   4.245 -0.0827 -0.7571  0.5003
 8483SOL    HW137082   0.619   0.580   4.292  0.6495 -1.4650  1.9198
 8483SOL    HW237083   0.662   0.602   4.163 -1.9787  0.5646  1.8952
 8484SOL     OW37084   1.959   0.508  12.175 -0.3043  0.7284 -0.2740
 8484SOL    HW137085   2.027   0.574  12.166  0.6579 -0.2611 -0.2433
 8484SOL    HW237086   2.010   0.429  12.160  1.3820  1.7234  0.1975
 8485SOL     OW37087   2.104   2.424   5.508 -0.2733 -0.2082 -0.1324
 8485SOL    HW137088   2.020   2.376   5.509 -0.8864  0.8751  0.1377
 8485SOL    HW237089   2.086   2.476   5.586 -2.3927  0.7380 -1.2511
 8486SOL     OW37090   2.170   0.264   0.709 -0.5081  0.5370  0.3528
 8486SOL    HW137091   2.095   0.205   0.698  0.9342 -1.4509  0.9910
 8486SOL    HW237092   2.165   0.303   0.622  1.4716 -0.1751 -0.0743
 8487SOL     OW37093   2.057   0.107  17.346  0.4181  0.0557 -0.1747
 8487SOL    HW137094   1.976   0.080  17.304 -0.8205  0.8430  1.7055
 8487SOL    HW237095   2.102   0.156  17.277 -0.3871 -1.4933 -1.8058
 8488SOL     OW37096   3.073   4.177   4.676 -0.4226 -0.3575 -0.4632
 8488SOL    HW137097   3.131   4.192   4.751 -0.0453 -2.3348 -0.3578
 8488SOL    HW237098   3.011   4.118   4.719  0.7548 -1.1275  0.1847
 8489SOL     OW37099   1.561   3.170   4.474 -0.8232  0.2137 -0.2776
 8489SOL    HW137100   1.572   3.075   4.468 -1.2079  0.1843 -0.5402
 8489SOL    HW237101   1.638   3.181   4.529 -0.1521 -2.8985 -0.6379
 8490SOL     OW37102   4.409   2.214   0.252 -0.0230  0.2606 -0.2878
 8490SOL    HW137103   4.355   2.291   0.232 -0.6508  0.0664  0.6559
 8490SOL    HW237104   4.386   2.203   0.345 -0.1926  4.6230  0.1616
 8491SOL     OW37105   0.450   3.711   2.760  0.0869 -1.0093 -0.6216
 8491SOL    HW137106   0.530   3.659   2.760  0.4280 -0.4859  1.1915
 8491SOL    HW237107   0.452   3.753   2.674 -1.5236  0.0612 -0.1374
 8492SOL     OW37108   4.637   0.019   3.437  0.0578 -0.7586  0.2177
 8492SOL    HW137109   4.639   0.114   3.435 -1.3102 -0.7575 -0.7317
 8492SOL    HW237110   4.544   4.730   3.438 -1.2552  3.9073 -0.0137
 8493SOL     OW37111   1.614   2.884   4.917 -0.2532 -0.6772  0.3685
 8493SOL    HW137112   1.575   2.971   4.922 -0.5974 -0.7290 -1.2621
 8493SOL    HW237113   1.548   2.828   4.957 -1.5187  0.6099  0.1051
 8494SOL     OW37114   1.304   0.695   1.836 -0.1967 -0.0611 -0.4291
 8494SOL    HW137115   1.215   0.670   1.813 -0.1053  0.3768 -1.2489
 8494SOL    HW237116   1.346   0.647   1.765 -1.0503  1.2341 -1.8060
 8495SOL     OW37117   1.162   3.453  14.838  0.3692 -0.2784 -0.2584
 8495SOL    HW137118   1.097   3.384  14.849 -1.2193  1.4546  1.2487
 8495SOL    HW237119   1.110   3.531  14.819 -1.2179 -1.7494 -1.9558
 8496SOL     OW37120   1.687   4.033  15.954  0.2777 -0.1730  0.1501
 8496SOL    HW137121   1.723   4.081  15.880  2.5137  0.6525  1.7680
 8496SOL    HW237122   1.744   4.066  16.024 -0.5567  1.2825  0.1319
 8497SOL     OW37123   3.657   4.390   9.135 -0.4842 -0.3386  0.5370
 8497SOL    HW137124   3.695   4.434   9.211  0.6888  0.7024 -0.6559
 8497SOL    HW237125   3.710   4.443   9.075 -2.0449 -0.8004 -1.2549
 8498SOL     OW37126   0.026   2.236   8.985 -1.1041 -0.4202  0.5099
 8498SOL    HW137127   4.678   2.196   9.002 -1.1761 -0.4135  0.1603
 8498SOL    HW237128   0.073   2.195   9.059  1.0195  0.7315 -0.1836
 8499SOL     OW37129   1.478   0.558  17.006 -0.1683  0.3962 -0.3395
 8499SOL    HW137130   1.533   0.548  16.929 -0.5928  1.5323 -0.7935
 8499SOL    HW237131   1.531   0.505  17.066 -0.4809  1.6763  1.0652
 8500SOL     OW37132   0.043   0.465   4.912  0.1112  0.3425 -0.2200
 8500SOL    HW137133   0.051   0.512   4.829  1.5867 -0.8913 -0.7865
 8500SOL    HW237134   0.097   0.524   4.965  0.5134 -0.6876  0.5066
 8501SOL     OW37135   3.684   1.423   0.459  0.2804  0.1923 -0.1339
 8501SOL    HW137136   3.696   1.405   0.552  0.3986  0.2414 -0.1393
 8501SOL    HW237137   3.724   1.350   0.412 -2.8386 -0.2383 -2.1292
 8502SOL     OW37138   3.131   2.626   2.801 -0.3240 -0.6026  0.3956
 8502SOL    HW137139   3.201   2.571   2.765  0.1632 -0.9584  1.8695
 8502SOL    HW237140   3.106   2.677   2.724 -0.3993 -0.1391  0.7241
 8503SOL     OW37141   3.061   2.114   3.198 -0.1034  0.0026 -0.1196
 8503SOL    HW137142   2.995   2.105   3.266 -1.2195 -0.2210 -1.2256
 8503SOL    HW237143   3.051   2.208   3.181 -2.2278 -0.6029 -2.1792
 8504SOL     OW37144   3.571   2.809   9.115  0.0705  0.3667 -0.5191
 8504SOL    HW137145   3.502   2.751   9.083 -0.3468  1.1609 -1.0619
 8504SOL    HW237146   3.639   2.792   9.049 -1.3662  0.1134 -1.9209
 8505SOL     OW37147   3.586   2.544  15.047  0.7785  0.4698  0.5538
 8505SOL    HW137148   3.510   2.562  15.102 -1.2636 -1.9030 -1.4447
 8505SOL    HW237149   3.586   2.629  15.002  2.9107 -0.5588 -1.3633
 8506SOL     OW37150   3.124   1.594   4.346  0.7474  0.0757  0.2348
 8506SOL    HW137151   3.193   1.655   4.370 -0.1081  0.0979  2.6968
 8506SOL    HW237152   3.146   1.519   4.402  2.3201 -0.6379 -1.3644
 8507SOL     OW37153   0.973   0.302   3.511  0.3188 -0.2630 -0.1705
 8507SOL    HW137154   1.056   0.334   3.545 -0.8320  1.0458  1.3971
 8507SOL    HW237155   0.993   0.269   3.423 -1.0576 -2.0532  0.1780
 8508SOL     OW37156   2.696   0.480   7.211 -0.2455 -0.1347 -0.0609
 8508SOL    HW137157   2.617   0.426   7.210  0.6348 -1.4447  0.4418
 8508SOL    HW237158   2.737   0.444   7.132  1.1185 -2.4496  1.6945
 8509SOL     OW37159   4.189   1.760   1.684 -0.2019 -0.2348  0.4857
 8509SOL    HW137160   4.236   1.837   1.717  0.1386  0.0301 -0.6074
 8509SOL    HW237161   4.133   1.732   1.756  1.5739  1.1962  2.4366
 8510SOL     OW37162   1.732   3.576  12.267  0.6353  0.3919  0.3582
 8510SOL    HW137163   1.756   3.603  12.178 -2.9942 -0.6844 -0.9545
 8510SOL    HW237164   1.803   3.515  12.287 -0.4973 -1.4562 -1.2408
 8511SOL     OW37165   2.271   1.708  15.419  0.2842  0.2564  0.0076
 8511SOL    HW137166   2.358   1.725  15.384  0.1974 -2.1437 -1.3925
 8511SOL    HW237167   2.275   1.762  15.498  0.9932 -3.1021  2.2553
 8512SOL     OW37168   1.217   0.476   5.435 -0.2608 -0.1118  0.1077
 8512SOL    HW137169   1.231   0.550   5.495  1.1517  0.2754 -0.7055
 8512SOL    HW237170   1.265   0.406   5.480  2.5577  1.2270 -0.7999
 8513SOL     OW37171   0.742   4.521   8.741 -0.1648 -0.1854  0.2262
 8513SOL    HW137172   0.730   4.431   8.772 -0.3191  0.4048  1.8327
 8513SOL    HW237173   0.757   4.577   8.817 -0.1573 -0.7159  0.6108
 8514SOL     OW37174   3.593   1.318   8.080 -0.2292 -0.2107  0.3129
 8514SOL    HW137175   3.547   1.250   8.030  1.0582 -1.1926  0.4866
 8514SOL    HW237176   3.656   1.350   8.015  0.2263  0.7774  1.2453
 8515SOL     OW37177   2.504   1.416  13.242  0.3288 -0.2338 -0.4258
 8515SOL    HW137178   2.589   1.459  13.237 -0.1929  0.9976  1.5255
 8515SOL    HW237179   2.509   1.354  13.314 -2.4202  1.8621  1.5517
 8516SOL     OW37180   2.091   0.833   6.830 -0.3251 -0.1983 -0.1257
 8516SOL    HW137181   2.171   0.858   6.783 -0.5055 -0.5099 -0.6027
 8516SOL    HW237182   2.112   0.742   6.850 -0.7094  0.0631  1.4452
 8517SOL     OW37183   3.704   3.542  13.349 -0.3378 -0.1348  0.2474
 8517SOL    HW137184   3.721   3.629  13.386 -0.7951 -0.4917  1.2999
 8517SOL    HW237185   3.724   3.558  13.257 -2.7359 -0.6582 -0.3652
 8518SOL     OW37186   1.956   2.584   8.779 -0.1879 -0.0814 -0.2231
 8518SOL    HW137187   1.968   2.620   8.867  1.0475  0.7888 -0.7441
 8518SOL    HW237188   1.985   2.660   8.728  1.8513  0.1447  1.3003
 8519SOL     OW37189   3.317   2.489   2.685 -0.3006  0.9913  0.0842
 8519SOL    HW137190   3.288   2.466   2.597 -0.3501  0.2727  0.2943
 8519SOL    HW237191   3.367   2.412   2.708 -0.9391  0.9672  1.4351
 8520SOL     OW37192   2.084   0.103  13.480  0.7572  0.2349 -0.3878
 8520SOL    HW137193   2.115   0.183  13.522  0.1951  1.0710 -1.5412
 8520SOL    HW237194   2.068   0.137  13.391 -2.1923 -1.3778 -0.4840
 8521SOL     OW37195   2.308   1.787   2.172 -0.4575 -0.5684 -0.2398
 8521SOL    HW137196   2.239   1.853   2.161  1.1669  1.3589  1.0411
 8521SOL    HW237197   2.390   1.832   2.195 -0.1848 -0.3949 -1.5737
 8522SOL     OW37198   0.358   4.446   5.688  0.1830 -0.2053  0.3158
 8522SOL    HW137199   0.366   4.410   5.776 -1.3687  0.8074  0.8606
 8522SOL    HW237200   0.348   4.366   5.636 -2.5632  1.5345 -1.8120
 8523SOL     OW37201   0.614   2.484   5.387 -0.6026  0.1539 -0.6255
 8523SOL    HW137202   0.685   2.541   5.357  1.5110 -0.5216  3.0551
 8523SOL    HW237203   0.624   2.500   5.481 -2.4513  0.1979 -0.4448
 8524SOL     OW37204   0.049   3.593  13.208  0.7592 -0.1792 -0.2051
 8524SOL    HW137205   4.700   3.616  13.243  0.5060  0.6728 -1.3749
 8524SOL    HW237206   0.058   3.505  13.245  1.4169  0.6686  1.6429
 8525SOL     OW37207   1.588   0.320   9.517  0.2047  0.0632 -0.3052
 8525SOL    HW137208   1.497   0.344   9.501  0.6319  1.5116 -0.6121
 8525SOL    HW237209   1.639   0.401   9.528  0.8834 -0.4905  0.6952
 8526SOL     OW37210   1.319   0.837   7.767  0.0466 -1.1053  0.3328
 8526SOL    HW137211   1.409   0.868   7.780 -0.3083  0.8805 -1.8537
 8526SOL    HW237212   1.288   0.926   7.750  0.8864 -0.7347  0.7309
 8527SOL     OW37213   1.604   4.230  15.183  0.2235  0.1339  0.1036
 8527SOL    HW137214   1.516   4.194  15.190 -0.6641  2.0449 -1.0876
 8527SOL    HW237215   1.656   4.176  15.242  1.0295 -0.8331 -1.4893
 8528SOL     OW37216   0.962   0.889   2.246 -0.3110  0.6222 -0.4925
 8528SOL    HW137217   0.939   0.953   2.314 -1.2104 -1.0135  0.7278
 8528SOL    HW237218   0.880   0.843   2.231 -1.0430  1.6258  0.3926
 8529SOL     OW37219   0.244   2.196   2.382  0.1244 -0.0638 -0.5225
 8529SOL    HW137220   0.338   2.206   2.394 -0.0739 -0.7066  1.6650
 8529SOL    HW237221   0.238   2.129   2.314 -0.3468 -1.4713  0.8894
 8530SOL     OW37222   1.450   1.544   5.453  0.1590  0.3366  0.5019
 8530SOL    HW137223   1.362   1.509   5.460  0.5150 -0.8464 -0.9319
 8530SOL    HW237224   1.485   1.466   5.410  0.6031 -0.1951  1.8268
 8531SOL     OW37225   2.610   3.979  15.799  0.0077  0.3707 -0.2267
 8531SOL    HW137226   2.665   3.968  15.877  0.4812  0.7378 -0.5068
 8531SOL    HW237227   2.679   3.955  15.737  0.0811  0.0653 -0.0301
 8532SOL     OW37228   0.700   0.054   3.428 -0.5463 -0.5697 -0.1229
 8532SOL    HW137229   0.724   4.735   3.501 -0.0425  1.9172  1.6445
 8532SOL    HW237230   0.786   0.062   3.386 -0.3976  1.6694  0.5843
 8533SOL     OW37231   4.401   4.210  10.542  0.1801  0.0823  0.1358
 8533SOL    HW137232   4.463   4.222  10.614 -1.9432 -1.5042  2.2038
 8533SOL    HW237233   4.385   4.116  10.531  2.7664 -0.5528  1.8253
 8534SOL     OW37234   1.773   1.979   1.165  0.0209 -0.3168  0.3314
 8534SOL    HW137235   1.724   2.048   1.211 -1.1561 -0.0610 -1.2971
 8534SOL    HW237236   1.702   1.925   1.130 -0.2841  0.5266 -0.3502
 8535SOL     OW37237   3.277   2.638   1.645 -0.2083  0.4896 -0.2396
 8535SOL    HW137238   3.290   2.709   1.583 -0.1149  0.3888 -0.3366
 8535SOL    HW237239   3.361   2.593   1.635 -0.8326 -0.9802  0.9889
 8536SOL     OW37240   2.404   4.647  17.731  0.2730  0.0371  0.4915
 8536SOL    HW137241   2.489   4.652   0.028  0.0784 -1.2376  1.0096
 8536SOL    HW237242   2.400   4.557  17.699  0.9540  0.4924 -0.8824
 8537SOL     OW37243   3.879   1.284   2.808  0.4981 -0.4342 -0.0824
 8537SOL    HW137244   3.798   1.333   2.823 -0.2064 -1.4518 -0.4745
 8537SOL    HW237245   3.854   1.197   2.840  0.9825  0.3188  2.3578
 8538SOL     OW37246   3.455   0.127   6.031 -0.7862 -0.4151 -0.2620
 8538SOL    HW137247   3.539   0.090   6.059 -0.5827 -0.4206 -0.8970
 8538SOL    HW237248   3.412   0.049   5.995 -1.8003  0.0520 -0.0761
 8539SOL     OW37249   1.858   0.366   7.983 -0.1793  0.6843  0.2957
 8539SOL    HW137250   1.940   0.386   7.938 -0.0090  1.1481  0.8229
 8539SOL    HW237251   1.791   0.350   7.916 -1.1700  0.0278  1.4335
 8540SOL     OW37252   0.233   1.290   8.234 -0.2339  0.1401  0.1589
 8540SOL    HW137253   0.273   1.333   8.159  0.4429  1.4057  1.2476
 8540SOL    HW237254   0.288   1.321   8.306  0.1256  1.1089 -0.5388
 8541SOL     OW37255   0.045   3.752   5.464  0.2137 -0.1165  0.2194
 8541SOL    HW137256   0.059   3.690   5.535  0.8578  0.4356  0.5673
 8541SOL    HW237257   0.124   3.805   5.458  0.5241 -0.6737 -0.5092
 8542SOL     OW37258   3.343   3.100  11.883  0.1812 -0.2407  0.1358
 8542SOL    HW137259   3.375   3.110  11.793  1.9126 -0.1526  0.7698
 8542SOL    HW237260   3.425   3.122  11.927 -0.1728  3.1683 -0.9447
 8543SOL     OW37261   1.018   2.131   2.098  1.2242 -0.1253  0.2819
 8543SOL    HW137262   1.021   2.094   2.009  0.4138 -1.3710  0.7724
 8543SOL    HW237263   0.946   2.193   2.086  1.6789  0.4422  0.5480
 8544SOL     OW37264   3.073   0.459  12.177  0.4304  0.3609 -0.2841
 8544SOL    HW137265   3.125   0.475  12.099  3.4126  0.8468  1.7840
 8544SOL    HW237266   3.145   0.473  12.239  0.9848 -1.2075 -0.5789
 8545SOL     OW37267   2.933   2.414   7.556  0.2544  0.0842  0.1049
 8545SOL    HW137268   2.928   2.457   7.471  0.9460  2.4828  1.2827
 8545SOL    HW237269   3.014   2.363   7.557 -0.2051 -0.6606 -0.3662
 8546SOL     OW37270   0.103   3.790   9.723  0.7235  0.2519 -0.4429
 8546SOL    HW137271   0.098   3.847   9.800 -1.5533  0.3670 -0.6867
 8546SOL    HW237272   0.195   3.785   9.698  0.7977  0.1677 -0.1617
 8547SOL     OW37273   0.876   0.403   2.930 -0.3534 -0.1639 -0.1279
 8547SOL    HW137274   0.929   0.457   2.989  2.8231 -1.1399 -2.0723
 8547SOL    HW237275   0.817   0.355   2.987 -1.3697 -0.0258 -1.0579
 8548SOL     OW37276   2.864   2.414  11.648  0.7197 -0.4693 -0.2403
 8548SOL    HW137277   2.902   2.499  11.670  0.6901 -1.0999  2.2724
 8548SOL    HW237278   2.913   2.397  11.568  1.0326  1.9748 -0.5634
 8549SOL     OW37279   3.456   0.301   3.450 -0.2723  0.3293  0.0305
 8549SOL    HW137280   3.405   0.289   3.530  0.4139  0.0660  0.4220
 8549SOL    HW237281   3.404   0.362   3.397 -1.6842  0.1752  1.2463
 8550SOL     OW37282   1.542   2.786   9.450  0.4142 -0.1273  0.1020
 8550SOL    HW137283   1.631   2.788   9.486  0.7612  1.3919 -0.8572
 8550SOL    HW237284   1.534   2.702   9.405 -0.0027 -0.4692  0.8116
 8551SOL     OW37285   2.204   0.169  14.362 -0.1910 -0.2645  0.2285
 8551SOL    HW137286   2.133   0.145  14.421  0.2521 -0.4626  0.6781
 8551SOL    HW237287   2.226   0.257  14.391  0.0759 -0.7673  1.5446
 8552SOL     OW37288   2.104   3.256   2.388  0.2505 -0.3448  0.3717
 8552SOL    HW137289   2.014   3.234   2.365 -0.2216  3.3891 -1.2283
 8552SOL    HW237290   2.093   3.303   2.471  0.1117  2.5873 -1.3211
 8553SOL     OW37291   4.671   0.078  17.590 -0.0240 -0.1970 -0.5100
 8553SOL    HW137292   4.629   0.162  17.610  0.1113 -0.4575  0.8672
 8553SOL    HW237293   4.636   0.055  17.504 -1.6413  3.3187 -0.7845
 8554SOL     OW37294   0.396   2.008   2.783 -0.2452 -0.1667 -0.2643
 8554SOL    HW137295   0.448   1.961   2.848  1.0727  0.7172 -0.6970
 8554SOL    HW237296   0.312   2.017   2.828 -0.9547  0.7564 -1.7929
 8555SOL     OW37297   3.355   0.468   2.345 -0.2256  0.2394 -0.6815
 8555SOL    HW137298   3.366   0.438   2.254 -3.1033  0.0316 -0.9645
 8555SOL    HW237299   3.404   0.550   2.338  3.1914 -1.7572 -0.1150
 8556SOL     OW37300   2.369   0.614   6.799 -0.0439  0.5280  0.1790
 8556SOL    HW137301   2.463   0.607   6.813  0.3301  0.4657 -2.3668
 8556SOL    HW237302   2.344   0.594   6.889  1.1928  1.8721  0.8191
 8557SOL     OW37303   0.882   2.291   7.474 -0.6098 -0.1046  0.0322
 8557SOL    HW137304   0.812   2.343   7.435  0.2574  2.5579  2.0188
 8557SOL    HW237305   0.828   2.230   7.525 -0.3872  1.4625  2.1413
 8558SOL     OW37306   1.909   0.354   3.533 -0.1640 -0.4893  0.0897
 8558SOL    HW137307   1.999   0.365   3.501  1.5245 -0.7366  4.7959
 8558SOL    HW237308   1.913   0.353   3.629  1.9308 -1.1601  0.0070
 8559SOL     OW37309   0.590   4.400   6.316 -0.2170 -0.3542  0.3687
 8559SOL    HW137310   0.505   4.417   6.275 -0.2174  0.8320  0.8376
 8559SOL    HW237311   0.593   4.305   6.316 -1.9893 -0.3907  3.3828
 8560SOL     OW37312   1.241   0.777  15.269 -0.0425 -0.9567  0.4245
 8560SOL    HW137313   1.220   0.859  15.225  0.7268  0.3415  2.4775
 8560SOL    HW237314   1.178   0.712  15.237 -0.5238 -0.3882  0.2309
 8561SOL     OW37315   0.716   4.298   5.370 -0.1762 -0.4135 -0.0866
 8561SOL    HW137316   0.640   4.271   5.319  1.3490 -2.4746 -1.2523
 8561SOL    HW237317   0.711   4.249   5.452  0.9228 -1.1729 -0.4825
 8562SOL     OW37318   2.891   3.851   5.295  0.1781 -0.0030 -0.2677
 8562SOL    HW137319   2.969   3.832   5.347 -0.9325 -0.5659  1.1616
 8562SOL    HW237320   2.929   3.858   5.207  0.1115  0.9833 -0.2254
 8563SOL     OW37321   1.692   0.595   2.222  0.0203  0.4794  0.6093
 8563SOL    HW137322   1.632   0.632   2.158  0.3131  0.7123  0.4701
 8563SOL    HW237323   1.645   0.520   2.260  0.9969 -0.5251 -0.1739
 8564SOL     OW37324   2.282   2.202   6.696 -0.4043 -0.4465 -0.5400
 8564SOL    HW137325   2.222   2.147   6.745  0.2303 -1.4660 -0.9029
 8564SOL    HW237326   2.285   2.279   6.752 -2.7869 -2.2155  1.9671
 8565SOL     OW37327   2.333   4.095   8.482  0.3132 -0.4120 -0.2867
 8565SOL    HW137328   2.400   4.138   8.534 -0.5984  1.1415 -0.4080
 8565SOL    HW237329   2.253   4.125   8.524 -0.1492 -1.0666 -0.6877
 8566SOL     OW37330   2.502   1.250   8.635  0.4294 -0.1963  0.0156
 8566SOL    HW137331   2.495   1.202   8.718 -0.2356  1.0344  0.6829
 8566SOL    HW237332   2.596   1.247   8.620 -0.0552 -0.3006 -3.0124
 8567SOL     OW37333   0.496   3.594  12.721 -0.5037  0.3683 -0.0619
 8567SOL    HW137334   0.418   3.541  12.737 -0.2167 -0.1131 -0.2643
 8567SOL    HW237335   0.480   3.656  12.792 -2.1134 -0.9106  0.6945
 8568SOL     OW37336   3.008   4.073  15.585 -0.4581  0.1703  0.5377
 8568SOL    HW137337   2.944   4.065  15.514  1.2292  4.1309 -1.4514
 8568SOL    HW237338   2.964   4.017  15.648 -1.2489 -0.6342 -0.7388
 8569SOL     OW37339   1.377   3.700   5.439 -0.0660  0.0448  0.0268
 8569SOL    HW137340   1.433   3.776   5.422 -1.6382  1.3246  0.5685
 8569SOL    HW237341   1.382   3.647   5.359 -2.5704  0.5788 -0.4776
 8570SOL     OW37342   3.890   1.803  12.629  0.1306  0.6383 -0.2867
 8570SOL    HW137343   3.884   1.726  12.573 -0.6749  0.8371 -0.4658
 8570SOL    HW237344   3.872   1.760  12.712  0.6996  0.4088 -0.2814
 8571SOL     OW37345   3.292   1.344   5.177 -0.0249 -0.2465  0.3211
 8571SOL    HW137346   3.250   1.424   5.207  0.3630  0.1861 -0.3079
 8571SOL    HW237347   3.317   1.292   5.254  1.9702 -2.6034 -1.9265
 8572SOL     OW37348   4.273   2.627   9.989 -0.0268  0.0542 -0.4535
 8572SOL    HW137349   4.320   2.611   9.907  1.3306  0.6641  0.2039
 8572SOL    HW237350   4.353   2.628  10.043  1.7273 -2.5715 -2.9985
 8573SOL     OW37351   3.061   1.789   3.187  0.3599 -0.2117  0.3125
 8573SOL    HW137352   3.137   1.847   3.180 -0.8412  0.8591 -3.8703
 8573SOL    HW237353   3.013   1.804   3.105 -0.9007  1.6138  1.3780
 8574SOL     OW37354   2.882   0.202   3.382 -0.1742 -0.1145  0.5816
 8574SOL    HW137355   2.854   0.143   3.311 -0.9930 -0.3456  1.1019
 8574SOL    HW237356   2.828   0.280   3.372  1.8617  1.1596 -0.5987
 8575SOL     OW37357   1.366   4.438  13.653  0.1993  0.4513  0.0590
 8575SOL    HW137358   1.342   4.376  13.722  0.4227  1.7829  1.3118
 8575SOL    HW237359   1.341   4.522  13.691  1.7418  0.5940  0.7405
 8576SOL     OW37360   4.294   3.945   3.675 -0.0897  0.0858  0.0200
 8576SOL    HW137361   4.240   3.866   3.668 -2.8268  2.0986 -1.8620
 8576SOL    HW237362   4.237   4.008   3.631 -2.2485 -0.2869  2.2774
 8577SOL     OW37363   3.620   1.512   0.160  0.3084  0.4814 -0.4822
 8577SOL    HW137364   3.557   1.581   0.181  2.3252  1.9157  0.8601
 8577SOL    HW237365   3.659   1.509   0.248  2.3779  2.8982 -1.3283
 8578SOL     OW37366   0.014   1.297   3.845  0.1751  0.1627  0.1523
 8578SOL    HW137367   4.708   1.213   3.835  3.4315 -1.8157  2.8199
 8578SOL    HW237368   0.088   1.293   3.785  1.1482  4.2011  1.0484
 8579SOL     OW37369   0.953   4.388   6.120  0.3808  0.6992  0.0864
 8579SOL    HW137370   0.938   4.442   6.042 -0.6937 -0.3593 -0.4463
 8579SOL    HW237371   1.048   4.386   6.106  0.5771  1.0063  1.3793
 8580SOL     OW37372   2.452   1.324   4.555  0.0307  0.4643  0.0243
 8580SOL    HW137373   2.363   1.314   4.590  0.0987  1.7756  0.5912
 8580SOL    HW237374   2.472   1.237   4.520 -0.0520  0.6122 -0.3948
 8581SOL     OW37375   3.872   2.361   2.411 -0.3596  0.3502 -0.6214
 8581SOL    HW137376   3.859   2.291   2.347 -1.2376 -0.1997  0.1658
 8581SOL    HW237377   3.863   2.436   2.353  2.4707  2.0354  1.1306
 8582SOL     OW37378   4.188   4.650   2.670  0.2483  0.3249 -0.0359
 8582SOL    HW137379   4.153   4.565   2.644 -0.8954  0.8328 -0.1642
 8582SOL    HW237380   4.243   4.675   2.595 -0.9610 -0.2940 -1.1183
 8583SOL     OW37381   4.379   2.685   1.231  0.3233  0.2871 -0.4535
 8583SOL    HW137382   4.316   2.721   1.168  1.5042  3.4566  0.1875
 8583SOL    HW237383   4.413   2.766   1.267  0.3240 -0.0119  0.2142
 8584SOL     OW37384   0.048   3.160   6.753 -0.3920  0.6686 -0.4292
 8584SOL    HW137385   0.071   3.070   6.728 -0.4599  0.3207  0.7798
 8584SOL    HW237386   4.693   3.167   6.726 -0.6399  1.5331  0.6599
 8585SOL     OW37387   0.503   2.704   3.440 -0.0767  0.2879  0.0428
 8585SOL    HW137388   0.501   2.751   3.524  1.4206  1.1386 -0.3942
 8585SOL    HW237389   0.565   2.637   3.469 -0.9841 -1.0127 -1.0477
 8586SOL     OW37390   1.817   0.599  17.045  0.2772 -0.0855 -0.0781
 8586SOL    HW137391   1.823   0.505  17.063 -1.5489  0.2085  2.0548
 8586SOL    HW237392   1.746   0.616  17.107  1.0161  3.6036 -0.2866
 8587SOL     OW37393   1.115   2.559   6.000 -0.0741  0.7328  0.4529
 8587SOL    HW137394   1.192   2.516   5.962 -0.0020  1.0606  0.2281
 8587SOL    HW237395   1.123   2.651   5.975 -0.6788  0.9948  1.2595
 8588SOL     OW37396   1.901   0.652  10.856 -0.1551  0.7871  0.6221
 8588SOL    HW137397   1.973   0.676  10.914  0.5310 -0.7002  0.3854
 8588SOL    HW237398   1.855   0.585  10.908  0.0513 -0.6073 -0.9924
 8589SOL     OW37399   0.669   4.266   8.159  0.3334  0.3490 -0.3134
 8589SOL    HW137400   0.697   4.338   8.103 -1.0096  1.0312 -0.1178
 8589SOL    HW237401   0.698   4.185   8.118 -2.7795 -0.5790 -0.7477
 8590SOL     OW37402   3.743   4.209   5.801  0.1418  0.2974 -0.3755
 8590SOL    HW137403   3.740   4.236   5.893  0.9038  1.7751 -0.7882
 8590SOL    HW237404   3.817   4.264   5.776  0.0909  0.9825  0.9787
 8591SOL     OW37405   0.289   3.048   5.954  0.0295 -0.2290  0.1427
 8591SOL    HW137406   0.194   3.050   5.970  0.2864  0.0342  1.6314
 8591SOL    HW237407   0.320   3.138   5.963  1.3765 -0.8334  1.3631
 8592SOL     OW37408   3.966   1.655   8.818 -0.0632 -0.3801  0.0548
 8592SOL    HW137409   3.981   1.748   8.831  0.8983 -0.7964  2.1432
 8592SOL    HW237410   3.889   1.656   8.875 -1.7629 -1.4718 -2.2206
 8593SOL     OW37411   3.768   0.898  16.462  0.6020  0.1507  0.0131
 8593SOL    HW137412   3.712   0.975  16.466  0.8285  0.4395 -2.3701
 8593SOL    HW237413   3.735   0.856  16.382  1.2926 -0.0260 -0.1773
 8594SOL     OW37414   1.376   1.337   9.920 -0.5401 -0.6587  0.1583
 8594SOL    HW137415   1.432   1.343   9.997 -2.7920  1.0796  1.6137
 8594SOL    HW237416   1.430   1.389   9.860 -0.1009 -0.7995  0.4303
 8595SOL     OW37417   2.578   2.759  16.511  0.4176  0.1411  0.0810
 8595SOL    HW137418   2.604   2.850  16.497  0.1864  0.2935  0.6564
 8595SOL    HW237419   2.581   2.746  16.606  1.4051  1.7798  0.2642
 8596SOL     OW37420   3.572   3.486   6.175  0.3530  0.4357  0.0373
 8596SOL    HW137421   3.569   3.582   6.179 -2.5340  0.3309  0.1760
 8596SOL    HW237422   3.609   3.468   6.089  0.7462  0.9394  0.0974
 8597SOL     OW37423   0.726   4.584   1.550 -0.1044 -0.2493  0.4014
 8597SOL    HW137424   0.801   4.525   1.559  0.3322  0.3602  0.7036
 8597SOL    HW237425   0.672   4.531   1.491 -2.1672  1.3010  0.8972
 8598SOL     OW37426   1.547   1.535  12.565  0.3635 -0.4441  0.2441
 8598SOL    HW137427   1.552   1.442  12.547  0.0439 -0.0490 -1.8920
 8598SOL    HW237428   1.454   1.547  12.543  1.2661  3.3352 -1.5059
 8599SOL     OW37429   3.094   1.652   6.952  0.2209 -0.1154  0.5934
 8599SOL    HW137430   3.032   1.670   7.023 -0.2794  0.8265 -0.0662
 8599SOL    HW237431   3.124   1.565   6.977  0.7669  0.0985  0.6626
 8600SOL     OW37432   1.173   1.537   3.374 -0.4800  0.3593 -0.3511
 8600SOL    HW137433   1.134   1.505   3.292  2.4367 -1.4764 -1.0357
 8600SOL    HW237434   1.226   1.607   3.337 -2.2651  0.9870 -1.7776
 8601SOL     OW37435   4.075   3.778  12.273 -0.3961  0.2512 -0.0747
 8601SOL    HW137436   4.119   3.847  12.322  2.7974 -0.6874 -1.6473
 8601SOL    HW237437   4.152   3.727  12.247  0.7143  0.4461  2.8986
 8602SOL     OW37438   0.899   3.847   2.740  0.4289 -0.5434 -0.6250
 8602SOL    HW137439   0.956   3.905   2.791 -1.9980 -1.2034  2.7901
 8602SOL    HW237440   0.820   3.847   2.793 -0.5631 -2.0729 -2.1366
 8603SOL     OW37441   3.992   2.142   7.418  0.1529  1.0032 -0.0826
 8603SOL    HW137442   4.033   2.185   7.494  2.5743 -0.6344 -0.4616
 8603SOL    HW237443   4.066   2.094   7.381 -0.2703  0.2475  0.0605
 8604SOL     OW37444   3.138   2.673   8.186  0.5424 -0.9635  0.1893
 8604SOL    HW137445   3.043   2.682   8.176  0.8201  0.0163 -1.6725
 8604SOL    HW237446   3.152   2.581   8.209  0.7325 -1.6318 -2.6002
 8605SOL     OW37447   2.444   2.799  15.300  0.4830  0.3806  0.2111
 8605SOL    HW137448   2.367   2.856  15.302 -1.4997 -2.2640 -0.0107
 8605SOL    HW237449   2.404   2.729  15.246  1.7084  0.5827 -0.9652
 8606SOL     OW37450   1.422   2.742   2.534 -0.2040  0.3933 -0.3396
 8606SOL    HW137451   1.515   2.767   2.532  0.6364 -2.9477 -2.1306
 8606SOL    HW237452   1.372   2.800   2.478 -2.3640 -1.5913 -0.4611
 8607SOL     OW37453   3.107   3.009  16.384 -0.8683 -0.0722 -0.1111
 8607SOL    HW137454   3.079   2.968  16.302  1.1310  0.4435 -1.0523
 8607SOL    HW237455   3.025   2.993  16.430 -1.1378 -1.9948 -1.2455
 8608SOL     OW37456   1.060   0.089   4.916  0.2627  1.0828 -0.1350
 8608SOL    HW137457   1.035   0.172   4.957  1.7213  1.0220  0.8737
 8608SOL    HW237458   1.153   0.110   4.902  0.9340 -0.2857  2.3392
 8609SOL     OW37459   3.631   0.373   6.004  0.6163 -0.5847  0.0621
 8609SOL    HW137460   3.645   0.422   5.923 -1.8796 -0.4121 -0.2610
 8609SOL    HW237461   3.636   0.284   5.969 -3.0529 -0.7105 -0.1684
 8610SOL     OW37462   3.009   0.095  16.410  0.3467 -0.1267 -0.0111
 8610SOL    HW137463   2.962   0.011  16.409 -0.3669  0.2601  0.5820
 8610SOL    HW237464   3.094   0.071  16.374  0.7375  1.0839  0.1168
 8611SOL     OW37465   1.807   4.242   3.730  0.5768  0.6298  0.4927
 8611SOL    HW137466   1.754   4.180   3.781  1.3591 -0.4637 -0.0256
 8611SOL    HW237467   1.894   4.208   3.751  0.4281  0.2607  0.5052
 8612SOL     OW37468   0.365   1.654  15.473  0.1787 -1.0491  0.1234
 8612SOL    HW137469   0.404   1.724  15.420  0.9285 -1.1222  0.5791
 8612SOL    HW237470   0.431   1.634  15.539  1.3782  2.1672 -0.0953
 8613SOL     OW37471   4.635   4.515   0.237 -0.3205  0.1983 -0.2123
 8613SOL    HW137472   4.567   4.546   0.177 -0.3549 -0.0218 -0.2880
 8613SOL    HW237473   4.654   4.433   0.192 -2.0727 -0.7632  0.8137
 8614SOL     OW37474   2.001   3.908  15.991  0.1334  0.0797 -0.2659
 8614SOL    HW137475   2.084   3.952  16.010  0.7938 -0.8530 -0.9477
 8614SOL    HW237476   2.029   3.837  15.933  1.6359 -0.1273  0.6955
 8615SOL     OW37477   0.406   4.325  15.750 -0.4041  0.2683  0.4266
 8615SOL    HW137478   0.345   4.261  15.713  1.3691 -0.6326 -0.9472
 8615SOL    HW237479   0.342   4.376  15.801  0.7437  1.3221  0.8026
 8616SOL     OW37480   1.783   0.605   7.779 -0.7095  0.3736  0.5778
 8616SOL    HW137481   1.802   0.514   7.756 -0.2392  0.8827 -1.1250
 8616SOL    HW237482   1.865   0.649   7.758 -0.0044 -1.6610 -0.8755
 8617SOL     OW37483   1.581   0.035  15.887  0.3377 -0.1193 -0.8338
 8617SOL    HW137484   1.650   0.001  15.829 -0.2999 -2.3094 -0.3147
 8617SOL    HW237485   1.530   4.694  15.908  1.8599 -1.3878 -1.8786
 8618SOL     OW37486   2.427   2.156   4.760  0.0403  0.1197 -0.0672
 8618SOL    HW137487   2.421   2.117   4.846 -1.2547 -0.2302 -0.3163
 8618SOL    HW237488   2.422   2.251   4.771  2.2729  0.4713 -1.9068
 8619SOL     OW37489   0.305   1.262   6.074  0.6333 -0.0460  0.5936
 8619SOL    HW137490   0.257   1.243   5.992  0.5263  1.0030  0.4164
 8619SOL    HW237491   0.232   1.250   6.134 -2.2896 -2.2251 -3.3480
 8620SOL     OW37492   4.696   4.655   8.835  0.0908  0.2879  0.2582
 8620SOL    HW137493   4.627   4.717   8.811  2.0270  2.3095 -0.0446
 8620SOL    HW237494   4.720   4.619   8.750 -0.4482  0.9383 -0.1754
 8621SOL     OW37495   1.383   3.657   7.298 -0.3922 -0.1985  0.4840
 8621SOL    HW137496   1.340   3.571   7.289 -1.7252  0.5252 -0.1208
 8621SOL    HW237497   1.474   3.630   7.304  0.0042  1.0474 -0.0896
 8622SOL     OW37498   2.843   2.826   7.431  0.2797 -0.5297  0.3150
 8622SOL    HW137499   2.911   2.879   7.389 -0.0494  0.3812  0.9513
 8622SOL    HW237500   2.763   2.877   7.418 -0.3689 -1.9541 -1.3467
 8623SOL     OW37501   1.168   1.924   2.939  0.6140 -0.3935 -0.0119
 8623SOL    HW137502   1.198   1.883   2.858  0.8900  1.3259 -0.7953
 8623SOL    HW237503   1.075   1.899   2.943  1.0807 -1.8957  1.5486
 8624SOL     OW37504   0.005   3.368   5.500 -0.3390 -0.2138  0.1208
 8624SOL    HW137505   0.019   3.274   5.505  2.2206  0.2112  0.8310
 8624SOL    HW237506   4.648   3.376   5.485 -0.1588  0.5311 -0.5877
 8625SOL     OW37507   2.060   0.075   3.711  0.0504  0.5109  0.4639
 8625SOL    HW137508   2.008   0.063   3.791  1.5161 -0.2442  1.3165
 8625SOL    HW237509   2.141   0.118   3.740  0.8648  0.4109 -1.6509
 8626SOL     OW37510   4.250   3.540   4.677  0.3982 -0.2381  0.2331
 8626SOL    HW137511   4.338   3.577   4.670 -0.4543  1.6491 -0.5581
 8626SOL    HW237512   4.256   3.458   4.627 -0.3821  0.7250 -1.4290
 8627SOL     OW37513   3.453   1.711   0.219  0.0839  0.3363  0.4500
 8627SOL    HW137514   3.450   1.802   0.188  1.3517 -0.3696 -1.7905
 8627SOL    HW237515   3.504   1.716   0.299 -0.4418 -0.9358  0.8587
 8628SOL     OW37516   4.344   0.961  11.967  0.1849  0.1746 -0.1914
 8628SOL    HW137517   4.351   0.874  12.006 -1.5397  0.1502  0.0612
 8628SOL    HW237518   4.262   0.991  12.007 -0.8073  0.9503 -2.8102
 8629SOL     OW37519   0.297   0.975  14.965 -0.4007 -0.5387 -0.0165
 8629SOL    HW137520   0.377   0.939  14.927  0.3413  0.6196  0.4488
 8629SOL    HW237521   0.309   0.945  15.055  1.3330 -1.3984 -0.5234
 8630SOL     OW37522   1.345   3.383  12.103  0.0607  1.0740 -0.7549
 8630SOL    HW137523   1.430   3.371  12.060 -0.3948 -2.2571 -0.6765
 8630SOL    HW237524   1.374   3.411  12.190 -1.3251 -0.3013  0.1400
 8631SOL     OW37525   3.730   3.555  13.069 -0.3270 -0.4724 -0.0132
 8631SOL    HW137526   3.759   3.481  13.015  1.7835 -0.6291  1.3356
 8631SOL    HW237527   3.766   3.626  13.016  1.4275 -0.2340  1.4863
 8632SOL     OW37528   1.774   3.047   5.213 -0.0796  0.5506  0.4820
 8632SOL    HW137529   1.789   2.993   5.291  1.4662 -1.1687 -1.0266
 8632SOL    HW237530   1.678   3.042   5.207 -0.0068  0.3811 -0.4356
 8633SOL     OW37531   2.114   2.812   9.669  1.0089  0.0919  0.4816
 8633SOL    HW137532   2.159   2.728   9.674  1.5374  0.5784  3.6891
 8633SOL    HW237533   2.167   2.874   9.720  0.0579  1.1186  0.2302
 8634SOL     OW37534   3.639   2.275  10.299 -0.4325 -0.1359  0.2121
 8634SOL    HW137535   3.615   2.197  10.249 -1.8509  1.2178 -1.2310
 8634SOL    HW237536   3.733   2.266  10.313 -0.4428  0.5504  0.7306
 8635SOL     OW37537   3.309   2.305   2.493 -0.3153 -0.0128  0.0795
 8635SOL    HW137538   3.251   2.251   2.546  0.4755  0.2637  1.2287
 8635SOL    HW237539   3.259   2.295   2.412 -0.5627 -0.3799  0.2737
 8636SOL     OW37540   0.411   1.071   3.530  0.1789 -0.0563  0.2432
 8636SOL    HW137541   0.400   1.021   3.449  3.1268 -0.3426  0.0082
 8636SOL    HW237542   0.451   1.153   3.502  4.1638 -1.7545  0.9730
 8637SOL     OW37543   4.357   3.733   9.619 -0.2917  0.6347  0.3521
 8637SOL    HW137544   4.304   3.750   9.542  1.4514 -2.5529 -1.5404
 8637SOL    HW237545   4.433   3.692   9.577 -1.3871 -0.5754 -0.4428
 8638SOL     OW37546   2.161   0.615  10.964 -0.2060  0.1325 -0.0563
 8638SOL    HW137547   2.253   0.634  10.948  0.3369 -0.4741  2.2493
 8638SOL    HW237548   2.141   0.643  11.054 -0.1976  1.4784 -0.4858
 8639SOL     OW37549   2.103   1.098   7.208  0.1362  0.1232 -0.3993
 8639SOL    HW137550   2.115   1.140   7.123  0.1648  0.8736 -0.0186
 8639SOL    HW237551   2.151   1.156   7.268 -0.0154 -0.7973  0.6182
 8640SOL     OW37552   1.059   3.220   7.115  0.3289 -0.3296 -0.6708
 8640SOL    HW137553   0.971   3.192   7.140  1.7090 -2.2773  1.9870
 8640SOL    HW237554   1.071   3.178   7.030  0.7626 -1.2500 -0.1571
 8641SOL     OW37555   4.134   4.245   8.307  0.1593 -0.0153 -0.9987
 8641SOL    HW137556   4.183   4.182   8.253  1.0435  0.2334 -0.4891
 8641SOL    HW237557   4.136   4.313   8.240  0.1581 -0.8288 -1.8341
 8642SOL     OW37558   2.058   3.986  11.499  0.4843 -0.1881 -0.8806
 8642SOL    HW137559   2.029   4.069  11.462 -0.8007 -0.7384 -1.1057
 8642SOL    HW237560   2.045   4.004  11.593 -0.8006 -1.8284 -0.7537
 8643SOL     OW37561   2.487   3.265   3.359  0.0482  0.3609  0.4213
 8643SOL    HW137562   2.530   3.349   3.372  0.0660  0.7261 -2.0076
 8643SOL    HW237563   2.560   3.203   3.357 -0.8414 -0.6693 -0.2733
 8644SOL     OW37564   2.185   3.484   8.173  0.1412 -0.0782 -0.2088
 8644SOL    HW137565   2.194   3.520   8.261  3.4185 -0.5251 -0.3604
 8644SOL    HW237566   2.124   3.540   8.126 -0.8244 -1.0850 -0.1610
 8645SOL     OW37567   0.224   0.328   2.521  0.4193 -0.2970  0.0556
 8645SOL    HW137568   0.194   0.419   2.529  0.6782 -0.1915 -0.1725
 8645SOL    HW237569   0.162   0.285   2.580  0.2031  0.5433  0.4462
 8646SOL     OW37570   4.037   4.058   3.911 -0.1161 -0.0181 -0.1483
 8646SOL    HW137571   4.129   4.049   3.935 -0.9080  1.0171  3.1528
 8646SOL    HW237572   4.038   4.154   3.912 -1.8747 -0.0132  0.9674
 8647SOL     OW37573   1.897   4.470   2.332  0.6215 -0.6093  0.5204
 8647SOL    HW137574   1.924   4.378   2.325  0.7816 -0.3230 -2.6449
 8647SOL    HW237575   1.878   4.492   2.241 -0.3646 -1.2668  0.5687
 8648SOL     OW37576   0.395   3.699   3.918 -0.2260  0.6434 -0.6698
 8648SOL    HW137577   0.396   3.605   3.905 -0.1099  0.3985  1.1515
 8648SOL    HW237578   0.305   3.723   3.898 -1.0693 -1.2889  0.8835
 8649SOL     OW37579   3.490   2.766   7.108  0.0859 -0.2831 -0.1394
 8649SOL    HW137580   3.530   2.769   7.195  0.2108  1.7442 -0.2554
 8649SOL    HW237581   3.462   2.858   7.106  1.5809  0.1922  0.7240
 8650SOL     OW37582   2.009   0.510   0.910  0.8467  0.2840  0.6197
 8650SOL    HW137583   2.098   0.506   0.944  1.6211  0.5172 -1.3986
 8650SOL    HW237584   1.985   0.417   0.906  3.8260 -0.4432 -0.3823
 8651SOL     OW37585   0.748   0.825   4.001 -0.0537 -0.3832 -0.0114
 8651SOL    HW137586   0.791   0.843   4.085  0.1551  1.6029 -0.5430
 8651SOL    HW237587   0.671   0.772   4.020 -0.0613  0.9266  3.6701
 8652SOL     OW37588   1.494   2.584   8.200 -0.0705  0.5195 -0.3883
 8652SOL    HW137589   1.481   2.675   8.225  1.1003  0.7317 -0.5552
 8652SOL    HW237590   1.578   2.565   8.241 -0.3261  0.3057  0.0412
 8653SOL     OW37591   1.499   0.742   4.624  0.0356 -0.6229  0.6379
 8653SOL    HW137592   1.581   0.721   4.667 -0.5314 -2.0789  1.0122
 8653SOL    HW237593   1.453   0.792   4.692 -1.2667  0.3763 -0.9807
 8654SOL     OW37594   3.688   3.250   9.245 -0.2872 -0.2535  0.2335
 8654SOL    HW137595   3.623   3.287   9.186  0.2975 -0.3096 -0.4507
 8654SOL    HW237596   3.691   3.163   9.204  1.4395 -0.9421  1.8170
 8655SOL     OW37597   3.780   0.681   2.277 -0.0764 -0.2102 -0.6029
 8655SOL    HW137598   3.817   0.663   2.363 -0.0609 -2.4988 -1.0959
 8655SOL    HW237599   3.817   0.767   2.254 -1.4958  1.1404  2.2163
 8656SOL     OW37600   3.636   3.390  12.825 -0.1716  0.0130  0.0947
 8656SOL    HW137601   3.642   3.327  12.753 -0.6323 -1.2065  1.1310
 8656SOL    HW237602   3.623   3.471  12.776 -1.2912  0.4144  1.0585
 8657SOL     OW37603   4.417   3.541  13.659 -0.1350  0.0456 -0.5697
 8657SOL    HW137604   4.356   3.468  13.647  1.8738 -1.6186 -0.6360
 8657SOL    HW237605   4.499   3.507  13.693 -0.1396  0.8277  0.2123
 8658SOL     OW37606   2.916   0.569   2.674 -0.3097 -0.1728 -0.3433
 8658SOL    HW137607   2.906   0.653   2.719  0.8765 -1.2034  1.8404
 8658SOL    HW237608   2.926   0.607   2.587 -0.4635 -1.2169 -0.8189
 8659SOL     OW37609   3.385   0.011   4.369 -0.4032  0.5261  0.4864
 8659SOL    HW137610   3.372   4.672   4.314 -1.0346  1.8371 -1.2009
 8659SOL    HW237611   3.476   0.028   4.345 -0.0756  0.8740  1.9333
 8660SOL     OW37612   2.289   4.145   9.186 -0.0552  0.1258 -0.6613
 8660SOL    HW137613   2.360   4.097   9.229 -1.4038 -2.3861 -1.2026
 8660SOL    HW237614   2.342   4.214   9.146  0.4963  0.4599  0.6414
 8661SOL     OW37615   0.856   4.578   5.926  0.8992 -0.4269  0.0538
 8661SOL    HW137616   0.796   4.503   5.929 -2.7331  2.4159 -1.3065
 8661SOL    HW237617   0.805   4.632   5.865  2.3046  1.1243  0.2593
 8662SOL     OW37618   0.074   3.859   1.686  0.0833  0.5705  0.2480
 8662SOL    HW137619   0.013   3.891   1.618 -0.8345  0.4507  1.0145
 8662SOL    HW237620   0.130   3.936   1.697  2.1982 -1.0372  0.4978
 8663SOL     OW37621   1.549   0.169  16.124  0.2570  0.6028  0.4906
 8663SOL    HW137622   1.617   0.129  16.178  0.0355  0.7893  0.9028
 8663SOL    HW237623   1.572   0.152  16.032  0.8973  1.7323  0.4542
 8664SOL     OW37624   4.477   4.450  12.875 -0.0989  0.5723 -0.3816
 8664SOL    HW137625   4.470   4.464  12.780 -0.7720  0.2443 -0.3813
 8664SOL    HW237626   4.432   4.366  12.881 -0.1676  0.9771  4.3294
 8665SOL     OW37627   3.910   0.002  14.210 -0.3804  0.1147 -0.3032
 8665SOL    HW137628   3.905   4.692  14.127  1.3175 -0.4128 -0.0846
 8665SOL    HW237629   3.830   0.052  14.190  0.2463  1.9627  1.7430
 8666SOL     OW37630   1.878   1.588   8.074  0.2549  0.6042 -0.1310
 8666SOL    HW137631   1.797   1.613   8.029  1.2536  2.0605 -1.1243
 8666SOL    HW237632   1.881   1.660   8.136  1.2198  0.5285 -0.0905
 8667SOL     OW37633   3.340   2.841  15.608 -0.2000 -0.2380  0.5768
 8667SOL    HW137634   3.370   2.851  15.517 -0.2293  1.6874  0.7749
 8667SOL    HW237635   3.417   2.810  15.656 -1.0045 -1.4939  1.0385
 8668SOL     OW37636   1.116   3.361   1.433  0.0804 -0.3113  0.0724
 8668SOL    HW137637   1.131   3.361   1.528  0.2249  0.6323  0.0442
 8668SOL    HW237638   1.026   3.329   1.434  0.2170 -0.6455  1.2922
 8669SOL     OW37639   4.724   1.076  13.719 -0.6155  0.0720  0.6673
 8669SOL    HW137640   4.703   1.037  13.634  0.0343 -2.0548  1.4731
 8669SOL    HW237641   0.016   0.997  13.765 -2.2342  1.0774  3.4017
 8670SOL     OW37642   1.397   4.253   7.592  0.5227  0.0169  0.4400
 8670SOL    HW137643   1.349   4.173   7.614  0.6176 -0.1258  0.1331
 8670SOL    HW237644   1.478   4.230   7.637  0.4250 -1.1553  0.0253
 8671SOL     OW37645   3.786   3.971  17.675  0.6969  0.0290 -0.6484
 8671SOL    HW137646   3.849   3.986  17.745  2.5521 -3.3894 -1.5973
 8671SOL    HW237647   3.743   3.890  17.700  2.0578  0.0517  1.7365
 8672SOL     OW37648   3.489   3.913   2.817 -0.4936 -0.2485  0.0829
 8672SOL    HW137649   3.473   3.992   2.868  1.7757 -0.0408  0.4873
 8672SOL    HW237650   3.436   3.852   2.870 -0.6424 -1.4872 -1.5049
 8673SOL     OW37651   0.631   3.333   7.266 -0.4513  0.7917  0.3862
 8673SOL    HW137652   0.547   3.289   7.274  0.2966 -1.2693 -3.2771
 8673SOL    HW237653   0.593   3.419   7.249 -0.9371  0.4204 -0.4047
 8674SOL     OW37654   2.184   3.871   7.329  0.1118 -0.0189  0.0248
 8674SOL    HW137655   2.207   3.827   7.410 -0.3944  2.5007  1.5528
 8674SOL    HW237656   2.140   3.937   7.383  2.9525  3.2146 -1.6107
 8675SOL     OW37657   0.246   4.476  15.895  0.1533  0.2587 -0.3697
 8675SOL    HW137658   0.190   4.455  15.970 -0.1921  1.6685 -0.2306
 8675SOL    HW237659   0.264   4.570  15.905 -0.2290  0.1875  0.9491
 8676SOL     OW37660   1.830   4.079   4.312  0.4617  0.3884  0.1301
 8676SOL    HW137661   1.845   4.150   4.374  0.7136  0.5232 -0.0804
 8676SOL    HW237662   1.922   4.065   4.289  0.8315  1.7647  0.7632
 8677SOL     OW37663   1.250   1.932   9.219  0.1170 -0.4304 -0.3613
 8677SOL    HW137664   1.300   1.883   9.284  0.7719 -1.0056 -1.3078
 8677SOL    HW237665   1.291   2.019   9.221  0.2924 -0.4886 -1.5278
 8678SOL     OW37666   3.767   3.665   2.290  0.5931  0.5106  0.1568
 8678SOL    HW137667   3.844   3.623   2.251  0.9142  3.9782 -2.9158
 8678SOL    HW237668   3.764   3.615   2.371  2.2070 -0.6200 -0.4799
 8679SOL     OW37669   4.283   0.969   4.573  0.1393 -0.4664 -0.0101
 8679SOL    HW137670   4.237   0.943   4.653  1.1553 -0.1839  0.6655
 8679SOL    HW237671   4.360   0.912   4.576  0.2112 -0.3017  1.6874
 8680SOL     OW37672   0.674   0.042   7.442  0.0689  0.3130 -0.0549
 8680SOL    HW137673   0.665   4.690   7.476  2.5355 -0.5460 -1.6713
 8680SOL    HW237674   0.766   0.044   7.417 -0.3721  1.1535 -1.6327
 8681SOL     OW37675   3.966   3.184   1.260 -0.3202  0.3110  0.4691
 8681SOL    HW137676   4.006   3.118   1.317 -0.3800  1.2851  1.6137
 8681SOL    HW237677   3.981   3.146   1.173 -2.0677 -1.2393  0.8454
 8682SOL     OW37678   4.237   0.379   6.947 -0.2748 -0.1110 -0.0192
 8682SOL    HW137679   4.272   0.291   6.956  1.5065  0.7910  1.8174
 8682SOL    HW237680   4.256   0.404   6.857  1.9363 -4.1071 -0.6504
 8683SOL     OW37681   3.251   0.090   3.826 -0.4646 -0.0891 -0.5614
 8683SOL    HW137682   3.172   0.056   3.785  1.0668 -1.9052 -2.0116
 8683SOL    HW237683   3.317   0.099   3.757 -1.2911  0.5014 -1.2630
 8684SOL     OW37684   3.352   2.894   3.734  0.4025 -0.1940 -0.0265
 8684SOL    HW137685   3.391   2.956   3.672  0.3989  0.2892  0.4569
 8684SOL    HW237686   3.363   2.822   3.673  0.3994 -0.3256  0.1278
 8685SOL     OW37687   1.098   4.683   1.070 -0.3355  0.4744  0.5005
 8685SOL    HW137688   1.044   4.661   0.994  1.3895  0.8419 -0.8427
 8685SOL    HW237689   1.101   0.040   1.055  1.7131  0.8243  3.1224
 8686SOL     OW37690   3.319   1.105  17.077 -0.2660 -0.5620  0.2271
 8686SOL    HW137691   3.295   1.197  17.067 -0.8666 -0.6462  0.9375
 8686SOL    HW237692   3.319   1.082  17.170 -0.5675  0.3639  0.4524
 8687SOL     OW37693   1.238   3.765   4.727  0.3911  0.7881  0.1322
 8687SOL    HW137694   1.232   3.805   4.814 -0.7636  1.7687 -0.4115
 8687SOL    HW237695   1.175   3.815   4.676 -1.7312  1.0551  2.9961
 8688SOL     OW37696   0.253   1.059   6.784 -0.0380 -0.5162  0.1329
 8688SOL    HW137697   0.262   0.994   6.714  0.9191 -0.6757  0.3991
 8688SOL    HW237698   0.225   1.133   6.731  0.1469 -0.3960  0.2035
 8689SOL     OW37699   3.629   4.263  10.577  0.1169  0.3743  0.2741
 8689SOL    HW137700   3.554   4.322  10.573 -1.2713 -1.3534  1.0324
 8689SOL    HW237701   3.697   4.323  10.606  0.8657 -0.7756  0.9070
 8690SOL     OW37702   0.537   3.443   8.179  0.1231 -0.6358 -0.2464
 8690SOL    HW137703   0.564   3.508   8.244  0.6640 -1.5077  0.3984
 8690SOL    HW237704   0.460   3.414   8.228 -0.4977  0.9744 -0.2631
 8691SOL     OW37705   0.928   1.185  11.843  0.0439  0.1514  0.5930
 8691SOL    HW137706   0.919   1.096  11.807  1.2990 -0.1578  1.0239
 8691SOL    HW237707   1.021   1.202  11.825 -0.5396  2.1664 -0.4204
 8692SOL     OW37708   4.666   3.445  15.905  0.0451  0.0653 -0.1593
 8692SOL    HW137709   4.635   3.496  15.830 -0.3111 -1.5245 -1.1208
 8692SOL    HW237710   4.625   3.361  15.883  0.0286  0.1509 -0.4558
 8693SOL     OW37711   3.038   4.700  15.028  0.3635 -0.3345 -0.4962
 8693SOL    HW137712   3.082   0.025  14.970  1.6647  0.5303  1.4466
 8693SOL    HW237713   3.064   4.730  15.114  1.0255  1.2886 -1.2708
 8694SOL     OW37714   4.198   0.643   7.836  0.0799 -0.1703  0.3621
 8694SOL    HW137715   4.148   0.599   7.767  0.5487  0.0324 -0.1058
 8694SOL    HW237716   4.283   0.643   7.791 -1.4942 -0.8149 -2.5747
 8695SOL     OW37717   0.536   2.995   2.919 -0.4573  0.2766  0.3043
 8695SOL    HW137718   0.518   2.942   2.997 -1.8698  0.0666 -0.1504
 8695SOL    HW237719   0.498   3.079   2.945 -1.1696  1.4187 -4.5882
 8696SOL     OW37720   0.479   0.366  16.720  0.3143 -0.4236  0.6163
 8696SOL    HW137721   0.574   0.375  16.712  0.3509 -0.2363  1.2629
 8696SOL    HW237722   0.453   0.334  16.634 -0.1993  0.5644  0.4073
 8697SOL     OW37723   3.326   0.821   4.745 -0.3228  0.3284 -0.1937
 8697SOL    HW137724   3.389   0.754   4.773  0.0069 -0.0705 -1.9090
 8697SOL    HW237725   3.292   0.852   4.829  2.6165 -0.8875  1.4474
 8698SOL     OW37726   1.868   1.686  15.599  0.4202 -0.5502 -0.2852
 8698SOL    HW137727   1.778   1.704  15.571  0.2539  0.1721  0.7171
 8698SOL    HW237728   1.852   1.703  15.692  1.3610  0.3588 -0.2870
 8699SOL     OW37729   0.025   2.151   4.384 -0.1526  0.5941 -0.0172
 8699SOL    HW137730   4.737   2.095   4.457  1.4022 -2.2773 -1.6646
 8699SOL    HW237731   4.696   2.221   4.380  1.0178  1.5798 -2.3330
 8700SOL     OW37732   2.668   1.375   6.021  0.5366  1.0695 -0.0920
 8700SOL    HW137733   2.745   1.430   6.005  0.4424  0.1153 -3.7634
 8700SOL    HW237734   2.593   1.420   5.983  0.0206  0.8764  0.6847
 8701SOL     OW37735   0.199   0.892   5.780 -0.6153 -0.0198  0.2939
 8701SOL    HW137736   0.146   0.888   5.700 -1.8873 -2.9919  1.2887
 8701SOL    HW237737   0.127   0.902   5.842 -1.1140  0.6662 -0.3938
 8702SOL     OW37738   0.546   4.512  12.436  0.5980 -0.0348 -0.3069
 8702SOL    HW137739   0.462   4.472  12.460  0.3544  1.2437  0.9663
 8702SOL    HW237740   0.574   4.542  12.522 -1.0173  1.1361 -0.1956
 8703SOL     OW37741   1.876   2.031   5.569 -0.0744 -0.0329 -0.2115
 8703SOL    HW137742   1.806   1.993   5.621  0.5773 -0.1296  0.5955
 8703SOL    HW237743   1.881   1.965   5.501 -0.1425 -0.6799  0.4138
 8704SOL     OW37744   3.106   4.224   7.742 -0.7174  0.2132  0.2343
 8704SOL    HW137745   3.029   4.225   7.800 -0.3790 -0.7516  0.7018
 8704SOL    HW237746   3.154   4.150   7.780  0.1205 -0.7048 -2.6256
 8705SOL     OW37747   2.298   4.537   1.529 -0.0762  0.1943 -0.0555
 8705SOL    HW137748   2.280   4.470   1.462  0.8314 -1.7276  1.6227
 8705SOL    HW237749   2.246   4.497   1.598 -1.3795 -0.7251 -1.5716
 8706SOL     OW37750   0.662   1.097   2.356  0.2490 -0.4207 -0.5390
 8706SOL    HW137751   0.649   1.163   2.425  1.1327 -0.5091 -0.2881
 8706SOL    HW237752   0.753   1.077   2.378 -0.1262 -1.8844 -0.3676
 8707SOL     OW37753   4.153   3.695   3.667  0.4181 -0.1097 -0.2586
 8707SOL    HW137754   4.147   3.604   3.697  0.5865 -0.3104 -0.8225
 8707SOL    HW237755   4.135   3.681   3.574 -1.4759  1.2831 -0.1111
 8708SOL     OW37756   4.666   2.270   6.619 -0.5050  0.4357 -0.0598
 8708SOL    HW137757   0.019   2.272   6.652 -1.1825  0.3289  1.7862
 8708SOL    HW237758   4.665   2.186   6.573 -0.4555 -0.1695  1.0516
 8709SOL     OW37759   3.328   3.588   4.428  0.4001  0.0273 -0.1207
 8709SOL    HW137760   3.418   3.557   4.420  0.2646  0.2211 -2.2020
 8709SOL    HW237761   3.330   3.674   4.386 -2.7875  0.9193  1.5829
 8710SOL     OW37762   1.985   0.488   6.891 -0.6121 -0.7598 -0.0612
 8710SOL    HW137763   1.949   0.530   6.813  1.6638  2.0696  0.4277
 8710SOL    HW237764   1.922   0.528   6.951  0.6396 -0.9267  1.3520
 8711SOL     OW37765   3.125   1.224   3.195 -0.4813 -0.1242  0.5497
 8711SOL    HW137766   3.048   1.246   3.247 -2.8410 -1.7897 -2.2671
 8711SOL    HW237767   3.187   1.222   3.268 -0.1833 -2.7190  0.2468
 8712SOL     OW37768   3.164   0.793  17.133 -0.2386 -0.1609  0.2998
 8712SOL    HW137769   3.073   0.820  17.124 -0.0010 -0.8808 -4.4818
 8712SOL    HW237770   3.203   0.863  17.187  1.3268 -0.2715 -0.6708
 8713SOL     OW37771   1.577   0.163   8.728 -0.0147 -0.5940 -0.1409
 8713SOL    HW137772   1.614   0.116   8.653 -1.0856 -0.3244 -0.8541
 8713SOL    HW237773   1.486   0.148   8.699 -0.0036  2.6672 -1.7939
 8714SOL     OW37774   4.169   3.142   7.087  0.1847 -0.6465 -0.6385
 8714SOL    HW137775   4.170   3.084   7.163 -1.0899  1.0341  0.6453
 8714SOL    HW237776   4.099   3.102   7.036 -0.6305  0.9848 -0.7832
 8715SOL     OW37777   3.351   2.530   2.147  0.0433 -0.3984  0.0051
 8715SOL    HW137778   3.421   2.569   2.199 -1.1528 -0.8975  1.9964
 8715SOL    HW237779   3.359   2.578   2.064  0.1123  2.1640  1.5243
 8716SOL     OW37780   0.641   1.401   6.364  0.2469  0.4072 -0.0722
 8716SOL    HW137781   0.580   1.405   6.437 -0.7363 -2.3075 -0.7525
 8716SOL    HW237782   0.643   1.492   6.333  0.7738 -0.4545 -2.5615
 8717SOL     OW37783   0.024   2.596   4.560 -0.1236 -0.6305 -0.0065
 8717SOL    HW137784   0.067   2.662   4.505 -1.4012 -0.7167 -1.0950
 8717SOL    HW237785   4.670   2.613   4.539  0.8049  0.7137 -3.0256
 8718SOL     OW37786   4.094   0.103   8.455 -0.1595  0.3144  1.0737
 8718SOL    HW137787   4.066   0.053   8.532  0.1536  1.0640  1.6656
 8718SOL    HW237788   4.094   0.029   8.394 -2.3568  0.5253  0.7990
 8719SOL     OW37789   0.674   4.479   3.250 -0.0289 -0.4002  0.1757
 8719SOL    HW137790   0.728   4.475   3.329 -0.0112 -4.6733 -0.0626
 8719SOL    HW237791   0.588   4.463   3.289  1.3406  2.3019  4.3050
 8720SOL     OW37792   0.215   3.319   5.768  0.1552  0.0812 -0.0159
 8720SOL    HW137793   0.297   3.318   5.817 -0.2314 -0.9937  0.5777
 8720SOL    HW237794   0.152   3.315   5.840  1.1883  0.7618  0.9290
 8721SOL     OW37795   3.153   3.349   2.880 -0.3482  0.1395  0.3924
 8721SOL    HW137796   3.228   3.369   2.937 -1.5276  0.5780  1.8002
 8721SOL    HW237797   3.139   3.258   2.907 -1.3676  0.6169  1.4958
 8722SOL     OW37798   3.837   0.349  16.201  0.1119 -0.1180  0.2141
 8722SOL    HW137799   3.785   0.299  16.264  0.4192  0.6569  1.0957
 8722SOL    HW237800   3.918   0.297  16.199  0.4705  0.4029  1.1402
 8723SOL     OW37801   2.620   3.897   5.390 -0.5004  0.0072  0.1224
 8723SOL    HW137802   2.587   3.985   5.370  1.4473  0.7493  0.1590
 8723SOL    HW237803   2.713   3.915   5.378 -0.3885  1.6933  3.6770
 8724SOL     OW37804   3.775   3.483   9.366  0.1519 -0.2642  0.3846
 8724SOL    HW137805   3.833   3.442   9.431  0.4416 -0.9635 -0.3047
 8724SOL    HW237806   3.751   3.406   9.315 -1.9893  1.6297 -1.4326
 8725SOL     OW37807   1.988   1.005   1.424  0.6354  0.1552  0.5813
 8725SOL    HW137808   2.072   0.979   1.462  0.5575  0.7265  1.1360
 8725SOL    HW237809   1.967   0.912   1.416  2.7424 -0.2003 -0.9826
 8726SOL     OW37810   1.502   3.142   3.420 -0.5858 -0.1199  0.5341
 8726SOL    HW137811   1.577   3.191   3.387 -0.8867  0.3637  0.5707
 8726SOL    HW237812   1.444   3.208   3.459  0.8042 -1.0390  4.1254
 8727SOL     OW37813   1.512   4.164   3.318 -0.7019 -0.2381  0.7037
 8727SOL    HW137814   1.462   4.107   3.377  0.5868 -1.0009  1.0768
 8727SOL    HW237815   1.563   4.202   3.390  0.6517  2.6622 -1.8126
 8728SOL     OW37816   1.493   1.119   9.533 -0.5197  0.6963  0.2795
 8728SOL    HW137817   1.548   1.172   9.590  0.0636  0.9955 -0.5562
 8728SOL    HW237818   1.480   1.037   9.581  1.3008  0.5265  0.4799
 8729SOL     OW37819   0.368   2.305   0.440  0.2691  0.0486  0.1396
 8729SOL    HW137820   0.281   2.272   0.463  0.4249  0.1636  0.8995
 8729SOL    HW237821   0.394   2.352   0.519 -2.3288 -1.1609  1.7246
 8730SOL     OW37822   0.942   0.626  13.866 -0.0262 -0.2488 -0.0579
 8730SOL    HW137823   0.924   0.707  13.818 -0.7857 -0.8577 -0.7916
 8730SOL    HW237824   0.868   0.570  13.841 -0.6661  1.1185 -1.2207
 8731SOL     OW37825   1.010   2.270   8.838 -0.5381  0.2629 -0.0244
 8731SOL    HW137826   0.977   2.205   8.899  0.2772 -0.3953 -0.2726
 8731SOL    HW237827   1.100   2.285   8.867  0.4250 -0.8582 -2.3999
 8732SOL     OW37828   1.331   0.067   8.626 -0.5102  0.6007 -0.3229
 8732SOL    HW137829   1.332   0.045   8.533 -0.6008  0.0171 -0.1819
 8732SOL    HW237830   1.260   0.130   8.638 -0.9036  0.1733 -0.4142
 8733SOL     OW37831   0.614   3.250   3.268 -0.0350 -0.0070  0.0232
 8733SOL    HW137832   0.524   3.224   3.248  0.2775  0.1744 -1.6177
 8733SOL    HW237833   0.615   3.334   3.222  0.3242  0.2808  0.5571
 8734SOL     OW37834   0.049   1.857   3.305 -0.3269  0.4830 -0.4868
 8734SOL    HW137835   0.077   1.949   3.307 -1.0930  0.6784  1.7003
 8734SOL    HW237836   4.711   1.864   3.246 -0.4924 -0.8956 -0.4377
 8735SOL     OW37837   0.906   2.063   7.844  0.4865 -0.4876  0.8080
 8735SOL    HW137838   0.971   2.068   7.913  3.5904  0.7046 -2.1962
 8735SOL    HW237839   0.826   2.034   7.888  1.9551 -2.2713  2.2465
 8736SOL     OW37840   0.676   3.613   7.615  0.2079  0.1392 -0.2252
 8736SOL    HW137841   0.623   3.608   7.536  1.7598  0.5345 -1.3095
 8736SOL    HW237842   0.753   3.657   7.576  1.5540  0.0623  2.3353
 8737SOL     OW37843   3.929   3.869  14.886  0.0222  0.4344  0.5242
 8737SOL    HW137844   3.994   3.931  14.851 -1.0001  1.1813 -0.0481
 8737SOL    HW237845   3.977   3.843  14.965  0.8141  3.5984  1.1018
 8738SOL     OW37846   0.350   0.285   3.369  0.4413  0.1495  0.7519
 8738SOL    HW137847   0.385   0.366   3.333 -2.3001  0.9776 -0.0201
 8738SOL    HW237848   0.411   0.268   3.440  1.2263  0.4201  0.1385
 8739SOL     OW37849   0.525   1.075  10.135 -0.0862  0.3573 -0.3031
 8739SOL    HW137850   0.600   1.117  10.177 -0.5205 -0.1076  0.9384
 8739SOL    HW237851   0.521   1.113  10.048  2.1579  1.2530 -0.0078
 8740SOL     OW37852   2.933   4.614   1.497 -0.3308 -0.0913 -0.2629
 8740SOL    HW137853   2.966   4.601   1.586  0.6290 -1.7597 -0.8633
 8740SOL    HW237854   2.956   4.535   1.448  1.6745 -0.0279  0.5830
 8741SOL     OW37855   3.577   3.132   5.476 -0.1780  0.1168  0.0899
 8741SOL    HW137856   3.548   3.168   5.560  2.1486 -0.3893  1.1082
 8741SOL    HW237857   3.540   3.044   5.481  0.4446 -0.1218  0.4580
 8742SOL     OW37858   4.373   3.340   4.542  0.2225  0.3457  0.0935
 8742SOL    HW137859   4.453   3.385   4.569  0.2813  0.8619 -0.9584
 8742SOL    HW237860   4.392   3.260   4.591  0.7504  0.5685  0.2471
 8743SOL     OW37861   3.624   2.802   6.638 -0.5406 -0.2228  0.4401
 8743SOL    HW137862   3.633   2.857   6.560 -1.8454 -0.9091 -0.2072
 8743SOL    HW237863   3.530   2.804   6.658 -0.6606  0.8920 -0.2459
 8744SOL     OW37864   2.043   3.750   3.627  0.4455  0.0189 -0.4069
 8744SOL    HW137865   2.003   3.664   3.611  1.0585 -0.1050 -1.2631
 8744SOL    HW237866   2.035   3.799   3.546  1.2164  0.9885  0.1115
 8745SOL     OW37867   2.232   4.261   7.353 -0.2890  0.1112  0.3516
 8745SOL    HW137868   2.246   4.347   7.312  1.1451 -1.2313 -1.9798
 8745SOL    HW237869   2.324   4.236   7.357  0.2847  2.3913  1.3572
 8746SOL     OW37870   3.175   2.451   6.812 -0.0109 -0.6157 -0.8541
 8746SOL    HW137871   3.268   2.440   6.793 -0.4658 -2.6508 -1.8554
 8746SOL    HW237872   3.176   2.544   6.835  0.0874 -0.7416 -0.3327
 8747SOL     OW37873   0.929   2.262   5.165  0.2777 -0.3338  0.5387
 8747SOL    HW137874   0.949   2.356   5.162  0.0908 -0.3758 -1.9480
 8747SOL    HW237875   0.893   2.249   5.253  0.4194  0.3577  0.6994
 8748SOL     OW37876   2.149   0.135   4.672 -0.2497 -0.1873 -0.0356
 8748SOL    HW137877   2.132   0.153   4.764  0.9883  0.7776  0.0061
 8748SOL    HW237878   2.072   0.144   4.616 -0.1996  1.7386  0.2141
 8749SOL     OW37879   1.257   3.826   5.665  0.0286  0.2094  0.2559
 8749SOL    HW137880   1.280   3.751   5.720  3.0449  1.5765  0.8592
 8749SOL    HW237881   1.291   3.794   5.581 -2.0050 -2.6905  0.5336
 8750SOL     OW37882   4.232   4.516   3.320  1.1575 -0.3508 -0.0547
 8750SOL    HW137883   4.281   4.577   3.264  2.0125 -2.2146 -1.3045
 8750SOL    HW237884   4.295   4.513   3.392  0.3802 -0.4750  0.6186
 8751SOL     OW37885   2.739   0.950   0.885  0.2369 -0.0076  0.4996
 8751SOL    HW137886   2.834   0.955   0.894  0.4579  0.1750 -1.7070
 8751SOL    HW237887   2.733   0.859   0.855 -3.4759  0.6455 -0.7125
 8752SOL     OW37888   4.116   3.320   5.775  1.0793  0.4202 -0.2476
 8752SOL    HW137889   4.116   3.364   5.859  1.6527  2.2652 -1.2178
 8752SOL    HW237890   4.023   3.307   5.758  1.0964 -0.5243  0.3560
 8753SOL     OW37891   1.042   2.743   3.967 -0.2579 -0.7446 -0.1024
 8753SOL    HW137892   0.993   2.824   3.956  0.5154 -0.2970 -0.2506
 8753SOL    HW237893   1.010   2.694   3.890  1.1559 -2.5132  0.4314
 8754SOL     OW37894   1.977   1.902   0.904 -0.4179  0.4903 -0.1169
 8754SOL    HW137895   1.937   1.943   0.981  1.6595 -1.0500  1.7853
 8754SOL    HW237896   1.936   1.948   0.831 -0.8928 -0.0102 -0.1649
 8755SOL     OW37897   3.329   1.510   5.967  0.1788 -0.1053 -0.5439
 8755SOL    HW137898   3.245   1.485   6.005  0.8918  0.2242  1.2277
 8755SOL    HW237899   3.326   1.605   5.975 -2.6442 -0.3484  1.2939
 8756SOL     OW37900   1.623   0.259   7.394 -0.4150 -0.8075 -0.4533
 8756SOL    HW137901   1.596   0.169   7.376 -1.4104 -0.3996 -0.9767
 8756SOL    HW237902   1.550   0.290   7.448  1.0146  0.0943  0.9681
 8757SOL     OW37903   2.131   0.008   2.360 -0.2318 -0.6213  0.5544
 8757SOL    HW137904   2.047   0.038   2.393 -0.4255 -0.2443 -0.2759
 8757SOL    HW237905   2.186   0.052   2.425 -1.8549  1.7817  0.2967
 8758SOL     OW37906   0.203   1.491   3.470 -0.3053  0.1228 -0.5528
 8758SOL    HW137907   0.275   1.476   3.530  1.5551  0.0143 -2.8181
 8758SOL    HW237908   0.139   1.542   3.519 -0.4303 -0.5573 -0.0044
 8759SOL     OW37909   0.158   0.748   0.511  0.9405  0.8999 -0.2008
 8759SOL    HW137910   0.177   0.757   0.418 -0.3266  0.4268 -0.5002
 8759SOL    HW237911   0.242   0.766   0.554  1.7605 -2.4562 -0.4070
 8760SOL     OW37912   0.533   2.662   7.641 -0.3799 -0.1394 -0.4521
 8760SOL    HW137913   0.449   2.683   7.599  0.3701  0.6221 -1.5783
 8760SOL    HW237914   0.585   2.668   7.561  0.1698 -0.7643 -0.1386
 8761SOL     OW37915   1.522   3.304  14.267  0.4448  0.3413  0.3861
 8761SOL    HW137916   1.576   3.225  14.275 -0.5230 -0.4920 -1.3193
 8761SOL    HW237917   1.563   3.359  14.334 -1.5050 -0.3459  2.1536
 8762SOL     OW37918   3.257   0.069   7.728 -0.5749  0.2277  0.2937
 8762SOL    HW137919   3.275   4.713   7.737 -0.0981  0.4748  1.8787
 8762SOL    HW237920   3.300   0.109   7.803  2.1578  0.6798 -1.5243
 8763SOL     OW37921   3.863   1.500   9.620 -0.5188 -0.0365  0.1889
 8763SOL    HW137922   3.951   1.526   9.594 -1.1738  0.4951 -1.4701
 8763SOL    HW237923   3.832   1.448   9.545  1.2920  0.9152 -1.2225
 8764SOL     OW37924   3.950   2.314   4.197  0.3717 -0.0460 -0.3436
 8764SOL    HW137925   4.023   2.375   4.202  0.6109 -0.3496 -0.1176
 8764SOL    HW237926   3.868   2.363   4.191 -0.0967 -0.9171 -1.2425
 8765SOL     OW37927   4.170   2.684   6.213  0.9100  0.3223  0.5748
 8765SOL    HW137928   4.089   2.639   6.237 -0.8063  3.6587  1.0639
 8765SOL    HW237929   4.148   2.701   6.122  0.6704 -1.8746  0.2320
 8766SOL     OW37930   2.331   3.440  11.407  0.0906  0.0948 -0.5465
 8766SOL    HW137931   2.384   3.370  11.445 -1.5335 -1.2969 -0.8971
 8766SOL    HW237932   2.388   3.472  11.337 -0.8429  3.2669  0.1112
 8767SOL     OW37933   0.236   4.266   2.549  0.2684  0.3675 -0.8640
 8767SOL    HW137934   0.222   4.180   2.589 -0.0694  0.8197  0.0181
 8767SOL    HW237935   0.191   4.315   2.618  0.6860  0.9077 -0.9779
 8768SOL     OW37936   2.466   2.387   4.244  0.3883 -0.2580  0.0073
 8768SOL    HW137937   2.458   2.447   4.317 -1.0059 -0.8433  0.3325
 8768SOL    HW237938   2.454   2.444   4.167 -0.1397  0.2549  0.4713
 8769SOL     OW37939   1.515   3.169   9.530  0.0892 -0.0834 -0.4232
 8769SOL    HW137940   1.557   3.098   9.579 -1.8088  0.0775  1.4539
 8769SOL    HW237941   1.556   3.247   9.566 -1.5820  0.6890 -0.1866
 8770SOL     OW37942   0.881   0.790  13.683 -0.0216  0.1988  0.3285
 8770SOL    HW137943   0.953   0.852  13.673  2.8905 -3.2161  0.0778
 8770SOL    HW237944   0.889   0.741  13.601 -1.8595  2.8876 -1.4842
 8771SOL     OW37945   4.362   1.942   3.856 -0.1080 -0.0914  0.4051
 8771SOL    HW137946   4.456   1.960   3.851 -0.1330 -0.4658 -1.3932
 8771SOL    HW237947   4.327   1.941   3.767  1.8232  1.0927 -0.3611
 8772SOL     OW37948   3.546   1.487   5.177  0.1728 -0.0655 -0.4637
 8772SOL    HW137949   3.527   1.577   5.149 -1.2266  0.3417  1.8352
 8772SOL    HW237950   3.465   1.444   5.150  0.5180  0.6367 -2.6468
 8773SOL     OW37951   3.014   3.129   6.004 -0.5607 -0.2123 -0.1428
 8773SOL    HW137952   2.935   3.085   5.973 -0.2473 -0.7133 -0.2432
 8773SOL    HW237953   2.986   3.217   6.027 -0.4400  0.3182 -2.0733
 8774SOL     OW37954   1.693   2.596   4.536  0.3476 -0.1481  0.3150
 8774SOL    HW137955   1.765   2.540   4.566 -0.4063 -0.0886  2.1917
 8774SOL    HW237956   1.640   2.540   4.480  1.4899 -0.6231 -0.2885
 8775SOL     OW37957   0.108   1.222   4.109 -0.2843 -0.3329 -0.0087
 8775SOL    HW137958   0.062   1.157   4.055  0.3651  2.4433 -3.9094
 8775SOL    HW237959   0.194   1.223   4.067 -0.8602 -3.2440 -1.2834
 8776SOL     OW37960   4.470   2.987   9.252 -0.3453 -0.1563 -0.3740
 8776SOL    HW137961   4.549   3.037   9.235  0.6568 -1.5428  0.2116
 8776SOL    HW237962   4.428   3.033   9.325  1.5408  3.0307 -1.3333
 8777SOL     OW37963   4.011   1.576  14.530  0.1591  0.1567 -0.0699
 8777SOL    HW137964   3.922   1.547  14.546 -0.2073  0.7171 -1.1370
 8777SOL    HW237965   4.001   1.671  14.536  0.8233  0.2709 -0.7714
 8778SOL     OW37966   3.931   0.981   8.854  0.2197 -0.1413 -0.2074
 8778SOL    HW137967   3.996   1.008   8.788  1.1120  0.2137  0.8237
 8778SOL    HW237968   3.917   0.888   8.836 -0.1672 -0.1456  0.1340
 8779SOL     OW37969   0.875   2.292   9.381 -0.3625  0.0414 -0.4268
 8779SOL    HW137970   0.943   2.336   9.330 -0.3307 -0.7742 -1.0840
 8779SOL    HW237971   0.862   2.359   9.448  2.7968  0.3953 -0.1584
 8780SOL     OW37972   4.373   2.093   5.732  0.0129  0.2058 -0.4848
 8780SOL    HW137973   4.381   2.163   5.797 -0.5352 -1.7065  1.6526
 8780SOL    HW237974   4.390   2.137   5.648  0.2897  1.4513  0.2173
 8781SOL     OW37975   3.090   2.875   1.325  0.5734 -0.4908 -0.0642
 8781SOL    HW137976   3.181   2.850   1.339  1.0684  1.4162  0.0689
 8781SOL    HW237977   3.060   2.913   1.408 -1.2799 -0.5325 -0.7078
 8782SOL     OW37978   4.064   3.416   9.408 -0.7429 -0.1660 -0.2742
 8782SOL    HW137979   4.023   3.469   9.339  0.1089 -0.4497 -1.0062
 8782SOL    HW237980   4.148   3.463   9.411 -1.7368  1.7304 -1.4619
 8783SOL     OW37981   1.680   1.060   8.321  0.5397  0.3590  0.4198
 8783SOL    HW137982   1.725   1.142   8.303 -0.6644  0.5277 -1.8119
 8783SOL    HW237983   1.758   1.013   8.349  1.2868  1.3814  0.0186
 8784SOL     OW37984   1.943   1.384   6.456 -0.2982  0.0553  0.1542
 8784SOL    HW137985   1.866   1.429   6.422 -0.0244 -1.5902 -2.6410
 8784SOL    HW237986   1.930   1.299   6.413 -0.8242  0.1185  0.1925
 8785SOL     OW37987   2.187   1.958   5.131  0.2902 -0.1252  0.9572
 8785SOL    HW137988   2.140   1.950   5.048 -1.1329  1.6620  1.6153
 8785SOL    HW237989   2.136   2.014   5.188  0.5391  1.2986 -0.2105
 8786SOL     OW37990   2.431   1.852   4.781  0.8692 -0.2587  0.1536
 8786SOL    HW137991   2.495   1.922   4.794 -1.4390  1.9223 -0.0603
 8786SOL    HW237992   2.363   1.899   4.732  1.4026  0.8165  0.4387
 8787SOL     OW37993   1.161   3.844   4.213  0.4098 -0.3717 -0.1900
 8787SOL    HW137994   1.178   3.878   4.301  0.5594 -2.3113  0.5196
 8787SOL    HW237995   1.123   3.928   4.188  2.4674  1.0278  1.3028
 8788SOL     OW37996   1.888   4.357  10.637  0.1785  0.5339  0.3104
 8788SOL    HW137997   1.826   4.286  10.623  0.9004 -0.3606  1.6064
 8788SOL    HW237998   1.967   4.302  10.639  0.5635  1.0138 -2.3636
 8789SOL     OW37999   2.909   2.808   2.587  0.2812  0.0528 -0.1627
 8789SOL    HW138000   2.879   2.877   2.528  1.6786  0.3239 -0.5509
 8789SOL    HW238001   2.862   2.830   2.668  1.2458 -1.8658  0.9251
 8790SOL     OW38002   1.089   1.253   3.393 -0.6739 -0.2941 -0.0869
 8790SOL    HW138003   1.132   1.339   3.397  0.7442 -1.0779  1.7608
 8790SOL    HW238004   1.146   1.192   3.440 -2.6385 -1.5259  0.6802
 8791SOL     OW38005   2.509   2.527   7.385  0.3841  0.1934 -0.0535
 8791SOL    HW138006   2.539   2.618   7.387 -0.4077  0.4114  1.3016
 8791SOL    HW238007   2.469   2.523   7.471  0.1796  2.0632 -0.0633
 8792SOL     OW38008   0.746   0.965  15.767 -0.0087 -0.3440 -0.5186
 8792SOL    HW138009   0.783   0.947  15.680 -0.9469 -1.1733 -0.7499
 8792SOL    HW238010   0.822   0.973  15.823 -0.9916  3.1734  0.3643
 8793SOL     OW38011   4.609   2.704   9.520 -0.1398 -0.4826 -0.0688
 8793SOL    HW138012   4.688   2.700   9.466  1.2993 -2.4390  2.2031
 8793SOL    HW238013   4.565   2.780   9.480  1.1102 -0.1909 -0.8778
 8794SOL     OW38014   1.819   3.615  11.996 -0.0171  0.1315 -0.3760
 8794SOL    HW138015   1.796   3.703  11.966 -2.0803 -0.5802 -0.8252
 8794SOL    HW238016   1.847   3.568  11.917  0.7809 -0.0770  0.0258
 8795SOL     OW38017   3.459   1.236   4.399  0.0826 -0.4151 -0.6575
 8795SOL    HW138018   3.541   1.198   4.430 -1.9971 -3.9896  0.5609
 8795SOL    HW238019   3.400   1.161   4.407 -0.4682 -0.0800 -1.6011
 8796SOL     OW38020   0.208   3.528   9.864  0.5256 -0.0296  0.0301
 8796SOL    HW138021   0.124   3.572   9.874  0.3638 -0.5737  1.0297
 8796SOL    HW238022   0.186   3.479   9.785  0.2226 -0.9848  0.7216
 8797SOL     OW38023   3.064   0.612   7.734 -0.0438  0.1307 -0.4278
 8797SOL    HW138024   3.076   0.683   7.797  2.6432 -0.9712  0.3170
 8797SOL    HW238025   3.012   0.548   7.784  0.8807  1.4843  2.2735
 8798SOL     OW38026   3.854   0.594   4.318 -0.0892  0.4412 -0.9905
 8798SOL    HW138027   3.900   0.597   4.234 -0.2931  3.3941 -1.0201
 8798SOL    HW238028   3.880   0.510   4.355  1.1836  1.1735 -0.2059
 8799SOL     OW38029   0.244   0.785   7.805  0.0131  0.2757  0.0892
 8799SOL    HW138030   0.187   0.858   7.828  0.5211  0.3687  1.0657
 8799SOL    HW238031   0.185   0.719   7.769 -1.5920  2.7950 -1.8577
 8800SOL     OW38032   0.931   3.381  10.477  0.5732  0.5589  0.0587
 8800SOL    HW138033   0.874   3.316  10.435  2.1590 -0.7315 -0.1092
 8800SOL    HW238034   0.937   3.454  10.415 -1.6342 -1.0363 -2.0833
 8801SOL     OW38035   0.922   1.086   2.426  0.2171 -0.1865  0.6718
 8801SOL    HW138036   0.961   1.171   2.407 -1.4067  0.1842 -1.1008
 8801SOL    HW238037   0.978   1.056   2.497  0.1450 -1.3955  0.2177
 8802SOL     OW38038   2.478   3.270   7.404  0.2347 -0.2643  0.4261
 8802SOL    HW138039   2.444   3.189   7.368 -1.0592  0.2032  0.5974
 8802SOL    HW238040   2.571   3.245   7.403  0.1075 -0.6319 -1.8398
 8803SOL     OW38041   3.224   1.403  17.016 -0.2601 -0.1019 -0.4728
 8803SOL    HW138042   3.308   1.375  17.052 -0.8208 -0.4752  0.5593
 8803SOL    HW238043   3.229   1.498  17.030  0.4400 -0.2051 -0.0243
 8804SOL     OW38044   3.840   4.522   6.594  0.0560 -0.1897  0.0363
 8804SOL    HW138045   3.833   4.489   6.683 -0.2547  1.1797  0.5111
 8804SOL    HW238046   3.924   4.486   6.565  0.1713  1.1441 -1.2430
 8805SOL     OW38047   0.617   2.585   7.354 -0.2491 -0.5224  0.2155
 8805SOL    HW138048   0.534   2.584   7.306  0.0254  0.3389 -0.2685
 8805SOL    HW238049   0.668   2.645   7.300 -1.3929  2.4719  2.4366
 8806SOL     OW38050   0.888   3.716   2.092 -0.2517 -0.1261  0.3256
 8806SOL    HW138051   0.868   3.675   2.008 -0.1773 -0.0021  0.2482
 8806SOL    HW238052   0.858   3.654   2.159 -2.1229  1.7366  1.2042
 8807SOL     OW38053   3.954   4.126   8.737  0.0067 -0.1348  0.2964
 8807SOL    HW138054   4.022   4.188   8.713  0.3539  0.6329  3.2883
 8807SOL    HW238055   3.903   4.110   8.658 -0.2974 -0.6970  0.6041
 8808SOL     OW38056   1.116   2.562   5.681  0.5523  0.4558  0.0062
 8808SOL    HW138057   1.080   2.525   5.601  3.4031 -0.3169 -0.9039
 8808SOL    HW238058   1.204   2.587   5.654  0.8557  0.3721  0.9395
 8809SOL     OW38059   1.885   2.802   0.831 -0.2604  0.4719 -0.3035
 8809SOL    HW138060   1.831   2.871   0.870 -0.6607 -0.0848  0.1209
 8809SOL    HW238061   1.970   2.818   0.872 -1.3967  3.0706  1.0456
 8810SOL     OW38062   0.140   3.508   7.335  0.1431 -0.9673 -0.9311
 8810SOL    HW138063   0.083   3.438   7.366 -3.0694  1.7249 -0.8046
 8810SOL    HW238064   0.146   3.575   7.403  2.3922 -1.1154 -0.9875
 8811SOL     OW38065   1.965   4.392   8.726  0.0701 -0.1596  0.3053
 8811SOL    HW138066   1.880   4.361   8.757 -1.1236  2.7155 -0.1584
 8811SOL    HW238067   1.996   4.431   8.808  0.5646  0.6256 -0.2545
 8812SOL     OW38068   4.238   3.281   2.919  0.6599 -0.4570 -0.1660
 8812SOL    HW138069   4.150   3.284   2.956  0.0104 -0.2023 -1.7428
 8812SOL    HW238070   4.267   3.204   2.967 -1.2760 -2.2582 -1.9093
 8813SOL     OW38071   0.817   3.665   0.448 -0.0983 -0.2301 -0.3402
 8813SOL    HW138072   0.880   3.736   0.450  0.7717 -1.0046 -0.0900
 8813SOL    HW238073   0.875   3.589   0.446 -0.2966 -0.3938  0.3297
 8814SOL     OW38074   0.711   1.263   9.444  0.3850  0.1319 -0.0956
 8814SOL    HW138075   0.792   1.260   9.394  0.5570 -0.8136  0.2483
 8814SOL    HW238076   0.742   1.250   9.533  1.9592  1.5115 -0.4504
 8815SOL     OW38077   1.925   1.829  15.374  0.1982  0.9049  0.2523
 8815SOL    HW138078   1.951   1.765  15.440 -2.0971  0.4587  0.7071
 8815SOL    HW238079   1.910   1.777  15.295  0.5916  0.3598  0.5382
 8816SOL     OW38080   4.703   3.476   3.505  0.3248 -0.1144  0.1447
 8816SOL    HW138081   4.676   3.566   3.519  0.8918 -0.0450  0.7751
 8816SOL    HW238082   4.653   3.446   3.428  1.6357 -1.2832 -0.2575
 8817SOL     OW38083   4.359   2.436   5.099 -0.3794 -0.0672  0.3539
 8817SOL    HW138084   4.309   2.513   5.074  0.8119  0.8176  0.7002
 8817SOL    HW238085   4.446   2.473   5.113  0.3352 -1.7579  0.4000
 8818SOL     OW38086   4.500   2.488  13.578  0.0294 -0.7923 -0.5471
 8818SOL    HW138087   4.507   2.394  13.563  2.8268 -0.7827  0.7012
 8818SOL    HW238088   4.586   2.510  13.614 -1.0673  0.9122  1.0550
 8819SOL     OW38089   2.148   1.016   1.753 -0.3755 -0.0079 -0.2623
 8819SOL    HW138090   2.201   0.997   1.676 -0.2760  1.2079 -0.4880
 8819SOL    HW238091   2.186   1.099   1.783  0.8128 -1.1406  1.3875
 8820SOL     OW38092   0.907   0.261   9.512  0.2564 -0.3072  0.1546
 8820SOL    HW138093   0.833   0.201   9.498  1.2738 -1.7851  1.2313
 8820SOL    HW238094   0.949   0.253   9.426 -0.0771  1.4992 -0.1845
 8821SOL     OW38095   1.923   3.460   8.484  0.1751  0.1172 -0.5050
 8821SOL    HW138096   1.927   3.392   8.552  0.5106  0.9400  0.2891
 8821SOL    HW238097   1.866   3.414   8.423  0.0548  0.0959 -0.3762
 8822SOL     OW38098   4.030   1.225  14.904 -0.2115  0.2206  0.3886
 8822SOL    HW138099   4.072   1.310  14.919  0.4183  0.0557 -0.4299
 8822SOL    HW238100   3.945   1.235  14.946  0.4854 -0.3693  1.9365
 8823SOL     OW38101   3.398   4.013  15.511  0.1786  0.2343  0.1003
 8823SOL    HW138102   3.492   4.023  15.525  0.5390 -0.4871 -1.8226
 8823SOL    HW238103   3.381   3.924  15.480  0.5529  0.2233 -0.0753
 8824SOL     OW38104   3.970   0.504   3.079  0.2857  0.0829  0.3720
 8824SOL    HW138105   3.892   0.450   3.090  0.2273  0.0325 -0.3243
 8824SOL    HW238106   3.944   0.545   2.997 -0.8831  0.1903  0.7965
 8825SOL     OW38107   0.074   4.720   1.502  0.1275  0.0751  0.4171
 8825SOL    HW138108   0.072   4.667   1.582 -0.0385  0.1278  0.4476
 8825SOL    HW238109   0.023   0.059   1.528 -0.6181 -0.3329  0.1317
 8826SOL     OW38110   2.635   4.004   1.952  0.2379 -0.0203 -0.1078
 8826SOL    HW138111   2.728   4.024   1.940 -0.2783  0.7999 -2.5854
 8826SOL    HW238112   2.614   3.957   1.872  1.5123 -1.1758  0.2149
 8827SOL     OW38113   2.936   1.176   7.001 -0.0231  0.2592 -0.0532
 8827SOL    HW138114   2.887   1.103   7.039  2.1483 -0.2496  1.7202
 8827SOL    HW238115   3.018   1.158   7.047 -0.2764  1.7527  0.9849
 8828SOL     OW38116   1.343   1.645   9.375 -0.6994 -0.2056 -0.0257
 8828SOL    HW138117   1.409   1.715   9.376 -0.8372 -0.0974  1.5620
 8828SOL    HW238118   1.376   1.590   9.446 -0.8889 -1.1219 -0.6512
 8829SOL     OW38119   1.985   2.922   7.924 -0.2496  0.3805 -0.2236
 8829SOL    HW138120   2.016   2.906   7.835 -0.9739 -1.9272 -0.0510
 8829SOL    HW238121   2.073   2.934   7.961 -0.2925  0.7106 -0.2296
 8830SOL     OW38122   4.139   3.882   7.091  0.5327  0.4760  0.0030
 8830SOL    HW138123   4.200   3.858   7.022  0.6042  1.2638 -0.2098
 8830SOL    HW238124   4.053   3.854   7.059  0.6544 -2.6936  2.4232
 8831SOL     OW38125   0.225   0.446   8.033 -0.0595 -0.3008 -0.3155
 8831SOL    HW138126   0.315   0.479   8.023 -0.1672  0.0957  0.0311
 8831SOL    HW238127   0.223   0.387   7.958 -0.3652 -1.9485  1.0161
 8832SOL     OW38128   4.471   3.727  10.400 -0.1226  0.6600 -0.5620
 8832SOL    HW138129   4.404   3.662  10.382  1.2787 -1.2728  1.0893
 8832SOL    HW238130   4.533   3.666  10.440  0.9020  0.8971 -1.8025
 8833SOL     OW38131   0.387   1.062   2.506  0.3309 -0.4686  0.1478
 8833SOL    HW138132   0.335   0.997   2.553 -1.8563  0.0519 -1.5734
 8833SOL    HW238133   0.446   1.009   2.452 -0.9397 -0.4247 -1.2761
 8834SOL     OW38134   3.316   0.834   6.721 -0.2062 -0.4247 -0.2497
 8834SOL    HW138135   3.307   0.800   6.632  2.3799 -0.5000 -0.4635
 8834SOL    HW238136   3.266   0.915   6.716 -0.2082 -0.3805  0.4044
 8835SOL     OW38137   1.698   1.494   3.364 -0.3712 -0.1905  0.6451
 8835SOL    HW138138   1.704   1.585   3.393 -1.2723 -0.1405  0.6688
 8835SOL    HW238139   1.784   1.476   3.324 -1.0915 -0.8321 -0.6305
 8836SOL     OW38140   0.791   1.218   9.688 -0.2275  0.2829  0.9130
 8836SOL    HW138141   0.807   1.171   9.769 -0.4197 -1.1712  0.1124
 8836SOL    HW238142   0.772   1.307   9.717 -1.2703 -0.7298  3.2926
 8837SOL     OW38143   2.063   3.461   3.472  0.1330 -0.6221  0.3012
 8837SOL    HW138144   2.106   3.468   3.387 -0.6484  1.8678  0.1255
 8837SOL    HW238145   2.132   3.424   3.526 -0.9629 -1.3788  1.1843
 8838SOL     OW38146   0.880   0.405   3.900 -0.3978  0.2358 -0.2630
 8838SOL    HW138147   0.877   0.319   3.858 -0.7273 -0.6184  1.5176
 8838SOL    HW238148   0.824   0.388   3.976  0.7248 -0.8255  0.3171
 8839SOL     OW38149   0.453   1.416   7.310 -0.2605 -0.1155  0.5264
 8839SOL    HW138150   0.492   1.449   7.392 -2.8525  0.4947  1.5193
 8839SOL    HW238151   0.482   1.484   7.249 -0.7152  0.0213  0.4609
 8840SOL     OW38152   4.532   1.593  12.278 -0.1483 -0.4157  0.3478
 8840SOL    HW138153   4.540   1.524  12.345 -2.4329  0.5635  1.6413
 8840SOL    HW238154   4.578   1.561  12.201 -0.4785  1.7455 -0.7451
 8841SOL     OW38155   0.050   2.807   9.121  1.0242 -0.1077  0.5285
 8841SOL    HW138156   0.054   2.757   9.202  1.1259 -1.1253 -0.1115
 8841SOL    HW238157   4.718   2.756   9.079  3.1571 -1.1344 -1.7422
 8842SOL     OW38158   4.263   3.682   7.779  0.4806  0.0534  0.3883
 8842SOL    HW138159   4.274   3.589   7.795 -2.0538 -0.6141 -1.7961
 8842SOL    HW238160   4.200   3.671   7.707  0.9342  0.8816 -0.1297
 8843SOL     OW38161   3.709   4.732   3.799  0.3311  0.0282 -0.0563
 8843SOL    HW138162   3.711   0.025   3.708  1.4486  2.3403  0.7335
 8843SOL    HW238163   3.714   4.637   3.786  1.3261 -0.1791  1.9007
 8844SOL     OW38164   1.002   2.020   5.075  0.4008 -0.0997 -0.4554
 8844SOL    HW138165   0.979   2.105   5.113  0.3080  1.0657 -3.1333
 8844SOL    HW238166   0.985   2.039   4.983 -1.5750  0.8830  0.1167
 8845SOL     OW38167   1.400   0.081   9.157 -0.3482  0.5491  0.5301
 8845SOL    HW138168   1.469   0.082   9.090  1.1777 -1.1557  2.0689
 8845SOL    HW238169   1.423   0.010   9.217 -1.0037 -2.2224 -2.4341
 8846SOL     OW38170   0.635   3.976   5.005  0.3722 -0.3905  0.0476
 8846SOL    HW138171   0.613   3.895   5.051 -2.1326  1.2204  1.6049
 8846SOL    HW238172   0.651   3.951   4.914 -1.2973 -1.6327  0.1035
 8847SOL     OW38173   4.063   2.620   1.293  0.3061  0.1244 -0.4283
 8847SOL    HW138174   3.993   2.627   1.227  0.1944  1.3423 -0.1916
 8847SOL    HW238175   4.127   2.687   1.268  0.7802 -0.2562 -0.2264
 8848SOL     OW38176   3.533   2.505   5.836 -0.1739  0.7810 -0.0980
 8848SOL    HW138177   3.443   2.512   5.870  0.4852 -0.1793  1.8541
 8848SOL    HW238178   3.575   2.556   5.905  1.4867 -0.7634  0.0185
 8849SOL     OW38179   4.175   4.293  15.761 -0.2491 -0.0824 -0.1291
 8849SOL    HW138180   4.192   4.334  15.846  2.2128 -2.7265  0.6687
 8849SOL    HW238181   4.237   4.345  15.711  0.8597  0.1381  1.4852
 8850SOL     OW38182   1.452   0.052   4.227 -0.1727 -0.2777 -0.5646
 8850SOL    HW138183   1.487   0.022   4.311 -0.6859  1.6606  0.3422
 8850SOL    HW238184   1.444   4.705   4.183  1.6236 -1.7071  1.8293
 8851SOL     OW38185   2.429   4.205   3.505 -0.1004 -0.0995  0.6198
 8851SOL    HW138186   2.365   4.276   3.510  0.2665  0.3242 -0.6558
 8851SOL    HW238187   2.463   4.208   3.416 -0.8713  0.0127  0.3309
 8852SOL     OW38188   0.861   4.026   8.315  0.2755  0.2987 -0.5944
 8852SOL    HW138189   0.790   4.042   8.377  1.5275 -0.8495  1.1343
 8852SOL    HW238190   0.897   3.945   8.351 -2.9745 -0.9795 -0.2013
 8853SOL     OW38191   0.373   3.901   3.309 -0.0514 -0.0077  0.2308
 8853SOL    HW138192   0.361   3.957   3.385 -1.2464  0.6362 -0.4247
 8853SOL    HW238193   0.323   3.823   3.334  2.8497 -2.2016 -0.8352
 8854SOL     OW38194   4.193   4.568   7.383 -0.3024 -0.2004 -0.5031
 8854SOL    HW138195   4.224   4.495   7.436 -1.7368  0.5187  1.3048
 8854SOL    HW238196   4.105   4.537   7.360 -0.2580 -1.5815  1.2090
 8855SOL     OW38197   0.743   2.613  14.598  0.1783 -0.6661 -0.0619
 8855SOL    HW138198   0.788   2.644  14.677  0.6416  0.2544 -0.6814
 8855SOL    HW238199   0.722   2.523  14.622 -2.5928  0.2452  0.9320
 8856SOL     OW38200   0.985   0.769   8.039 -0.0164  0.0639  0.4084
 8856SOL    HW138201   1.075   0.755   8.011  0.1906 -1.1604  1.6693
 8856SOL    HW238202   0.935   0.734   7.966  1.0738 -0.3877 -0.1023
 8857SOL     OW38203   4.556   4.721   2.357 -0.4836  0.0244  0.2572
 8857SOL    HW138204   4.630   4.696   2.412  0.0662  0.2807 -0.3652
 8857SOL    HW238205   4.601   0.017   2.279 -1.5769  0.6180 -0.1231
 8858SOL     OW38206   0.593   1.120  15.474 -0.2271  0.0300  0.0836
 8858SOL    HW138207   0.675   1.099  15.519 -0.5087 -1.2647 -0.0168
 8858SOL    HW238208   0.625   1.153  15.390  0.0974  2.2559  1.1011
 8859SOL     OW38209   3.974   0.565   3.826 -0.0827 -0.1221 -0.1075
 8859SOL    HW138210   3.929   0.481   3.823 -0.5533  0.1225  0.0304
 8859SOL    HW238211   3.973   0.595   3.916 -0.3249 -0.2186 -0.0770
 8860SOL     OW38212   4.387   2.419   8.018  0.3453  0.0105 -0.0197
 8860SOL    HW138213   4.339   2.345   8.055  0.9800  0.5214  1.8316
 8860SOL    HW238214   4.470   2.407   8.066 -0.5888  1.1733  1.8771
 8861SOL     OW38215   0.898   1.215   3.179  0.0873 -0.3390 -0.4060
 8861SOL    HW138216   0.980   1.224   3.227  1.6167  1.2861 -3.2881
 8861SOL    HW238217   0.899   1.294   3.124  3.0421 -0.1296 -0.0584
 8862SOL     OW38218   2.986   1.771  15.542 -0.2672  0.3896 -0.5867
 8862SOL    HW138219   3.030   1.686  15.551  0.9021  1.2969  2.2820
 8862SOL    HW238220   3.057   1.835  15.546  1.5934 -1.5469 -2.1969
 8863SOL     OW38221   0.300   0.813   0.875 -1.1450  0.8663 -0.1543
 8863SOL    HW138222   0.265   0.875   0.811 -0.8858  1.7511  0.5692
 8863SOL    HW238223   0.220   0.792   0.924 -1.7455 -1.0493 -1.9218
 8864SOL     OW38224   3.474   4.071   5.944  0.3192 -0.5656 -0.6633
 8864SOL    HW138225   3.496   4.164   5.947  0.3712 -0.5458 -1.5839
 8864SOL    HW238226   3.402   4.075   5.881 -0.9220  0.7608  0.8296
 8865SOL     OW38227   1.164   2.381  11.731 -0.4580 -0.2219  0.0440
 8865SOL    HW138228   1.069   2.369  11.733 -0.4754 -0.2728 -1.0765
 8865SOL    HW238229   1.189   2.295  11.697 -0.3672 -0.6075  1.0888
 8866SOL     OW38230   0.950   2.461   8.138  0.6740  0.1196  0.3748
 8866SOL    HW138231   0.975   2.467   8.046 -3.1806  0.2878 -0.6686
 8866SOL    HW238232   1.038   2.477   8.171  0.3921 -0.5387  1.4218
 8867SOL     OW38233   2.773   1.027   6.469  0.3668 -0.4976  0.4934
 8867SOL    HW138234   2.834   0.967   6.427 -0.3075 -1.8391  1.4111
 8867SOL    HW238235   2.830   1.089   6.514  0.1853 -0.4661  0.6837
 8868SOL     OW38236   0.501   0.997  12.900 -0.3372 -0.3658 -0.1610
 8868SOL    HW138237   0.438   1.019  12.832  0.4375 -1.3563 -1.1856
 8868SOL    HW238238   0.581   0.999  12.848 -1.0278  0.8796 -1.1653
 8869SOL     OW38239   4.589   3.436   8.979 -0.3521 -0.1011 -0.0113
 8869SOL    HW138240   4.639   3.355   8.968 -2.2739 -1.8943  4.1786
 8869SOL    HW238241   4.518   3.434   8.915 -0.6754 -1.2759  0.3810
 8870SOL     OW38242   4.389   1.873  15.502  0.1058 -0.0785  0.0429
 8870SOL    HW138243   4.340   1.859  15.420 -2.7802 -0.4647  1.8200
 8870SOL    HW238244   4.478   1.841  15.489  0.6243  1.3751 -0.0799
 8871SOL     OW38245   1.204   4.646  14.581  0.4563  0.0264  0.0078
 8871SOL    HW138246   1.252   4.729  14.589  0.4434  0.0596 -0.2507
 8871SOL    HW238247   1.134   4.650  14.645  2.4075  0.1279  2.1230
 8872SOL     OW38248   4.099   1.976   4.832  0.4551  0.4451 -0.0132
 8872SOL    HW138249   4.059   2.036   4.769 -2.6218 -1.4311  0.1429
 8872SOL    HW238250   4.175   1.946   4.784  0.8229 -0.1607  0.9625
 8873SOL     OW38251   4.291   2.917  17.412 -0.8097  0.0257 -0.1324
 8873SOL    HW138252   4.262   2.983  17.349  0.5743  0.5539 -0.2184
 8873SOL    HW238253   4.383   2.941  17.425 -0.8113  0.5577 -1.0924
 8874SOL     OW38254   3.641   0.135   2.892  0.0701  0.4722 -0.4327
 8874SOL    HW138255   3.729   0.168   2.911  0.2451 -0.0416 -0.3489
 8874SOL    HW238256   3.654   0.087   2.810  0.9307  0.7089 -0.4401
 8875SOL     OW38257   1.088   4.199  16.114  0.1268  0.2737  0.0500
 8875SOL    HW138258   1.018   4.238  16.062  1.0429  1.5824 -0.1994
 8875SOL    HW238259   1.152   4.188  16.044 -0.4625 -0.9565 -0.3055
 8876SOL     OW38260   1.714   3.725  12.741 -0.2019 -0.2795 -0.0095
 8876SOL    HW138261   1.623   3.744  12.717  0.1703 -0.3341 -1.4607
 8876SOL    HW238262   1.687   3.647  12.790  0.0669  0.3000  1.0712
 8877SOL     OW38263   2.576   2.919   6.815  0.3025  0.4247  0.2127
 8877SOL    HW138264   2.493   2.877   6.793  0.7765 -0.5335  0.2508
 8877SOL    HW238265   2.599   2.929   6.723  0.7578  2.3766  0.5505
 8878SOL     OW38266   3.829   2.863  10.688 -0.3310 -0.0556  0.2422
 8878SOL    HW138267   3.782   2.808  10.751 -0.3595  0.8838  1.0404
 8878SOL    HW238268   3.919   2.864  10.721 -0.6269  1.5604  0.9840
 8879SOL     OW38269   4.515   1.417   8.106  0.2618  0.1867  0.1098
 8879SOL    HW138270   4.505   1.464   8.189 -0.4030  1.2339 -0.5633
 8879SOL    HW238271   4.474   1.334   8.128 -0.1012  0.0914 -0.9511
 8880SOL     OW38272   3.915   4.416   1.004 -0.4427  0.4020 -0.4900
 8880SOL    HW138273   3.878   4.504   0.999  0.8639  1.0939  1.8885
 8880SOL    HW238274   3.914   4.385   0.913  3.5146  0.0133 -0.4166
 8881SOL     OW38275   0.860   1.693  13.404 -0.3908 -0.2190  0.3712
 8881SOL    HW138276   0.770   1.670  13.381 -1.0060  3.3489 -0.8501
 8881SOL    HW238277   0.880   1.729  13.317 -1.6891  1.1874  0.6421
 8882SOL     OW38278   3.868   1.357   1.373 -0.0390  0.0718  0.1372
 8882SOL    HW138279   3.777   1.369   1.347 -0.9396 -0.0590  3.1456
 8882SOL    HW238280   3.880   1.284   1.313  0.5206 -0.4030  0.8244
 8883SOL     OW38281   4.390   0.264  15.192 -0.0069 -0.1940  0.0331
 8883SOL    HW138282   4.313   0.227  15.149  0.5785  0.2590 -1.4004
 8883SOL    HW238283   4.385   0.222  15.278  0.3715 -1.2321 -0.4527
 8884SOL     OW38284   4.093   3.570   3.405  0.1866 -0.3515  0.3125
 8884SOL    HW138285   4.023   3.579   3.340 -0.7051 -1.2644  1.1314
 8884SOL    HW238286   4.170   3.556   3.350  0.0832 -1.0374  0.3467
 8885SOL     OW38287   1.860   4.651  11.893 -0.0806  0.0368 -0.2772
 8885SOL    HW138288   1.834   4.599  11.818 -1.2537  0.4544 -0.1500
 8885SOL    HW238289   1.775   4.680  11.927  0.9082  1.8925  0.6549
 8886SOL     OW38290   1.990   2.867  12.501  0.2578  0.3360  0.4870
 8886SOL    HW138291   2.011   2.774  12.500 -1.4558 -0.0781  2.5230
 8886SOL    HW238292   1.916   2.885  12.560  0.2888  1.7712  0.1004
 8887SOL     OW38293   3.301   2.477   4.399 -0.0621 -0.0736 -0.0853
 8887SOL    HW138294   3.213   2.505   4.373  0.0749 -1.3812 -1.9465
 8887SOL    HW238295   3.334   2.424   4.327 -2.5773  0.0960 -1.3593
 8888SOL     OW38296   0.103   4.308  14.498  0.2095 -0.2182 -0.4806
 8888SOL    HW138297   0.036   4.352  14.550 -0.2949  0.8062 -1.9770
 8888SOL    HW238298   0.055   4.277  14.422  0.9000 -0.8794 -0.6435
 8889SOL     OW38299   0.887   3.551  10.271 -0.0349  0.7877  0.3355
 8889SOL    HW138300   0.976   3.537  10.238 -0.6532 -1.1084 -0.5164
 8889SOL    HW238301   0.835   3.505  10.205 -0.3860 -1.7816  2.4359
 8890SOL     OW38302   1.647   3.179   0.803  0.2206 -0.6273  0.4399
 8890SOL    HW138303   1.583   3.114   0.774  1.2738 -1.4432 -0.0748
 8890SOL    HW238304   1.581   3.232   0.848  0.1866  0.7178 -1.1881
 8891SOL     OW38305   0.641   0.213   0.897 -0.6996  0.3523 -0.2849
 8891SOL    HW138306   0.557   0.243   0.861  0.2835  0.3096 -2.5925
 8891SOL    HW238307   0.668   0.291   0.945 -0.1921  0.6332 -1.0330
 8892SOL     OW38308   0.864   3.600  11.757  0.3614 -0.1427 -0.0233
 8892SOL    HW138309   0.788   3.571  11.808  1.4309 -0.0303  1.6204
 8892SOL    HW238310   0.927   3.615  11.828 -0.3222 -0.8684  0.7274
 8893SOL     OW38311   3.716   2.458  16.280 -0.1346  0.1253  0.2689
 8893SOL    HW138312   3.707   2.403  16.358  0.8730 -1.4806 -0.7576
 8893SOL    HW238313   3.630   2.487  16.250  1.3130  2.9277 -1.2000
 8894SOL     OW38314   1.433   2.324  13.388 -0.0557 -0.2125 -0.7660
 8894SOL    HW138315   1.375   2.252  13.415  1.9882 -0.7105  2.3607
 8894SOL    HW238316   1.380   2.403  13.398 -1.3838 -1.4771  2.3268
 8895SOL     OW38317   0.270   3.702   7.499 -0.0003 -0.0477 -0.6844
 8895SOL    HW138318   0.342   3.766   7.503 -0.2243  0.1457  0.3803
 8895SOL    HW238319   0.307   3.621   7.535  2.8213  1.5552  0.0734
 8896SOL     OW38320   0.442   1.271  10.725 -0.8377  0.0275  0.1143
 8896SOL    HW138321   0.362   1.225  10.748  0.5094 -1.0703  2.5524
 8896SOL    HW238322   0.425   1.278  10.631  0.9192 -1.0815 -0.2808
 8897SOL     OW38323   4.680   3.909   2.611 -0.5073 -0.3789  0.3079
 8897SOL    HW138324   4.605   3.968   2.608  0.0409  0.2905 -0.2970
 8897SOL    HW238325   0.003   3.937   2.681  0.1723 -0.6032 -0.1921
 8898SOL     OW38326   4.458   3.442   8.738 -0.1166 -0.0710  0.0827
 8898SOL    HW138327   4.372   3.484   8.732  1.7278  3.5379 -0.8208
 8898SOL    HW238328   4.508   3.506   8.687  2.0120 -1.4580  0.4088
 8899SOL     OW38329   2.482   0.640   1.383 -0.3375  0.4680 -0.6080
 8899SOL    HW138330   2.566   0.596   1.368 -1.7435 -2.6341  0.4827
 8899SOL    HW238331   2.468   0.687   1.301 -1.8396  1.9291  0.4759
 8900SOL     OW38332   1.501   3.128   5.227 -0.3293 -0.3536  0.0999
 8900SOL    HW138333   1.485   3.074   5.150 -1.6938  0.7567 -0.3822
 8900SOL    HW238334   1.416   3.170   5.232  0.4264  1.0706  0.7492
 8901SOL     OW38335   0.153   3.745   3.410 -0.3868  1.0115  0.1487
 8901SOL    HW138336   0.107   3.819   3.449  0.5495  2.1980 -1.0076
 8901SOL    HW238337   0.108   3.709   3.334 -0.2007 -0.0035  0.5187
 8902SOL     OW38338   4.182   1.735  14.994 -0.4324  0.3046  0.5437
 8902SOL    HW138339   4.237   1.758  14.919 -1.2973  2.6901  0.6458
 8902SOL    HW238340   4.132   1.660  14.962 -0.2312 -0.6041  2.3744
 8903SOL     OW38341   2.589   1.831   4.514 -0.1740  0.2777  0.2925
 8903SOL    HW138342   2.561   1.753   4.562  0.0821  0.0666  0.0953
 8903SOL    HW238343   2.607   1.792   4.428 -0.9329  0.6967 -0.0576
 8904SOL     OW38344   3.638   2.949  12.484 -0.2824 -0.8428  0.0170
 8904SOL    HW138345   3.622   2.944  12.579  2.9085  3.8655  0.7700
 8904SOL    HW238346   3.720   2.900  12.489  0.6015  0.7708  1.0818
 8905SOL     OW38347   0.289   2.258   5.465 -0.0893  0.1843  0.1176
 8905SOL    HW138348   0.293   2.329   5.401 -1.5226 -0.8268 -1.1115
 8905SOL    HW238349   0.194   2.244   5.463 -0.2180  1.0549  0.0630
 8906SOL     OW38350   0.415   3.822  12.889  0.0924  0.1245 -0.1620
 8906SOL    HW138351   0.455   3.841  12.974 -0.8381 -0.4786  0.4074
 8906SOL    HW238352   0.375   3.909  12.882 -0.3304  0.2368  3.7560
 8907SOL     OW38353   4.143   3.499   4.926  0.5231  0.1931 -0.2914
 8907SOL    HW138354   4.053   3.473   4.907  1.1877 -2.3271 -0.0181
 8907SOL    HW238355   4.185   3.517   4.842 -0.0919  0.7398 -0.4795
 8908SOL     OW38356   0.622   4.674  17.657  0.0748 -0.6177  0.3381
 8908SOL    HW138357   0.567   4.679  17.736 -0.0294  0.3368  0.2004
 8908SOL    HW238358   0.566   4.613  17.609 -0.3514  0.0656 -0.0143
 8909SOL     OW38359   2.426   1.921  16.910 -0.3985  0.4238  0.2038
 8909SOL    HW138360   2.420   1.830  16.941  1.8744 -0.3435 -1.6011
 8909SOL    HW238361   2.464   1.907  16.823 -1.5747 -1.5564  0.0138
 8910SOL     OW38362   4.426   0.857   3.996 -0.0528  0.0341 -0.2117
 8910SOL    HW138363   4.509   0.876   4.040  0.4257  0.1152 -1.1502
 8910SOL    HW238364   4.375   0.938   3.989  0.7246  0.7078  1.6405
 8911SOL     OW38365   2.678   1.973   4.943  0.2647  0.7935  0.3024
 8911SOL    HW138366   2.683   1.908   5.014 -1.4870  0.6105  0.2641
 8911SOL    HW238367   2.591   2.011   4.958  0.5928  1.0363  1.6287
 8912SOL     OW38368   2.768   2.214   1.399 -1.1041  0.0700  0.4945
 8912SOL    HW138369   2.690   2.190   1.350  0.8978 -2.0961 -1.5961
 8912SOL    HW238370   2.762   2.309   1.390 -1.0779  0.0394  0.1792
 8913SOL     OW38371   1.788   1.109   2.457  0.5824 -0.0321  0.0403
 8913SOL    HW138372   1.840   1.089   2.379 -0.2183  1.2020 -0.8051
 8913SOL    HW238373   1.810   1.031   2.509 -2.5449  0.3808  1.9628
 8914SOL     OW38374   0.960   3.864   3.064 -0.0706 -0.0627 -0.2634
 8914SOL    HW138375   0.945   3.906   3.149 -0.5377  1.1791 -0.9599
 8914SOL    HW238376   1.047   3.901   3.050  0.4518 -1.2663 -0.1801
 8915SOL     OW38377   3.011   4.222  14.411 -0.2665 -0.2900 -0.6526
 8915SOL    HW138378   2.945   4.166  14.370 -0.6594  0.1160 -0.5752
 8915SOL    HW238379   2.990   4.307  14.371 -1.0379 -0.7886 -1.3216
 8916SOL     OW38380   2.847   2.559  10.246  0.1619 -0.0726  0.0851
 8916SOL    HW138381   2.879   2.478  10.286 -1.1070 -1.5236 -1.8346
 8916SOL    HW238382   2.903   2.616  10.299 -1.6110  1.3350  0.4105
 8917SOL     OW38383   3.774   1.639   4.138 -0.1690 -0.5539  0.3035
 8917SOL    HW138384   3.690   1.679   4.159 -0.5508 -0.7901 -0.7401
 8917SOL    HW238385   3.742   1.566   4.084  1.2372 -1.5506  0.8159
 8918SOL     OW38386   3.688   3.850   8.184  0.1577  0.1594 -0.1079
 8918SOL    HW138387   3.768   3.902   8.170 -0.5371  1.1834 -0.2477
 8918SOL    HW238388   3.623   3.907   8.144 -0.3579  1.7249  3.0115
 8919SOL     OW38389   3.856   1.531   1.958  0.1211 -0.1313  0.5603
 8919SOL    HW138390   3.797   1.604   1.979  0.0448  0.1636 -0.6969
 8919SOL    HW238391   3.824   1.503   1.872 -0.5523 -2.0410  1.4293
 8920SOL     OW38392   2.590   0.247   1.553 -0.4652  0.1385  0.1031
 8920SOL    HW138393   2.584   0.151   1.548 -0.4198  0.1206  0.3635
 8920SOL    HW238394   2.529   0.266   1.482 -2.0009  3.2636  2.2631
 8921SOL     OW38395   3.177   2.236   1.877 -0.4871  0.5498  0.1886
 8921SOL    HW138396   3.210   2.185   1.803  0.3242 -0.4988  1.2776
 8921SOL    HW238397   3.235   2.312   1.871 -0.7549  0.7547  0.2048
 8922SOL     OW38398   2.947   4.517   2.524  0.0008 -0.0615 -0.1563
 8922SOL    HW138399   2.896   4.444   2.559 -1.7259  0.1302 -2.2993
 8922SOL    HW238400   3.014   4.529   2.592  2.0920  0.5186 -2.3130
 8923SOL     OW38401   2.770   0.206   8.423  0.3891 -0.0285  0.1060
 8923SOL    HW138402   2.702   0.149   8.459  1.0280 -0.7110  0.2582
 8923SOL    HW238403   2.755   0.198   8.329 -1.4077 -0.2000  0.4112
 8924SOL     OW38404   2.234   3.417   5.433  0.0624 -0.5705  0.1925
 8924SOL    HW138405   2.217   3.423   5.339  0.0942 -0.8276  0.1695
 8924SOL    HW238406   2.152   3.459   5.459 -0.1277 -1.3141  0.7937
 8925SOL     OW38407   1.230   2.099   3.287  0.0927 -0.0472  0.3274
 8925SOL    HW138408   1.220   2.168   3.222  0.3643  0.6709  1.0515
 8925SOL    HW238409   1.304   2.050   3.251 -2.0228 -1.9294 -1.4520
 8926SOL     OW38410   0.671   1.713   4.315  0.0396  0.1381  0.3871
 8926SOL    HW138411   0.680   1.749   4.403 -1.8889  2.8830 -0.5197
 8926SOL    HW238412   0.575   1.719   4.319 -0.1783 -2.9010 -0.4417
 8927SOL     OW38413   4.409   1.211   0.731  0.1891 -0.5391 -0.6849
 8927SOL    HW138414   4.456   1.202   0.648  2.6887  2.0108  0.4638
 8927SOL    HW238415   4.474   1.252   0.788 -0.4680  0.4045 -0.6125
 8928SOL     OW38416   0.342   4.684   3.395  0.4616 -0.2532  0.3488
 8928SOL    HW138417   0.396   4.661   3.471  0.3813 -1.6070  0.0010
 8928SOL    HW238418   0.322   4.598   3.358 -2.0355  0.9521 -1.0780
 8929SOL     OW38419   1.393   1.773   5.558 -0.6187 -0.0035 -0.0790
 8929SOL    HW138420   1.333   1.714   5.604  0.1954 -0.8752 -0.1333
 8929SOL    HW238421   1.431   1.719   5.489 -0.8068 -2.4720  1.7395
 8930SOL     OW38422   4.416   0.263   8.501  0.2106 -0.1655  0.3249
 8930SOL    HW138423   4.370   0.346   8.489  1.9976  0.5557 -1.5755
 8930SOL    HW238424   4.507   0.292   8.493  0.8956 -1.6482  2.7234
 8931SOL     OW38425   2.776   0.506   1.497 -0.0076 -0.2283 -0.2048
 8931SOL    HW138426   2.752   0.436   1.558 -0.4024  1.2101  1.2755
 8931SOL    HW238427   2.752   0.580   1.553 -0.4202  1.5267 -2.7369
 8932SOL     OW38428   2.955   1.603   3.825 -0.1882  0.1924  0.2843
 8932SOL    HW138429   3.005   1.529   3.791 -2.0477 -0.4079 -1.1384
 8932SOL    HW238430   2.951   1.579   3.918 -2.1086  0.3242  0.2421
 8933SOL     OW38431   3.233   4.475   2.348  0.0544 -0.0126  0.7398
 8933SOL    HW138432   3.176   4.503   2.276 -0.8490 -0.1737  1.3814
 8933SOL    HW238433   3.181   4.409   2.395  0.5177 -1.1378 -0.3354
 8934SOL     OW38434   0.041   0.603   2.724  0.1618  0.2861 -0.4515
 8934SOL    HW138435   0.038   0.509   2.706 -0.9575  0.4412 -1.0632
 8934SOL    HW238436   0.094   0.641   2.654 -2.2501  2.6855 -0.9461
 8935SOL     OW38437   1.021   3.936   2.171 -0.0188  0.0296 -0.3991
 8935SOL    HW138438   0.977   3.852   2.156  0.5655 -0.5262  0.9160
 8935SOL    HW238439   1.019   3.945   2.267 -0.7677 -2.5066 -0.1806
 8936SOL     OW38440   4.345   0.607   3.197  0.3182 -0.1299 -0.0516
 8936SOL    HW138441   4.383   0.652   3.122 -1.3599  0.2056 -0.6989
 8936SOL    HW238442   4.372   0.671   3.263  0.5830 -0.2213 -0.0693
 8937SOL     OW38443   1.286   4.492   2.404  0.2446 -0.1156  0.7770
 8937SOL    HW138444   1.322   4.420   2.457  0.8230 -0.5645 -0.2233
 8937SOL    HW238445   1.346   4.489   2.330  2.1360 -0.4475  2.3231
 8938SOL     OW38446   0.971   1.986  11.283  0.6832  0.1922 -0.3504
 8938SOL    HW138447   0.886   2.014  11.319 -0.4520 -1.4429 -1.7668
 8938SOL    HW238448   0.976   1.902  11.327  1.9593  1.1206  1.2906
 8939SOL     OW38449   2.486   4.146   2.768  0.0945  0.2649  0.0229
 8939SOL    HW138450   2.511   4.191   2.687  2.0086 -3.3794 -1.4273
 8939SOL    HW238451   2.393   4.127   2.757 -0.3248  1.4382  1.4932
 8940SOL     OW38452   0.175   1.569  13.632  0.3872  0.1770 -0.6483
 8940SOL    HW138453   0.157   1.532  13.719 -3.5428 -1.5964 -2.2409
 8940SOL    HW238454   0.090   1.553  13.592  0.6292 -2.2051 -0.2138
 8941SOL     OW38455   1.808   2.940   8.230 -0.8057 -0.7867 -0.1202
 8941SOL    HW138456   1.794   3.016   8.285 -0.1491 -0.3210 -0.6050
 8941SOL    HW238457   1.809   2.985   8.145  2.3594  1.1450  0.9517
 8942SOL     OW38458   2.386   0.863   3.556  0.6855 -0.3203  0.3594
 8942SOL    HW138459   2.364   0.943   3.603  3.2107  0.1713  0.6953
 8942SOL    HW238460   2.334   0.860   3.476  0.0910 -0.5841  0.7596
 8943SOL     OW38461   3.862   1.643   7.019  0.2258 -0.2667  0.5964
 8943SOL    HW138462   3.941   1.696   7.007 -0.5028  0.5472 -0.5908
 8943SOL    HW238463   3.900   1.573   7.073 -0.3428 -0.7637  0.3466
 8944SOL     OW38464   3.723   2.635  14.616  0.1381 -0.0202 -0.1277
 8944SOL    HW138465   3.753   2.726  14.620 -0.3701  0.2836 -3.0183
 8944SOL    HW238466   3.768   2.604  14.694 -0.5033 -1.8444 -0.4800
 8945SOL     OW38467   2.127   1.079   2.544  0.3076  0.2588 -0.6690
 8945SOL    HW138468   2.098   0.988   2.538  1.8077 -0.1482 -1.9150
 8945SOL    HW238469   2.062   1.114   2.483 -0.4101  1.2732  0.6896
 8946SOL     OW38470   4.026   2.215   8.187  0.6165  0.0795  0.0498
 8946SOL    HW138471   4.003   2.154   8.258 -0.0648 -0.8632 -0.9777
 8946SOL    HW238472   4.119   2.193   8.184  0.2796 -1.5529  1.0973
 8947SOL     OW38473   3.471   2.407   6.774  0.6953  0.3743  0.2689
 8947SOL    HW138474   3.547   2.378   6.724  0.7392 -0.6379  0.9316
 8947SOL    HW238475   3.528   2.459   6.831  0.3794 -0.3869  1.2800
 8948SOL     OW38476   3.993   2.699   3.132  0.2413 -0.0772 -0.6924
 8948SOL    HW138477   3.909   2.718   3.173 -0.0143 -2.3387 -0.1436
 8948SOL    HW238478   3.952   2.679   3.048 -2.9108  0.5679  0.7038
 8949SOL     OW38479   0.964   2.854   7.147 -0.3340  0.1187 -0.1047
 8949SOL    HW138480   0.978   2.913   7.073  3.8267  0.0417  0.5799
 8949SOL    HW238481   0.971   2.767   7.107  0.3870  1.3208 -2.6033
 8950SOL     OW38482   2.848   0.366  15.851  0.4919 -0.1431 -0.0647
 8950SOL    HW138483   2.829   0.390  15.942 -1.4132  1.7340 -0.9548
 8950SOL    HW238484   2.777   0.407  15.802  0.5085 -0.8887 -0.7222
 8951SOL     OW38485   4.083   4.644   5.974 -0.0718  0.1871  0.0437
 8951SOL    HW138486   4.133   4.602   5.905 -0.6906  2.5175 -1.8380
 8951SOL    HW238487   4.144   4.716   5.993  2.0125 -1.6885  0.3896
 8952SOL     OW38488   3.638   0.409   5.052  0.6513 -0.0394 -0.2179
 8952SOL    HW138489   3.666   0.416   4.960  1.7221  0.3884  0.1432
 8952SOL    HW238490   3.550   0.373   5.040  0.7364  0.1355 -1.3918
 8953SOL     OW38491   3.348   1.627   4.018  0.2601  0.1011 -0.0738
 8953SOL    HW138492   3.364   1.551   4.074  0.0577 -1.0230 -1.5431
 8953SOL    HW238493   3.396   1.695   4.065 -1.9974  1.7380 -0.1386
 8954SOL     OW38494   0.908   3.859   1.495  0.5941 -0.1105  0.3220
 8954SOL    HW138495   0.895   3.947   1.461  1.0440  0.0856  0.6579
 8954SOL    HW238496   0.836   3.860   1.559 -0.1160 -2.6496 -0.4345
 8955SOL     OW38497   3.915   3.606  16.319 -0.1078  0.7405 -0.1936
 8955SOL    HW138498   3.924   3.701  16.326  3.0849  0.3481  0.9036
 8955SOL    HW238499   3.892   3.593  16.227  0.0121 -0.2076 -0.0930
 8956SOL     OW38500   0.967   2.924  12.297 -0.1022  0.3113 -0.5331
 8956SOL    HW138501   1.007   3.009  12.315  0.1281 -0.0443  0.6015
 8956SOL    HW238502   0.935   2.954  12.212 -0.3471 -3.8495 -1.8980
 8957SOL     OW38503   4.592   1.525  13.148 -0.3220 -0.1831 -0.1384
 8957SOL    HW138504   4.662   1.490  13.092 -1.8272 -1.2792 -1.3024
 8957SOL    HW238505   4.616   1.617  13.162 -1.5543 -0.2388  2.4243
 8958SOL     OW38506   0.360   2.280  16.102  0.7302  0.2290 -0.3403
 8958SOL    HW138507   0.397   2.193  16.122 -1.5591 -0.3983  1.1261
 8958SOL    HW238508   0.313   2.254  16.022 -0.9777  0.2949  0.6501
 8959SOL     OW38509   1.997   0.512   4.656  0.1479 -0.9738  0.0929
 8959SOL    HW138510   2.062   0.582   4.653 -0.1982 -0.6923 -0.9522
 8959SOL    HW238511   2.004   0.482   4.565 -2.2208  0.5708 -0.6038
 8960SOL     OW38512   4.247   3.335   9.151 -0.6319 -0.0620 -0.4007
 8960SOL    HW138513   4.281   3.405   9.207 -0.2291  0.5242 -1.3881
 8960SOL    HW238514   4.235   3.378   9.066 -1.6097 -0.2588 -0.3655
 8961SOL     OW38515   2.435   2.059   5.031  0.3206  0.0027  0.4591
 8961SOL    HW138516   2.456   2.072   5.124 -0.2026 -1.8669  0.8414
 8961SOL    HW238517   2.342   2.044   5.047  0.7782 -4.8198 -1.3474
 8962SOL     OW38518   1.386   0.621   3.847  0.3023 -0.0615 -0.0955
 8962SOL    HW138519   1.423   0.701   3.811  1.1993  0.6467  2.3724
 8962SOL    HW238520   1.302   0.616   3.802 -0.1505 -1.1060  0.8503
 8963SOL     OW38521   2.196   3.135   6.356  0.3011  0.8864  0.2394
 8963SOL    HW138522   2.170   3.200   6.421  0.9361  1.7383 -0.3583
 8963SOL    HW238523   2.207   3.184   6.275  2.4238  0.5426  0.3142
 8964SOL     OW38524   0.769   3.312   8.551  0.0603  0.1444  0.4135
 8964SOL    HW138525   0.689   3.303   8.603 -2.3167  0.8564 -3.1415
 8964SOL    HW238526   0.827   3.309   8.627 -0.8286  0.7149  1.1185
 8965SOL     OW38527   3.627   3.473   8.510 -0.3557 -0.0288  0.1171
 8965SOL    HW138528   3.639   3.397   8.567  0.5155  0.1646  0.1947
 8965SOL    HW238529   3.571   3.528   8.565 -0.7995 -1.2627  0.8884
 8966SOL     OW38530   3.940   1.577   3.805  0.6415 -0.0313  0.3272
 8966SOL    HW138531   3.855   1.603   3.768  0.1953 -2.5690 -0.4556
 8966SOL    HW238532   3.915   1.529   3.884  0.0061  1.1530  0.8528
 8967SOL     OW38533   4.091   3.784  11.399  0.5941 -0.3695  0.0699
 8967SOL    HW138534   4.085   3.780  11.494 -0.7095  0.0459  0.0103
 8967SOL    HW238535   4.186   3.785  11.387  0.4779  0.0802 -0.8158
 8968SOL     OW38536   0.938   2.522   1.490  0.2272 -0.2895  0.1095
 8968SOL    HW138537   0.850   2.520   1.451  0.5027  0.8006 -0.5806
 8968SOL    HW238538   0.976   2.449   1.441  0.1493 -1.6770  2.0986
 8969SOL     OW38539   3.613   3.314  11.526  0.8678  0.0226 -0.1282
 8969SOL    HW138540   3.624   3.314  11.431 -1.6048  0.5036 -0.4205
 8969SOL    HW238541   3.634   3.406  11.544  1.8281  0.0190 -1.1987
 8970SOL     OW38542   0.362   1.268  17.716  0.0350  0.2713  0.3174
 8970SOL    HW138543   0.289   1.329  17.726  1.0619  1.6424 -0.5795
 8970SOL    HW238544   0.402   1.308  17.639  0.5986  0.5131  0.7283
 8971SOL     OW38545   3.960   4.428   7.310  0.7520  0.0928  0.6227
 8971SOL    HW138546   3.901   4.354   7.328 -0.0596  1.2897  2.8513
 8971SOL    HW238547   3.900   4.493   7.275 -0.3567 -2.1659 -1.7006
 8972SOL     OW38548   3.481   2.484   3.769 -0.3201  0.1810  0.0494
 8972SOL    HW138549   3.487   2.396   3.806 -3.3045 -0.8538 -1.8984
 8972SOL    HW238550   3.462   2.515   3.857  2.4655  0.0636  0.7005
 8973SOL     OW38551   0.071   4.064   2.004 -0.7888  0.6355 -0.1357
 8973SOL    HW138552   4.719   4.032   1.988 -1.0496  0.9271  0.7598
 8973SOL    HW238553   0.073   4.149   1.961 -0.5157  0.8549  0.3238
 8974SOL     OW38554   3.922   2.542   9.311  0.4024  0.3287  0.3727
 8974SOL    HW138555   3.847   2.601   9.300  1.0419  1.1467  0.4126
 8974SOL    HW238556   3.893   2.489   9.385 -1.9986 -1.2056 -1.6792
 8975SOL     OW38557   3.073   2.356  10.061  0.0346  0.5440  0.0165
 8975SOL    HW138558   3.067   2.450  10.079 -0.5563  0.3197  0.9554
 8975SOL    HW238559   3.115   2.325  10.140 -3.2937 -0.7554  1.2883
 8976SOL     OW38560   2.821   0.231   5.804 -0.8723 -0.1816 -0.2705
 8976SOL    HW138561   2.732   0.226   5.840 -0.8833  0.3861 -0.2159
 8976SOL    HW238562   2.865   0.184   5.875  0.7110  1.6936 -0.0009
 8977SOL     OW38563   2.035   4.364   2.695 -0.3046  0.0713 -0.3948
 8977SOL    HW138564   2.110   4.317   2.660 -1.1933 -1.6403  0.0050
 8977SOL    HW238565   1.986   4.287   2.723 -0.1989 -0.5895 -2.0280
 8978SOL     OW38566   2.770   2.658  16.739  0.3842 -0.4094  0.2724
 8978SOL    HW138567   2.762   2.656  16.835  2.3847 -0.6118  0.4351
 8978SOL    HW238568   2.719   2.584  16.706  2.2350 -1.4054 -0.3146
 8979SOL     OW38569   1.837   1.522   5.943  0.2276  0.0310 -0.0978
 8979SOL    HW138570   1.781   1.597   5.926  0.7812  0.8966  1.8283
 8979SOL    HW238571   1.792   1.478   6.015  0.8597 -3.3966 -1.7848
 8980SOL     OW38572   4.010   1.409   3.416 -0.0662 -0.2022 -0.0266
 8980SOL    HW138573   3.958   1.374   3.489 -1.5578  1.8879 -0.0940
 8980SOL    HW238574   4.049   1.327   3.385  0.8118  0.0624  0.3923
 8981SOL     OW38575   4.490   1.459   6.339 -0.5908 -0.0155 -0.1229
 8981SOL    HW138576   4.445   1.375   6.332  2.9235 -1.9320  0.2940
 8981SOL    HW238577   4.463   1.494   6.424  2.5769 -1.4395  1.4447
 8982SOL     OW38578   2.963   4.421   2.871 -0.2954  0.5044 -0.6612
 8982SOL    HW138579   3.026   4.452   2.806  0.0605 -2.9171 -1.9067
 8982SOL    HW238580   2.902   4.368   2.821 -2.0453  0.6481  1.3161
 8983SOL     OW38581   0.397   4.733   4.978 -0.4386  0.2439 -0.1327
 8983SOL    HW138582   0.377   0.077   5.024  1.0082  1.4337 -1.6131
 8983SOL    HW238583   0.431   0.038   4.899  2.2424  1.4141  1.6237
 8984SOL     OW38584   0.338   1.066  15.383 -0.2325  0.3658 -0.0524
 8984SOL    HW138585   0.427   1.034  15.401 -0.4203 -0.1233  0.0113
 8984SOL    HW238586   0.306   0.983  15.347 -1.6612  1.1188 -0.4831
 8985SOL     OW38587   2.476   3.246  11.500 -0.1046  0.4179 -0.5867
 8985SOL    HW138588   2.565   3.213  11.506 -0.8403 -1.1563  1.5404
 8985SOL    HW238589   2.428   3.212  11.576  1.9038 -0.6706  0.1990
 8986SOL     OW38590   1.740   3.570   1.714 -0.4395  0.0660  0.0665
 8986SOL    HW138591   1.774   3.656   1.741  1.0379 -0.0396 -1.4321
 8986SOL    HW238592   1.663   3.562   1.770 -0.4951 -0.6863 -0.1282
 8987SOL     OW38593   4.152   1.342   0.756 -0.2960  0.5185  0.9963
 8987SOL    HW138594   4.235   1.302   0.733  0.0417  2.1341 -0.5613
 8987SOL    HW238595   4.094   1.272   0.725  1.8509 -0.4232 -0.9126
 8988SOL     OW38596   4.727   4.629   1.097 -0.4838  0.0342  0.2210
 8988SOL    HW138597   0.051   4.561   1.070 -0.0805  1.6253 -2.8192
 8988SOL    HW238598   4.706   4.589   1.182  0.2452  0.6101  0.6822
 8989SOL     OW38599   2.763   0.136   4.756 -0.5039  0.5588 -0.4700
 8989SOL    HW138600   2.700   0.074   4.792  0.3333  0.5912  1.0629
 8989SOL    HW238601   2.828   0.074   4.723  1.7624  2.9866 -0.6541
 8990SOL     OW38602   4.016   1.529   2.939 -0.2742 -0.4124 -0.1346
 8990SOL    HW138603   4.021   1.447   2.889 -1.6334 -1.5892  1.6625
 8990SOL    HW238604   4.107   1.531   2.966 -0.5549  0.3393  0.7532
 8991SOL     OW38605   0.446   0.806   1.162 -0.1276 -0.3925 -0.0608
 8991SOL    HW138606   0.510   0.874   1.144 -0.7956 -0.3905 -2.4465
 8991SOL    HW238607   0.383   0.824   1.092 -1.2544  0.2552  1.1179
 8992SOL     OW38608   1.889   4.735   5.659 -0.1881  0.1836  0.4382
 8992SOL    HW138609   1.843   4.675   5.717 -0.3380  1.1727  1.3371
 8992SOL    HW238610   1.824   0.005   5.589 -0.0739 -1.3881  0.1620
 8993SOL     OW38611   2.190   0.489   3.851 -0.0949  0.0096 -0.4009
 8993SOL    HW138612   2.185   0.583   3.869 -0.7156  0.0011 -0.5136
 8993SOL    HW238613   2.189   0.482   3.756 -4.2556 -1.4867 -0.2514
 8994SOL     OW38614   1.036   1.187  17.519  0.4302 -0.4576 -0.3458
 8994SOL    HW138615   1.005   1.174  17.609 -0.0032  1.8644 -0.1621
 8994SOL    HW238616   1.074   1.100  17.511  0.4433 -0.4442 -0.4267
 8995SOL     OW38617   0.795   3.288   2.408 -0.2097  0.1831 -0.3269
 8995SOL    HW138618   0.829   3.275   2.320  1.2956  2.0987 -0.0139
 8995SOL    HW238619   0.770   3.197   2.427 -0.3771  0.4722  0.8279
 8996SOL     OW38620   2.490   1.236   5.524 -0.2383 -0.0605 -0.2771
 8996SOL    HW138621   2.516   1.230   5.433  1.3882  0.2474  0.1707
 8996SOL    HW238622   2.478   1.328   5.549 -1.4672 -0.1445 -0.5716
 8997SOL     OW38623   1.038   1.625   2.940  0.0312  0.4666  0.3295
 8997SOL    HW138624   1.121   1.668   2.920 -1.0209  2.2872 -0.1218
 8997SOL    HW238625   1.015   1.598   2.851 -0.5678 -1.5227  1.0912
 8998SOL     OW38626   2.639   2.939   4.663  0.3495  0.0167  0.3356
 8998SOL    HW138627   2.694   2.910   4.590 -0.9742  0.3899 -0.7908
 8998SOL    HW238628   2.576   2.868   4.677  0.7176 -0.3773 -0.0017
 8999SOL     OW38629   2.150   1.588   8.771 -0.4725 -0.4091  0.2837
 8999SOL    HW138630   2.205   1.574   8.695  0.8428  2.5974  0.7127
 8999SOL    HW238631   2.159   1.508   8.824 -1.8020 -1.0534 -0.4540
 9000SOL     OW38632   1.506   0.461  14.369  0.1811  0.2089  0.4138
 9000SOL    HW138633   1.590   0.502  14.352  0.4128  0.0540  1.1915
 9000SOL    HW238634   1.459   0.535  14.408 -0.3880 -0.7133  1.4827
 9001SOL     OW38635   3.925   0.244   2.753  0.4259  0.1428 -0.1609
 9001SOL    HW138636   3.942   0.251   2.847  1.2017 -0.7389 -0.2334
 9001SOL    HW238637   3.963   0.323   2.715 -2.0158 -0.0909 -3.0934
 9002SOL     OW38638   0.303   2.532   2.856 -0.4597 -0.5111 -0.1005
 9002SOL    HW138639   0.358   2.495   2.925  1.4416  0.8237 -0.8967
 9002SOL    HW238640   0.367   2.543   2.785  0.7429 -3.1504  0.5640
 9003SOL     OW38641   2.331   0.528   4.118  0.5346  0.0009 -0.1047
 9003SOL    HW138642   2.424   0.544   4.133  0.4541 -0.0931  0.5033
 9003SOL    HW238643   2.346   0.527   4.024  0.3120  1.2247 -0.1584
 9004SOL     OW38644   0.000   1.599   4.813 -0.2272  0.1480  0.1642
 9004SOL    HW138645   0.013   1.685   4.853 -0.2984 -0.4581  1.4829
 9004SOL    HW238646   0.064   1.541   4.854 -0.9197 -1.0769 -0.4921
 9005SOL     OW38647   0.602   3.547   5.315 -0.1393 -0.1563  0.3476
 9005SOL    HW138648   0.692   3.530   5.291 -0.2050 -1.1758  0.8295
 9005SOL    HW238649   0.582   3.639   5.331  0.8399  0.0942  0.0952
 9006SOL     OW38650   4.532   3.829   6.001  0.0339 -0.2401 -0.1261
 9006SOL    HW138651   4.561   3.794   5.917 -0.5613  1.5070 -1.0672
 9006SOL    HW238652   4.542   3.749   6.052  0.6015 -1.1335 -1.6343
 9007SOL     OW38653   4.715   1.900   9.372  0.2061 -0.1224  0.2485
 9007SOL    HW138654   4.725   1.887   9.466 -2.0745 -1.3865  0.3361
 9007SOL    HW238655   0.056   1.850   9.352  0.8144  1.3874 -1.1689
 9008SOL     OW38656   3.721   4.117   3.070 -0.2111  0.3451 -0.4029
 9008SOL    HW138657   3.794   4.072   3.114 -2.1487 -0.7925  1.6414
 9008SOL    HW238658   3.655   4.113   3.140  1.8101 -0.8604  1.4408
 9009SOL     OW38659   3.065   1.524   3.189  0.0130 -0.3139 -0.1339
 9009SOL    HW138660   3.045   1.454   3.127  0.0161  1.9714 -2.7272
 9009SOL    HW238661   3.055   1.602   3.135 -0.2703 -0.9570 -1.0023
 9010SOL     OW38662   2.510   2.167   9.838  0.2353  0.3135  0.2932
 9010SOL    HW138663   2.506   2.184   9.932  0.5829 -1.6921  0.6767
 9010SOL    HW238664   2.597   2.129   9.841 -0.2526 -0.7852  0.6235
 9011SOL     OW38665   0.009   2.998   3.702 -0.1163 -0.5388 -0.1853
 9011SOL    HW138666   0.089   3.002   3.649 -0.1670  1.3814 -0.1051
 9011SOL    HW238667   0.038   2.933   3.766  0.2368 -1.1640 -0.9796
 9012SOL     OW38668   4.712   0.075  13.331  0.3170  0.6563 -0.4486
 9012SOL    HW138669   4.649   0.117  13.272  1.5798  0.4933 -1.8954
 9012SOL    HW238670   4.689   0.099  13.421  1.9884 -0.5875  0.2909
 9013SOL     OW38671   1.630   2.876   4.476  0.0628  0.4255  0.2030
 9013SOL    HW138672   1.622   2.780   4.472  0.5152  0.3107  2.0981
 9013SOL    HW238673   1.688   2.892   4.402  1.4905 -0.6987  1.0885
 9014SOL     OW38674   0.601   1.652   1.562  0.4369 -0.3104 -0.8181
 9014SOL    HW138675   0.630   1.737   1.597  0.8524 -0.7917  0.0152
 9014SOL    HW238676   0.515   1.675   1.529  0.2750  2.2483  1.3455
 9015SOL     OW38677   2.995   4.467   3.139 -0.0466  0.1983 -0.2980
 9015SOL    HW138678   2.944   4.544   3.160 -2.3821 -1.7759  1.2643
 9015SOL    HW238679   2.984   4.446   3.046  1.6214 -0.5833 -0.3182
 9016SOL     OW38680   2.032   3.177   7.775 -0.3897  0.3967  0.2475
 9016SOL    HW138681   2.119   3.172   7.735  0.3048 -1.2764  1.9655
 9016SOL    HW238682   2.037   3.168   7.870  0.3000 -0.1895  0.1545
 9017SOL     OW38683   3.875   0.194   6.267 -0.4252 -0.1917  0.1898
 9017SOL    HW138684   3.867   0.129   6.336 -2.5915 -0.5605 -0.3992
 9017SOL    HW238685   3.964   0.175   6.238 -0.6070  2.6631 -2.2400
 9018SOL     OW38686   1.996   2.749   5.158 -0.7437  0.3371 -0.4012
 9018SOL    HW138687   1.919   2.728   5.105 -0.2880  1.6162 -1.6062
 9018SOL    HW238688   1.998   2.673   5.215 -1.4143 -0.1674 -1.0553
 9019SOL     OW38689   2.930   3.474   9.376 -0.2343  0.1910 -0.6072
 9019SOL    HW138690   2.905   3.518   9.457 -1.1266  0.1865 -0.8806
 9019SOL    HW238691   2.969   3.548   9.330  0.0621 -0.6576 -1.7251
 9020SOL     OW38692   2.840   3.682   6.299  0.2302 -0.0508  0.3293
 9020SOL    HW138693   2.926   3.640   6.305  0.4002  0.3121  0.4364
 9020SOL    HW238694   2.821   3.692   6.206  0.6850  0.1723  0.2561
 9021SOL     OW38695   2.630   0.916   7.646 -0.0739 -0.6722 -0.0079
 9021SOL    HW138696   2.541   0.948   7.664  1.5235  1.5879  3.7192
 9021SOL    HW238697   2.628   0.844   7.710 -1.8936 -1.2516 -0.7163
 9022SOL     OW38698   3.534   2.844   4.623 -0.2205 -0.0145  0.1301
 9022SOL    HW138699   3.532   2.852   4.719  2.6185  1.3879  0.0851
 9022SOL    HW238700   3.525   2.751   4.604  0.8308 -0.5735  2.3220
 9023SOL     OW38701   1.052   4.054   5.965  0.5209 -0.1280 -0.0037
 9023SOL    HW138702   1.144   4.034   5.981 -0.0605 -1.5135  1.6305
 9023SOL    HW238703   1.057   4.104   5.884 -1.9310 -0.2509 -0.2384
 9024SOL     OW38704   4.449   4.060   8.757 -0.1582 -0.0328 -0.0645
 9024SOL    HW138705   4.372   4.058   8.700 -0.7185  1.7860  0.6337
 9024SOL    HW238706   4.478   4.151   8.760  1.4842 -0.5323 -0.4242
 9025SOL     OW38707   4.697   2.064   0.362  0.1665 -0.0454  0.0300
 9025SOL    HW138708   4.641   1.997   0.323 -1.0632  2.6354 -2.7058
 9025SOL    HW238709   4.698   2.133   0.297 -0.3456 -0.2726 -0.2142
 9026SOL     OW38710   1.973   1.914   7.813  0.3294 -0.0756 -0.8398
 9026SOL    HW138711   2.037   1.972   7.854  0.0974 -1.3469  1.2951
 9026SOL    HW238712   1.922   1.891   7.890  0.4863  1.2033 -0.3554
 9027SOL     OW38713   1.546   0.058   5.501 -0.6314 -0.3227 -0.0809
 9027SOL    HW138714   1.561   0.054   5.595 -0.4969  1.1206 -0.0341
 9027SOL    HW238715   1.504   4.710   5.495 -0.7012 -0.3954  1.3849
 9028SOL     OW38716   0.840   0.111  17.281  0.5820  0.0383 -0.3546
 9028SOL    HW138717   0.810   0.137  17.368 -0.7078  0.3967 -0.9033
 9028SOL    HW238718   0.802   0.025  17.262  1.4329 -0.2740 -0.6242
 9029SOL     OW38719   1.641   1.972  15.725  0.8114 -1.0188  0.3245
 9029SOL    HW138720   1.686   2.018  15.654 -1.3992 -0.3813 -0.6588
 9029SOL    HW238721   1.560   2.023  15.724  2.3923  1.5447  3.0180
 9030SOL     OW38722   1.759   1.655  16.060  0.1076  0.1764  0.1989
 9030SOL    HW138723   1.763   1.580  16.000  1.0509  0.6913 -0.3735
 9030SOL    HW238724   1.675   1.640  16.104  1.4692  1.8341  3.4117
 9031SOL     OW38725   3.849   1.383   9.357  0.5474  0.3821 -0.1896
 9031SOL    HW138726   3.761   1.345   9.364  0.2269  0.8128 -1.7995
 9031SOL    HW238727   3.903   1.316   9.317  2.6209  1.2393  1.2233
 9032SOL     OW38728   4.149   0.396   8.491 -0.3376  0.1484 -0.1782
 9032SOL    HW138729   4.143   0.308   8.529  0.5849 -0.1332 -0.6752
 9032SOL    HW238730   4.100   0.441   8.559 -1.5567  0.5405 -1.3128
 9033SOL     OW38731   0.506   3.184   9.805  0.2564  0.1703 -0.8964
 9033SOL    HW138732   0.508   3.239   9.726  2.0061  0.0059 -0.9514
 9033SOL    HW238733   0.462   3.243   9.867  1.8423 -1.3282  1.6438
 9034SOL     OW38734   0.971   1.214  14.369  0.4891 -0.4242 -0.5997
 9034SOL    HW138735   0.941   1.244  14.283 -0.8199  0.7769  0.2873
 9034SOL    HW238736   0.890   1.230  14.417  0.2372  1.4534 -1.6122
 9035SOL     OW38737   4.713   0.150   5.194  0.4558  0.2764 -0.0009
 9035SOL    HW138738   0.056   0.102   5.213  0.2176  0.4066  1.3379
 9035SOL    HW238739   0.006   0.237   5.220  0.4519  0.4460 -0.5770
 9036SOL     OW38740   0.489   4.142   2.690 -0.2193 -0.2407  0.7016
 9036SOL    HW138741   0.429   4.121   2.762 -1.9759 -2.1057 -1.3304
 9036SOL    HW238742   0.432   4.120   2.616 -0.2704  0.0795  0.6440
 9037SOL     OW38743   1.108   4.093   7.374 -0.0257 -0.4087  0.0700
 9037SOL    HW138744   1.078   4.126   7.290  1.5069  0.9449  0.0390
 9037SOL    HW238745   1.198   4.067   7.354  0.0782  0.7409 -0.9673
 9038SOL     OW38746   2.530   0.980   8.526  0.5940 -0.0170 -0.5376
 9038SOL    HW138747   2.474   1.055   8.507 -0.3632  0.1337  3.0530
 9038SOL    HW238748   2.597   0.991   8.457 -1.4554  0.4997 -2.4547
 9039SOL     OW38749   4.395   2.798  11.219 -0.3333 -0.5459 -0.6154
 9039SOL    HW138750   4.356   2.747  11.290 -0.0111 -1.7337 -1.2924
 9039SOL    HW238751   4.479   2.831  11.251 -0.2022  0.4198 -1.9686
 9040SOL     OW38752   4.393   1.723   5.315  0.1343 -0.0444  0.2184
 9040SOL    HW138753   4.380   1.758   5.403 -0.5828  0.8925 -0.2566
 9040SOL    HW238754   4.362   1.799   5.266  1.7067  2.3793  3.0023
 9041SOL     OW38755   0.566   4.338   7.435 -0.0704 -0.1701  0.3146
 9041SOL    HW138756   0.575   4.247   7.407  0.9702 -0.3010  1.0777
 9041SOL    HW238757   0.553   4.395   7.360  0.0291 -0.6365 -0.0559
 9042SOL     OW38758   1.018   1.145   5.471 -0.2726 -0.5925  0.2712
 9042SOL    HW138759   0.972   1.067   5.441 -2.8374  0.7022  0.7590
 9042SOL    HW238760   1.106   1.109   5.467 -0.9430 -2.1019 -0.7775
 9043SOL     OW38761   2.081   3.874   6.158 -0.1675  0.9148 -0.4202
 9043SOL    HW138762   2.149   3.808   6.145 -0.3021  0.3737  1.7024
 9043SOL    HW238763   2.079   3.884   6.253 -0.5677 -1.1848 -0.1921
 9044SOL     OW38764   2.788   4.520   3.358  0.2433 -0.2736 -0.2344
 9044SOL    HW138765   2.810   4.554   3.445  1.0290 -1.3087 -0.0386
 9044SOL    HW238766   2.807   4.427   3.362 -0.3168 -0.3205  1.5527
 9045SOL     OW38767   1.617   0.694  11.015 -0.3935  0.5857  0.1424
 9045SOL    HW138768   1.607   0.629  10.946  2.1086  0.6488 -0.2729
 9045SOL    HW238769   1.619   0.773  10.962  3.1217  2.2492  2.7419
 9046SOL     OW38770   4.432   3.915   1.685  0.2412  0.5562  0.0305
 9046SOL    HW138771   4.337   3.910   1.682  0.2904 -0.2393 -0.2619
 9046SOL    HW238772   4.447   3.963   1.767  1.6608  0.4924 -0.1853
 9047SOL     OW38773   0.659   2.447  12.828 -0.2964  0.4474 -0.3553
 9047SOL    HW138774   0.713   2.446  12.749  0.7394  1.0948  0.3297
 9047SOL    HW238775   0.667   2.538  12.859 -0.5902 -0.2102  1.6324
 9048SOL     OW38776   2.049   1.215   6.945 -0.2870  0.5575 -0.4041
 9048SOL    HW138777   2.033   1.192   6.853 -1.7371 -1.4826  0.3526
 9048SOL    HW238778   2.144   1.206   6.953 -0.4670  0.5759  1.8624
 9049SOL     OW38779   0.202   0.297   1.824  0.0380  0.4831  0.7100
 9049SOL    HW138780   0.153   0.282   1.904 -0.7485  0.0775  0.1469
 9049SOL    HW238781   0.138   0.283   1.754 -1.3002  0.4511  1.9401
 9050SOL     OW38782   1.446   0.304  15.084 -1.1293  0.0070 -0.0727
 9050SOL    HW138783   1.506   0.251  15.137 -0.5965  0.1107 -0.5713
 9050SOL    HW238784   1.442   0.385  15.134  0.5012  0.1782 -0.2083
 9051SOL     OW38785   1.620   3.506   2.750  0.1648 -0.8007 -0.1800
 9051SOL    HW138786   1.589   3.597   2.751  2.5198 -0.0057  0.8502
 9051SOL    HW238787   1.701   3.515   2.699 -0.7415 -0.5542 -1.5631
 9052SOL     OW38788   3.168   2.754   3.384  0.2176 -0.8577  0.1429
 9052SOL    HW138789   3.076   2.728   3.393  0.9729 -3.2533  0.8627
 9052SOL    HW238790   3.212   2.716   3.460  0.6670  0.6999  0.6516
 9053SOL     OW38791   1.978   4.258  15.422  0.2483  0.1137 -0.4646
 9053SOL    HW138792   2.006   4.170  15.396 -1.9234 -0.1384 -1.9836
 9053SOL    HW238793   1.985   4.261  15.517  0.5544  2.8235 -0.5729
 9054SOL     OW38794   4.705   0.287   2.710  0.5249 -0.0090 -0.3507
 9054SOL    HW138795   4.645   0.261   2.640 -0.1323 -0.8874  0.5428
 9054SOL    HW238796   0.011   0.205   2.730  1.6884  0.5124 -0.7014
 9055SOL     OW38797   3.401   4.096  13.797  0.2181  0.3929 -0.0652
 9055SOL    HW138798   3.338   4.071  13.864  0.1555  1.7044  0.3567
 9055SOL    HW238799   3.360   4.056  13.720  0.5324  0.3246 -0.1968
 9056SOL     OW38800   1.649   2.864   6.407 -0.6297  0.0643  0.3129
 9056SOL    HW138801   1.729   2.917   6.399 -0.0306 -1.0402 -1.0030
 9056SOL    HW238802   1.592   2.935   6.437  0.0926  0.9904 -0.4783
 9057SOL     OW38803   4.427   3.163   6.027  0.0104  0.7118 -0.0400
 9057SOL    HW138804   4.497   3.099   6.039 -0.1938 -0.4422 -4.9831
 9057SOL    HW238805   4.481   3.214   5.967  1.1185 -0.8844 -0.3939
 9058SOL     OW38806   4.297   3.982   5.507  0.6090 -0.0170  0.0036
 9058SOL    HW138807   4.315   3.977   5.413  2.0364  2.1511  0.1670
 9058SOL    HW238808   4.204   3.960   5.501  0.8275 -0.9407 -0.0122
 9059SOL     OW38809   1.916   2.861   2.980  0.1132  1.0140  0.4430
 9059SOL    HW138810   1.972   2.836   3.054  1.4970  3.4229  0.1856
 9059SOL    HW238811   1.826   2.837   3.000  0.3029 -0.9203 -0.9407
 9060SOL     OW38812   3.413   2.612   4.046  0.1730  0.1138  0.0008
 9060SOL    HW138813   3.503   2.643   4.057  0.0701  0.2349  0.5130
 9060SOL    HW238814   3.356   2.688   4.034 -2.0547 -1.1917  2.2870
 9061SOL     OW38815   2.143   2.481  10.068 -0.1189 -0.4532  0.0676
 9061SOL    HW138816   2.102   2.511   9.987  0.8437 -0.0603 -0.2721
 9061SOL    HW238817   2.226   2.527  10.067  0.2015 -0.9923  1.6183
 9062SOL     OW38818   2.082   4.017   9.702  0.2346  0.1090  0.1780
 9062SOL    HW138819   2.166   4.061   9.715  0.5144 -0.6099  0.7470
 9062SOL    HW238820   2.079   4.015   9.606 -4.8558 -0.2482  0.3304
 9063SOL     OW38821   2.116   3.195   8.326 -0.6195  0.6302 -0.2122
 9063SOL    HW138822   2.181   3.143   8.280 -1.6797 -0.4315 -0.5112
 9063SOL    HW238823   2.081   3.239   8.249  1.0355  0.4553 -1.0607
 9064SOL     OW38824   1.616   2.611  17.047 -0.1128  0.7172  0.3014
 9064SOL    HW138825   1.706   2.638  17.029  0.5156 -2.0315 -0.6498
 9064SOL    HW238826   1.598   2.573  16.961  0.0463 -1.1573  1.1074
 9065SOL     OW38827   0.035   4.182   5.947 -0.3112 -0.8685 -0.2247
 9065SOL    HW138828   0.043   4.152   5.856  0.4815 -1.7673  0.1408
 9065SOL    HW238829   4.712   4.256   5.939  0.9218  0.1263 -0.3264
 9066SOL     OW38830   3.772   0.802  15.376  0.3297 -0.1128  0.2809
 9066SOL    HW138831   3.749   0.709  15.379  0.5642 -0.1022  2.2840
 9066SOL    HW238832   3.737   0.826  15.290  0.6453  2.3858  0.8579
 9067SOL     OW38833   1.607   3.385   5.750  0.3955  0.6130 -0.0149
 9067SOL    HW138834   1.614   3.468   5.799 -0.0788 -0.4610  1.8838
 9067SOL    HW238835   1.593   3.421   5.662  1.2414  0.8669 -0.0399
 9068SOL     OW38836   1.054   3.569   4.112 -0.1995 -0.1268 -0.5317
 9068SOL    HW138837   1.105   3.650   4.112 -2.4950  1.3459  0.7835
 9068SOL    HW238838   1.117   3.509   4.071 -0.1677 -0.3596 -0.1371
 9069SOL     OW38839   1.563   2.074   4.275  0.8641  0.0274  0.3797
 9069SOL    HW138840   1.629   2.086   4.343  0.9399  0.2211  0.2728
 9069SOL    HW238841   1.604   2.110   4.196  0.2197 -1.8603 -0.8328
 9070SOL     OW38842   0.837   3.133   9.587  0.0926 -0.0203 -0.1930
 9070SOL    HW138843   0.790   3.081   9.652  1.0498 -1.1499 -0.3928
 9070SOL    HW238844   0.922   3.147   9.628 -1.8118  2.4070  2.9070
 9071SOL     OW38845   2.947   2.577   1.562  0.6087  0.6062 -0.5165
 9071SOL    HW138846   2.973   2.635   1.634  0.4306 -0.0212  0.0566
 9071SOL    HW238847   2.886   2.639   1.521 -2.2115 -0.7427  1.6710
 9072SOL     OW38848   4.312   0.488   5.787  0.2600 -0.5264 -0.0440
 9072SOL    HW138849   4.258   0.567   5.796  1.8795  0.3963  1.4718
 9072SOL    HW238850   4.291   0.465   5.696 -0.4068  2.2386 -0.5931
 9073SOL     OW38851   0.262   3.846   2.897 -0.7769 -0.0243 -0.0814
 9073SOL    HW138852   0.330   3.798   2.850 -1.3897  0.5018 -1.5182
 9073SOL    HW238853   0.309   3.928   2.911 -0.5540 -0.6688  2.8641
 9074SOL     OW38854   2.397   2.541   8.146  0.9400 -0.0401 -0.1048
 9074SOL    HW138855   2.323   2.569   8.201  1.3620 -1.8665  1.3833
 9074SOL    HW238856   2.346   2.524   8.067 -2.8314  1.2182  2.0801
 9075SOL     OW38857   0.451   0.650  14.081  0.3281  0.8968 -0.7096
 9075SOL    HW138858   0.371   0.604  14.055 -0.1139  1.5275 -0.4662
 9075SOL    HW238859   0.430   0.726  14.026 -2.6221  0.9697  0.5396
 9076SOL     OW38860   3.678   0.265  10.389 -0.1944 -0.1675  0.3735
 9076SOL    HW138861   3.756   0.320  10.384 -1.6317  1.4671 -4.4373
 9076SOL    HW238862   3.653   0.260  10.296 -1.2730 -1.5491  0.7367
 9077SOL     OW38863   0.152   2.080   7.187  0.0727 -0.4891 -0.1666
 9077SOL    HW138864   0.057   2.086   7.200  0.0081  0.2358 -0.9721
 9077SOL    HW238865   0.168   2.008   7.126 -2.5534  1.4856 -3.1813
 9078SOL     OW38866   3.188   0.114  14.178  0.1355  0.3122 -0.0207
 9078SOL    HW138867   3.097   0.127  14.153  0.6380  1.2174 -1.4206
 9078SOL    HW238868   3.181   0.173  14.253 -0.3111 -2.0507  1.7759
 9079SOL     OW38869   4.251   4.440   7.635 -0.4300  0.0136 -0.6885
 9079SOL    HW138870   4.191   4.509   7.666 -0.1706  0.7688 -1.8501
 9079SOL    HW238871   4.271   4.398   7.718 -2.7502 -0.4602 -0.3629
 9080SOL     OW38872   3.445   2.860   7.432 -0.0767 -0.1478  0.0910
 9080SOL    HW138873   3.447   2.933   7.370  2.3117 -1.6766 -1.6254
 9080SOL    HW238874   3.413   2.898   7.514  0.5658  0.1358  0.2083
 9081SOL     OW38875   3.513   4.080  12.638  0.3010 -0.3454  0.3148
 9081SOL    HW138876   3.603   4.083  12.607 -0.6139 -4.0736 -2.7344
 9081SOL    HW238877   3.526   4.099  12.731  1.6376 -1.8963  0.4473
 9082SOL     OW38878   3.075   1.917   4.131 -0.0149 -0.6054 -0.4348
 9082SOL    HW138879   3.032   1.909   4.046 -2.6979 -2.0536  1.0521
 9082SOL    HW238880   2.998   1.939   4.183 -0.3921 -0.0317 -1.2346
 9083SOL     OW38881   1.155   3.790  12.120 -0.1909 -0.5628 -0.0381
 9083SOL    HW138882   1.222   3.744  12.171 -1.2114 -0.9166  0.9885
 9083SOL    HW238883   1.179   3.882  12.127 -0.7661 -0.3962 -0.2751
 9084SOL     OW38884   1.931   1.684   6.350 -0.2935  0.3601  0.1635
 9084SOL    HW138885   1.849   1.724   6.321  1.0738  0.7669 -3.1341
 9084SOL    HW238886   1.903   1.662   6.439 -0.9031  0.3458 -0.0279
 9085SOL     OW38887   2.620   1.894   9.689 -0.8263  0.0386  0.0370
 9085SOL    HW138888   2.677   1.951   9.740 -1.5122  1.8586 -1.2496
 9085SOL    HW238889   2.591   1.958   9.624  0.7823  0.9851  0.2573
 9086SOL     OW38890   4.501   3.011   9.636  0.1755  0.1539 -0.0706
 9086SOL    HW138891   4.496   3.036   9.728  1.8861 -2.0425  0.6012
 9086SOL    HW238892   4.591   3.040   9.624 -0.2295  0.9053 -1.2951
 9087SOL     OW38893   0.233   3.571   6.278  0.5297 -0.2546 -0.2011
 9087SOL    HW138894   0.160   3.622   6.311  0.9286  0.7438 -0.8679
 9087SOL    HW238895   0.240   3.502   6.345 -0.6290  0.4937  0.6856
 9088SOL     OW38896   3.074   0.077  10.592 -0.5741  0.0141 -0.0372
 9088SOL    HW138897   3.061   0.166  10.560  1.7467  0.0140 -0.9789
 9088SOL    HW238898   3.155   0.089  10.641  0.7989  0.1888 -2.3242
 9089SOL     OW38899   1.549   2.699  13.038 -0.4707  0.5174  0.3387
 9089SOL    HW138900   1.460   2.665  13.031  0.1297 -1.0452  0.1929
 9089SOL    HW238901   1.528   2.788  13.067 -0.4814  1.3771 -2.3109
 9090SOL     OW38902   4.190   2.284   7.207  0.4994  0.2514 -0.2109
 9090SOL    HW138903   4.263   2.230   7.238  1.4505 -0.5835 -4.0104
 9090SOL    HW238904   4.199   2.258   7.116  0.2800 -0.8823  0.0794
 9091SOL     OW38905   2.490   4.571   2.907  0.0506 -0.2292 -0.3509
 9091SOL    HW138906   2.401   4.544   2.883 -0.4775 -0.0174  1.3664
 9091SOL    HW238907   2.481   4.572   3.002  1.9364 -1.2823 -0.1669
 9092SOL     OW38908   4.365   3.562   1.622  0.6856  0.4955 -0.0837
 9092SOL    HW138909   4.350   3.644   1.574  0.8261 -0.1810 -1.2833
 9092SOL    HW238910   4.384   3.504   1.548  2.1023  0.6717  0.1329
 9093SOL     OW38911   0.137   2.238  10.206 -0.3070  0.3085 -0.1474
 9093SOL    HW138912   0.143   2.264  10.298  0.6887  0.0500 -0.1403
 9093SOL    HW238913   0.066   2.175  10.196 -0.6583  0.4900  1.1752
 9094SOL     OW38914   0.563   0.751   5.567  0.0002  0.0613  0.5088
 9094SOL    HW138915   0.556   0.834   5.519 -1.1391 -0.3086  0.0481
 9094SOL    HW238916   0.520   0.694   5.504  0.3092 -1.1360  1.3928
 9095SOL     OW38917   1.090   1.540  12.378 -0.6286 -0.7793  0.1946
 9095SOL    HW138918   1.013   1.494  12.412 -0.5849 -0.5941  0.5477
 9095SOL    HW238919   1.054   1.629  12.375 -2.0099 -1.3258  0.6164
 9096SOL     OW38920   2.274   2.681   2.688 -0.4219  0.4527 -0.1253
 9096SOL    HW138921   2.351   2.670   2.743 -1.2154 -0.9933  0.7163
 9096SOL    HW238922   2.290   2.769   2.654  2.5583 -1.0399 -2.5703
 9097SOL     OW38923   0.659   3.794  11.935  0.7297 -0.1972  0.5023
 9097SOL    HW138924   0.694   3.833  12.015  0.6081 -1.9515  1.4126
 9097SOL    HW238925   0.738   3.779  11.882  0.0420 -3.0776  0.2631
 9098SOL     OW38926   3.920   3.061   5.831 -0.1943 -0.0518 -0.1477
 9098SOL    HW138927   4.002   3.043   5.878 -0.3118 -0.8533 -0.2534
 9098SOL    HW238928   3.945   3.120   5.760  1.2519 -1.3172 -0.6996
 9099SOL     OW38929   3.388   3.270  10.755 -0.6267  0.1609 -0.4513
 9099SOL    HW138930   3.395   3.345  10.697 -0.3517 -0.2418 -0.9391
 9099SOL    HW238931   3.465   3.221  10.727 -0.3128 -0.0525  0.7687
 9100SOL     OW38932   2.920   2.712   9.438 -0.2824  0.0954 -0.2465
 9100SOL    HW138933   2.927   2.678   9.527 -0.4007 -0.6921 -0.5352
 9100SOL    HW238934   2.955   2.644   9.380  0.9265 -0.1662  0.7956
 9101SOL     OW38935   1.274   4.691  15.965  0.5699 -0.9065  0.0641
 9101SOL    HW138936   1.207   4.709  15.899  0.6652 -1.9497 -0.3025
 9101SOL    HW238937   1.314   0.041  15.963 -0.3819 -0.4429  1.1266
 9102SOL     OW38938   2.143   0.676   3.285 -0.7123 -0.6761  0.3234
 9102SOL    HW138939   2.104   0.644   3.204  0.5850 -0.2495 -0.4734
 9102SOL    HW238940   2.069   0.672   3.345  0.2735  0.1202  1.6007
 9103SOL     OW38941   3.197   4.054   8.677 -0.2424  0.6934  0.6968
 9103SOL    HW138942   3.225   4.122   8.615  2.0063 -1.8305 -1.0026
 9103SOL    HW238943   3.275   4.044   8.731  0.7799 -0.7426 -1.0603
 9104SOL     OW38944   0.445   3.046   4.508  0.1452  0.4075 -0.0019
 9104SOL    HW138945   0.468   3.035   4.600  2.5454  1.4778 -0.4618
 9104SOL    HW238946   0.435   3.141   4.510 -1.4563  0.2340 -0.0166
 9105SOL     OW38947   2.755   3.669   8.548 -0.3730 -0.3703 -0.3661
 9105SOL    HW138948   2.846   3.645   8.527  0.5378  0.8760  2.1084
 9105SOL    HW238949   2.721   3.580   8.546  0.3298 -0.6065 -2.8252
 9106SOL     OW38950   2.240   1.844   6.481 -0.2073  0.2851  0.0788
 9106SOL    HW138951   2.171   1.777   6.480 -0.4870  0.5711  1.5298
 9106SOL    HW238952   2.309   1.800   6.430 -0.4260  0.9988 -0.8184
 9107SOL     OW38953   2.085   4.178   4.174 -0.1046  0.3644  0.4964
 9107SOL    HW138954   2.098   4.083   4.173 -2.1808  0.0500  3.5242
 9107SOL    HW238955   2.165   4.197   4.126 -0.4960  1.9381  0.4515
 9108SOL     OW38956   2.575   2.079  15.264 -0.3157  0.2156  0.2203
 9108SOL    HW138957   2.582   2.048  15.355  0.4711 -1.5991 -0.4416
 9108SOL    HW238958   2.657   2.051  15.224 -1.3220 -2.6719  0.1608
 9109SOL     OW38959   1.055   1.194   3.779  0.5200  0.2917 -0.0997
 9109SOL    HW138960   1.066   1.107   3.740 -0.8085  0.3450 -0.5697
 9109SOL    HW238961   1.005   1.242   3.713 -0.3215 -0.0996  0.2535
 9110SOL     OW38962   3.207   1.427   7.143  0.2518 -0.4553 -0.4175
 9110SOL    HW138963   3.303   1.423   7.144  0.2929  0.0337 -1.5002
 9110SOL    HW238964   3.182   1.336   7.155 -0.5582 -0.0852  0.6834
 9111SOL     OW38965   1.754   4.532   4.604  0.2266 -0.5958 -0.1960
 9111SOL    HW138966   1.775   4.452   4.557  2.3540  0.8272 -1.6102
 9111SOL    HW238967   1.817   4.538   4.676  1.8859  0.3501 -1.7381
 9112SOL     OW38968   4.106   0.969   5.968 -0.3385 -0.3165 -0.3363
 9112SOL    HW138969   4.112   1.057   5.933  1.7181 -1.0726 -1.8795
 9112SOL    HW238970   4.062   0.980   6.053 -0.9779  0.6287 -0.7938
 9113SOL     OW38971   4.480   4.490  16.702  0.3839 -0.8543  0.6466
 9113SOL    HW138972   4.502   4.536  16.621 -0.1759 -0.8618  0.4890
 9113SOL    HW238973   4.450   4.404  16.673 -0.7835 -0.5867  1.0729
 9114SOL     OW38974   0.494   1.940   6.973  0.1587  0.0453  0.1592
 9114SOL    HW138975   0.550   1.949   6.896  2.7927  1.7440  2.2526
 9114SOL    HW238976   0.573   1.917   7.022 -1.1401 -0.0264  2.2564
 9115SOL     OW38977   0.025   2.804   1.340  0.2496 -0.1266  0.4210
 9115SOL    HW138978   0.007   2.724   1.291  1.0257 -0.4276  0.6179
 9115SOL    HW238979   4.679   2.849   1.354 -0.5933 -1.3056 -0.7824
 9116SOL     OW38980   4.621   0.056   5.673 -0.1861 -0.2469  0.6751
 9116SOL    HW138981   4.708   0.089   5.652 -0.7542 -0.1153 -1.4520
 9116SOL    HW238982   4.620   4.729   5.602 -1.3013  0.0904  0.3821
 9117SOL     OW38983   3.630   2.497   2.556  0.8664  0.3397 -0.8212
 9117SOL    HW138984   3.595   2.471   2.640  0.6909  2.3289 -0.2718
 9117SOL    HW238985   3.626   2.593   2.562  0.6815  0.2511  0.3191
 9118SOL     OW38986   3.066   2.216  11.075  0.0840  0.2538 -0.1054
 9118SOL    HW138987   2.995   2.166  11.115  1.5260 -1.3634  0.4712
 9118SOL    HW238988   3.024   2.237  10.992  0.1900 -0.3078 -0.3040
 9119SOL     OW38989   1.366   3.773   6.701 -0.0686  0.3315  0.5916
 9119SOL    HW138990   1.400   3.855   6.735  0.2287  0.6023 -0.3422
 9119SOL    HW238991   1.293   3.765   6.763 -0.5616 -0.6823 -0.1087
 9120SOL     OW38992   3.215   1.373   4.713 -0.0843 -0.1255  0.1522
 9120SOL    HW138993   3.159   1.449   4.730 -1.6953 -1.0929 -0.7755
 9120SOL    HW238994   3.188   1.357   4.622  1.9847 -0.5961 -0.3867
 9121SOL     OW38995   1.109   3.116   8.051  0.1383  0.5226  0.0184
 9121SOL    HW138996   1.020   3.095   8.021 -0.4674 -0.4171  2.5147
 9121SOL    HW238997   1.091   3.137   8.142  0.3260 -3.7797  1.0737
 9122SOL     OW38998   1.603   2.326   6.405 -0.1568 -0.8588  0.0958
 9122SOL    HW138999   1.622   2.375   6.486 -1.2081  0.1617 -0.2833
 9122SOL    HW239000   1.510   2.314   6.426 -0.4371 -0.2527 -0.8318
 9123SOL     OW39001   0.469   1.113   0.399 -0.1827 -0.4126  0.1410
 9123SOL    HW139002   0.388   1.082   0.440  0.0854 -2.6312 -0.9444
 9123SOL    HW239003   0.517   1.162   0.466 -1.5236  1.2830 -0.1503
 9124SOL     OW39004   1.883   3.936   6.408  0.2413 -0.6846 -0.8991
 9124SOL    HW139005   1.934   4.015   6.391  1.2408 -1.6166 -2.2503
 9124SOL    HW239006   1.794   3.966   6.388 -0.2598 -3.1901 -2.4467
 9125SOL     OW39007   1.966   4.553   4.770  0.1641  0.2098 -0.2306
 9125SOL    HW139008   2.032   4.484   4.768 -1.1756 -1.0883 -0.3100
 9125SOL    HW239009   1.998   4.624   4.824  0.2789 -1.1685  1.4966
 9126SOL     OW39010   1.829   1.213  15.760 -0.5315  0.0529 -0.2499
 9126SOL    HW139011   1.910   1.179  15.721 -0.3542  1.6256 -1.2584
 9126SOL    HW239012   1.807   1.153  15.830 -0.2748 -0.7882 -0.8815
 9127SOL     OW39013   1.150   0.128   6.675 -0.1515 -0.4367 -0.5594
 9127SOL    HW139014   1.234   0.104   6.715 -0.1388  1.5736  0.6497
 9127SOL    HW239015   1.178   0.114   6.584 -2.5522 -1.4136 -1.1380
 9128SOL     OW39016   0.419   3.285   5.944  0.1807  0.0719  0.3898
 9128SOL    HW139017   0.401   3.365   5.994  3.3268 -0.2635  2.0470
 9128SOL    HW239018   0.513   3.298   5.928 -0.1437 -0.3045 -1.8139
 9129SOL     OW39019   3.414   2.288   6.432 -0.1233  0.0222  0.2560
 9129SOL    HW139020   3.460   2.216   6.475 -1.2989 -0.1607  1.2142
 9129SOL    HW239021   3.349   2.317   6.496  1.2932  1.9408  0.8145
 9130SOL     OW39022   4.564   0.365   5.463 -0.6062 -0.8119 -0.9650
 9130SOL    HW139023   4.576   0.336   5.554 -1.1403  2.2020  0.0599
 9130SOL    HW239024   4.472   0.341   5.447 -0.7284 -0.5495 -0.6653
 9131SOL     OW39025   0.120   0.720   6.800  0.0458  0.1453  0.6434
 9131SOL    HW139026   0.054   0.651   6.795  2.5880 -2.1306 -1.4089
 9131SOL    HW239027   0.175   0.694   6.726 -1.9331 -1.9608 -0.0790
 9132SOL     OW39028   3.752   3.816  11.256 -0.0762  0.1604  0.5619
 9132SOL    HW139029   3.814   3.761  11.207 -0.1840 -0.0135  0.6220
 9132SOL    HW239030   3.745   3.897  11.206  0.3907  0.1893  0.5432
 9133SOL     OW39031   2.304   2.006  13.561  0.1536 -0.1848  0.0514
 9133SOL    HW139032   2.393   1.989  13.531 -0.2719  1.7054 -2.2908
 9133SOL    HW239033   2.308   2.102  13.553 -3.0443 -0.1954 -1.5523
 9134SOL     OW39034   0.822   0.903  17.300 -0.1728  0.3834  0.1215
 9134SOL    HW139035   0.907   0.871  17.273 -0.1365  1.4511 -1.0297
 9134SOL    HW239036   0.765   0.834  17.264  1.9906 -1.4686  0.2969
 9135SOL     OW39037   1.491   1.940   9.000  0.0879  0.2026 -0.3920
 9135SOL    HW139038   1.518   1.849   9.006 -1.7563 -0.2500  0.7583
 9135SOL    HW239039   1.411   1.934   8.948 -0.2086  0.2865  0.0580
 9136SOL     OW39040   0.852   2.778   1.602  0.1807 -0.4008 -0.4073
 9136SOL    HW139041   0.760   2.788   1.576  0.9145  0.4966 -2.6630
 9136SOL    HW239042   0.872   2.687   1.579 -0.3921  0.1203 -2.9185
 9137SOL     OW39043   4.286   2.844   9.638 -0.0560  0.2736 -0.3983
 9137SOL    HW139044   4.256   2.892   9.561 -1.3523 -0.1968 -0.1905
 9137SOL    HW239045   4.351   2.907   9.670 -0.9734  0.8391  0.3337
 9138SOL     OW39046   3.282   3.156   7.637 -0.1913  0.3718  0.0441
 9138SOL    HW139047   3.299   3.245   7.605  0.3772  0.1926 -0.1503
 9138SOL    HW239048   3.202   3.136   7.589  0.2473 -1.6172  0.1321
 9139SOL     OW39049   0.364   0.742  14.686  0.3838 -0.1702 -1.0419
 9139SOL    HW139050   0.369   0.687  14.608 -0.8352 -1.9387  0.1591
 9139SOL    HW239051   0.279   0.784  14.674  0.3103 -0.3949 -1.3061
 9140SOL     OW39052   2.750   4.550   9.293  0.5998 -0.5553 -0.1229
 9140SOL    HW139053   2.682   4.615   9.308 -0.1342 -2.1191  3.3461
 9140SOL    HW239054   2.743   4.532   9.199 -0.5409  3.0716 -0.7469
 9141SOL     OW39055   1.125   3.318   4.074  0.2732  0.0872 -0.6203
 9141SOL    HW139056   1.157   3.253   4.137 -0.9841 -1.0195 -1.1349
 9141SOL    HW239057   1.044   3.283   4.037 -0.8878  2.0243  0.1041
 9142SOL     OW39058   3.842   3.136   9.786 -0.1778  0.1887 -0.3710
 9142SOL    HW139059   3.862   3.044   9.806  3.4841  1.1252  0.0791
 9142SOL    HW239060   3.907   3.157   9.720 -0.0688  1.6625  0.2103
 9143SOL     OW39061   2.383   4.190   7.821 -0.5949  0.0685  0.5112
 9143SOL    HW139062   2.314   4.160   7.880 -0.2453 -1.3826  0.1944
 9143SOL    HW239063   2.352   4.277   7.797  0.9302 -0.2049 -2.4823
 9144SOL     OW39064   4.192   4.356   5.168  0.0192 -0.3197 -0.0463
 9144SOL    HW139065   4.113   4.317   5.129 -0.5087 -0.8753  1.6085
 9144SOL    HW239066   4.268   4.307   5.135 -0.2383  0.6343 -2.0620
 9145SOL     OW39067   1.112   1.912   3.643 -0.4372  0.2694  0.5095
 9145SOL    HW139068   1.165   1.872   3.711 -2.7073  2.4445  3.5530
 9145SOL    HW239069   1.178   1.965   3.597 -1.3052  1.2563  0.3980
 9146SOL     OW39070   4.601   4.418   0.500 -0.4828 -0.4368  0.3245
 9146SOL    HW139071   4.567   4.351   0.441 -2.0540  0.0327  0.6873
 9146SOL    HW239072   4.625   4.482   0.433 -0.1770 -1.6291 -0.7030
 9147SOL     OW39073   2.174   1.239   4.589  0.0225  0.6657 -0.1565
 9147SOL    HW139074   2.114   1.303   4.550 -1.6477 -0.8987 -0.1663
 9147SOL    HW239075   2.147   1.151   4.561  1.3988  0.1909 -0.0181
 9148SOL     OW39076   3.361   1.330   8.225 -0.3137  0.2419 -0.5462
 9148SOL    HW139077   3.450   1.319   8.191 -0.4629  1.6385 -1.3926
 9148SOL    HW239078   3.360   1.260   8.291  1.0849 -0.1561 -0.9527
 9149SOL     OW39079   2.864   3.642   2.354  0.6565 -0.4391  0.1596
 9149SOL    HW139080   2.936   3.641   2.291  0.1143 -0.5489 -0.4673
 9149SOL    HW239081   2.798   3.692   2.305  0.9626 -0.4575 -0.2700
 9150SOL     OW39082   0.323   1.901   5.260  0.3438  0.1791 -0.2697
 9150SOL    HW139083   0.326   1.932   5.170 -0.6452 -0.0622 -0.3854
 9150SOL    HW239084   0.239   1.929   5.296 -0.3551 -0.9443 -1.0303
 9151SOL     OW39085   1.164   2.394   6.262 -0.2599  0.1271  0.3506
 9151SOL    HW139086   1.082   2.351   6.286  0.4586 -2.0745 -1.1211
 9151SOL    HW239087   1.141   2.442   6.183  0.0737 -0.9639 -0.4094
 9152SOL     OW39088   2.419   0.634   2.876  0.2964 -0.4061 -0.0113
 9152SOL    HW139089   2.384   0.677   2.953  2.4228 -0.8176  1.1843
 9152SOL    HW239090   2.426   0.707   2.815 -0.7910 -0.3176 -0.0271
 9153SOL     OW39091   3.085   1.814   4.997 -0.2326  0.6703  0.3459
 9153SOL    HW139092   3.159   1.865   5.029  0.3047  0.0160  0.1463
 9153SOL    HW239093   3.027   1.890   4.998 -1.1589 -0.0406  0.6706
 9154SOL     OW39094   2.978   4.109   0.894 -0.0257 -0.1729  0.4809
 9154SOL    HW139095   2.977   4.018   0.925 -2.2069 -0.2778  0.1069
 9154SOL    HW239096   2.928   4.106   0.813  0.3739  1.2899  0.1730
 9155SOL     OW39097   0.171   4.039   7.153 -0.3916 -0.0534  0.0450
 9155SOL    HW139098   0.092   4.041   7.206 -0.0746 -1.5983  0.5653
 9155SOL    HW239099   0.210   3.960   7.191  0.8487  1.6833  2.4243
 9156SOL     OW39100   4.098   1.743   2.741  0.1571 -0.7233 -0.1457
 9156SOL    HW139101   4.033   1.674   2.728  1.4240 -1.3913 -2.8884
 9156SOL    HW239102   4.173   1.684   2.753  1.7014  1.2545  0.0297
 9157SOL     OW39103   0.698   0.968  14.595 -0.1082 -0.3039  0.1682
 9157SOL    HW139104   0.786   0.956  14.629  0.5171 -1.4234 -1.8538
 9157SOL    HW239105   0.712   1.042  14.536 -0.3116  1.6747  2.6258
 9158SOL     OW39106   0.481   1.380   5.000  0.9517  0.2522  0.1817
 9158SOL    HW139107   0.460   1.471   5.019  1.8593  0.0115  2.3136
 9158SOL    HW239108   0.501   1.350   5.089  0.7958  2.3637  0.9281
 9159SOL     OW39109   2.470   4.609   1.769 -0.2624  0.2482 -0.6459
 9159SOL    HW139110   2.445   4.601   1.677  1.8959  1.1146 -1.3059
 9159SOL    HW239111   2.553   4.653   1.755 -0.3613  0.6788  0.1279
 9160SOL     OW39112   1.860   2.456  15.173 -0.1506 -0.2258 -0.9406
 9160SOL    HW139113   1.784   2.496  15.129 -0.4331 -1.3102 -1.4353
 9160SOL    HW239114   1.925   2.527  15.176  0.0156 -0.3347 -1.8993
 9161SOL     OW39115   3.527   0.118   2.028  0.1548 -0.9383  0.4497
 9161SOL    HW139116   3.480   0.197   2.053 -0.2566 -0.5121 -1.7100
 9161SOL    HW239117   3.461   0.079   1.971  1.5428  1.1496 -2.5824
 9162SOL     OW39118   2.236   0.508  14.867  0.2548  0.0282 -0.0929
 9162SOL    HW139119   2.272   0.422  14.843  0.5620  0.0769  0.1892
 9162SOL    HW239120   2.290   0.561  14.809 -0.3456 -2.2636 -2.7421
 9163SOL     OW39121   1.154   3.320  16.490  0.2590  0.1816  0.4351
 9163SOL    HW139122   1.176   3.374  16.414  0.9688  0.1006  0.5781
 9163SOL    HW239123   1.086   3.262  16.457 -0.2116  0.5120  0.8218
 9164SOL     OW39124   2.830   2.482   6.564 -0.1357 -0.1604  0.0716
 9164SOL    HW139125   2.799   2.399   6.600  2.0506 -1.4305 -0.9525
 9164SOL    HW239126   2.910   2.454   6.519 -0.8053 -0.1732 -1.1085
 9165SOL     OW39127   3.280   3.531   8.154  0.3692 -0.0311 -0.0467
 9165SOL    HW139128   3.323   3.616   8.162 -1.5481  1.0558 -1.1674
 9165SOL    HW239129   3.358   3.484   8.126 -1.0873 -2.1185 -0.6862
 9166SOL     OW39130   4.544   1.902  17.236 -0.2102  0.7882  0.2904
 9166SOL    HW139131   4.572   1.873  17.149  0.4408 -1.8277  1.3818
 9166SOL    HW239132   4.541   1.995  17.212 -1.1727  0.7710  0.3404
 9167SOL     OW39133   2.334   0.815   2.678  0.0062 -0.1383 -0.2824
 9167SOL    HW139134   2.264   0.751   2.687  1.5174 -1.7851 -0.2966
 9167SOL    HW239135   2.341   0.821   2.582 -1.6380  2.6522 -0.2547
 9168SOL     OW39136   3.207   1.185   4.205  0.5830  0.6734  0.5112
 9168SOL    HW139137   3.163   1.116   4.255 -2.9762 -1.4196 -5.4377
 9168SOL    HW239138   3.255   1.133   4.141 -1.2374  0.2935 -0.5612
 9169SOL     OW39139   1.709   0.077   2.662  0.1606  0.2986 -0.4891
 9169SOL    HW139140   1.675   0.005   2.609 -0.1660 -2.0016  2.8146
 9169SOL    HW239141   1.740   0.035   2.743 -1.3357 -2.7762 -1.5079
 9170SOL     OW39142   2.808   0.545   5.995 -0.1316  0.2307  0.3711
 9170SOL    HW139143   2.763   0.620   6.033 -0.7290 -0.5234  1.1643
 9170SOL    HW239144   2.750   0.522   5.923 -2.3236  2.0723  1.5814
 9171SOL     OW39145   4.485   1.527   1.997  0.0241  0.1877 -0.5171
 9171SOL    HW139146   4.475   1.477   1.916  1.8108  1.5146 -1.5653
 9171SOL    HW239147   4.560   1.579   1.966 -0.3922  0.8432 -0.4101
 9172SOL     OW39148   0.239   1.352   1.878  0.4228  0.1096 -0.1326
 9172SOL    HW139149   0.261   1.402   1.800  0.2849  1.7550  0.8828
 9172SOL    HW239150   0.149   1.330   1.855  1.4043 -2.7112 -1.2966
 9173SOL     OW39151   1.584   2.650   7.097 -0.3675  0.0165  0.3620
 9173SOL    HW139152   1.535   2.644   7.179 -0.7814 -0.0129  0.1148
 9173SOL    HW239153   1.602   2.744   7.106  0.0313  0.0856 -1.2298
 9174SOL     OW39154   3.330   2.399  17.378  1.0568 -0.0376 -0.6132
 9174SOL    HW139155   3.331   2.462  17.306 -0.1305 -0.2535 -0.8032
 9174SOL    HW239156   3.382   2.334  17.332  0.0529 -2.6619  1.9991
 9175SOL     OW39157   1.233   3.872   1.991 -0.1125 -0.2590 -0.2595
 9175SOL    HW139158   1.254   3.835   2.077  1.0460  0.3971 -0.2557
 9175SOL    HW239159   1.153   3.918   2.016 -0.1091 -0.9160  0.9946
 9176SOL     OW39160   1.644   2.769   7.649  0.2760  0.0492 -0.2729
 9176SOL    HW139161   1.598   2.708   7.706  1.1511 -0.4654 -0.1155
 9176SOL    HW239162   1.580   2.840   7.660  2.0248  1.2939  1.8949
 9177SOL     OW39163   1.336   3.484   8.475 -0.0467  0.4250  0.3657
 9177SOL    HW139164   1.380   3.472   8.559  0.9955  0.8798 -0.1180
 9177SOL    HW239165   1.260   3.427   8.483 -1.2168  1.7651 -1.1711
 9178SOL     OW39166   4.737   4.180   4.948  0.6561 -0.2419  0.4527
 9178SOL    HW139167   0.033   4.167   5.036  1.8286 -0.7205 -0.0662
 9178SOL    HW239168   0.030   4.101   4.904 -0.1307 -0.2888 -0.0046
 9179SOL     OW39169   0.332   2.306   3.313 -0.1463  0.3984  0.5532
 9179SOL    HW139170   0.413   2.255   3.315 -0.2938  0.1550  0.3828
 9179SOL    HW239171   0.337   2.367   3.240 -0.6822 -1.5119 -1.0936
 9180SOL     OW39172   2.449   4.325   9.508  0.2332  0.3767  0.1448
 9180SOL    HW139173   2.354   4.327   9.521  0.4475 -0.2438  1.7214
 9180SOL    HW239174   2.479   4.242   9.472  0.7401 -0.5910  2.7927
 9181SOL     OW39175   1.236   3.144  11.970  0.2642 -0.3951 -0.1948
 9181SOL    HW139176   1.165   3.195  11.931  0.9797  0.8327  0.1275
 9181SOL    HW239177   1.268   3.208  12.033  0.3553  0.0911 -0.7294
 9182SOL     OW39178   0.280   1.244   0.225 -0.2174  0.0483  0.1502
 9182SOL    HW139179   0.322   1.239   0.139 -1.9599 -0.4777 -0.6747
 9182SOL    HW239180   0.338   1.183   0.271 -0.1357  0.5452  0.7020
 9183SOL     OW39181   2.084   1.179   7.927 -0.2247 -0.2601 -0.4618
 9183SOL    HW139182   2.034   1.261   7.928 -0.2323 -0.2499 -1.8802
 9183SOL    HW239183   2.035   1.122   7.868 -1.1324 -0.6755  0.6887
 9184SOL     OW39184   4.238   4.123   2.609 -0.0266 -0.4908  0.1817
 9184SOL    HW139185   4.213   4.036   2.578  0.1187 -0.7438  0.7830
 9184SOL    HW239186   4.149   4.159   2.613  0.0903 -0.0540 -1.3679
 9185SOL     OW39187   0.500   0.511   0.768  0.3823  0.5350 -0.3592
 9185SOL    HW139188   0.410   0.480   0.760  0.4126 -0.1020  1.6351
 9185SOL    HW239189   0.540   0.473   0.690  1.0247 -0.4964  0.4598
 9186SOL     OW39190   2.647   0.377   8.074 -0.5075  0.0027  0.1615
 9186SOL    HW139191   2.632   0.380   7.979  0.7595  0.2791 -0.0260
 9186SOL    HW239192   2.559   0.376   8.112 -1.4811 -0.3382 -2.0651
 9187SOL     OW39193   0.002   4.136   7.685 -0.0298  0.4984  0.2450
 9187SOL    HW139194   4.656   4.153   7.642  0.9134  1.6979 -1.1010
 9187SOL    HW239195   0.020   4.050   7.648 -0.6365  1.1472 -1.5446
 9188SOL     OW39196   1.276   3.077   6.765 -0.0805  0.0788  0.0632
 9188SOL    HW139197   1.223   3.121   6.831  1.0743  1.2340  0.2170
 9188SOL    HW239198   1.336   3.030   6.823 -0.9182  1.2312  1.8370
 9189SOL     OW39199   4.619   4.184   7.966 -0.2964  1.0141 -0.1476
 9189SOL    HW139200   4.656   4.145   7.887 -2.4506 -0.4228 -0.4481
 9189SOL    HW239201   4.662   4.139   8.038  1.5050  0.7483 -1.3852
 9190SOL     OW39202   3.724   1.151   5.807  0.0598  0.4208  0.1591
 9190SOL    HW139203   3.759   1.226   5.855  0.0204  0.6227 -0.1266
 9190SOL    HW239204   3.791   1.146   5.738  0.6731  1.1435  0.7009
 9191SOL     OW39205   2.166   0.731  16.941  0.2664  0.0797  0.2570
 9191SOL    HW139206   2.088   0.787  16.949 -0.5115 -0.9228 -0.2187
 9191SOL    HW239207   2.201   0.755  17.027 -0.7879  0.5935  0.5444
 9192SOL     OW39208   1.868   2.153   0.126 -0.0374  0.3735  0.4826
 9192SOL    HW139209   1.782   2.193   0.113  0.1842  0.5959 -0.2698
 9192SOL    HW239210   1.866   2.101   0.046 -1.1951  0.0893  0.6920
 9193SOL     OW39211   0.480   3.737   2.139  0.3622  0.6672  0.1828
 9193SOL    HW139212   0.542   3.809   2.126  1.8622 -0.7661 -0.4735
 9193SOL    HW239213   0.484   3.695   2.053 -1.0125 -0.7047  0.7859
 9194SOL     OW39214   3.309   3.462   4.071  0.5774 -0.3181 -0.4652
 9194SOL    HW139215   3.404   3.455   4.064  0.6952  0.1279  0.6677
 9194SOL    HW239216   3.302   3.419   4.156  0.9967  0.1450 -0.2016
 9195SOL     OW39217   1.708   1.927   9.877  0.1235  0.3732 -0.0638
 9195SOL    HW139218   1.696   1.841   9.915 -0.8005  0.4509 -0.1907
 9195SOL    HW239219   1.804   1.932   9.871  0.3013 -4.3127 -0.5291
 9196SOL     OW39220   3.069   1.134  17.715 -0.0771 -0.9627  0.2353
 9196SOL    HW139221   3.161   1.116  17.696  0.3554  0.4701  0.9343
 9196SOL    HW239222   3.061   1.229  17.705 -2.1710 -1.4107 -2.2417
 9197SOL     OW39223   1.116   2.426   4.034  0.1593 -0.7344  0.1954
 9197SOL    HW139224   1.061   2.348   4.025  0.2775 -0.9475  1.2770
 9197SOL    HW239225   1.068   2.481   4.097  2.0376 -0.2237  1.1918
 9198SOL     OW39226   0.843   0.246   6.356 -0.0228 -0.2796  0.0194
 9198SOL    HW139227   0.769   0.221   6.410 -0.6538  1.7190  0.0629
 9198SOL    HW239228   0.870   0.165   6.312 -0.5935  1.9204 -4.4297
 9199SOL     OW39229   0.586   1.989  13.614  0.1816  0.8014  0.1045
 9199SOL    HW139230   0.501   2.000  13.572 -0.4390 -1.5088  0.7648
 9199SOL    HW239231   0.594   1.899  13.646  0.3797  0.2344 -1.5363
 9200SOL     OW39232   4.127   4.026   0.378  0.0593  0.7328  0.3258
 9200SOL    HW139233   4.177   3.952   0.345 -0.0792  1.4271 -1.4483
 9200SOL    HW239234   4.198   4.084   0.406  2.5128 -1.2942 -1.7358
 9201SOL     OW39235   4.324   2.024   8.717 -0.3761  0.0525  0.2806
 9201SOL    HW139236   4.401   1.994   8.766 -0.8883  1.6328  2.0439
 9201SOL    HW239237   4.267   2.071   8.778  1.8658  1.6250  1.1671
 9202SOL     OW39238   0.450   2.390   0.693 -0.0184 -0.0572 -0.3280
 9202SOL    HW139239   0.535   2.418   0.660 -0.6625  1.6032 -0.6011
 9202SOL    HW239240   0.444   2.443   0.773 -0.8064 -1.7322  0.7271
 9203SOL     OW39241   2.215   0.595   8.387 -0.5336 -0.7058  0.0422
 9203SOL    HW139242   2.122   0.594   8.406 -0.9175  2.7667 -1.8270
 9203SOL    HW239243   2.235   0.501   8.388  0.6092 -0.4495  3.7878
 9204SOL     OW39244   0.560   2.652  14.304  0.9058 -0.0102 -0.1455
 9204SOL    HW139245   0.602   2.566  14.301 -1.8543 -1.3679  0.4674
 9204SOL    HW239246   0.478   2.628  14.347  0.9959  2.7669  1.6399
 9205SOL     OW39247   0.444   1.258   1.681 -0.1652  0.0565  0.3179
 9205SOL    HW139248   0.437   1.190   1.614 -1.6046  1.0058 -0.5057
 9205SOL    HW239249   0.389   1.238   1.757  0.3630  1.5277  1.1002
 9206SOL     OW39250   3.771   0.822   8.047  0.2927  0.1459 -0.0161
 9206SOL    HW139251   3.799   0.898   8.097  1.1813  0.7595 -1.4282
 9206SOL    HW239252   3.861   0.806   8.018  0.2204 -1.2788  0.5626
 9207SOL     OW39253   1.542   2.108  14.591  0.0512 -0.2348 -0.3823
 9207SOL    HW139254   1.533   2.058  14.510  0.9525 -1.1075  0.0490
 9207SOL    HW239255   1.462   2.086  14.639  0.3210 -1.0929 -0.3241
 9208SOL     OW39256   1.272   1.280   9.486  0.3003  0.4952 -0.0366
 9208SOL    HW139257   1.337   1.348   9.504 -0.9972  0.8893  3.1411
 9208SOL    HW239258   1.326   1.201   9.482 -2.7056 -1.5856  0.5252
 9209SOL     OW39259   4.565   0.670   9.064 -0.0481  0.0525  0.7435
 9209SOL    HW139260   4.616   0.639   9.139 -0.9984 -0.8547  1.0239
 9209SOL    HW239261   4.601   0.758   9.067  0.1305 -0.0259  0.8652
 9210SOL     OW39262   3.391   3.691   2.343  0.2043  0.0423  0.2226
 9210SOL    HW139263   3.297   3.708   2.334 -0.0431 -0.8503  1.1290
 9210SOL    HW239264   3.412   3.769   2.394 -2.0638  0.6301  0.2606
 9211SOL     OW39265   0.679   4.585   9.577 -0.2367 -0.0710 -0.3861
 9211SOL    HW139266   0.655   4.506   9.627  1.2660  0.4229  1.1257
 9211SOL    HW239267   0.661   4.655   9.640  0.0323  0.0360 -0.4274
 9212SOL     OW39268   3.637   4.205  12.281 -0.3880  0.0973 -0.3582
 9212SOL    HW139269   3.593   4.234  12.202 -0.3262 -0.4902 -0.6063
 9212SOL    HW239270   3.716   4.259  12.282 -1.1281  1.1628  0.4482
 9213SOL     OW39271   2.525   4.235   2.074  0.1922 -0.1123  0.3869
 9213SOL    HW139272   2.533   4.147   2.035  0.3739 -0.0933  0.3790
 9213SOL    HW239273   2.592   4.286   2.027 -0.5119  0.4623  0.0193
 9214SOL     OW39274   0.759   2.762  13.677  0.6579  0.4251  0.1552
 9214SOL    HW139275   0.822   2.829  13.653 -0.6191  1.2888 -0.7905
 9214SOL    HW239276   0.775   2.702  13.605  1.4080 -0.6315  1.1986
 9215SOL     OW39277   2.741   1.367   7.809  0.3521  0.1561 -0.3793
 9215SOL    HW139278   2.815   1.384   7.866 -0.5690 -0.8936  1.1287
 9215SOL    HW239279   2.751   1.273   7.791 -0.2901  0.0056  0.0663
 9216SOL     OW39280   4.144   2.885   3.285  0.7426  0.0147  0.3525
 9216SOL    HW139281   4.057   2.907   3.250  0.7160 -1.0482 -0.2507
 9216SOL    HW239282   4.125   2.831   3.362  0.3166 -0.1048  0.1683
 9217SOL     OW39283   0.248   0.808  15.986  0.4757  0.3407  0.2050
 9217SOL    HW139284   0.323   0.809  15.926 -0.4774 -0.4558 -1.0035
 9217SOL    HW239285   0.214   0.893  15.958  1.7371  0.2954 -1.5388
 9218SOL     OW39286   3.399   2.514   5.511 -0.1772  1.3041 -0.1773
 9218SOL    HW139287   3.327   2.530   5.571 -0.5195 -0.4787 -0.1033
 9218SOL    HW239288   3.377   2.423   5.489 -1.0927  0.9519  2.1787
 9219SOL     OW39289   0.886   3.112   9.215 -0.1676  0.1490  0.0096
 9219SOL    HW139290   0.938   3.186   9.247  0.8124 -0.8950  0.8616
 9219SOL    HW239291   0.951   3.070   9.159  0.8146  0.7654  0.6961
 9220SOL     OW39292   0.036   4.305  11.232 -0.0113  0.2623  0.0520
 9220SOL    HW139293   0.007   4.359  11.159  0.0490  1.6331  1.0512
 9220SOL    HW239294   4.697   4.288  11.286  0.0763 -0.2936  0.0068
 9221SOL     OW39295   1.847   3.424   0.589 -0.0225  0.2340 -0.2384
 9221SOL    HW139296   1.858   3.333   0.614 -2.1320  0.9469  3.1732
 9221SOL    HW239297   1.872   3.425   0.496 -2.1232 -0.7616 -0.8111
 9222SOL     OW39298   0.835   0.443   6.099  0.0993  0.1476  0.4024
 9222SOL    HW139299   0.919   0.426   6.141 -1.0879 -1.6333  2.0289
 9222SOL    HW239300   0.776   0.381   6.142 -1.4617 -0.1140 -2.0914
 9223SOL     OW39301   4.695   2.521   1.251 -0.2262  0.0022  0.4350
 9223SOL    HW139302   4.644   2.459   1.198  1.2881 -0.6216 -0.3030
 9223SOL    HW239303   4.655   2.507   1.337  1.5103 -1.2738  1.0504
 9224SOL     OW39304   3.685   4.065  15.636 -0.0146  0.7736 -0.2240
 9224SOL    HW139305   3.740   4.103  15.705 -1.1487  0.3523  0.9010
 9224SOL    HW239306   3.677   3.979  15.678 -1.1853  0.6948 -0.6356
 9225SOL     OW39307   2.385   1.278   3.433  0.5225 -0.1865 -0.0105
 9225SOL    HW139308   2.450   1.261   3.364  0.1928 -1.8724  0.0851
 9225SOL    HW239309   2.323   1.214   3.397 -0.2440 -0.2119  1.4056
 9226SOL     OW39310   1.026   0.440   5.858  0.9083 -0.2244  0.4908
 9226SOL    HW139311   1.012   0.354   5.899 -0.2441  0.3708  1.3607
 9226SOL    HW239312   0.990   0.509   5.914  1.8253  1.5245 -1.1094
 9227SOL     OW39313   0.415   0.633  12.612 -0.2305 -0.7839 -0.0098
 9227SOL    HW139314   0.491   0.575  12.603  1.2953  1.1882  0.1591
 9227SOL    HW239315   0.400   0.612  12.705  0.4660 -0.6066  0.1464
 9228SOL     OW39316   4.560   0.774  15.716  0.4267  0.3194 -0.3020
 9228SOL    HW139317   4.538   0.716  15.789  0.5936  0.5463 -0.0696
 9228SOL    HW239318   4.621   0.832  15.762  0.8848 -0.0538 -0.4415
 9229SOL     OW39319   1.147   4.659   4.710 -0.3265 -0.1041 -0.6989
 9229SOL    HW139320   1.096   4.599   4.764  0.7982  0.6507  1.1963
 9229SOL    HW239321   1.096   0.001   4.725  1.5640  1.2054 -1.1021
 9230SOL     OW39322   0.764   3.045  10.803 -0.3206  0.1703 -0.3584
 9230SOL    HW139323   0.804   3.124  10.766  1.3488 -1.2546 -1.5338
 9230SOL    HW239324   0.809   3.035  10.887 -0.1488  0.6035 -0.3970
 9231SOL     OW39325   4.506   2.421   1.759 -0.0491 -0.1511  0.0507
 9231SOL    HW139326   4.545   2.483   1.820  0.6035 -1.0912  0.5941
 9231SOL    HW239327   4.477   2.355   1.822 -0.6409  0.0299 -0.0392
 9232SOL     OW39328   2.679   1.981  14.195  0.3252 -0.5390 -0.0542
 9232SOL    HW139329   2.647   1.973  14.105 -2.8274 -3.4444  1.3130
 9232SOL    HW239330   2.746   2.045  14.173  0.6904 -1.6334 -2.1206
 9233SOL     OW39331   1.720   0.964   3.098 -0.0797 -0.3989 -0.2026
 9233SOL    HW139332   1.640   0.913   3.081 -0.6283 -0.3375  2.1220
 9233SOL    HW239333   1.741   0.998   3.012  1.7329  3.2810  1.7283
 9234SOL     OW39334   1.934   3.252   3.174  0.2493 -0.0719 -0.0845
 9234SOL    HW139335   1.909   3.217   3.089 -1.5604  0.0949  0.3770
 9234SOL    HW239336   2.028   3.249   3.157  0.3871  0.8966  0.4589
 9235SOL     OW39337   1.067   1.071  13.671 -0.1312  0.1198  0.5364
 9235SOL    HW139338   1.119   1.141  13.631 -0.1516  1.3355  2.6373
 9235SOL    HW239339   1.136   1.004  13.673  1.2652  1.5190 -0.3377
 9236SOL     OW39340   2.335   1.571   6.724 -0.0123  0.4568  0.1663
 9236SOL    HW139341   2.289   1.564   6.807 -1.6199  0.0618 -0.7517
 9236SOL    HW239342   2.271   1.543   6.658 -0.5739  1.2106  0.3961
 9237SOL     OW39343   0.053   3.207   6.216  0.1005 -0.1758  0.2353
 9237SOL    HW139344   0.002   3.255   6.281 -2.3137 -0.2907 -1.5854
 9237SOL    HW239345   0.142   3.227   6.244  0.4618  2.0659 -2.5853
 9238SOL     OW39346   2.284   3.805   7.561  0.6386 -0.2331  0.4112
 9238SOL    HW139347   2.230   3.852   7.625  0.1766 -0.2095  0.0025
 9238SOL    HW239348   2.355   3.868   7.575  0.0747  0.1923  1.3102
 9239SOL     OW39349   4.680   1.658   1.615 -0.0787  0.1694 -0.2068
 9239SOL    HW139350   4.660   1.744   1.577 -1.2614  0.1342  0.3238
 9239SOL    HW239351   4.697   1.672   1.708  0.2611 -0.3145 -0.1971
 9240SOL     OW39352   2.925   4.315  15.298  0.1781  0.2160  0.3842
 9240SOL    HW139353   2.942   4.402  15.263  0.5834  0.3216  0.8311
 9240SOL    HW239354   2.897   4.327  15.389  2.2516 -1.0591  1.2209
 9241SOL     OW39355   4.382   2.271   2.506 -0.1018  0.3792  0.3595
 9241SOL    HW139356   4.287   2.257   2.505 -0.2563  1.4964 -0.5634
 9241SOL    HW239357   4.403   2.341   2.444  3.0592 -1.0130 -0.1314
 9242SOL     OW39358   0.154   2.391   2.179  0.6844  0.0623  0.3379
 9242SOL    HW139359   0.247   2.379   2.157  1.1814  0.3151  2.2881
 9242SOL    HW239360   0.141   2.317   2.239 -0.5514  1.8055  2.2168
 9243SOL     OW39361   3.927   0.481  14.163  0.3057 -0.3534 -0.3555
 9243SOL    HW139362   3.924   0.500  14.257  0.6612 -0.7806 -0.2571
 9243SOL    HW239363   3.994   0.414  14.147 -0.9731 -0.8881 -3.5015
 9244SOL     OW39364   1.309   2.976  14.215 -0.3798  0.2342  0.2056
 9244SOL    HW139365   1.285   2.888  14.185 -0.0383 -0.2067  1.2329
 9244SOL    HW239366   1.394   2.965  14.257 -1.6920  0.8068  2.9530
 9245SOL     OW39367   4.016   0.565   6.213 -0.4566  0.3427  0.2753
 9245SOL    HW139368   4.005   0.509   6.136  1.6846  1.0191 -0.5182
 9245SOL    HW239369   3.970   0.646   6.191 -0.4840 -0.1971 -1.6803
 9246SOL     OW39370   4.647   0.077   6.597 -0.1796 -0.0310  0.6065
 9246SOL    HW139371   4.565   0.029   6.586 -0.9119  1.4425 -0.4101
 9246SOL    HW239372   4.673   0.037   6.680 -1.8684  0.3069  1.2904
 9247SOL     OW39373   3.881   3.713   8.529  0.0509  0.1059  1.0644
 9247SOL    HW139374   3.831   3.632   8.538  0.3788 -0.1822  0.3334
 9247SOL    HW239375   3.949   3.676   8.473  0.0079  0.2077  0.9456
 9248SOL     OW39376   1.928   1.212   6.700 -0.1930  0.0784 -0.5853
 9248SOL    HW139377   1.932   1.262   6.618  0.3674  1.4575  0.2844
 9248SOL    HW239378   1.856   1.250   6.751 -1.1723 -2.3370 -0.2023
 9249SOL     OW39379   2.429   3.419   1.412  0.0637 -0.4691 -0.3650
 9249SOL    HW139380   2.361   3.364   1.450  2.8051 -1.7898  2.6275
 9249SOL    HW239381   2.402   3.430   1.320 -0.1786  1.9512 -0.0151
 9250SOL     OW39382   4.309   0.002  11.801 -0.0731  0.3838  0.5060
 9250SOL    HW139383   4.244   0.059  11.759 -0.7013 -0.9828 -0.4083
 9250SOL    HW239384   4.261   4.675  11.855  1.0366  0.5818  1.7140
 9251SOL     OW39385   4.014   4.476   1.261  0.4153 -0.1880  0.4728
 9251SOL    HW139386   4.005   4.442   1.172  0.5259 -1.2396  0.8520
 9251SOL    HW239387   3.925   4.491   1.291 -0.0317 -0.0229 -0.9390
 9252SOL     OW39388   1.299   2.180  10.296 -0.1930 -0.2619  0.3543
 9252SOL    HW139389   1.224   2.238  10.283  0.1991  0.0551 -0.4522
 9252SOL    HW239390   1.338   2.215  10.377 -2.4815  2.0777  0.4452
 9253SOL     OW39391   2.312   1.397   2.610 -0.1960 -0.0403 -0.3173
 9253SOL    HW139392   2.338   1.473   2.558 -0.2360 -0.2633 -0.6707
 9253SOL    HW239393   2.236   1.366   2.560  0.3984 -2.0204 -0.0038
 9254SOL     OW39394   3.659   0.196  12.615 -0.0493 -0.7124  0.7383
 9254SOL    HW139395   3.685   0.127  12.675  3.0673  2.4518  2.9917
 9254SOL    HW239396   3.730   0.260  12.623  1.9703 -3.0634  1.4541
 9255SOL     OW39397   0.664   3.560  10.443  0.2766  0.3240 -0.2385
 9255SOL    HW139398   0.740   3.578  10.387 -0.4889  0.9885 -1.0499
 9255SOL    HW239399   0.619   3.483  10.408 -0.7887  1.1560 -0.6828
 9256SOL     OW39400   3.476   0.009   5.507  0.2189  0.0273 -0.6443
 9256SOL    HW139401   3.429   0.048   5.434 -1.4770 -1.1442 -0.1588
 9256SOL    HW239402   3.533   4.686   5.459  0.7605 -0.9178  1.2047
 9257SOL     OW39403   4.377   4.657  15.210  0.2813  0.7322  0.1321
 9257SOL    HW139404   4.335   0.006  15.213 -0.4358  0.3250  1.8379
 9257SOL    HW239405   4.397   4.636  15.301  0.1138  1.0572  0.2422
 9258SOL     OW39406   2.837   4.095  13.415  0.1091 -0.0851 -0.2884
 9258SOL    HW139407   2.852   4.175  13.365 -1.6615  0.4791  0.0640
 9258SOL    HW239408   2.816   4.035  13.343  1.6268 -2.3299  1.1307
 9259SOL     OW39409   0.695   0.797   6.876 -0.0217  0.5163  0.8009
 9259SOL    HW139410   0.616   0.826   6.922 -1.4493  1.5121 -2.2817
 9259SOL    HW239411   0.756   0.864   6.907  0.1662  1.1780 -0.9668
 9260SOL     OW39412   1.009   3.971  14.373 -0.1064  0.4028 -0.0053
 9260SOL    HW139413   1.100   3.983  14.401 -0.1615 -1.3881  0.9486
 9260SOL    HW239414   0.974   4.057  14.397  3.3382  1.6133  0.6834
 9261SOL     OW39415   0.892   1.020   2.693  0.2781  0.0894  0.0190
 9261SOL    HW139416   0.847   0.942   2.662  0.7863 -0.1502 -0.1108
 9261SOL    HW239417   0.938   0.983   2.768 -0.3242 -1.1922 -0.2487
 9262SOL     OW39418   4.495   0.736   6.647  0.0419 -0.3801  0.3368
 9262SOL    HW139419   4.506   0.731   6.742 -0.3608  2.1129  0.5305
 9262SOL    HW239420   4.418   0.792   6.645  0.4583  0.2373  1.7897
 9263SOL     OW39421   2.913   2.780   0.921  0.1754  0.1914 -0.3702
 9263SOL    HW139422   2.947   2.747   1.004 -0.5125  2.4716  0.8346
 9263SOL    HW239423   2.879   2.699   0.883  1.3476 -0.3664 -0.2034
 9264SOL     OW39424   4.705   0.445   8.512 -0.3695  0.1138 -0.7599
 9264SOL    HW139425   0.030   0.478   8.448 -0.3561  0.4368 -0.5784
 9264SOL    HW239426   0.027   0.379   8.548 -0.9519 -1.1945 -2.1909
 9265SOL     OW39427   4.067   0.070  14.402 -0.2493 -0.4094 -0.1580
 9265SOL    HW139428   4.020   0.144  14.439  2.6524  0.4549  1.7945
 9265SOL    HW239429   4.004   0.040  14.337  0.3180  1.0251 -1.3593
 9266SOL     OW39430   1.487   2.989  13.041  0.3632 -0.6857  0.2366
 9266SOL    HW139431   1.506   3.028  13.126  1.3751  0.8536 -0.6856
 9266SOL    HW239432   1.392   2.999  13.040  0.3581 -0.7465  0.1362
 9267SOL     OW39433   2.624   3.218  11.822  0.2253  0.4897  0.4046
 9267SOL    HW139434   2.662   3.165  11.752  2.1970  1.4838  0.7437
 9267SOL    HW239435   2.659   3.306  11.807 -0.3344  0.4801 -0.9521
 9268SOL     OW39436   3.559   3.346   7.266 -0.5803 -0.3610  0.9689
 9268SOL    HW139437   3.654   3.334   7.269 -0.3340  1.0475 -0.7361
 9268SOL    HW239438   3.522   3.261   7.291  0.6518 -0.4797  2.3616
 9269SOL     OW39439   1.017   1.080  15.747  0.1625  0.0598 -0.2770
 9269SOL    HW139440   0.971   1.116  15.823  0.1278 -0.2853 -0.1345
 9269SOL    HW239441   1.106   1.104  15.771  0.0062 -0.7099  1.0655
 9270SOL     OW39442   4.120   0.281  14.149 -0.3281 -0.3294 -0.0250
 9270SOL    HW139443   4.077   0.244  14.227  2.7601 -1.9583  0.8830
 9270SOL    HW239444   4.198   0.227  14.141 -2.1515 -2.7666 -1.4629
 9271SOL     OW39445   0.890   2.146  17.048 -0.3590 -0.3247  0.3387
 9271SOL    HW139446   0.972   2.144  17.000 -0.4094  0.1861  0.2314
 9271SOL    HW239447   0.836   2.198  16.988  2.4541 -0.5145 -2.3423
 9272SOL     OW39448   4.283   1.146   7.565  0.2562 -0.3314  0.0270
 9272SOL    HW139449   4.202   1.151   7.514  0.1379 -1.5936  0.1087
 9272SOL    HW239450   4.259   1.181   7.650  0.0863  0.0264 -0.1650
 9273SOL     OW39451   1.209   0.678   5.619  0.5270 -0.2967  0.4325
 9273SOL    HW139452   1.136   0.721   5.574  0.2614  0.4076  1.5385
 9273SOL    HW239453   1.217   0.736   5.694 -1.7586  1.1487 -0.4436
 9274SOL     OW39454   0.234   2.601  14.975  0.7085 -0.0937  0.1346
 9274SOL    HW139455   0.217   2.516  14.935  1.1394  0.5134 -1.3037
 9274SOL    HW239456   0.189   2.665  14.921  0.2636  1.5724  2.4969
 9275SOL     OW39457   2.916   1.440   2.969  0.0789 -0.2019 -0.2157
 9275SOL    HW139458   2.881   1.351   2.970  1.0716 -0.5583  2.5963
 9275SOL    HW239459   2.841   1.489   3.003  0.2307  1.0311 -1.6567
 9276SOL     OW39460   1.267   2.997   7.237 -0.0202 -0.5088 -0.1249
 9276SOL    HW139461   1.199   3.062   7.216 -0.6253 -0.5012  1.8324
 9276SOL    HW239462   1.312   3.046   7.306  1.2703 -0.8684 -0.7195
 9277SOL     OW39463   3.402   0.640   5.680 -0.2713 -0.0634 -0.0754
 9277SOL    HW139464   3.432   0.609   5.594  0.2224 -1.7159  0.6874
 9277SOL    HW239465   3.318   0.594   5.682  0.8459 -2.1975 -0.9680
 9278SOL     OW39466   0.830   4.092   5.183  0.3520 -0.0144 -0.1826
 9278SOL    HW139467   0.777   4.170   5.190 -0.9040 -0.7234 -1.8469
 9278SOL    HW239468   0.764   4.045   5.133  2.1658 -1.1002 -1.5854
 9279SOL     OW39469   1.571   0.949   7.824 -0.6341 -0.2055  0.0700
 9279SOL    HW139470   1.619   0.920   7.747  0.7289  0.3524  0.7003
 9279SOL    HW239471   1.642   0.993   7.872 -2.0849  0.1737  1.8789
 9280SOL     OW39472   0.061   3.565   9.405  0.6602 -0.2453  0.5249
 9280SOL    HW139473   0.011   3.623   9.348 -1.3133  0.1794  2.6958
 9280SOL    HW239474   0.148   3.604   9.392  0.7023  0.2489  2.2559
 9281SOL     OW39475   3.967   3.057   8.635 -0.3603 -0.4171 -0.1089
 9281SOL    HW139476   4.048   3.024   8.674 -0.0663  0.7375  0.2510
 9281SOL    HW239477   3.957   3.130   8.695  0.6581 -0.2447 -0.1391
 9282SOL     OW39478   2.764   2.518  17.014  0.4065 -0.2859  0.1837
 9282SOL    HW139479   2.694   2.455  17.029  0.7528 -0.4719  0.9935
 9282SOL    HW239480   2.791   2.523  17.106  0.0901  1.8131  0.1645
 9283SOL     OW39481   2.732   3.021  10.033  0.4331  0.0548  0.3031
 9283SOL    HW139482   2.638   3.026  10.049  0.3231  1.7009 -0.8060
 9283SOL    HW239483   2.743   2.933  10.067  0.7301 -0.4795 -1.1903
 9284SOL     OW39484   2.700   2.366   1.001 -0.6694  0.0215 -0.0876
 9284SOL    HW139485   2.777   2.313   0.981 -2.0697 -1.7640 -0.6953
 9284SOL    HW239486   2.633   2.300   0.986 -0.6806  0.2616 -1.0692
 9285SOL     OW39487   1.462   4.626   9.346 -0.5220  0.1422 -0.3024
 9285SOL    HW139488   1.536   4.657   9.399 -1.4023  3.4444 -1.0576
 9285SOL    HW239489   1.490   4.537   9.324  0.3352 -0.2827  2.4533
 9286SOL     OW39490   1.294   0.827  14.884  0.1930  0.0761  0.5105
 9286SOL    HW139491   1.248   0.860  14.962 -3.9142 -2.0292 -1.0225
 9286SOL    HW239492   1.246   0.745  14.878 -0.5399  0.4497  1.2233
 9287SOL     OW39493   0.957   1.615   8.866  0.6575 -0.5680  0.1052
 9287SOL    HW139494   1.032   1.667   8.894  0.2901 -1.4221  2.6115
 9287SOL    HW239495   0.900   1.680   8.825  0.3247 -0.2499  1.0938
 9288SOL     OW39496   1.618   1.905   7.248  0.0400  0.2087  0.4144
 9288SOL    HW139497   1.537   1.856   7.232 -2.6335  4.4380  0.8902
 9288SOL    HW239498   1.683   1.845   7.212  0.7265  0.3393  1.4275
 9289SOL     OW39499   3.602   4.395   8.137  0.0282 -0.2544  0.2444
 9289SOL    HW139500   3.558   4.473   8.173 -2.4902 -1.7500  0.3892
 9289SOL    HW239501   3.532   4.333   8.152  0.4987 -0.3540  2.0206
 9290SOL     OW39502   1.233   3.208   8.449  0.2330 -0.8556  0.5898
 9290SOL    HW139503   1.181   3.129   8.434 -1.4275  0.1928  0.9194
 9290SOL    HW239504   1.182   3.274   8.403  1.4823 -0.8150 -0.7336
 9291SOL     OW39505   1.477   3.525  15.414 -0.8310 -0.0713  0.4429
 9291SOL    HW139506   1.470   3.542  15.508 -1.2732 -0.3404  0.4579
 9291SOL    HW239507   1.505   3.433  15.417  2.0758  0.8440  1.4106
 9292SOL     OW39508   0.143   1.392   4.956 -0.0800 -0.0428 -0.1144
 9292SOL    HW139509   0.116   1.401   5.047 -0.4633  0.6462 -0.2934
 9292SOL    HW239510   0.109   1.308   4.925  1.5229  0.1503 -2.3681
 9293SOL     OW39511   0.408   4.126   0.665 -0.1121 -0.2738 -0.9807
 9293SOL    HW139512   0.461   4.050   0.690  1.7614  0.7901 -1.6915
 9293SOL    HW239513   0.355   4.122   0.744  2.4409  2.4901  0.8468
 9294SOL     OW39514   1.405   4.164   8.938  0.2770  0.2565  0.2630
 9294SOL    HW139515   1.446   4.212   9.010  0.2645  1.2561 -0.4006
 9294SOL    HW239516   1.334   4.117   8.983  0.6719  1.0642  1.7283
 9295SOL     OW39517   0.036   0.556   1.853  0.2418 -0.0851 -0.1959
 9295SOL    HW139518   0.012   0.486   1.794  1.4939 -0.9950  0.3816
 9295SOL    HW239519   0.129   0.560   1.831  0.4085 -1.2879  0.3015
 9296SOL     OW39520   1.645   3.475  11.015  0.0394 -0.1348  0.0900
 9296SOL    HW139521   1.691   3.528  11.080  0.1654  1.1273 -1.0159
 9296SOL    HW239522   1.556   3.505  11.029 -0.4891 -1.8832  0.5025
 9297SOL     OW39523   0.780   0.839   3.736 -0.3736 -0.3853 -0.3316
 9297SOL    HW139524   0.776   0.817   3.829 -0.4480 -1.3677 -0.5662
 9297SOL    HW239525   0.699   0.802   3.701 -0.9695  1.1267 -0.5514
 9298SOL     OW39526   2.898   1.758   2.535  0.2407  0.7011 -0.0276
 9298SOL    HW139527   2.891   1.663   2.545 -1.7559  1.0679  2.1243
 9298SOL    HW239528   2.836   1.772   2.464 -1.8274 -2.0621  1.1896
 9299SOL     OW39529   1.643   3.644   3.868 -0.3029  0.8025  0.5595
 9299SOL    HW139530   1.689   3.560   3.873 -1.1783  0.3123  0.4321
 9299SOL    HW239531   1.612   3.654   3.778  1.5640 -0.7390 -0.2535
 9300SOL     OW39532   4.194   0.731   6.647 -0.4045 -0.0600 -0.0875
 9300SOL    HW139533   4.236   0.817   6.639 -1.4070  0.4626  0.3040
 9300SOL    HW239534   4.154   0.724   6.560 -0.8114 -2.2503  0.2753
 9301SOL     OW39535   3.861   0.431   1.383 -0.0485  0.5311 -0.3762
 9301SOL    HW139536   3.940   0.378   1.396 -0.3808  0.3734  0.9570
 9301SOL    HW239537   3.864   0.411   1.290 -0.6694 -0.7541 -0.1148
 9302SOL     OW39538   2.277   0.379  11.573 -0.7332 -0.0014 -0.5864
 9302SOL    HW139539   2.231   0.297  11.557 -0.9295  0.0101 -0.0685
 9302SOL    HW239540   2.364   0.340  11.566 -0.7350 -0.3487  1.5049
 9303SOL     OW39541   3.669   1.007   8.434 -0.3883  0.5124 -0.2419
 9303SOL    HW139542   3.762   1.017   8.456 -0.6471 -1.3709  1.6579
 9303SOL    HW239543   3.669   0.976   8.344 -0.4049 -1.2690  0.3716
 9304SOL     OW39544   2.601   2.237   5.596  0.2124  0.0548 -0.7209
 9304SOL    HW139545   2.568   2.289   5.670 -0.4892 -0.2566 -0.8163
 9304SOL    HW239546   2.519   2.237   5.547 -1.2006  0.1299  1.6167
 9305SOL     OW39547   0.116   2.773   1.877  0.0516  0.0924  0.2436
 9305SOL    HW139548   0.092   2.841   1.940 -4.7630 -0.6767 -0.7032
 9305SOL    HW239549   0.057   2.710   1.918 -0.2499 -1.6000 -2.8278
 9306SOL     OW39550   1.734   0.309   7.738 -0.1231 -0.0699 -0.0850
 9306SOL    HW139551   1.799   0.282   7.673 -2.1163  2.5534 -3.1296
 9306SOL    HW239552   1.655   0.342   7.695 -0.7972 -0.1317  1.0924
 9307SOL     OW39553   2.548   0.864   2.131 -0.1603 -0.0253  0.3983
 9307SOL    HW139554   2.510   0.827   2.211 -0.9704 -2.3515 -1.0630
 9307SOL    HW239555   2.477   0.860   2.066 -0.6759 -0.7466  1.0083
 9308SOL     OW39556   0.700   3.039   5.008  0.8932  0.4669 -0.5903
 9308SOL    HW139557   0.678   3.048   4.915 -2.4716 -2.8618 -0.1303
 9308SOL    HW239558   0.773   3.100   5.003  0.6555  0.8016  0.0325
 9309SOL     OW39559   2.219   2.273   7.768  0.0428 -0.5198  0.1831
 9309SOL    HW139560   2.308   2.275   7.731 -0.5096 -0.8079 -1.1472
 9309SOL    HW239561   2.175   2.284   7.684 -1.5042  1.7752  1.2856
 9310SOL     OW39562   2.942   2.894   0.614  0.2403  0.2481  0.0816
 9310SOL    HW139563   2.862   2.856   0.652 -0.5253  0.7086 -1.0639
 9310SOL    HW239564   2.923   2.914   0.523  2.1797  0.3111 -0.2990
 9311SOL     OW39565   0.510   0.727   6.308  0.1465  0.4814  0.5563
 9311SOL    HW139566   0.593   0.681   6.324 -0.8910 -2.1217 -1.4624
 9311SOL    HW239567   0.527   0.812   6.349  1.4117  0.5883 -0.1875
 9312SOL     OW39568   4.052   1.998  15.321  0.6511  0.1286 -0.0657
 9312SOL    HW139569   4.083   2.080  15.360 -0.1105  1.2100 -1.7371
 9312SOL    HW239570   4.131   1.953  15.292 -0.0007 -0.6481 -0.6542
 9313SOL     OW39571   0.871   1.956   9.743  0.5961 -0.2628  0.6099
 9313SOL    HW139572   0.864   2.036   9.794  2.0386 -0.9908  1.9563
 9313SOL    HW239573   0.844   1.984   9.655  2.1447  0.3916  0.3514
 9314SOL     OW39574   2.074   2.971   1.618  0.3128  0.3189  0.1535
 9314SOL    HW139575   2.035   3.043   1.667 -1.0746  0.2584 -0.8605
 9314SOL    HW239576   2.064   2.902   1.684  2.1897  1.8152  1.9801
 9315SOL     OW39577   2.617   0.564   5.429 -0.4951 -0.3784 -0.6961
 9315SOL    HW139578   2.592   0.504   5.500  0.6252  0.4798  0.4290
 9315SOL    HW239579   2.608   0.643   5.482  2.1794  0.2022 -1.1120
 9316SOL     OW39580   1.379   0.988  13.481 -0.1565  0.0033 -0.6483
 9316SOL    HW139581   1.368   0.953  13.569 -2.2416  2.8075  0.1905
 9316SOL    HW239582   1.312   1.056  13.472  2.5823  2.5786 -1.3494
 9317SOL     OW39583   0.317   4.170   4.429  0.2434  0.7681 -0.3009
 9317SOL    HW139584   0.408   4.150   4.410  0.5387  1.1222  0.7251
 9317SOL    HW239585   0.321   4.218   4.512 -0.9549 -0.1265  0.2786
 9318SOL     OW39586   2.650   4.227   6.946 -0.2443 -0.3645 -0.5040
 9318SOL    HW139587   2.565   4.262   6.971  0.1053  0.6341 -0.7437
 9318SOL    HW239588   2.677   4.273   6.867 -1.3813 -1.1853 -1.3697
 9319SOL     OW39589   2.068   0.383   4.426  0.0677  0.2165 -0.4916
 9319SOL    HW139590   2.006   0.316   4.455  0.7399  0.4120  1.3961
 9319SOL    HW239591   2.126   0.325   4.376 -2.7472 -2.9293 -0.1253
 9320SOL     OW39592   1.294   3.569   3.932  0.3157  0.6374 -0.8110
 9320SOL    HW139593   1.377   3.536   3.897  0.4531  0.2405 -0.1078
 9320SOL    HW239594   1.332   3.650   3.967  2.7048 -1.1652  0.7515
 9321SOL     OW39595   4.122   0.342  10.211 -0.3776 -0.0872 -0.5143
 9321SOL    HW139596   4.205   0.305  10.240 -0.4936 -1.0783 -1.4748
 9321SOL    HW239597   4.111   0.303  10.124  0.9521  0.9188 -1.1361
 9322SOL     OW39598   3.245   4.193   3.326 -0.9018  0.2439 -0.6655
 9322SOL    HW139599   3.254   4.288   3.337  0.3322  0.0341  0.1217
 9322SOL    HW239600   3.273   4.155   3.409 -0.2497 -1.7903 -1.8256
 9323SOL     OW39601   3.989   1.454   8.040 -0.1032 -0.4441  0.2163
 9323SOL    HW139602   3.925   1.459   7.968 -1.1111 -0.4142  1.1116
 9323SOL    HW239603   3.985   1.537   8.088 -1.9483 -0.0541 -0.6152
 9324SOL     OW39604   1.098   0.184   6.023  0.3177  0.4713  0.1120
 9324SOL    HW139605   1.018   0.147   6.060  1.0164 -2.7293 -1.5460
 9324SOL    HW239606   1.123   0.255   6.083 -0.6498  0.3976  0.6037
 9325SOL     OW39607   4.082   4.018   2.883  0.1185  0.3891 -0.2287
 9325SOL    HW139608   4.032   4.073   2.944 -0.5278  1.8938 -2.1089
 9325SOL    HW239609   4.128   4.085   2.832 -1.4066  0.8778 -0.9710
 9326SOL     OW39610   4.275   2.536   7.113 -0.3769  0.1144  0.1462
 9326SOL    HW139611   4.250   2.469   7.177  0.4999 -0.2279  0.1340
 9326SOL    HW239612   4.243   2.619   7.149 -2.2448 -0.5191 -0.0535
 9327SOL     OW39613   0.398   0.035   2.118 -0.1163  0.2455  0.0891
 9327SOL    HW139614   0.492   0.054   2.117 -0.4310  1.9321  2.3244
 9327SOL    HW239615   0.359   0.102   2.173 -1.6279  0.3724 -1.1510
 9328SOL     OW39616   0.913   2.702   6.214  0.1916 -0.0275  0.3431
 9328SOL    HW139617   0.881   2.631   6.160  0.9779  0.1599 -0.3727
 9328SOL    HW239618   0.877   2.678   6.299 -0.6633  0.5082  0.1361
 9329SOL     OW39619   2.493   4.497   3.154 -0.1267 -0.5990 -0.1373
 9329SOL    HW139620   2.415   4.451   3.186 -0.7476  1.1812  0.9165
 9329SOL    HW239621   2.564   4.442   3.186  0.1129 -0.0497  0.2649
 9330SOL     OW39622   0.196   1.064   5.230 -0.1582 -0.0917  0.3820
 9330SOL    HW139623   0.114   1.060   5.180 -0.3933 -0.0372  0.7695
 9330SOL    HW239624   0.197   1.152   5.267  1.5455  1.0580 -2.3753
 9331SOL     OW39625   3.857   4.135   7.263 -0.1050  0.0037  0.0883
 9331SOL    HW139626   3.855   4.147   7.358  0.5215 -1.0601  0.2274
 9331SOL    HW239627   3.762   4.137   7.247 -0.5407  1.0573  2.7067
 9332SOL     OW39628   4.102   1.415  11.313  0.3402 -0.2931 -0.1173
 9332SOL    HW139629   4.126   1.430  11.404 -2.0151 -2.5577  0.8643
 9332SOL    HW239630   4.008   1.433  11.316  0.2541 -0.8128  0.1867
 9333SOL     OW39631   1.184   2.097  12.762 -0.4278 -0.4458 -0.4082
 9333SOL    HW139632   1.099   2.111  12.721 -0.8766  1.6409  1.1956
 9333SOL    HW239633   1.212   2.188  12.777 -1.8942 -0.1077  0.3029
 9334SOL     OW39634   0.773   1.229   1.672 -0.0901  0.1919  0.3459
 9334SOL    HW139635   0.680   1.232   1.651  0.2187  0.5716 -0.9785
 9334SOL    HW239636   0.776   1.267   1.760  1.3170 -0.9754  0.7931
 9335SOL     OW39637   4.350   0.801   5.421  0.2657 -0.0943  0.4849
 9335SOL    HW139638   4.271   0.818   5.473  1.5801 -0.8090  2.7216
 9335SOL    HW239639   4.380   0.721   5.464 -0.7943 -0.3382  0.7699
 9336SOL     OW39640   3.115   3.061   3.640 -0.5282  0.3207  0.5810
 9336SOL    HW139641   3.053   2.999   3.677 -0.0714  0.0484  0.8886
 9336SOL    HW239642   3.174   3.084   3.712 -0.9342 -0.2333  1.0908
 9337SOL     OW39643   0.285   1.315  11.813 -0.0569 -0.1852 -0.5028
 9337SOL    HW139644   0.369   1.269  11.809 -1.4439 -2.8906  1.0312
 9337SOL    HW239645   0.267   1.318  11.907 -0.9001 -1.4867 -0.6202
 9338SOL     OW39646   1.197   1.056   4.568 -0.5847 -0.2526 -0.6290
 9338SOL    HW139647   1.110   1.088   4.542 -0.3520 -0.0037 -1.0930
 9338SOL    HW239648   1.238   1.139   4.545 -1.8151  0.1382 -1.4469
 9339SOL     OW39649   0.396   4.453  13.805 -0.3910 -0.2972  0.2005
 9339SOL    HW139650   0.454   4.383  13.778 -0.2645 -0.7200  1.5764
 9339SOL    HW239651   0.379   4.497  13.722 -0.2622 -0.2890  0.1777
 9340SOL     OW39652   0.666   2.081   3.139 -0.1454 -0.4357  0.3038
 9340SOL    HW139653   0.618   2.147   3.089 -1.3244  0.1225  2.1585
 9340SOL    HW239654   0.598   2.072   3.206 -2.2871  4.7695 -1.0953
 9341SOL     OW39655   1.635   1.745   7.559 -0.3653 -0.5808  0.0767
 9341SOL    HW139656   1.559   1.750   7.501 -0.5930 -0.4151  0.3900
 9341SOL    HW239657   1.667   1.658   7.535  2.2941  0.4557 -0.1646
 9342SOL     OW39658   4.163   0.998   4.050 -0.0606 -0.2578  0.2883
 9342SOL    HW139659   4.137   1.018   4.140 -1.7250  2.0317 -0.6896
 9342SOL    HW239660   4.198   1.086   4.034  1.1215 -1.1813 -2.2505
 9343SOL     OW39661   1.788   2.294   2.685 -0.2282  0.4335  0.0567
 9343SOL    HW139662   1.788   2.364   2.751  0.3465  0.2333  0.2736
 9343SOL    HW239663   1.762   2.222   2.743  0.1108 -0.2660 -0.6735
 9344SOL     OW39664   1.085   1.567   3.637  0.0186  0.6304 -0.4811
 9344SOL    HW139665   1.001   1.586   3.597 -0.0698 -0.3573 -0.7589
 9344SOL    HW239666   1.137   1.562   3.557 -0.5253 -0.8548 -0.7315
 9345SOL     OW39667   4.010   2.003   6.430 -0.4507  0.4237  0.6420
 9345SOL    HW139668   4.068   2.017   6.504  1.3424  0.6931 -0.8108
 9345SOL    HW239669   3.950   1.938   6.466  0.7119 -0.5850  0.7306
 9346SOL     OW39670   3.251   2.697   1.049  0.1940  0.1374  0.0311
 9346SOL    HW139671   3.185   2.631   1.029  0.7550 -0.0339 -1.2669
 9346SOL    HW239672   3.274   2.676   1.139  1.3572  1.4050  0.0291
 9347SOL     OW39673   0.323   1.481   8.648  0.0692 -0.5231 -0.2231
 9347SOL    HW139674   0.390   1.461   8.714 -1.1354  1.4248  1.6255
 9347SOL    HW239675   0.342   1.435   8.567 -0.3419 -1.4647  0.2204
 9348SOL     OW39676   2.271   2.997   4.800 -0.0838 -0.2021 -0.7760
 9348SOL    HW139677   2.349   3.022   4.848  0.8483 -2.3095 -1.2064
 9348SOL    HW239678   2.228   2.944   4.866  1.3275 -0.7117 -0.2759
 9349SOL     OW39679   4.260   4.334   3.646  0.2276  0.6639  0.1812
 9349SOL    HW139680   4.215   4.251   3.634 -0.9875  1.0439  2.2059
 9349SOL    HW239681   4.181   4.387   3.651 -0.7356 -0.6539 -1.1300
 9350SOL     OW39682   4.381   4.586   8.240 -0.1347  0.1517 -0.3995
 9350SOL    HW139683   4.420   4.585   8.152  0.6903  0.3907 -0.0312
 9350SOL    HW239684   4.409   4.670   8.275 -0.0115  0.6612 -1.6973
 9351SOL     OW39685   1.208   1.906   7.849  0.1014  0.2982 -0.1441
 9351SOL    HW139686   1.171   1.956   7.922 -0.3553 -0.3367  0.0638
 9351SOL    HW239687   1.212   1.824   7.898  0.1659  0.2583 -0.2156
 9352SOL     OW39688   3.230   2.270   9.838  0.0103  0.6073 -0.2455
 9352SOL    HW139689   3.208   2.327   9.911 -0.1246  1.2455 -0.7808
 9352SOL    HW239690   3.196   2.315   9.761 -0.3254  0.5264 -0.1442
 9353SOL     OW39691   3.884   0.316   7.863  0.0876  0.0530  0.8153
 9353SOL    HW139692   3.949   0.359   7.919  0.1726  1.7623 -0.6175
 9353SOL    HW239693   3.887   0.373   7.786  3.4356  0.7097  1.4218
 9354SOL     OW39694   4.352   4.407   6.734  0.0733  0.5118 -0.3529
 9354SOL    HW139695   4.360   4.314   6.756 -2.1966  0.6377  1.0316
 9354SOL    HW239696   4.362   4.444   6.822 -1.7975 -0.8173  0.4275
 9355SOL     OW39697   2.008   1.082  15.608  0.0301  0.2390  0.7457
 9355SOL    HW139698   2.083   1.032  15.639  0.8385  0.3435 -1.0001
 9355SOL    HW239699   2.017   1.099  15.514 -0.7783  1.3536  0.8740
 9356SOL     OW39700   0.898   2.229   4.091 -0.2088 -0.4544 -0.3592
 9356SOL    HW139701   0.825   2.173   4.116  1.8487 -2.8239  0.4097
 9356SOL    HW239702   0.904   2.282   4.170 -0.7271 -0.8023 -0.0907
 9357SOL     OW39703   4.048   2.350   2.855  0.4114 -0.0845  0.3720
 9357SOL    HW139704   4.141   2.349   2.876  0.6422 -1.0700 -0.7045
 9357SOL    HW239705   4.041   2.440   2.823 -1.3916 -0.8604 -1.3805
 9358SOL     OW39706   2.650   4.426  15.402  0.0929  0.5531 -0.7827
 9358SOL    HW139707   2.695   4.375  15.335  1.8470 -1.0987  1.7055
 9358SOL    HW239708   2.716   4.419  15.471 -0.4991 -2.2220 -0.4955
 9359SOL     OW39709   2.935   1.696  13.120  0.0318 -0.1476  0.6231
 9359SOL    HW139710   2.950   1.776  13.170  0.4069  0.7894 -0.9854
 9359SOL    HW239711   3.026   1.684  13.091  0.7884 -2.7875  4.0891
 9360SOL     OW39712   0.527   3.529   6.203 -0.2787  0.4234 -0.4844
 9360SOL    HW139713   0.440   3.521   6.242 -0.4532  0.1343 -0.9351
 9360SOL    HW239714   0.572   3.554   6.284 -3.8809  0.2270  1.5502
 9361SOL     OW39715   3.698   2.400  11.994  0.0902 -0.3780 -0.2411
 9361SOL    HW139716   3.685   2.308  11.970 -2.2637  0.5179 -2.4303
 9361SOL    HW239717   3.617   2.442  11.967  0.2143 -0.3116 -0.5148
 9362SOL     OW39718   1.256   3.290   6.440 -0.3435 -0.2640 -0.1634
 9362SOL    HW139719   1.336   3.298   6.388  0.6201 -2.3918  1.0015
 9362SOL    HW239720   1.292   3.314   6.526 -0.2579  2.3950 -0.9587
 9363SOL     OW39721   2.300   1.648   6.010  0.4060  0.1030 -0.4032
 9363SOL    HW139722   2.338   1.568   5.975  0.4341 -0.6454  1.3546
 9363SOL    HW239723   2.238   1.612   6.073  1.4564 -0.4377  0.3174
 9364SOL     OW39724   3.298   0.786   2.469 -0.4610  0.7272 -0.1215
 9364SOL    HW139725   3.326   0.876   2.483  0.5655  0.1177  1.8087
 9364SOL    HW239726   3.364   0.750   2.411 -0.9276  3.4536 -2.3095
 9365SOL     OW39727   2.655   3.046   2.630  0.1626  0.3129 -0.1385
 9365SOL    HW139728   2.651   3.049   2.535  1.2520 -1.4293 -0.2511
 9365SOL    HW239729   2.609   3.128   2.645  1.1732  1.0123 -0.8975
 9366SOL     OW39730   0.357   3.445   9.304  0.1165  0.4831  0.0747
 9366SOL    HW139731   0.401   3.414   9.224 -0.2799 -1.1680  0.4851
 9366SOL    HW239732   0.336   3.537   9.291 -1.6122  0.3976  2.2963
 9367SOL     OW39733   3.013   1.395   9.906  0.2637  0.3215 -0.0578
 9367SOL    HW139734   3.012   1.420   9.813  0.7600  1.6549  0.3037
 9367SOL    HW239735   3.038   1.303   9.895  0.7933  0.3344  1.0728
 9368SOL     OW39736   1.111   1.620  14.445  0.3524  0.3430 -0.3624
 9368SOL    HW139737   1.133   1.608  14.353 -0.9405  1.6076 -0.8321
 9368SOL    HW239738   1.145   1.541  14.488 -0.8139 -0.1746 -0.3961
 9369SOL     OW39739   0.835   4.000   4.469 -0.4275  1.0046 -0.0228
 9369SOL    HW139740   0.757   3.969   4.423  0.6212 -1.3570 -0.1966
 9369SOL    HW239741   0.825   4.091   4.444 -0.1567  1.6215  2.1368
 9370SOL     OW39742   2.476   1.095   8.901 -0.5087  0.3017 -0.0732
 9370SOL    HW139743   2.561   1.138   8.912 -0.7101  1.4114 -2.7724
 9370SOL    HW239744   2.471   1.056   8.988 -2.6211 -1.1625 -0.8349
 9371SOL     OW39745   1.646   4.139   7.674  0.5083  0.2252 -0.3040
 9371SOL    HW139746   1.701   4.072   7.715 -0.4832 -0.9237 -0.8613
 9371SOL    HW239747   1.602   4.080   7.614  1.2018 -0.2086 -0.3793
 9372SOL     OW39748   4.339   0.660   3.825  0.3210 -0.1720  0.1211
 9372SOL    HW139749   4.382   0.724   3.881  1.6815 -1.2443  0.2991
 9372SOL    HW239750   4.330   0.578   3.874  1.9555 -1.1912 -1.2773
 9373SOL     OW39751   0.063   1.569   7.383 -0.1481 -0.1393 -0.2878
 9373SOL    HW139752   0.111   1.642   7.422 -1.4720  0.5560  0.0117
 9373SOL    HW239753   0.072   1.502   7.451 -2.1361 -0.3512 -0.2491
 9374SOL     OW39754   2.556   1.971  10.017  0.4683 -0.1347  0.2039
 9374SOL    HW139755   2.493   1.954  10.087  1.7632  0.4791  1.5121
 9374SOL    HW239756   2.507   1.942   9.940  1.9378  0.9705 -1.1462
 9375SOL     OW39757   4.367   3.366  12.192  0.3590  0.3399  0.0626
 9375SOL    HW139758   4.327   3.287  12.157 -0.2080  0.6668 -0.0315
 9375SOL    HW239759   4.413   3.326  12.266 -0.9471 -0.5339  0.4037
 9376SOL     OW39760   1.511   1.759   4.274 -0.2686 -0.3430  0.0583
 9376SOL    HW139761   1.572   1.716   4.334  0.1786 -0.3912 -0.4313
 9376SOL    HW239762   1.561   1.796   4.201 -0.2439 -1.7047 -0.6026
 9377SOL     OW39763   2.071   4.527   9.298 -0.4541  0.1563 -0.1937
 9377SOL    HW139764   2.111   4.563   9.377 -3.0089 -0.1894  1.2145
 9377SOL    HW239765   2.139   4.549   9.234 -0.4794  3.9296  1.0743
 9378SOL     OW39766   4.260   0.363   0.609  0.0434 -0.0474  0.0645
 9378SOL    HW139767   4.237   0.386   0.519 -2.2131  0.4465  0.7759
 9378SOL    HW239768   4.295   0.274   0.596 -1.8077 -0.7897  0.2075
 9379SOL     OW39769   2.963   3.251   6.582  0.1860  0.8542  0.2484
 9379SOL    HW139770   2.967   3.337   6.539  0.1361  0.6734 -0.1200
 9379SOL    HW239771   2.877   3.244   6.624  0.2149 -1.7509 -0.1241
 9380SOL     OW39772   1.568   0.862   8.987  0.7073  0.3553  0.5527
 9380SOL    HW139773   1.621   0.802   8.933 -0.2381 -0.0115  0.0399
 9380SOL    HW239774   1.577   0.947   8.942  1.5974  1.5401  2.9806
 9381SOL     OW39775   4.651   0.548  15.285 -0.1823  0.2364 -0.6072
 9381SOL    HW139776   4.581   0.613  15.287 -0.0814  0.3483 -0.7483
 9381SOL    HW239777   4.703   0.569  15.362  1.2936 -0.4361 -1.4233
 9382SOL     OW39778   2.387   0.929  10.746  0.1776 -0.0309 -0.2392
 9382SOL    HW139779   2.311   0.982  10.724  1.6758  2.2328 -0.0314
 9382SOL    HW239780   2.423   0.923  10.657  1.5645  0.3711  0.2954
 9383SOL     OW39781   3.847   1.139   7.292 -0.0670 -0.2138  0.0213
 9383SOL    HW139782   3.911   1.139   7.363  0.6560  0.5981 -0.6262
 9383SOL    HW239783   3.853   1.044   7.281 -3.0834 -0.2874 -0.9485
 9384SOL     OW39784   3.491   2.577   4.568 -0.5231  0.1329 -0.3287
 9384SOL    HW139785   3.432   2.544   4.500 -0.6299 -1.0317  0.3454
 9384SOL    HW239786   3.487   2.511   4.636  0.6055 -0.0770 -0.4681
 9385SOL     OW39787   0.907   1.096   4.500 -0.1052 -0.0176 -0.3362
 9385SOL    HW139788   0.921   1.117   4.408  0.0031  1.4946  0.0276
 9385SOL    HW239789   0.813   1.083   4.509 -0.6510  2.1948 -3.0372
 9386SOL     OW39790   2.014   2.397   4.978  0.3454  0.5427 -0.6348
 9386SOL    HW139791   2.018   2.445   5.060 -0.6768  1.3278 -1.0423
 9386SOL    HW239792   2.000   2.306   5.003  0.1809  0.4693 -0.9845
 9387SOL     OW39793   4.309   0.303   2.336 -0.5656 -0.1228 -0.1695
 9387SOL    HW139794   4.246   0.255   2.282  2.0038 -0.2195 -3.0551
 9387SOL    HW239795   4.381   0.326   2.277 -0.6616 -1.5346 -0.8345
 9388SOL     OW39796   3.451   4.387   1.357  0.4333  0.3575 -0.1264
 9388SOL    HW139797   3.455   4.356   1.448 -1.6299 -1.8672 -0.7845
 9388SOL    HW239798   3.362   4.422   1.363  1.2174  1.8828  2.6776
 9389SOL     OW39799   3.020   2.770   8.516 -0.6971  0.0457  0.8371
 9389SOL    HW139800   2.973   2.834   8.462  0.4939  0.2644  0.0539
 9389SOL    HW239801   3.109   2.774   8.481 -1.5152 -0.0471 -1.2566
 9390SOL     OW39802   2.952   3.905  14.524  0.2103 -0.2370  0.0595
 9390SOL    HW139803   2.898   3.829  14.504  0.2148 -0.1833 -0.1578
 9390SOL    HW239804   2.942   3.962  14.448 -0.6584  0.4009  0.6487
 9391SOL     OW39805   0.855   4.182  14.948  0.9484 -0.0232  0.2234
 9391SOL    HW139806   0.791   4.251  14.937  0.3206 -0.8826 -1.5071
 9391SOL    HW239807   0.800   4.115  14.989  0.6237 -0.5020 -0.9922
 9392SOL     OW39808   2.505   2.876   7.098  0.1925 -0.1657  0.2119
 9392SOL    HW139809   2.427   2.931   7.091 -0.3077 -0.7269  1.3577
 9392SOL    HW239810   2.541   2.863   7.010 -2.4832 -1.2528 -0.7133
 9393SOL     OW39811   0.500   1.086   2.135  0.3271 -0.2223 -0.0042
 9393SOL    HW139812   0.571   1.066   2.073  0.4546 -0.2026  0.1355
 9393SOL    HW239813   0.549   1.100   2.216 -3.7217 -1.3221  2.6421
 9394SOL     OW39814   2.188   0.004   3.307  0.1882 -0.3525  0.0141
 9394SOL    HW139815   2.116   0.043   3.357 -0.3740 -0.1816 -0.9211
 9394SOL    HW239816   2.140   4.691   3.241 -0.0015 -0.0171 -0.1031
 9395SOL     OW39817   0.520   2.121   5.464 -0.8690 -0.0025  0.2667
 9395SOL    HW139818   0.442   2.172   5.439 -1.2327 -0.3502  0.6791
 9395SOL    HW239819   0.471   2.073   5.531 -0.9364  1.5608  1.3659
 9396SOL     OW39820   0.674   3.662   8.359  0.1847  0.4779  0.2239
 9396SOL    HW139821   0.648   3.719   8.287 -2.6212 -0.4807  0.4418
 9396SOL    HW239822   0.626   3.699   8.434  1.1325  0.4206  0.8610
 9397SOL     OW39823   4.674   4.478  13.328 -0.2546  0.1654 -0.5190
 9397SOL    HW139824   4.709   4.553  13.376 -2.2315 -0.3920  1.8083
 9397SOL    HW239825   0.006   4.412  13.338 -1.5589 -1.1081  0.2671
 9398SOL     OW39826   1.571   2.511  17.598  0.5863  0.1734 -0.7280
 9398SOL    HW139827   1.585   2.556  17.515 -0.7013  0.6279 -0.7040
 9398SOL    HW239828   1.520   2.435  17.570 -0.1189 -0.0434  1.1114
 9399SOL     OW39829   2.125   4.568   7.604  0.1779  0.7778  0.3652
 9399SOL    HW139830   2.139   4.662   7.601  2.8513  0.2336 -3.5632
 9399SOL    HW239831   2.042   4.554   7.558  1.3815 -2.3116 -0.9008
 9400SOL     OW39832   2.967   2.690   1.169  0.0394 -0.2073  0.1685
 9400SOL    HW139833   3.002   2.773   1.202  0.3412  0.0495 -0.8196
 9400SOL    HW239834   2.906   2.675   1.242 -0.8926  3.0321  0.0547
 9401SOL     OW39835   2.760   0.581   3.120 -0.5373 -0.0281  0.1813
 9401SOL    HW139836   2.687   0.627   3.163 -0.7103  2.2682 -2.5612
 9401SOL    HW239837   2.729   0.579   3.030 -1.7711  1.6189  0.5584
 9402SOL     OW39838   2.850   3.551   3.813 -0.4163  0.0802  0.0729
 9402SOL    HW139839   2.833   3.485   3.881 -2.8978  0.2679 -0.3692
 9402SOL    HW239840   2.766   3.551   3.767 -0.6758 -1.3446  0.5539
 9403SOL     OW39841   4.540   0.298  16.848 -0.0791  0.2609 -0.0587
 9403SOL    HW139842   4.498   0.327  16.767  0.9661 -0.2706 -0.7978
 9403SOL    HW239843   4.507   0.211  16.869 -0.3985  0.0490 -1.4172
 9404SOL     OW39844   4.464   4.086   2.435  0.4811  0.0970 -0.0280
 9404SOL    HW139845   4.431   4.035   2.361 -0.2575 -1.1099  1.1557
 9404SOL    HW239846   4.396   4.138   2.477  1.2883  0.7520  0.4683
 9405SOL     OW39847   1.047   1.608   7.378  0.1711  0.4082 -0.4013
 9405SOL    HW139848   1.042   1.661   7.458 -2.3010  1.4612 -1.2432
 9405SOL    HW239849   1.019   1.519   7.401 -1.6522  0.8865 -0.7522
 9406SOL     OW39850   0.190   0.222  13.735 -0.3015  0.1741  0.1946
 9406SOL    HW139851   0.119   0.186  13.789 -0.2726  1.0703  0.8261
 9406SOL    HW239852   0.208   0.153  13.671  0.4672 -0.6606  1.3132
 9407SOL     OW39853   3.384   4.311  13.189 -0.3198 -0.2211  0.0450
 9407SOL    HW139854   3.358   4.234  13.138  1.1723  0.4251 -1.6895
 9407SOL    HW239855   3.415   4.362  13.114 -2.4888  0.4463 -0.3920
 9408SOL     OW39856   3.229   4.564   5.593 -0.0014  0.4577 -0.2279
 9408SOL    HW139857   3.300   4.627   5.582  1.2029 -0.9259 -0.3111
 9408SOL    HW239858   3.153   4.596   5.544 -1.1694  0.5446  1.6402
 9409SOL     OW39859   2.564   2.924   0.312 -0.7538  0.5320  0.5127
 9409SOL    HW139860   2.521   3.008   0.298  1.2471  1.3540 -0.7059
 9409SOL    HW239861   2.565   2.884   0.225  3.6561 -2.4273  1.9198
 9410SOL     OW39862   2.091   4.590  17.440  0.0620 -0.1972 -0.3471
 9410SOL    HW139863   2.018   4.623  17.492  0.9028 -0.4020  0.9575
 9410SOL    HW239864   2.128   4.673  17.410 -1.3499  0.8010  0.6661
 9411SOL     OW39865   3.137   1.065   6.439  0.2317  0.3369 -0.2936
 9411SOL    HW139866   3.136   1.124   6.363 -3.7328 -0.2018 -0.6804
 9411SOL    HW239867   3.227   1.078   6.469  1.2823  1.5111 -4.0028
 9412SOL     OW39868   4.290   3.734   6.150 -0.5425 -0.5974  0.1776
 9412SOL    HW139869   4.226   3.751   6.082 -0.3766 -1.5858 -0.2213
 9412SOL    HW239870   4.372   3.741   6.101 -0.3130  0.0684  0.6547
 9413SOL     OW39871   1.412   3.005   9.325 -0.1725 -0.0997 -0.5693
 9413SOL    HW139872   1.462   2.926   9.344  1.0588  0.5122 -1.2760
 9413SOL    HW239873   1.444   3.066   9.391 -0.6396 -0.4418 -0.0286
 9414SOL     OW39874   1.571   0.056   8.068 -0.4487  0.6548  0.5147
 9414SOL    HW139875   1.518   4.733   8.016 -1.0497  0.0910  1.7728
 9414SOL    HW239876   1.514   0.068   8.144  0.3671  0.5551  1.1495
 9415SOL     OW39877   3.896   1.399   1.627  0.3241 -0.0912  0.0982
 9415SOL    HW139878   3.846   1.478   1.651  0.6318 -0.2026  1.1164
 9415SOL    HW239879   3.881   1.384   1.534  0.1776 -1.3885  0.3254
 9416SOL     OW39880   1.865   3.116   8.421 -0.6585 -0.4554 -0.5806
 9416SOL    HW139881   1.858   3.212   8.416 -1.1420 -0.4857 -0.4457
 9416SOL    HW239882   1.954   3.112   8.385  0.3918  0.0297  1.9533
 9417SOL     OW39883   1.642   2.685   5.941 -0.0357 -0.0955  0.1038
 9417SOL    HW139884   1.657   2.667   6.034  0.0366  1.7397  0.4341
 9417SOL    HW239885   1.590   2.764   5.953 -0.1432  0.1395 -1.9383
 9418SOL     OW39886   0.789   1.652  15.332  0.7543 -0.3974 -0.6445
 9418SOL    HW139887   0.834   1.722  15.285 -1.4302  1.3611 -0.1501
 9418SOL    HW239888   0.858   1.586  15.326  0.5684 -0.6692  0.2606
 9419SOL     OW39889   2.303   2.485  14.181 -0.5382  0.2094 -0.0954
 9419SOL    HW139890   2.279   2.491  14.089  1.5292  0.3260 -0.6294
 9419SOL    HW239891   2.226   2.526  14.221 -1.0414  0.5061 -1.3838
 9420SOL     OW39892   3.593   2.372   2.225  0.2313  0.1714  0.2867
 9420SOL    HW139893   3.575   2.297   2.282  0.3071 -0.5086 -0.5935
 9420SOL    HW239894   3.547   2.338   2.148  2.2721 -0.1439 -0.7905
 9421SOL     OW39895   1.801   2.673   7.984  0.1974  0.1003  0.5947
 9421SOL    HW139896   1.860   2.735   8.027  0.6719  1.2567 -1.7325
 9421SOL    HW239897   1.722   2.724   7.965  0.5598  0.4242 -0.0459
 9422SOL     OW39898   4.730   1.140   2.618  0.5947  0.1939 -0.3874
 9422SOL    HW139899   4.645   1.139   2.574 -0.6887  0.4534  2.0801
 9422SOL    HW239900   0.051   1.123   2.544  0.2987  0.7822 -0.7641
 9423SOL     OW39901   1.969   2.960   3.844  0.4376 -0.5344  0.0934
 9423SOL    HW139902   2.021   2.922   3.915  0.4322  0.4210  0.6001
 9423SOL    HW239903   2.008   2.929   3.761 -0.8088 -0.5137 -0.4931
 9424SOL     OW39904   3.375   2.664   1.910  0.1766 -0.1149 -0.0224
 9424SOL    HW139905   3.325   2.709   1.842 -1.1766  0.9819  1.7078
 9424SOL    HW239906   3.423   2.742   1.937 -1.3453  0.4154  1.1191
 9425SOL     OW39907   2.264   4.438   2.793 -0.6754  0.1459 -0.3847
 9425SOL    HW139908   2.169   4.432   2.784 -0.6677  0.1675 -0.4764
 9425SOL    HW239909   2.282   4.346   2.812  3.2085  1.5988  2.9432
 9426SOL     OW39910   1.252   1.683   8.007  0.5562 -0.0705 -0.0148
 9426SOL    HW139911   1.302   1.711   8.084  1.8827 -3.1342  0.2150
 9426SOL    HW239912   1.239   1.592   8.031 -1.1609  0.2641  0.3190
 9427SOL     OW39913   2.663   1.529   3.078 -0.0978 -0.3149 -0.1315
 9427SOL    HW139914   2.660   1.506   3.171  0.0419 -1.2276 -0.3556
 9427SOL    HW239915   2.666   1.624   3.093  0.3107 -0.4485  0.6614
 9428SOL     OW39916   4.310   4.001   2.199  0.2409  0.4246  0.2687
 9428SOL    HW139917   4.220   4.013   2.169  0.2239 -0.9333 -0.2065
 9428SOL    HW239918   4.359   4.008   2.117  0.7948  0.0161  0.5600
 9429SOL     OW39919   4.112   4.321   0.023 -0.7418 -0.4656 -0.7033
 9429SOL    HW139920   4.118   4.365   0.108 -2.9010 -1.0356 -0.2683
 9429SOL    HW239921   4.026   4.279   0.022 -1.7783  1.6638 -0.4682
 9430SOL     OW39922   1.282   1.481  12.203  0.0746 -0.1275 -0.4605
 9430SOL    HW139923   1.216   1.497  12.271 -0.4258  1.4849 -1.3459
 9430SOL    HW239924   1.317   1.570  12.206 -0.2904  0.0058 -0.1369
 9431SOL     OW39925   4.268   1.806   4.425  0.0648 -0.4054 -0.1645
 9431SOL    HW139926   4.178   1.839   4.419 -1.2497 -3.1803  4.4739
 9431SOL    HW239927   4.252   1.720   4.385 -2.4253  0.8191 -1.8308
 9432SOL     OW39928   4.063   4.568   2.191 -0.2279 -0.1310  0.2929
 9432SOL    HW139929   4.091   4.479   2.214  0.8222 -0.3086 -1.6657
 9432SOL    HW239930   3.989   4.573   2.251 -0.4033  1.6150 -0.0713
 9433SOL     OW39931   4.272   0.788   8.561  0.1357 -0.2645 -0.3428
 9433SOL    HW139932   4.295   0.775   8.653  1.2518  1.0743 -0.4377
 9433SOL    HW239933   4.319   0.718   8.515  1.2544 -0.3357  0.8964
 9434SOL     OW39934   0.423   1.269   2.682 -0.1569 -0.4992 -0.2937
 9434SOL    HW139935   0.350   1.258   2.743  1.4751 -2.4032  1.2956
 9434SOL    HW239936   0.398   1.207   2.613 -0.9443 -0.9403  0.3899
 9435SOL     OW39937   4.286   2.108   4.650 -0.2108  0.1479  0.2391
 9435SOL    HW139938   4.203   2.140   4.614  0.5407 -0.3676 -1.9559
 9435SOL    HW239939   4.287   2.169   4.723  0.2535 -0.1673  0.4916
 9436SOL     OW39940   3.085   2.746   9.962 -0.2577 -1.0123  0.3640
 9436SOL    HW139941   3.141   2.800  10.018  1.5666 -1.0800 -1.4194
 9436SOL    HW239942   3.153   2.703   9.911  0.2393 -1.1593  1.1403
 9437SOL     OW39943   2.275   3.817   5.643  0.0129 -0.2277  0.3604
 9437SOL    HW139944   2.276   3.862   5.727  0.1031 -0.5298  0.5215
 9437SOL    HW239945   2.363   3.781   5.633  1.1303  2.5499  0.4138
 9438SOL     OW39946   4.705   2.551   8.632  0.8783 -0.0356  0.6109
 9438SOL    HW139947   0.030   2.487   8.667  2.1626  1.0666  0.3441
 9438SOL    HW239948   0.008   2.634   8.656 -1.8560  1.4094  0.1516
 9439SOL     OW39949   2.582   3.117   8.206 -0.0229 -0.2372  0.0973
 9439SOL    HW139950   2.496   3.123   8.165 -0.4676  1.7350  1.3380
 9439SOL    HW239951   2.579   3.180   8.277 -0.3166 -0.1495  0.0050
 9440SOL     OW39952   3.207   2.257   2.932  0.8322  0.1038  0.0389
 9440SOL    HW139953   3.239   2.208   2.857  0.8684  0.0419  0.0944
 9440SOL    HW239954   3.114   2.265   2.910  0.5229  2.1002  1.9893
 9441SOL     OW39955   0.486   3.282   8.623  0.1356 -0.1967  0.2817
 9441SOL    HW139956   0.486   3.242   8.536  3.1327 -2.0132  1.1074
 9441SOL    HW239957   0.429   3.356   8.605 -1.0749 -1.2058  0.0121
 9442SOL     OW39958   0.761   2.670  13.363 -0.1795  0.8232  0.3607
 9442SOL    HW139959   0.691   2.608  13.344 -2.3819  2.8771  1.8410
 9442SOL    HW239960   0.773   2.704  13.275  0.9678 -0.0914  0.1559
 9443SOL     OW39961   2.084   3.406   7.349  0.5168  0.0056  0.1547
 9443SOL    HW139962   2.155   3.342   7.360 -0.9207 -1.7819 -1.0973
 9443SOL    HW239963   2.130   3.464   7.289  0.4456  0.8009  0.8635
 9444SOL     OW39964   0.136   3.190   2.992  0.2171  0.1705 -0.1109
 9444SOL    HW139965   0.137   3.279   3.026 -0.2465  0.6683 -1.3930
 9444SOL    HW239966   0.072   3.195   2.921  0.3113 -1.0075 -0.2890
 9445SOL     OW39967   0.431   3.826   1.729 -0.2237  0.4431 -0.0555
 9445SOL    HW139968   0.425   3.743   1.775  0.6764  0.7348  0.5985
 9445SOL    HW239969   0.387   3.889   1.786 -0.5513 -0.3193  0.5256
 9446SOL     OW39970   4.137   1.033   5.026  0.6902 -0.2182  0.3582
 9446SOL    HW139971   4.203   1.081   4.975  1.6308 -0.9812  0.8442
 9446SOL    HW239972   4.177   1.022   5.112  0.2069 -1.0109  0.4816
 9447SOL     OW39973   1.438   0.238   6.338  0.1922 -0.0361 -0.5264
 9447SOL    HW139974   1.497   0.165   6.356 -1.7996 -1.0594  1.8807
 9447SOL    HW239975   1.484   0.274   6.262 -1.2216  1.3313 -0.7442
 9448SOL     OW39976   2.214   0.759  11.866 -0.6029  0.0073 -0.6944
 9448SOL    HW139977   2.196   0.727  11.778 -0.3677  0.1258 -0.7872
 9448SOL    HW239978   2.302   0.796  11.851 -0.1721 -1.4446 -1.7138
 9449SOL     OW39979   3.671   2.367   6.092  0.0403 -0.9952  0.0546
 9449SOL    HW139980   3.717   2.285   6.072  1.2194 -0.0688 -0.9761
 9449SOL    HW239981   3.581   2.334   6.082 -0.0850 -0.9834  1.2105
 9450SOL     OW39982   4.580   4.695   0.876  0.5106  0.0308  0.1755
 9450SOL    HW139983   4.616   4.663   0.959  0.8268  2.9692  1.1703
 9450SOL    HW239984   4.632   0.036   0.859  1.3218 -0.1381  1.9085
 9451SOL     OW39985   0.244   3.531  10.651  0.0472  0.7492  0.4156
 9451SOL    HW139986   0.154   3.501  10.641  1.0574 -1.0139 -3.2810
 9451SOL    HW239987   0.248   3.625  10.636  2.7682  1.0566  2.9699
 9452SOL     OW39988   3.412   3.211   4.598 -0.9552  0.5295 -0.4617
 9452SOL    HW139989   3.325   3.184   4.628 -0.0734 -0.8532  0.8951
 9452SOL    HW239990   3.449   3.259   4.672 -0.9654 -1.2866  0.7469
 9453SOL     OW39991   1.831   1.171   6.351  0.5042 -0.3168  0.1476
 9453SOL    HW139992   1.763   1.121   6.307  1.5139 -0.8926 -0.7639
 9453SOL    HW239993   1.865   1.108   6.414 -0.1767  0.7775  1.6212
 9454SOL     OW39994   4.433   3.553  11.254 -0.5381  0.0995  0.0376
 9454SOL    HW139995   4.434   3.596  11.168  0.7441 -1.1655 -0.5799
 9454SOL    HW239996   4.393   3.622  11.307 -1.7967 -1.7427  1.4617
 9455SOL     OW39997   3.539   0.019   4.691 -0.1354 -0.3884 -0.4914
 9455SOL    HW139998   3.532   4.736   4.785 -0.4824 -0.0602 -0.4466
 9455SOL    HW239999   3.543   4.669   4.652  1.4592 -0.7482  0.4620
 9456SOL     OW40000   4.037   4.469   3.630  0.3002 -0.2468 -0.1045
 9456SOL    HW140001   4.032   4.565   3.624  2.0595 -0.1899 -0.5877
 9456SOL    HW240002   3.999   4.448   3.545  2.4894 -1.5922 -0.7403
 9457SOL     OW40003   3.130   2.475   0.920 -0.6197  0.0257 -0.0757
 9457SOL    HW140004   3.052   2.420   0.909  0.3486 -1.1262 -1.1390
 9457SOL    HW240005   3.125   2.550   0.862 -0.1863  0.8182  0.9090
 9458SOL     OW40006   1.322   1.469  15.486  0.2059 -0.4930 -0.2622
 9458SOL    HW140007   1.334   1.458  15.392 -0.3866 -0.1163 -0.3865
 9458SOL    HW240008   1.398   1.423  15.519  0.3006  0.8239  1.3753
 9459SOL     OW40009   0.336   3.288   8.315  0.0272  0.2884  0.8634
 9459SOL    HW140010   0.293   3.205   8.295 -0.4115  1.0524 -1.2776
 9459SOL    HW240011   0.291   3.320   8.393  0.6892  0.2534  1.2640
 9460SOL     OW40012   2.425   3.159  12.498  0.2744 -1.2150 -0.5404
 9460SOL    HW140013   2.443   3.121  12.584  0.8764  2.3171  0.9034
 9460SOL    HW240014   2.330   3.165  12.506  0.5370 -0.7257  2.2663
 9461SOL     OW40015   1.622   3.498  15.882  0.2743 -0.7111  0.4800
 9461SOL    HW140016   1.675   3.577  15.880  0.9431 -1.2268 -2.9419
 9461SOL    HW240017   1.687   3.434  15.852 -0.4811 -1.3346  0.1686
 9462SOL     OW40018   2.358   2.489   3.364  0.3145 -0.3316 -0.0540
 9462SOL    HW140019   2.327   2.420   3.306  0.5352  2.4907 -3.5769
 9462SOL    HW240020   2.279   2.543   3.364 -0.6185 -1.7059  1.7624
 9463SOL     OW40021   4.727   1.698   5.766  0.1539  0.1143 -0.7602
 9463SOL    HW140022   0.066   1.738   5.807  1.3747 -1.2584 -1.7265
 9463SOL    HW240023   4.654   1.759   5.773  0.1775  0.0385  0.2043
 9464SOL     OW40024   2.790   4.032   8.682 -0.6578  0.3237  0.8195
 9464SOL    HW140025   2.835   3.970   8.739 -2.8250 -0.1403  1.9851
 9464SOL    HW240026   2.844   4.104   8.715 -1.7094  0.7200  1.6820
 9465SOL     OW40027   2.703   4.513   4.547  0.3456 -0.2607  0.6721
 9465SOL    HW140028   2.633   4.499   4.482  0.6073 -1.7714  0.7089
 9465SOL    HW240029   2.662   4.515   4.633  0.9613  0.0066  0.9605
 9466SOL     OW40030   2.358   2.253   2.129 -0.4118 -0.1736  0.4403
 9466SOL    HW140031   2.371   2.234   2.222  0.4277 -1.2501  0.1019
 9466SOL    HW240032   2.439   2.213   2.097 -0.7428  0.6255 -1.3686
 9467SOL     OW40033   2.066   1.861   1.838 -0.1804 -0.0062  0.0662
 9467SOL    HW140034   2.162   1.859   1.832 -0.0979  0.7469  1.1024
 9467SOL    HW240035   2.060   1.903   1.924  0.2431  0.4429 -0.1273
 9468SOL     OW40036   1.121   4.592  10.338  0.1730  0.3989 -1.0118
 9468SOL    HW140037   1.045   4.575  10.283  0.6581 -2.7290 -0.6952
 9468SOL    HW240038   1.181   4.616  10.267  3.7045  0.5205  2.0547
 9469SOL     OW40039   3.052   4.039   2.812 -0.1020 -0.3579 -0.1785
 9469SOL    HW140040   3.000   4.071   2.739  0.0299 -1.9587 -0.9937
 9469SOL    HW240041   3.045   3.943   2.808  1.6222 -0.4296 -1.7313
 9470SOL     OW40042   3.337   0.264  10.910  1.1088 -0.5765  0.4439
 9470SOL    HW140043   3.359   0.199  10.843 -0.1419 -0.0730 -0.4451
 9470SOL    HW240044   3.274   0.208  10.954 -0.1610  0.0091 -0.6265
 9471SOL     OW40045   1.416   3.381  14.851  0.0349 -0.7679  0.0581
 9471SOL    HW140046   1.326   3.395  14.879 -0.2205  0.4187 -1.3441
 9471SOL    HW240047   1.403   3.341  14.765  1.5183  0.0847 -0.5840
 9472SOL     OW40048   4.137   1.610   3.276  0.3044 -0.8596  0.0862
 9472SOL    HW140049   4.083   1.535   3.301 -2.5538  0.7700 -1.1682
 9472SOL    HW240050   4.173   1.579   3.193 -1.1967 -4.1483  0.6693
 9473SOL     OW40051   4.194   0.212   2.924 -0.2006 -0.9405  0.2910
 9473SOL    HW140052   4.202   0.246   3.013 -0.2732  0.4196 -0.2225
 9473SOL    HW240053   4.215   0.284   2.864 -0.8526  0.1204  1.3594
 9474SOL     OW40054   1.028   2.290   3.731 -0.1395  0.3840  0.3130
 9474SOL    HW140055   1.053   2.268   3.641  1.0755 -0.0616  0.7661
 9474SOL    HW240056   0.962   2.221   3.739 -0.2371  0.4077 -0.2413
 9475SOL     OW40057   3.267   4.496  10.722 -0.6772 -0.5487 -0.2495
 9475SOL    HW140058   3.338   4.487  10.658  0.7411  2.0325  0.9954
 9475SOL    HW240059   3.198   4.444  10.681 -2.1422  0.2836  1.2160
 9476SOL     OW40060   1.995   3.856   8.637  0.0891  0.0881 -0.0624
 9476SOL    HW140061   1.921   3.918   8.635 -0.5844 -0.5917  3.3129
 9476SOL    HW240062   1.983   3.820   8.549  2.1090 -1.2739  0.2416
 9477SOL     OW40063   0.402   3.054  13.961  0.5045 -0.1224  0.1408
 9477SOL    HW140064   0.378   3.100  13.881  0.1832  0.7919  0.7634
 9477SOL    HW240065   0.497   3.054  13.964  0.5939 -0.1123 -2.5418
 9478SOL     OW40066   3.927   1.476  11.084  0.3721 -0.0395  0.2038
 9478SOL    HW140067   3.882   1.488  11.167  0.1516  1.2125 -0.0989
 9478SOL    HW240068   3.986   1.550  11.073  1.0507 -0.6674 -0.3487
 9479SOL     OW40069   1.286   2.190   8.536  0.3690  0.2678 -0.2251
 9479SOL    HW140070   1.193   2.192   8.557  0.7536  0.2778  1.4605
 9479SOL    HW240071   1.307   2.097   8.551  3.1467  0.9713  0.3525
 9480SOL     OW40072   4.105   4.147  11.356 -0.1319  0.1554  0.1945
 9480SOL    HW140073   4.134   4.107  11.438 -1.9594 -0.1015  0.7325
 9480SOL    HW240074   4.172   4.216  11.353  1.2362 -1.1886  0.0108
 9481SOL     OW40075   4.130   1.120   8.226  0.3330  0.8637  0.0421
 9481SOL    HW140076   4.129   1.087   8.316  0.7568 -0.6713 -0.5238
 9481SOL    HW240077   4.226   1.128   8.225  0.3672  0.2628 -0.9558
 9482SOL     OW40078   4.161   1.788  16.891 -1.0103  0.3401  0.5357
 9482SOL    HW140079   4.183   1.881  16.880 -0.3409  0.2051  0.7368
 9482SOL    HW240080   4.140   1.783  16.984 -2.7457 -0.2550  0.1118
 9483SOL     OW40081   1.360   4.476   5.027 -0.0991  0.1664  0.4231
 9483SOL    HW140082   1.353   4.382   5.008  1.2652  0.2959 -0.7020
 9483SOL    HW240083   1.417   4.475   5.104 -0.6244  1.7140  0.8265
 9484SOL     OW40084   3.511   1.893  14.121 -0.8296  0.2151 -0.2966
 9484SOL    HW140085   3.465   1.809  14.116 -0.6069 -0.0313  1.6988
 9484SOL    HW240086   3.445   1.947  14.078 -1.2083 -1.0611 -1.3099
 9485SOL     OW40087   0.005   1.453   6.487  0.1967  0.0876 -0.0226
 9485SOL    HW140088   4.694   1.459   6.404  1.1020  4.2351 -0.2670
 9485SOL    HW240089   4.715   1.534   6.530  3.0978  0.3608  1.2825
 9486SOL     OW40090   0.187   2.066   1.574 -0.3895  0.0770  0.0003
 9486SOL    HW140091   0.170   2.134   1.509  1.5031  1.3653  0.8292
 9486SOL    HW240092   0.235   2.112   1.643 -1.0163  0.3778  0.2380
 9487SOL     OW40093   2.244   3.449   0.212 -0.7172  0.2867  0.1933
 9487SOL    HW140094   2.173   3.403   0.165 -1.2765 -0.2394  1.5327
 9487SOL    HW240095   2.239   3.536   0.173 -1.8150 -0.3010 -0.9993
 9488SOL     OW40096   1.968   2.344   8.616 -0.3288 -0.4929 -0.1822
 9488SOL    HW140097   1.954   2.414   8.680 -3.0081  0.4767 -1.8320
 9488SOL    HW240098   2.049   2.303   8.646 -0.3829 -0.1244  0.4781
 9489SOL     OW40099   1.085   3.891   4.519 -0.2206  0.3638  0.0138
 9489SOL    HW140100   1.147   3.960   4.497 -0.4446  0.6517  0.2910
 9489SOL    HW240101   1.003   3.940   4.521 -0.5075 -0.1435  0.9176
 9490SOL     OW40102   0.362   4.699   3.687  0.3751 -0.7424 -0.5193
 9490SOL    HW140103   0.349   0.054   3.664  1.2428  0.0180  2.0606
 9490SOL    HW240104   0.273   4.671   3.666 -1.0299  1.1409  2.9789
 9491SOL     OW40105   1.853   4.133   4.015 -0.1384  0.0764 -0.3265
 9491SOL    HW140106   1.878   4.149   4.106 -1.1145 -1.6090  0.2383
 9491SOL    HW240107   1.779   4.074   4.023  0.3967 -0.5924 -0.2623
 9492SOL     OW40108   3.229   2.146  16.601 -0.3960  0.4758  0.0053
 9492SOL    HW140109   3.154   2.194  16.567  0.1292  0.2193 -1.5190
 9492SOL    HW240110   3.293   2.146  16.530  0.3062  0.9252  0.6275
 9493SOL     OW40111   2.276   0.146   5.897 -0.0508  0.5395 -0.4406
 9493SOL    HW140112   2.217   0.200   5.844 -0.6980 -0.4870 -0.7507
 9493SOL    HW240113   2.351   0.204   5.911 -0.2474  1.0719 -1.5314
 9494SOL     OW40114   1.501   0.501   8.938 -0.1401  0.0641  0.2470
 9494SOL    HW140115   1.592   0.480   8.960 -0.7482 -0.4829  2.1966
 9494SOL    HW240116   1.504   0.510   8.842  0.0096  0.8662  0.3290
 9495SOL     OW40117   3.558   3.610   4.744 -0.1965  0.0304  0.1348
 9495SOL    HW140118   3.493   3.653   4.688  1.8243  1.0135 -1.4595
 9495SOL    HW240119   3.641   3.653   4.721  1.2888 -0.5168  4.4642
 9496SOL     OW40120   0.024   3.339   5.976  0.3738 -0.6789 -0.2672
 9496SOL    HW140121   0.029   3.299   6.063 -1.2502  0.8050  0.4973
 9496SOL    HW240122   0.072   3.420   5.990 -0.8424 -0.2448  1.4475
 9497SOL     OW40123   3.223   4.064   6.088  0.1626 -0.4832  0.7486
 9497SOL    HW140124   3.315   4.044   6.071  0.4221  1.0433  0.3403
 9497SOL    HW240125   3.225   4.030   6.178  1.5781 -2.0984  0.1204
 9498SOL     OW40126   0.902   3.818   5.715 -0.1498 -0.2376  0.5439
 9498SOL    HW140127   0.961   3.891   5.698 -0.8777 -0.0117 -1.0403
 9498SOL    HW240128   0.952   3.760   5.773 -1.0702 -2.9990 -1.4053
 9499SOL     OW40129   2.732   4.689   1.718 -0.0705  0.6369 -0.8059
 9499SOL    HW140130   2.767   0.039   1.734  1.2853  0.2287 -1.4653
 9499SOL    HW240131   2.781   4.632   1.776  0.5865  0.6066 -1.3864
 9500SOL     OW40132   2.890   0.690   5.133 -0.3776 -0.1787 -0.0890
 9500SOL    HW140133   2.811   0.653   5.172  0.4934 -2.4574 -0.4826
 9500SOL    HW240134   2.887   0.785   5.141 -0.8542 -0.1198 -0.9524
 9501SOL     OW40135   3.555   4.519   6.434  0.8182  0.4762  0.3673
 9501SOL    HW140136   3.497   4.570   6.490 -1.7616 -1.5927 -0.4612
 9501SOL    HW240137   3.641   4.549   6.464  0.6168  1.0092  0.4124
 9502SOL     OW40138   3.906   1.121   4.289 -0.4121  0.8095 -0.2660
 9502SOL    HW140139   3.883   1.202   4.336 -0.8349  1.9943 -2.5195
 9502SOL    HW240140   3.823   1.074   4.289  0.4639 -0.7380  1.8190
 9503SOL     OW40141   4.220   0.759   8.204 -0.1832  0.0507  0.0936
 9503SOL    HW140142   4.158   0.707   8.254  0.2490  0.8341  1.4530
 9503SOL    HW240143   4.292   0.738   8.264 -0.5339 -3.2911 -0.6859
 9504SOL     OW40144   3.224   0.860   2.127 -0.0708  0.9177  0.3361
 9504SOL    HW140145   3.173   0.780   2.140  0.7775  0.3291  0.0749
 9504SOL    HW240146   3.285   0.836   2.057  1.8418 -0.1979  2.3518
 9505SOL     OW40147   4.542   0.240   2.527  0.0877 -0.3264  0.0466
 9505SOL    HW140148   4.453   0.241   2.561  0.6190  1.7671  1.4189
 9505SOL    HW240149   4.539   0.170   2.462 -3.3134  0.7591 -0.9266
 9506SOL     OW40150   2.023   3.193   4.841 -0.4614 -0.3587  0.3375
 9506SOL    HW140151   2.050   3.114   4.889 -0.1668 -1.6454 -1.9272
 9506SOL    HW240152   2.059   3.179   4.753 -2.7570  1.3371 -0.8771
 9507SOL     OW40153   2.330   1.774  10.492  0.3322  0.3625 -0.4404
 9507SOL    HW140154   2.423   1.797  10.490 -0.3590  3.1830  0.1861
 9507SOL    HW240155   2.337   1.711  10.420  1.1597 -0.1101  0.0510
 9508SOL     OW40156   2.306   0.240  12.659 -0.5698 -0.3653  0.4322
 9508SOL    HW140157   2.220   0.278  12.679 -0.8504  0.8392 -3.1274
 9508SOL    HW240158   2.347   0.302  12.599  0.3964 -0.2134  1.2368
 9509SOL     OW40159   0.133   3.393   4.879 -0.2783 -0.0623  0.2379
 9509SOL    HW140160   0.071   3.321   4.875 -1.6759  1.2149 -1.3194
 9509SOL    HW240161   0.213   3.344   4.898  0.4488  1.0789  0.1850
 9510SOL     OW40162   3.295   2.687   9.377  0.3515 -0.2352 -0.4080
 9510SOL    HW140163   3.295   2.752   9.446 -1.5258 -1.3744  0.6805
 9510SOL    HW240164   3.297   2.740   9.297  0.2988  1.9370  1.0472
 9511SOL     OW40165   0.808   1.677   7.934 -0.4312 -0.5968  0.0819
 9511SOL    HW140166   0.825   1.730   8.012  0.9202 -1.3345  0.2788
 9511SOL    HW240167   0.813   1.739   7.861 -0.2049  1.9950  2.2642
 9512SOL     OW40168   1.240   4.167   6.556  0.5002  0.0614 -0.3261
 9512SOL    HW140169   1.249   4.112   6.634  2.7047  0.0878 -0.5448
 9512SOL    HW240170   1.210   4.247   6.599 -2.0491 -1.4812  0.7272
 9513SOL     OW40171   4.032   1.797   8.148  0.3012  0.0086  0.4034
 9513SOL    HW140172   4.067   1.791   8.059 -1.3815 -0.4904 -0.2395
 9513SOL    HW240173   4.092   1.859   8.188  1.8415 -1.1819 -0.0539
 9514SOL     OW40174   3.947   2.289  13.775 -0.0872 -0.3582  0.2392
 9514SOL    HW140175   3.954   2.377  13.738 -0.2169 -0.0266  1.0059
 9514SOL    HW240176   3.858   2.270  13.746 -0.2394 -0.2223  0.6188
 9515SOL     OW40177   1.615   1.818   5.304 -0.3584 -0.2463 -0.7028
 9515SOL    HW140178   1.542   1.797   5.246 -2.3990  0.7950  1.5053
 9515SOL    HW240179   1.632   1.729   5.333 -0.4438 -0.1721 -0.4272
 9516SOL     OW40180   4.106   0.719  17.605 -0.3875 -0.2062 -0.0412
 9516SOL    HW140181   4.191   0.749  17.573 -0.5923  0.0280 -0.3574
 9516SOL    HW240182   4.065   0.802  17.625  0.6082  0.3834 -0.4580
 9517SOL     OW40183   2.298   0.052   6.984  0.4120 -0.5244  0.5190
 9517SOL    HW140184   2.241   0.124   7.012 -1.7710 -1.5801 -1.2523
 9517SOL    HW240185   2.251   0.012   6.912 -0.5508  1.4190  0.0523
 9518SOL     OW40186   1.683   4.578   6.728  0.4863  0.1785  0.8420
 9518SOL    HW140187   1.706   4.583   6.635 -1.1075 -3.7588  0.2403
 9518SOL    HW240188   1.709   4.488   6.746  0.4053 -0.3251 -1.5221
 9519SOL     OW40189   0.972   1.603  15.746  0.7189  0.5319 -0.1810
 9519SOL    HW140190   0.889   1.562  15.723  1.0476  0.8068 -1.8823
 9519SOL    HW240191   1.003   1.616  15.656  0.8348  1.2204 -0.0444
 9520SOL     OW40192   2.482   2.252   0.393 -0.2968 -0.3565  0.3498
 9520SOL    HW140193   2.387   2.243   0.384 -0.0144 -3.1831  0.2557
 9520SOL    HW240194   2.486   2.343   0.422  1.9859 -0.4436  0.2352
 9521SOL     OW40195   0.766   2.488  12.573  0.0129  0.8296 -0.4035
 9521SOL    HW140196   0.855   2.458  12.555 -1.1075 -1.4416 -2.1261
 9521SOL    HW240197   0.773   2.581  12.551  1.3098  0.6707 -0.6705
 9522SOL     OW40198   3.159   4.544   2.716 -0.0217  0.4489  0.5414
 9522SOL    HW140199   3.178   4.585   2.800 -1.0087 -0.6171  1.2824
 9522SOL    HW240200   3.241   4.572   2.674 -0.8558  0.3791 -1.1456
 9523SOL     OW40201   3.400   1.047   2.441 -0.4098 -0.0097 -0.2480
 9523SOL    HW140202   3.364   1.128   2.477 -4.2396 -1.4019 -0.9956
 9523SOL    HW240203   3.429   1.073   2.354 -0.0379 -2.3901 -0.8206
 9524SOL     OW40204   0.189   1.984  10.022  0.1786  0.6065 -0.3405
 9524SOL    HW140205   0.118   1.971  10.085 -0.0822 -2.3349 -1.2514
 9524SOL    HW240206   0.237   2.060  10.054  0.7199 -0.8590  2.3698
 9525SOL     OW40207   2.470   1.879   8.296  0.0956  0.0268  0.2629
 9525SOL    HW140208   2.531   1.860   8.225 -0.0630 -1.8919  0.6381
 9525SOL    HW240209   2.487   1.970   8.271 -1.7703 -0.0327 -1.2037
 9526SOL     OW40210   3.686   1.458   8.800 -0.2877  0.4534 -0.1494
 9526SOL    HW140211   3.670   1.418   8.715 -0.9376  3.2545 -1.3365
 9526SOL    HW240212   3.661   1.546   8.772 -1.7815 -0.0210 -0.2910
 9527SOL     OW40213   0.016   0.122   7.339  0.1113  0.2609  0.1366
 9527SOL    HW140214   0.043   0.067   7.413  0.1859  2.0108  1.3967
 9527SOL    HW240215   4.729   0.052   7.279 -0.2806 -1.6545  2.5412
 9528SOL     OW40216   1.628   2.834  11.632 -0.0030  0.3442  0.0362
 9528SOL    HW140217   1.563   2.844  11.563  3.3535  1.9196 -2.8983
 9528SOL    HW240218   1.607   2.909  11.688 -1.7930 -0.1100 -0.0279
 9529SOL     OW40219   3.771   0.571  13.252 -0.3361  0.0940  0.4617
 9529SOL    HW140220   3.715   0.635  13.296 -2.8784 -1.4386 -0.5896
 9529SOL    HW240221   3.808   0.619  13.178  1.2441 -0.2951  0.9861
 9530SOL     OW40222   0.048   0.529  10.779  0.3954 -0.9970  0.3667
 9530SOL    HW140223   0.063   0.514  10.872 -1.4512  0.4320  0.8897
 9530SOL    HW240224   0.132   0.568  10.755 -0.4263  1.2917  1.2206
 9531SOL     OW40225   2.745   3.774   4.834 -0.0803  0.3334  0.2872
 9531SOL    HW140226   2.817   3.727   4.876 -1.3207 -2.3393 -0.5981
 9531SOL    HW240227   2.681   3.788   4.904 -0.5638  0.0671 -0.1001
 9532SOL     OW40228   2.542   1.969  14.459 -0.1006 -0.4798  0.4008
 9532SOL    HW140229   2.606   1.946  14.392 -0.1087 -1.3377  0.6779
 9532SOL    HW240230   2.597   2.020  14.517 -1.1887 -0.8206  1.7344
 9533SOL     OW40231   2.565   0.853   6.365  0.7265 -0.1247 -0.1324
 9533SOL    HW140232   2.537   0.924   6.308  0.5684  1.2816  1.7088
 9533SOL    HW240233   2.631   0.898   6.418  0.0147  1.9630 -1.0217
 9534SOL     OW40234   0.972   4.642   5.148  0.1664 -0.5350  0.2151
 9534SOL    HW140235   1.066   4.660   5.148  0.1635 -0.5228 -0.2581
 9534SOL    HW240236   0.932   4.693   5.078  2.8736 -0.0981 -1.0128
 9535SOL     OW40237   4.450   0.219   5.152  0.0995 -0.1113 -0.2913
 9535SOL    HW140238   4.540   0.186   5.151  0.0960 -0.1167 -0.4190
 9535SOL    HW240239   4.450   0.314   5.140 -1.8398 -0.3026 -1.8284
 9536SOL     OW40240   4.498   4.320   5.867 -0.3325 -0.0404 -0.4242
 9536SOL    HW140241   4.562   4.363   5.810  0.8348  0.6207  1.4024
 9536SOL    HW240242   4.456   4.276   5.793 -0.1916 -1.0322  0.0839
 9537SOL     OW40243   4.732   1.406   8.307 -0.6546  0.4378 -0.6543
 9537SOL    HW140244   0.020   1.493   8.338 -2.1948  1.3562 -1.9699
 9537SOL    HW240245   0.074   1.362   8.280  0.1521 -0.4188  3.1146
 9538SOL     OW40246   1.034   3.089   3.242  0.4293  0.1995 -0.3001
 9538SOL    HW140247   0.954   3.037   3.241  0.6814 -0.2083  0.4201
 9538SOL    HW240248   1.022   3.154   3.173 -0.4667 -0.9952 -1.2513
 9539SOL     OW40249   4.656   1.972  13.560  0.0655  0.0343 -0.1703
 9539SOL    HW140250   4.648   1.904  13.493 -1.7979 -0.1328  0.2067
 9539SOL    HW240251   4.589   1.940  13.621 -1.0830  0.7017 -1.0586
 9540SOL     OW40252   2.703   0.975   7.360  0.3150  0.6750  0.4564
 9540SOL    HW140253   2.697   0.987   7.455 -2.5689 -2.6469  0.7181
 9540SOL    HW240254   2.770   0.906   7.351 -1.8135 -1.3605  0.1817
 9541SOL     OW40255   4.431   4.001   7.376  0.3106 -0.2368 -0.1540
 9541SOL    HW140256   4.471   3.930   7.325 -0.6008 -2.1591  1.8275
 9541SOL    HW240257   4.346   3.960   7.388  0.8088 -1.1944  0.1098
 9542SOL     OW40258   0.952   2.922   2.941  0.1345  0.3574 -0.4273
 9542SOL    HW140259   0.973   2.861   2.871 -1.0944 -0.8542  0.2732
 9542SOL    HW240260   0.977   2.872   3.019 -2.1634 -1.4576 -0.8383
 9543SOL     OW40261   0.659   3.835  13.516  0.0907 -0.0079 -0.5946
 9543SOL    HW140262   0.587   3.787  13.555  0.6269 -1.8550 -1.9013
 9543SOL    HW240263   0.700   3.772  13.457  0.1693 -0.0052 -0.5434
 9544SOL     OW40264   1.155   4.485   2.095  0.5925  0.0158  0.7364
 9544SOL    HW140265   1.210   4.513   2.169 -0.1060  1.2123  0.8100
 9544SOL    HW240266   1.184   4.395   2.084 -0.4024 -0.1786 -0.2207
 9545SOL     OW40267   2.676   3.197   6.633 -0.5439 -0.4912 -0.0113
 9545SOL    HW140268   2.605   3.135   6.620 -1.1346  0.5967 -1.8988
 9545SOL    HW240269   2.672   3.214   6.728 -0.4262  1.9957 -0.4433
 9546SOL     OW40270   3.004   2.679  12.914  0.4928  0.0763 -1.1147
 9546SOL    HW140271   3.022   2.762  12.871  0.3818  0.4427 -0.4491
 9546SOL    HW240272   3.079   2.622  12.896  1.6252  1.6965 -1.5335
 9547SOL     OW40273   1.110   0.434   8.482 -0.1568  0.0949 -0.0318
 9547SOL    HW140274   1.127   0.505   8.420  0.5389  2.6605  3.1155
 9547SOL    HW240275   1.015   0.444   8.488 -0.1817 -0.4908  0.5600
 9548SOL     OW40276   3.413   3.108   7.318 -0.0075  0.5925  0.2418
 9548SOL    HW140277   3.419   3.078   7.227  0.7395  2.6340 -0.3939
 9548SOL    HW240278   3.323   3.141   7.315 -0.0823  0.3510 -0.1233
 9549SOL     OW40279   0.141   1.086   2.392 -0.3720 -0.1836  0.2278
 9549SOL    HW140280   0.150   1.112   2.300  1.8658  0.9805  0.7785
 9549SOL    HW240281   0.233   1.073   2.416 -0.6699 -1.4582  0.6809
 9550SOL     OW40282   3.255   3.467   3.323 -0.0936  0.0440 -0.4849
 9550SOL    HW140283   3.194   3.401   3.355  1.9710 -1.3348  0.6278
 9550SOL    HW240284   3.208   3.548   3.344 -0.3646  0.6643 -3.4514
 9551SOL     OW40285   4.192   4.330   2.293  0.5790  0.4548  0.1028
 9551SOL    HW140286   4.233   4.344   2.208  0.5103  1.0164  0.1620
 9551SOL    HW240287   4.164   4.239   2.279  2.3479 -0.3418  1.8223
 9552SOL     OW40288   4.613   3.839   6.983  0.0728  0.2201 -0.2666
 9552SOL    HW140289   4.689   3.806   7.031 -1.9768 -1.0256  2.1191
 9552SOL    HW240290   4.596   3.770   6.919 -0.6449  0.9061 -0.8116
 9553SOL     OW40291   2.664   2.723  17.263  0.2694 -0.3340 -0.0900
 9553SOL    HW140292   2.622   2.772  17.334 -0.4808 -0.5625 -0.3767
 9553SOL    HW240293   2.665   2.783  17.189  2.7340  0.1505  0.3433
 9554SOL     OW40294   0.634   1.002  11.759  0.0298  0.0063 -0.1806
 9554SOL    HW140295   0.656   0.978  11.849  0.0042  1.2828  0.1734
 9554SOL    HW240296   0.614   1.096  11.764  1.4009  0.4229 -2.4354
 9555SOL     OW40297   1.523   3.519  15.048 -0.0853  0.3964  0.3253
 9555SOL    HW140298   1.486   3.486  14.966  0.2046  0.2057  0.2725
 9555SOL    HW240299   1.543   3.433  15.084  2.2187  0.0497 -1.7640
 9556SOL     OW40300   4.321   3.834   6.911 -0.3948  0.0484 -0.1860
 9556SOL    HW140301   4.362   3.759   6.868  0.5372  0.4357  0.0366
 9556SOL    HW240302   4.383   3.904   6.894  1.7189 -1.7519  0.1536
 9557SOL     OW40303   0.183   1.880   5.842  0.2970 -0.2691 -0.7282
 9557SOL    HW140304   0.188   1.962   5.891  0.0723 -0.8126  0.2050
 9557SOL    HW240305   0.234   1.910   5.766  0.2556  1.6763  0.0014
 9558SOL     OW40306   1.628   2.647   6.222 -0.1174 -0.5078 -0.1446
 9558SOL    HW140307   1.620   2.715   6.289  2.3485 -0.4599  0.0906
 9558SOL    HW240308   1.540   2.610   6.219 -0.7609  1.1612 -1.9666
 9559SOL     OW40309   3.586   3.972   4.508  1.1030  0.5333  0.4001
 9559SOL    HW140310   3.596   3.964   4.603 -3.3456 -1.7287  0.6785
 9559SOL    HW240311   3.511   3.914   4.495  1.2812  0.8681 -2.1388
 9560SOL     OW40312   4.378   1.242   5.490 -0.4388  0.7428  0.0665
 9560SOL    HW140313   4.287   1.262   5.509 -0.3689  1.1764 -0.0679
 9560SOL    HW240314   4.407   1.311   5.430 -0.4597 -0.3674 -1.2232
 9561SOL     OW40315   1.715   4.030   5.745 -0.6353 -0.3584 -0.3650
 9561SOL    HW140316   1.692   3.994   5.659 -1.1249 -0.6574 -0.1050
 9561SOL    HW240317   1.729   4.122   5.724 -0.7238 -0.2087  0.2377
 9562SOL     OW40318   3.393   3.574   7.326 -0.6056 -0.1693 -0.2452
 9562SOL    HW140319   3.428   3.663   7.316  0.7651 -0.7131 -0.2925
 9562SOL    HW240320   3.463   3.518   7.290 -1.9832 -2.5462  0.7674
 9563SOL     OW40321   3.195   4.116   6.542 -0.0307 -0.0364 -0.0587
 9563SOL    HW140322   3.255   4.069   6.484 -1.1217 -0.5217 -0.7860
 9563SOL    HW240323   3.116   4.072   6.513  1.7726 -1.8115 -2.2417
 9564SOL     OW40324   0.580   1.133  12.125 -0.1561 -0.2487  0.4002
 9564SOL    HW140325   0.596   1.050  12.080  1.0173  0.6446 -0.8032
 9564SOL    HW240326   0.626   1.205  12.082  0.3354 -0.3434  0.7741
 9565SOL     OW40327   2.954   0.270   2.007 -0.7240  0.1550 -0.2221
 9565SOL    HW140328   2.957   0.329   2.082  0.7265 -1.1455  0.7544
 9565SOL    HW240329   2.964   0.184   2.050  1.1754  0.0447 -0.8687
 9566SOL     OW40330   4.020   4.704   5.043  0.4359 -0.1233  0.7872
 9566SOL    HW140331   4.107   4.723   5.078  1.6876 -0.9275 -1.9367
 9566SOL    HW240332   3.978   0.050   5.065 -1.6902 -2.0454  4.1688
 9567SOL     OW40333   0.792   2.263   2.446  0.0543  0.1255 -0.0241
 9567SOL    HW140334   0.812   2.337   2.389  1.3675 -0.3651 -0.1966
 9567SOL    HW240335   0.821   2.302   2.529  0.0843  0.0236  0.0137
 9568SOL     OW40336   2.777   2.778   2.279 -0.0148 -0.0963  0.5672
 9568SOL    HW140337   2.816   2.862   2.302 -1.4591  0.2270  1.8275
 9568SOL    HW240338   2.851   2.732   2.239  0.2179  1.2053 -0.4961
 9569SOL     OW40339   3.296   0.346   6.958 -0.4580  0.0113 -0.0630
 9569SOL    HW140340   3.257   0.431   6.977 -0.3983 -0.0655  0.3897
 9569SOL    HW240341   3.343   0.368   6.877  0.0347 -0.3416  0.1279
 9570SOL     OW40342   2.369   4.037   3.094  0.0934  0.0260  0.3467
 9570SOL    HW140343   2.417   4.106   3.140  0.9357 -1.5477  1.8469
 9570SOL    HW240344   2.338   3.985   3.169 -0.2688  0.4012  0.4591
 9571SOL     OW40345   1.310   3.591   9.457  0.4064 -0.4859 -0.2149
 9571SOL    HW140346   1.226   3.592   9.411  0.6785  0.4518 -0.6970
 9571SOL    HW240347   1.311   3.499   9.485 -0.3720 -0.1161  1.0047
   4.73741   4.73741  17.74789
